                         Program Version 5.0.4 -  RELEASE  -
|  1> ! ri-mp2 aug-cc-pvdz aug-cc-pvdz/c tightscf
|  2> %pal nprocs 16 end
|  3> %maxcore 3800
|  4> %base "DZ_P-Cl_5_AB"
|  5> %scf
|  6> STABPerform true
|  7> STABRestartUHFifUnstable true
|  8> end
|  9>
| 10> *xyz 0 1
| 11> Cl         0.000002    2.413132   -1.415598
| 12> Cl         2.909203   -1.670368    0.110137
| 13> Cl        -2.909199   -1.670376    0.110134
| 14> P        -0.000004    2.127799    0.634076
| 15> P         1.635645   -0.346713   -0.722868
| 16> P        -1.635642   -0.346718   -0.722869
| 17> C        -1.358977    0.800467    0.756072
| 18> C         1.358971    0.800467    0.756076
| 19> C         0.000003   -1.275017   -0.450153
| 20> O        -1.995208    0.742559    1.759388
| 21> O         1.995193    0.742554    1.759397
| 22> O         0.000005   -2.447814   -0.253350
| 23> *
| 24>
| 25> $new_job
| 26> ! ri-mp2 aug-cc-pvtz aug-cc-pvtz/c tightscf
| 27> %pal nprocs 16 end
| 28> %maxcore 3800
| 29> %base "TZ_P-Cl_5_AB"
| 30>
| 31> *xyz 0 1
| 32> Cl         0.000002    2.413132   -1.415598
| 33> Cl         2.909203   -1.670368    0.110137
| 34> Cl        -2.909199   -1.670376    0.110134
| 35> P        -0.000004    2.127799    0.634076
| 36> P         1.635645   -0.346713   -0.722868
| 37> P        -1.635642   -0.346718   -0.722869
| 38> C        -1.358977    0.800467    0.756072
| 39> C         1.358971    0.800467    0.756076
| 40> C         0.000003   -1.275017   -0.450153
| 41> O        -1.995208    0.742559    1.759388
| 42> O         1.995193    0.742554    1.759397
| 43> O         0.000005   -2.447814   -0.253350
| 44> *
| 45>
| 46> $new_job
| 47> ! ri-mp2 aug-cc-pvqz aug-cc-pvqz/c tightscf
| 48> %pal nprocs 16 end
| 49> %maxcore 3800
| 50> %base "QZ_P-Cl_5_AB"
| 51>
| 52> *xyz 0 1
| 53> Cl         0.000002    2.413132   -1.415598
| 54> Cl         2.909203   -1.670368    0.110137
| 55> Cl        -2.909199   -1.670376    0.110134
| 56> P        -0.000004    2.127799    0.634076
| 57> P         1.635645   -0.346713   -0.722868
| 58> P        -1.635642   -0.346718   -0.722869
| 59> C        -1.358977    0.800467    0.756072
| 60> C         1.358971    0.800467    0.756076
| 61> C         0.000003   -1.275017   -0.450153
| 62> O        -1.995208    0.742559    1.759388
| 63> O         1.995193    0.742554    1.759397
| 64> O         0.000005   -2.447814   -0.253350
| 65> *
| 66>
| 67>
| 68>
| 69>
| 70>                          ****END OF INPUT****
 Total Charge           Charge          ....    0
 Multiplicity           Mult            ....    1
 Number of Electrons    NEL             ....  138
MP2 TOTAL ENERGY:    -2740.738537683 Eh
FINAL SINGLE POINT ENERGY     -2740.738537682873
MP2 TOTAL ENERGY:    -2741.318474683 Eh
FINAL SINGLE POINT ENERGY     -2741.318474683466

CARTESIAN COORDINATES (ANGSTROEM)
---------------------------------
  Cl     0.000002    2.413132   -1.415598
  Cl     2.909203   -1.670368    0.110137
  Cl    -2.909199   -1.670376    0.110134
  P     -0.000004    2.127799    0.634076
  P      1.635645   -0.346713   -0.722868
  P     -1.635642   -0.346718   -0.722869
  C     -1.358977    0.800467    0.756072
  C      1.358971    0.800467    0.756076
  C      0.000003   -1.275017   -0.450153
  O     -1.995208    0.742559    1.759388
  O      1.995193    0.742554    1.759397
  O      0.000005   -2.447814   -0.253350

 Multiplicity           Mult            ....    1
 Number of Electrons    NEL             ....  138
 Basis Dimension        Dim             ....  984

ORBITAL ENERGIES
----------------

  NO   OCC          E(Eh)            E(eV)
   0   2.0000    -104.883772     -2854.0325
   1   2.0000    -104.863707     -2853.4865
   2   2.0000    -104.863707     -2853.4865
   3   2.0000     -80.055225     -2178.4134
   4   2.0000     -80.043384     -2178.0912
   5   2.0000     -80.043384     -2178.0912
   6   2.0000     -20.626043      -561.2632
   7   2.0000     -20.626042      -561.2631
   8   2.0000     -20.613846      -560.9313
   9   2.0000     -11.395921      -310.0988
  10   2.0000     -11.395917      -310.0987
  11   2.0000     -11.391243      -309.9715
  12   2.0000     -10.610253      -288.7197
  13   2.0000     -10.589919      -288.1663
  14   2.0000     -10.589919      -288.1663
  15   2.0000      -8.077006      -219.7865
  16   2.0000      -8.075537      -219.7465
  17   2.0000      -8.075515      -219.7459
  18   2.0000      -8.056790      -219.2364
  19   2.0000      -8.056790      -219.2364
  20   2.0000      -8.055166      -219.1922
  21   2.0000      -8.055166      -219.1922
  22   2.0000      -8.055053      -219.1891
  23   2.0000      -8.055053      -219.1891
  24   2.0000      -7.592895      -206.6132
  25   2.0000      -7.581559      -206.3047
  26   2.0000      -7.581552      -206.3045
  27   2.0000      -5.485662      -149.2725
  28   2.0000      -5.484579      -149.2430
  29   2.0000      -5.483880      -149.2240
  30   2.0000      -5.474926      -148.9803
  31   2.0000      -5.474926      -148.9803
  32   2.0000      -5.473972      -148.9543
  33   2.0000      -5.473967      -148.9542
  34   2.0000      -5.473292      -148.9359
  35   2.0000      -5.473287      -148.9357
  36   2.0000      -1.471004       -40.0281
  37   2.0000      -1.468151       -39.9504
  38   2.0000      -1.460029       -39.7294
  39   2.0000      -1.168171       -31.7875
  40   2.0000      -1.148945       -31.2644
  41   2.0000      -1.148694       -31.2576
  42   2.0000      -1.007048       -27.4032
  43   2.0000      -0.926578       -25.2135
  44   2.0000      -0.924232       -25.1496
  45   2.0000      -0.797246       -21.6942
  46   2.0000      -0.794433       -21.6176
  47   2.0000      -0.735907       -20.0250
  48   2.0000      -0.706078       -19.2134
  49   2.0000      -0.687530       -18.7086
  50   2.0000      -0.683312       -18.5939
  51   2.0000      -0.660382       -17.9699
  52   2.0000      -0.636654       -17.3242
  53   2.0000      -0.628057       -17.0903
  54   2.0000      -0.614246       -16.7145
  55   2.0000      -0.591189       -16.0871
  56   2.0000      -0.590345       -16.0641
  57   2.0000      -0.545428       -14.8419
  58   2.0000      -0.527919       -14.3654
  59   2.0000      -0.522069       -14.2062
  60   2.0000      -0.514148       -13.9907
  61   2.0000      -0.499780       -13.5997
  62   2.0000      -0.497784       -13.5454
  63   2.0000      -0.492388       -13.3985
  64   2.0000      -0.487694       -13.2708
  65   2.0000      -0.450472       -12.2580
  66   2.0000      -0.404042       -10.9946
  67   2.0000      -0.384623       -10.4661
  68   2.0000      -0.378745       -10.3062
  69   0.0000       0.009056         0.2464
  70   0.0000       0.027195         0.7400
  71   0.0000       0.034861         0.9486
  72   0.0000       0.035595         0.9686
  73   0.0000       0.036744         0.9999

MULLIKEN ATOMIC CHARGES
-----------------------
   0 Cl:   -0.489585
   1 Cl:   -0.449833
   2 Cl:   -0.449832
   3 P :    0.909669
   4 P :    0.911726
   5 P :    0.911727
   6 C :    0.355513
   7 C :    0.355516
   8 C :    0.304205
   9 O :   -0.791566
  10 O :   -0.791567
  11 O :   -0.775973
Sum of atomic charges:    0.0000000

LOEWDIN ATOMIC CHARGES
----------------------
   0 Cl:    0.768965
   1 Cl:    0.806707
   2 Cl:    0.806707
   3 P :    0.031267
   4 P :   -0.149328
   5 P :   -0.149327
   6 C :   -1.224779
   7 C :   -1.224778
   8 C :   -1.228571
   9 O :    0.529158
  10 O :    0.529159
  11 O :    0.504820

  Mayer bond orders larger than 0.100000
B(  0-Cl,  3-P ) :   0.7925 B(  1-Cl,  4-P ) :   0.9130 B(  2-Cl,  5-P ) :   0.9130
B(  3-P ,  6-C ) :   0.8669 B(  3-P ,  7-C ) :   0.8669 B(  4-P ,  7-C ) :   0.8389
B(  4-P ,  8-C ) :   0.8414 B(  5-P ,  6-C ) :   0.8389 B(  5-P ,  8-C ) :   0.8414
B(  6-C ,  9-O ) :   1.3198 B(  7-C , 10-O ) :   1.3198 B(  8-C , 11-O ) :   1.3580

MP2 TOTAL ENERGY:    -2741.514759795 Eh
FINAL SINGLE POINT ENERGY     -2741.514759795094

DIPOLE MOMENT
-------------
                                X             Y             Z
Electronic contribution:      0.00001       1.00015      -3.33939
Nuclear contribution   :     -0.00001      -0.04952       2.31864
                        -----------------------------------------
Total Dipole Moment    :      0.00000       0.95063      -1.02075
                        -----------------------------------------
Magnitude (a.u.)       :      1.39485
Magnitude (Debye)      :      3.54543

Rotational constants in cm-1:     0.018062     0.014402     0.010292
Rotational constants in MHz :   541.472971   431.763093   308.533212

                             ****ORCA TERMINATED NORMALLY****
TOTAL RUN TIME: 0 days 2 hours 7 minutes 12 seconds 959 msec
