                         Program Version 5.0.4 -  RELEASE  -
|  1> ! ri-mp2 aug-cc-pvdz aug-cc-pvdz/c tightscf
|  2> %pal nprocs 16 end
|  3> %maxcore 3800
|  4> %base "DZ_B-S_4_AB"
|  5> %scf
|  6> STABPerform true
|  7> STABRestartUHFifUnstable true
|  8> end
|  9>
| 10> *xyz 0 1
| 11> S        -0.596210   -1.424341   -0.223146
| 12> B        -1.571927    0.061947   -0.030711
| 13> S        -0.913435    1.690668   -0.454766
| 14> C         1.028000   -0.860692   -0.816610
| 15> C         1.958547   -0.396593    0.289960
| 16> H         0.876540   -0.080343   -1.561790
| 17> C         3.305978    0.062564   -0.249006
| 18> H         2.101963   -1.211236    1.004116
| 19> H         1.488982    0.419806    0.842537
| 20> C         4.247630    0.525493    0.851340
| 21> H         3.148930    0.875539   -0.963505
| 22> H         3.769833   -0.753225   -0.811144
| 23> H         3.818608    1.360946    1.407237
| 24> H         5.205006    0.852458    0.445200
| 25> H         4.444654   -0.278109    1.563182
| 26> H         1.450760   -1.720444   -1.336417
| 27> S        -3.263452   -0.064212    0.587148
| 28> H        -2.016056    2.401255   -0.182833
| 29> H        -3.300972   -1.394857    0.745096
| 30> *
| 31>
| 32> $new_job
| 33> ! ri-mp2 aug-cc-pvtz aug-cc-pvtz/c tightscf
| 34> %pal nprocs 16 end
| 35> %maxcore 3800
| 36> %base "TZ_B-S_4_AB"
| 37>
| 38> *xyz 0 1
| 39> S        -0.596210   -1.424341   -0.223146
| 40> B        -1.571927    0.061947   -0.030711
| 41> S        -0.913435    1.690668   -0.454766
| 42> C         1.028000   -0.860692   -0.816610
| 43> C         1.958547   -0.396593    0.289960
| 44> H         0.876540   -0.080343   -1.561790
| 45> C         3.305978    0.062564   -0.249006
| 46> H         2.101963   -1.211236    1.004116
| 47> H         1.488982    0.419806    0.842537
| 48> C         4.247630    0.525493    0.851340
| 49> H         3.148930    0.875539   -0.963505
| 50> H         3.769833   -0.753225   -0.811144
| 51> H         3.818608    1.360946    1.407237
| 52> H         5.205006    0.852458    0.445200
| 53> H         4.444654   -0.278109    1.563182
| 54> H         1.450760   -1.720444   -1.336417
| 55> S        -3.263452   -0.064212    0.587148
| 56> H        -2.016056    2.401255   -0.182833
| 57> H        -3.300972   -1.394857    0.745096
| 58> *
| 59>
| 60> $new_job
| 61> ! ri-mp2 aug-cc-pvqz aug-cc-pvqz/c tightscf
| 62> %pal nprocs 16 end
| 63> %maxcore 3800
| 64> %base "QZ_B-S_4_AB"
| 65>
| 66> *xyz 0 1
| 67> S        -0.596210   -1.424341   -0.223146
| 68> B        -1.571927    0.061947   -0.030711
| 69> S        -0.913435    1.690668   -0.454766
| 70> C         1.028000   -0.860692   -0.816610
| 71> C         1.958547   -0.396593    0.289960
| 72> H         0.876540   -0.080343   -1.561790
| 73> C         3.305978    0.062564   -0.249006
| 74> H         2.101963   -1.211236    1.004116
| 75> H         1.488982    0.419806    0.842537
| 76> C         4.247630    0.525493    0.851340
| 77> H         3.148930    0.875539   -0.963505
| 78> H         3.769833   -0.753225   -0.811144
| 79> H         3.818608    1.360946    1.407237
| 80> H         5.205006    0.852458    0.445200
| 81> H         4.444654   -0.278109    1.563182
| 82> H         1.450760   -1.720444   -1.336417
| 83> S        -3.263452   -0.064212    0.587148
| 84> H        -2.016056    2.401255   -0.182833
| 85> H        -3.300972   -1.394857    0.745096
| 86> *
| 87>
| 88>
| 89>
| 90>
| 91>                          ****END OF INPUT****
 Total Charge           Charge          ....    0
 Multiplicity           Mult            ....    1
 Number of Electrons    NEL             ....   88
MP2 TOTAL ENERGY:    -1376.396807695 Eh
FINAL SINGLE POINT ENERGY     -1376.396807694613
MP2 TOTAL ENERGY:    -1376.724032054 Eh
FINAL SINGLE POINT ENERGY     -1376.724032054454

CARTESIAN COORDINATES (ANGSTROEM)
---------------------------------
  S     -0.596210   -1.424341   -0.223146
  B     -1.571927    0.061947   -0.030711
  S     -0.913435    1.690668   -0.454766
  C      1.028000   -0.860692   -0.816610
  C      1.958547   -0.396593    0.289960
  H      0.876540   -0.080343   -1.561790
  C      3.305978    0.062564   -0.249006
  H      2.101963   -1.211236    1.004116
  H      1.488982    0.419806    0.842537
  C      4.247630    0.525493    0.851340
  H      3.148930    0.875539   -0.963505
  H      3.769833   -0.753225   -0.811144
  H      3.818608    1.360946    1.407237
  H      5.205006    0.852458    0.445200
  H      4.444654   -0.278109    1.563182
  H      1.450760   -1.720444   -1.336417
  S     -3.263452   -0.064212    0.587148
  H     -2.016056    2.401255   -0.182833
  H     -3.300972   -1.394857    0.745096

 Multiplicity           Mult            ....    1
 Number of Electrons    NEL             ....   88
 Basis Dimension        Dim             .... 1158

ORBITAL ENERGIES
----------------

  NO   OCC          E(Eh)            E(eV)
   0   2.0000     -91.960643     -2502.3763
   1   2.0000     -91.957128     -2502.2807
   2   2.0000     -91.949717     -2502.0790
   3   2.0000     -11.263388      -306.4924
   4   2.0000     -11.226878      -305.4989
   5   2.0000     -11.223985      -305.4202
   6   2.0000     -11.214736      -305.1685
   7   2.0000      -8.965776      -243.9712
   8   2.0000      -8.962115      -243.8716
   9   2.0000      -8.954511      -243.6646
  10   2.0000      -7.672711      -208.7851
  11   2.0000      -6.647364      -180.8840
  12   2.0000      -6.646420      -180.8583
  13   2.0000      -6.645886      -180.8438
  14   2.0000      -6.643694      -180.7841
  15   2.0000      -6.642768      -180.7589
  16   2.0000      -6.642209      -180.7437
  17   2.0000      -6.636035      -180.5757
  18   2.0000      -6.635134      -180.5512
  19   2.0000      -6.634784      -180.5416
  20   2.0000      -1.103038       -30.0152
  21   2.0000      -1.043829       -28.4040
  22   2.0000      -1.008277       -27.4366
  23   2.0000      -0.966224       -26.2923
  24   2.0000      -0.936595       -25.4861
  25   2.0000      -0.843569       -22.9547
  26   2.0000      -0.803465       -21.8634
  27   2.0000      -0.671636       -18.2761
  28   2.0000      -0.642274       -17.4772
  29   2.0000      -0.605041       -16.4640
  30   2.0000      -0.602308       -16.3896
  31   2.0000      -0.577751       -15.7214
  32   2.0000      -0.572536       -15.5795
  33   2.0000      -0.538330       -14.6487
  34   2.0000      -0.517687       -14.0870
  35   2.0000      -0.505965       -13.7680
  36   2.0000      -0.485345       -13.2069
  37   2.0000      -0.477286       -12.9876
  38   2.0000      -0.472140       -12.8476
  39   2.0000      -0.448941       -12.2163
  40   2.0000      -0.444802       -12.1037
  41   2.0000      -0.425787       -11.5863
  42   2.0000      -0.374466       -10.1897
  43   2.0000      -0.357466        -9.7271
  44   0.0000       0.024332         0.6621
  45   0.0000       0.029741         0.8093
  46   0.0000       0.030516         0.8304
  47   0.0000       0.032209         0.8764
  48   0.0000       0.040915         1.1133

MULLIKEN ATOMIC CHARGES
-----------------------
   0 S :   -0.101741
   1 B :   -0.048743
   2 S :    0.035285
   3 C :   -0.595144
   4 C :   -0.230138
   5 H :    0.279986
   6 C :   -0.402474
   7 H :    0.322410
   8 H :    0.271404
   9 C :   -0.872032
  10 H :    0.230304
  11 H :    0.234494
  12 H :    0.222951
  13 H :    0.268406
  14 H :    0.225971
  15 H :    0.346496
  16 S :   -0.119891
  17 H :   -0.102273
  18 H :    0.034730
Sum of atomic charges:    0.0000000

LOEWDIN ATOMIC CHARGES
----------------------
   0 S :    1.357155
   1 B :   -2.151026
   2 S :    1.635546
   3 C :    0.115738
   4 C :    0.408051
   5 H :   -0.400446
   6 C :    0.498191
   7 H :   -0.282072
   8 H :   -0.321840
   9 C :    0.929184
  10 H :   -0.270874
  11 H :   -0.270343
  12 H :   -0.282122
  13 H :   -0.281426
  14 H :   -0.282531
  15 H :   -0.357446
  16 S :    1.574874
  17 H :   -0.803516
  18 H :   -0.815098

  Mayer bond orders larger than 0.100000
B(  0-S ,  1-B ) :   1.3582 B(  0-S ,  3-C ) :   0.9228 B(  0-S ,  4-C ) :  -0.1639
B(  1-B ,  2-S ) :   1.1864 B(  1-B , 16-S ) :   1.0665 B(  2-S , 17-H ) :   1.1244
B(  3-C ,  4-C ) :   0.9083 B(  3-C ,  5-H ) :   0.8936 B(  3-C , 15-H ) :   0.8416
B(  4-C ,  6-C ) :   0.8417 B(  4-C ,  7-H ) :   0.8486 B(  4-C ,  8-H ) :   0.8842
B(  6-C ,  9-C ) :   0.9578 B(  6-C , 10-H ) :   0.8943 B(  6-C , 11-H ) :   0.8823
B(  9-C , 12-H ) :   0.9570 B(  9-C , 13-H ) :   1.0142 B(  9-C , 14-H ) :   0.9584
B( 16-S , 18-H ) :   1.0744

MP2 TOTAL ENERGY:    -1376.827408086 Eh
FINAL SINGLE POINT ENERGY     -1376.827408086101

DIPOLE MOMENT
-------------
                                X             Y             Z
Electronic contribution:    -21.73844      -0.40639      -1.26633
Nuclear contribution   :     22.28735       0.41351       1.17318
                        -----------------------------------------
Total Dipole Moment    :      0.54892       0.00712      -0.09315
                        -----------------------------------------
Magnitude (a.u.)       :      0.55681
Magnitude (Debye)      :      1.41529

Rotational constants in cm-1:     0.070840     0.017351     0.015208
Rotational constants in MHz :  2123.716574   520.174406   455.918182

                             ****ORCA TERMINATED NORMALLY****
TOTAL RUN TIME: 0 days 2 hours 37 minutes 32 seconds 430 msec
