                         Program Version 5.0.4 -  RELEASE  -
|  1> ! ri-mp2 aug-cc-pvdz aug-cc-pvdz/c tightscf
|  2> %pal nprocs 16 end
|  3> %maxcore 3800
|  4> %base "DZ_B-B_48_A"
|  5> %scf
|  6> STABPerform true
|  7> STABRestartUHFifUnstable true
|  8> end
|  9>
| 10> *xyz 0 2
| 11> B        -1.249612   -0.165563   -0.000020
| 12> S         0.479387   -0.068441    0.000007
| 13> H         0.680367    1.269677   -0.000007
| 14> H        -2.102504    0.653193   -0.000002
| 15> *
| 16>
| 17> $new_job
| 18> ! ri-mp2 aug-cc-pvtz aug-cc-pvtz/c tightscf
| 19> %pal nprocs 16 end
| 20> %maxcore 3800
| 21> %base "TZ_B-B_48_A"
| 22>
| 23> *xyz 0 2
| 24> B        -1.249612   -0.165563   -0.000020
| 25> S         0.479387   -0.068441    0.000007
| 26> H         0.680367    1.269677   -0.000007
| 27> H        -2.102504    0.653193   -0.000002
| 28> *
| 29>
| 30> $new_job
| 31> ! ri-mp2 aug-cc-pvqz aug-cc-pvqz/c tightscf
| 32> %pal nprocs 16 end
| 33> %maxcore 3800
| 34> %base "QZ_B-B_48_A"
| 35>
| 36> *xyz 0 2
| 37> B        -1.249612   -0.165563   -0.000020
| 38> S         0.479387   -0.068441    0.000007
| 39> H         0.680367    1.269677   -0.000007
| 40> H        -2.102504    0.653193   -0.000002
| 41> *
| 42>
| 43>
| 44>
| 45>
| 46>                          ****END OF INPUT****
 Total Charge           Charge          ....    0
 Multiplicity           Mult            ....    2
 Number of Electrons    NEL             ....   23
MP2 TOTAL ENERGY:     -423.548750399 Eh
FINAL SINGLE POINT ENERGY      -423.548750398518
MP2 TOTAL ENERGY:     -423.620457522 Eh
FINAL SINGLE POINT ENERGY      -423.620457521584

CARTESIAN COORDINATES (ANGSTROEM)
---------------------------------
  B     -1.249612   -0.165563   -0.000020
  S      0.479387   -0.068441    0.000007
  H      0.680367    1.269677   -0.000007
  H     -2.102504    0.653193   -0.000002

 Multiplicity           Mult            ....    2
 Number of Electrons    NEL             ....   23
 Basis Dimension        Dim             ....  256

ORBITAL ENERGIES
----------------
                 SPIN UP ORBITALS
  NO   OCC          E(Eh)            E(eV)
   0   1.0000     -91.972003     -2502.6854
   1   1.0000      -8.976807      -244.2713
   2   1.0000      -7.650781      -208.1883
   3   1.0000      -6.657573      -181.1618
   4   1.0000      -6.656928      -181.1442
   5   1.0000      -6.656336      -181.1281
   6   1.0000      -1.005695       -27.3663
   7   1.0000      -0.680874       -18.5275
   8   1.0000      -0.592263       -16.1163
   9   1.0000      -0.477028       -12.9806
  10   1.0000      -0.413415       -11.2496
  11   1.0000      -0.345611        -9.4046
  12   0.0000       0.026345         0.7169
  13   0.0000       0.037042         1.0080
  14   0.0000       0.037863         1.0303
  15   0.0000       0.038562         1.0493
  16   0.0000       0.062663         1.7052

                 SPIN DOWN ORBITALS
  NO   OCC          E(Eh)            E(eV)
   0   1.0000     -91.972587     -2502.7013
   1   1.0000      -8.977071      -244.2785
   2   1.0000      -7.631616      -207.6668
   3   1.0000      -6.659311      -181.2091
   4   1.0000      -6.658013      -181.1738
   5   1.0000      -6.657648      -181.1638
   6   1.0000      -0.997161       -27.1341
   7   1.0000      -0.633627       -17.2419
   8   1.0000      -0.575654       -15.6643
   9   1.0000      -0.468375       -12.7451
  10   1.0000      -0.415210       -11.2984
  11   0.0000       0.024896         0.6775
  12   0.0000       0.035045         0.9536
  13   0.0000       0.038222         1.0401
  14   0.0000       0.040127         1.0919
  15   0.0000       0.060051         1.6341

MULLIKEN ATOMIC CHARGES AND SPIN POPULATIONS
--------------------------------------------
   0 B :    0.194030    1.024382
   1 S :   -0.146044   -0.092151
   2 H :    0.121738    0.081945
   3 H :   -0.169724   -0.014176
Sum of atomic charges         :    0.0000000

LOEWDIN ATOMIC CHARGES AND SPIN POPULATIONS
-------------------------------------------
   0 B :   -0.332146    0.591936
   1 S :    1.510823    0.191980
   2 H :   -0.804302    0.034921
   3 H :   -0.374376    0.181163

  Mayer bond orders larger than 0.100000
B(  0-B ,  1-S ) :   1.4490 B(  0-B ,  3-H ) :   0.9355 B(  1-S ,  2-H ) :   0.9539

MP2 TOTAL ENERGY:     -423.644034824 Eh
FINAL SINGLE POINT ENERGY      -423.644034824486

DIPOLE MOMENT
-------------
                                X             Y             Z
Electronic contribution:      0.46859      -1.46339      -0.00001
Nuclear contribution   :     -0.41380       1.98088       0.00001
                        -----------------------------------------
Total Dipole Moment    :      0.05479       0.51749      -0.00000
                        -----------------------------------------
Magnitude (a.u.)       :      0.52038
Magnitude (Debye)      :      1.32271

Rotational constants in cm-1:     7.051937     0.577630     0.533898
Rotational constants in MHz : 211411.741319 17316.923001 16005.868163

                             ****ORCA TERMINATED NORMALLY****
TOTAL RUN TIME: 0 days 0 hours 5 minutes 39 seconds 718 msec
