                         Program Version 5.0.4 -  RELEASE  -
|  1> ! ri-mp2 aug-cc-pvdz aug-cc-pvdz/c tightscf
|  2> %pal nprocs 16 end
|  3> %maxcore 3800
|  4> %base "DZ_Si-Si_137_AB"
|  5>
|  6> *xyz 0 1
|  7> Si        -1.157945    1.975588    0.149041
|  8> Si         1.157943    1.975588   -0.149039
|  9> C         1.744712    0.242682    0.335991
| 10> H         1.818394    2.931212    0.766084
| 11> H         1.557473    2.293193   -1.537743
| 12> S         1.226247   -0.344152    1.768075
| 13> S         2.752311   -0.543115   -0.792647
| 14> C         3.089528   -2.132300   -0.038239
| 15> H         3.725239   -2.675814   -0.733678
| 16> H         2.159289   -2.671977    0.124625
| 17> H         3.596523   -2.000865    0.914733
| 18> C        -1.744715    0.242683   -0.335993
| 19> H        -1.818396    2.931214   -0.766080
| 20> H        -1.557475    2.293191    1.537746
| 21> S        -1.226248   -0.344150   -1.768076
| 22> S        -2.752309   -0.543118    0.792647
| 23> C        -3.089524   -2.132302    0.038238
| 24> H        -3.725233   -2.675819    0.733677
| 25> H        -2.159285   -2.671977   -0.124630
| 26> H        -3.596523   -2.000867   -0.914733
| 27> *
| 28>
| 29> $new_job
| 30> ! ri-mp2 aug-cc-pvtz aug-cc-pvtz/c tightscf
| 31> %pal nprocs 16 end
| 32> %maxcore 3800
| 33> %base "TZ_Si-Si_137_AB"
| 34>
| 35> *xyz 0 1
| 36> Si        -1.157945    1.975588    0.149041
| 37> Si         1.157943    1.975588   -0.149039
| 38> C         1.744712    0.242682    0.335991
| 39> H         1.818394    2.931212    0.766084
| 40> H         1.557473    2.293193   -1.537743
| 41> S         1.226247   -0.344152    1.768075
| 42> S         2.752311   -0.543115   -0.792647
| 43> C         3.089528   -2.132300   -0.038239
| 44> H         3.725239   -2.675814   -0.733678
| 45> H         2.159289   -2.671977    0.124625
| 46> H         3.596523   -2.000865    0.914733
| 47> C        -1.744715    0.242683   -0.335993
| 48> H        -1.818396    2.931214   -0.766080
| 49> H        -1.557475    2.293191    1.537746
| 50> S        -1.226248   -0.344150   -1.768076
| 51> S        -2.752309   -0.543118    0.792647
| 52> C        -3.089524   -2.132302    0.038238
| 53> H        -3.725233   -2.675819    0.733677
| 54> H        -2.159285   -2.671977   -0.124630
| 55> H        -3.596523   -2.000867   -0.914733
| 56> *
| 57>
| 58> $new_job
| 59> ! ri-mp2 aug-cc-pvqz aug-cc-pvqz/c tightscf
| 60> %pal nprocs 16 end
| 61> %maxcore 3800
| 62> %base "QZ_Si-Si_137_AB"
| 63>
| 64> *xyz 0 1
| 65> Si        -1.157945    1.975588    0.149041
| 66> Si         1.157943    1.975588   -0.149039
| 67> C         1.744712    0.242682    0.335991
| 68> H         1.818394    2.931212    0.766084
| 69> H         1.557473    2.293193   -1.537743
| 70> S         1.226247   -0.344152    1.768075
| 71> S         2.752311   -0.543115   -0.792647
| 72> C         3.089528   -2.132300   -0.038239
| 73> H         3.725239   -2.675814   -0.733678
| 74> H         2.159289   -2.671977    0.124625
| 75> H         3.596523   -2.000865    0.914733
| 76> C        -1.744715    0.242683   -0.335993
| 77> H        -1.818396    2.931214   -0.766080
| 78> H        -1.557475    2.293191    1.537746
| 79> S        -1.226248   -0.344150   -1.768076
| 80> S        -2.752309   -0.543118    0.792647
| 81> C        -3.089524   -2.132302    0.038238
| 82> H        -3.725233   -2.675819    0.733677
| 83> H        -2.159285   -2.671977   -0.124630
| 84> H        -3.596523   -2.000867   -0.914733
| 85> *
| 86>
| 87>
| 88>
| 89>
| 90>                          ****END OF INPUT****
 Total Charge           Charge          ....    0
 Multiplicity           Mult            ....    1
 Number of Electrons    NEL             ....  126
MP2 TOTAL ENERGY:    -2326.635714059 Eh
FINAL SINGLE POINT ENERGY     -2326.635714058692
MP2 TOTAL ENERGY:    -2327.051852322 Eh
FINAL SINGLE POINT ENERGY     -2327.051852322494

CARTESIAN COORDINATES (ANGSTROEM)
---------------------------------
  Si    -1.157945    1.975588    0.149041
  Si     1.157943    1.975588   -0.149039
  C      1.744712    0.242682    0.335991
  H      1.818394    2.931212    0.766084
  H      1.557473    2.293193   -1.537743
  S      1.226247   -0.344152    1.768075
  S      2.752311   -0.543115   -0.792647
  C      3.089528   -2.132300   -0.038239
  H      3.725239   -2.675814   -0.733678
  H      2.159289   -2.671977    0.124625
  H      3.596523   -2.000865    0.914733
  C     -1.744715    0.242683   -0.335993
  H     -1.818396    2.931214   -0.766080
  H     -1.557475    2.293191    1.537746
  S     -1.226248   -0.344150   -1.768076
  S     -2.752309   -0.543118    0.792647
  C     -3.089524   -2.132302    0.038238
  H     -3.725233   -2.675819    0.733677
  H     -2.159285   -2.671977   -0.124630
  H     -3.596523   -2.000867   -0.914733

 Multiplicity           Mult            ....    1
 Number of Electrons    NEL             ....  126
 Basis Dimension        Dim             .... 1284

ORBITAL ENERGIES
----------------

  NO   OCC          E(Eh)            E(eV)
   0   2.0000     -91.988401     -2503.1317
   1   2.0000     -91.988401     -2503.1317
   2   2.0000     -91.932047     -2501.5982
   3   2.0000     -91.932047     -2501.5982
   4   2.0000     -68.783738     -1871.7007
   5   2.0000     -68.783737     -1871.7006
   6   2.0000     -11.326002      -308.1962
   7   2.0000     -11.326001      -308.1962
   8   2.0000     -11.263012      -306.4821
   9   2.0000     -11.263012      -306.4821
  10   2.0000      -8.990874      -244.6541
  11   2.0000      -8.990874      -244.6541
  12   2.0000      -8.936034      -243.1618
  13   2.0000      -8.936033      -243.1618
  14   2.0000      -6.672336      -181.5635
  15   2.0000      -6.672336      -181.5635
  16   2.0000      -6.671037      -181.5281
  17   2.0000      -6.671036      -181.5281
  18   2.0000      -6.670773      -181.5210
  19   2.0000      -6.670773      -181.5210
  20   2.0000      -6.617224      -180.0638
  21   2.0000      -6.617224      -180.0638
  22   2.0000      -6.616372      -180.0406
  23   2.0000      -6.616372      -180.0406
  24   2.0000      -6.615127      -180.0068
  25   2.0000      -6.615127      -180.0068
  26   2.0000      -6.133995      -166.9145
  27   2.0000      -6.133844      -166.9104
  28   2.0000      -4.240242      -115.3829
  29   2.0000      -4.239989      -115.3760
  30   2.0000      -4.239963      -115.3753
  31   2.0000      -4.239849      -115.3721
  32   2.0000      -4.239786      -115.3704
  33   2.0000      -4.239452      -115.3614
  34   2.0000      -1.124339       -30.5948
  35   2.0000      -1.121062       -30.5057
  36   2.0000      -1.015897       -27.6440
  37   2.0000      -1.012129       -27.5414
  38   2.0000      -0.909241       -24.7417
  39   2.0000      -0.907134       -24.6844
  40   2.0000      -0.787875       -21.4392
  41   2.0000      -0.747895       -20.3513
  42   2.0000      -0.681792       -18.5525
  43   2.0000      -0.653593       -17.7852
  44   2.0000      -0.613922       -16.7057
  45   2.0000      -0.606975       -16.5166
  46   2.0000      -0.605751       -16.4833
  47   2.0000      -0.603724       -16.4282
  48   2.0000      -0.562226       -15.2989
  49   2.0000      -0.558432       -15.1957
  50   2.0000      -0.530403       -14.4330
  51   2.0000      -0.521257       -14.1841
  52   2.0000      -0.499836       -13.6012
  53   2.0000      -0.499454       -13.5908
  54   2.0000      -0.466773       -12.7016
  55   2.0000      -0.453987       -12.3536
  56   2.0000      -0.453077       -12.3288
  57   2.0000      -0.445858       -12.1324
  58   2.0000      -0.405148       -11.0246
  59   2.0000      -0.349577        -9.5125
  60   2.0000      -0.341416        -9.2904
  61   2.0000      -0.333134        -9.0650
  62   2.0000      -0.330662        -8.9978
  63   0.0000       0.022785         0.6200
  64   0.0000       0.027022         0.7353
  65   0.0000       0.028140         0.7657
  66   0.0000       0.033691         0.9168
  67   0.0000       0.037281         1.0145

MULLIKEN ATOMIC CHARGES
-----------------------
   0 Si:    0.961051
   1 Si:    0.961052
   2 C :   -0.537365
   3 H :   -0.333674
   4 H :   -0.246302
   5 S :   -0.156367
   6 S :    0.332568
   7 C :   -1.091663
   8 H :    0.431608
   9 H :    0.328139
  10 H :    0.312004
  11 C :   -0.537367
  12 H :   -0.333675
  13 H :   -0.246302
  14 S :   -0.156366
  15 S :    0.332570
  16 C :   -1.091663
  17 H :    0.431609
  18 H :    0.328140
  19 H :    0.312003
Sum of atomic charges:   -0.0000000

LOEWDIN ATOMIC CHARGES
----------------------
   0 Si:    0.362905
   1 Si:    0.362905
   2 C :   -1.401569
   3 H :   -0.265558
   4 H :   -0.263485
   5 S :    1.021999
   6 S :    1.200721
   7 C :    0.509916
   8 H :   -0.383980
   9 H :   -0.392282
  10 H :   -0.388667
  11 C :   -1.401568
  12 H :   -0.265559
  13 H :   -0.263485
  14 S :    1.022000
  15 S :    1.200721
  16 C :    0.509914
  17 H :   -0.383979
  18 H :   -0.392283
  19 H :   -0.388666

  Mayer bond orders larger than 0.100000
B(  0-Si,  1-Si) :   0.7897 B(  0-Si, 11-C ) :   0.6368 B(  0-Si, 12-H ) :   0.7201
B(  0-Si, 13-H ) :   0.8018 B(  1-Si,  2-C ) :   0.6368 B(  1-Si,  3-H ) :   0.7201
B(  1-Si,  4-H ) :   0.8018 B(  2-C ,  5-S ) :   1.4981 B(  2-C ,  6-S ) :   1.0703
B(  5-S ,  6-S ) :   0.1189 B(  6-S ,  7-C ) :   1.0525 B(  7-C ,  8-H ) :   0.8001
B(  7-C ,  9-H ) :   0.8870 B(  7-C , 10-H ) :   0.8974 B( 11-C , 14-S ) :   1.4981
B( 11-C , 15-S ) :   1.0703 B( 14-S , 15-S ) :   0.1189 B( 15-S , 16-C ) :   1.0525
B( 16-C , 17-H ) :   0.8001 B( 16-C , 18-H ) :   0.8870 B( 16-C , 19-H ) :   0.8974

MP2 TOTAL ENERGY:    -2327.187676220 Eh
FINAL SINGLE POINT ENERGY     -2327.187676219980

DIPOLE MOMENT
-------------
                                X             Y             Z
Electronic contribution:     -0.00000       3.71034      -0.00000
Nuclear contribution   :      0.00001      -4.32579       0.00000
                        -----------------------------------------
Total Dipole Moment    :      0.00000      -0.61545      -0.00000
                        -----------------------------------------
Magnitude (a.u.)       :      0.61545
Magnitude (Debye)      :      1.56434

Rotational constants in cm-1:     0.024989     0.013085     0.011578
Rotational constants in MHz :   749.152948   392.264959   347.099972

                             ****ORCA TERMINATED NORMALLY****
TOTAL RUN TIME: 0 days 1 hours 1 minutes 19 seconds 753 msec
