                         Program Version 5.0.4 -  RELEASE  -
|  1> ! ri-mp2 aug-cc-pvdz aug-cc-pvdz/c tightscf
|  2> %pal nprocs 16 end
|  3> %maxcore 3800
|  4> %base "DZ_B-Si_12_AB"
|  5> %scf
|  6> STABPerform true
|  7> STABRestartUHFifUnstable true
|  8> end
|  9>
| 10> *xyz 0 1
| 11> Si         0.428211    0.598116   -0.420756
| 12> B        -1.367352   -0.239646    0.026131
| 13> O        -2.266853   -0.696479   -0.897553
| 14> O        -1.713061   -0.366054    1.335874
| 15> C         1.822655   -0.389937    0.360802
| 16> C         1.851777   -1.860519   -0.051603
| 17> H         1.721383   -0.308781    1.446692
| 18> H         2.771867    0.090829    0.108450
| 19> H         1.959758   -1.969374   -1.132345
| 20> H         0.932084   -2.372453    0.237889
| 21> C         0.498440    2.387236    0.135399
| 22> H         1.468241    2.832597   -0.090808
| 23> H         0.336837    2.457501    1.212006
| 24> H        -0.268356    2.987759   -0.355218
| 25> H         2.680562   -2.395068    0.414779
| 26> H        -1.980319   -0.596523   -1.808096
| 27> H        -2.579443   -0.774517    1.456539
| 28> H         0.601262    0.552228   -1.904116
| 29> *
| 30>
| 31> $new_job
| 32> ! ri-mp2 aug-cc-pvtz aug-cc-pvtz/c tightscf
| 33> %pal nprocs 16 end
| 34> %maxcore 3800
| 35> %base "TZ_B-Si_12_AB"
| 36>
| 37> *xyz 0 1
| 38> Si         0.428211    0.598116   -0.420756
| 39> B        -1.367352   -0.239646    0.026131
| 40> O        -2.266853   -0.696479   -0.897553
| 41> O        -1.713061   -0.366054    1.335874
| 42> C         1.822655   -0.389937    0.360802
| 43> C         1.851777   -1.860519   -0.051603
| 44> H         1.721383   -0.308781    1.446692
| 45> H         2.771867    0.090829    0.108450
| 46> H         1.959758   -1.969374   -1.132345
| 47> H         0.932084   -2.372453    0.237889
| 48> C         0.498440    2.387236    0.135399
| 49> H         1.468241    2.832597   -0.090808
| 50> H         0.336837    2.457501    1.212006
| 51> H        -0.268356    2.987759   -0.355218
| 52> H         2.680562   -2.395068    0.414779
| 53> H        -1.980319   -0.596523   -1.808096
| 54> H        -2.579443   -0.774517    1.456539
| 55> H         0.601262    0.552228   -1.904116
| 56> *
| 57>
| 58> $new_job
| 59> ! ri-mp2 aug-cc-pvqz aug-cc-pvqz/c tightscf
| 60> %pal nprocs 16 end
| 61> %maxcore 3800
| 62> %base "QZ_B-Si_12_AB"
| 63>
| 64> *xyz 0 1
| 65> Si         0.428211    0.598116   -0.420756
| 66> B        -1.367352   -0.239646    0.026131
| 67> O        -2.266853   -0.696479   -0.897553
| 68> O        -1.713061   -0.366054    1.335874
| 69> C         1.822655   -0.389937    0.360802
| 70> C         1.851777   -1.860519   -0.051603
| 71> H         1.721383   -0.308781    1.446692
| 72> H         2.771867    0.090829    0.108450
| 73> H         1.959758   -1.969374   -1.132345
| 74> H         0.932084   -2.372453    0.237889
| 75> C         0.498440    2.387236    0.135399
| 76> H         1.468241    2.832597   -0.090808
| 77> H         0.336837    2.457501    1.212006
| 78> H        -0.268356    2.987759   -0.355218
| 79> H         2.680562   -2.395068    0.414779
| 80> H        -1.980319   -0.596523   -1.808096
| 81> H        -2.579443   -0.774517    1.456539
| 82> H         0.601262    0.552228   -1.904116
| 83> *
| 84>
| 85>
| 86>
| 87>
| 88>                          ****END OF INPUT****
 Total Charge           Charge          ....    0
 Multiplicity           Mult            ....    1
 Number of Electrons    NEL             ....   64
MP2 TOTAL ENERGY:     -584.552925698 Eh
FINAL SINGLE POINT ENERGY      -584.552925698199
MP2 TOTAL ENERGY:     -584.863494099 Eh
FINAL SINGLE POINT ENERGY      -584.863494099256

CARTESIAN COORDINATES (ANGSTROEM)
---------------------------------
  Si     0.428211    0.598116   -0.420756
  B     -1.367352   -0.239646    0.026131
  O     -2.266853   -0.696479   -0.897553
  O     -1.713061   -0.366054    1.335874
  C      1.822655   -0.389937    0.360802
  C      1.851777   -1.860519   -0.051603
  H      1.721383   -0.308781    1.446692
  H      2.771867    0.090829    0.108450
  H      1.959758   -1.969374   -1.132345
  H      0.932084   -2.372453    0.237889
  C      0.498440    2.387236    0.135399
  H      1.468241    2.832597   -0.090808
  H      0.336837    2.457501    1.212006
  H     -0.268356    2.987759   -0.355218
  H      2.680562   -2.395068    0.414779
  H     -1.980319   -0.596523   -1.808096
  H     -2.579443   -0.774517    1.456539
  H      0.601262    0.552228   -1.904116

 Multiplicity           Mult            ....    1
 Number of Electrons    NEL             ....   64
 Basis Dimension        Dim             .... 1070

ORBITAL ENERGIES
----------------

  NO   OCC          E(Eh)            E(eV)
   0   2.0000     -68.738058     -1870.4576
   1   2.0000     -20.570129      -559.7417
   2   2.0000     -20.563192      -559.5529
   3   2.0000     -11.214290      -305.1563
   4   2.0000     -11.200708      -304.7868
   5   2.0000     -11.197267      -304.6931
   6   2.0000      -7.629411      -207.6068
   7   2.0000      -6.089677      -165.7085
   8   2.0000      -4.196157      -114.1832
   9   2.0000      -4.195682      -114.1703
  10   2.0000      -4.195569      -114.1672
  11   2.0000      -1.385184       -37.6928
  12   2.0000      -1.343295       -36.5529
  13   2.0000      -1.018343       -27.7105
  14   2.0000      -0.940040       -25.5798
  15   2.0000      -0.838425       -22.8147
  16   2.0000      -0.771193       -20.9852
  17   2.0000      -0.735150       -20.0044
  18   2.0000      -0.668531       -18.1916
  19   2.0000      -0.607018       -16.5178
  20   2.0000      -0.598834       -16.2951
  21   2.0000      -0.574147       -15.6233
  22   2.0000      -0.563518       -15.3341
  23   2.0000      -0.560684       -15.2570
  24   2.0000      -0.553157       -15.0522
  25   2.0000      -0.550843       -14.9892
  26   2.0000      -0.508293       -13.8313
  27   2.0000      -0.501077       -13.6350
  28   2.0000      -0.490112       -13.3366
  29   2.0000      -0.443356       -12.0643
  30   2.0000      -0.417178       -11.3520
  31   2.0000      -0.393943       -10.7197
  32   0.0000       0.022063         0.6004
  33   0.0000       0.029700         0.8082
  34   0.0000       0.031813         0.8657
  35   0.0000       0.033481         0.9111
  36   0.0000       0.045758         1.2451

MULLIKEN ATOMIC CHARGES
-----------------------
   0 Si:    1.085553
   1 B :    1.284166
   2 O :   -1.175861
   3 O :   -0.997146
   4 C :   -0.530020
   5 C :   -0.903323
   6 H :    0.219326
   7 H :    0.229057
   8 H :    0.245765
   9 H :    0.254458
  10 C :   -1.111074
  11 H :    0.282213
  12 H :    0.253004
  13 H :    0.303490
  14 H :    0.305243
  15 H :    0.341164
  16 H :    0.311256
  17 H :   -0.397270
Sum of atomic charges:    0.0000000

LOEWDIN ATOMIC CHARGES
----------------------
   0 Si:    0.601196
   1 B :   -1.155456
   2 O :    1.313996
   3 O :    1.290873
   4 C :    0.520970
   5 C :    0.859369
   6 H :   -0.328330
   7 H :   -0.330834
   8 H :   -0.293639
   9 H :   -0.295911
  10 C :    0.941568
  11 H :   -0.346720
  12 H :   -0.344621
  13 H :   -0.349286
  14 H :   -0.281390
  15 H :   -0.819096
  16 H :   -0.802647
  17 H :   -0.180044

  Mayer bond orders larger than 0.100000
B(  0-Si,  1-B ) :   0.7936 B(  0-Si,  2-O ) :  -0.1568 B(  0-Si,  4-C ) :   0.7425
B(  0-Si, 10-C ) :   0.9214 B(  0-Si, 17-H ) :   0.7373 B(  1-B ,  2-O ) :   0.4535
B(  1-B ,  3-O ) :   0.3831 B(  2-O , 15-H ) :   0.9252 B(  3-O , 16-H ) :   0.9638
B(  4-C ,  5-C ) :   0.9202 B(  4-C ,  6-H ) :   0.9214 B(  4-C ,  7-H ) :   0.9220
B(  5-C ,  8-H ) :   0.9510 B(  5-C ,  9-H ) :   0.9228 B(  5-C , 14-H ) :   0.9589
B( 10-C , 11-H ) :   0.9303 B( 10-C , 12-H ) :   0.9330 B( 10-C , 13-H ) :   0.9414

MP2 TOTAL ENERGY:     -584.961139322 Eh
FINAL SINGLE POINT ENERGY      -584.961139321617

DIPOLE MOMENT
-------------
                                X             Y             Z
Electronic contribution:     -8.84020      -0.67251       0.12638
Nuclear contribution   :      8.81699       0.65615      -0.41028
                        -----------------------------------------
Total Dipole Moment    :     -0.02321      -0.01635      -0.28390
                        -----------------------------------------
Magnitude (a.u.)       :      0.28531
Magnitude (Debye)      :      0.72521

Rotational constants in cm-1:     0.071843     0.050034     0.037762
Rotational constants in MHz :  2153.804687  1499.991020  1132.071067

                             ****ORCA TERMINATED NORMALLY****
TOTAL RUN TIME: 0 days 3 hours 41 minutes 16 seconds 498 msec
