                         Program Version 5.0.4 -  RELEASE  -
|  1> ! ri-mp2 aug-cc-pvdz aug-cc-pvdz/c tightscf
|  2> %pal nprocs 16 end
|  3> %maxcore 3800
|  4> %base "DZ_B-S_19_AB"
|  5> %scf
|  6> STABPerform true
|  7> STABRestartUHFifUnstable true
|  8> end
|  9>
| 10> *xyz 0 1
| 11> B        -1.211334    0.027493    0.000013
| 12> S         0.547630   -0.089292   -0.000007
| 13> H        -1.760862    1.077499   -0.000002
| 14> H        -1.801648   -1.001624    0.000021
| 15> H         0.857096    1.215327    0.000028
| 16> *
| 17>
| 18> $new_job
| 19> ! ri-mp2 aug-cc-pvtz aug-cc-pvtz/c tightscf
| 20> %pal nprocs 16 end
| 21> %maxcore 3800
| 22> %base "TZ_B-S_19_AB"
| 23>
| 24> *xyz 0 1
| 25> B        -1.211334    0.027493    0.000013
| 26> S         0.547630   -0.089292   -0.000007
| 27> H        -1.760862    1.077499   -0.000002
| 28> H        -1.801648   -1.001624    0.000021
| 29> H         0.857096    1.215327    0.000028
| 30> *
| 31>
| 32> $new_job
| 33> ! ri-mp2 aug-cc-pvqz aug-cc-pvqz/c tightscf
| 34> %pal nprocs 16 end
| 35> %maxcore 3800
| 36> %base "QZ_B-S_19_AB"
| 37>
| 38> *xyz 0 1
| 39> B        -1.211334    0.027493    0.000013
| 40> S         0.547630   -0.089292   -0.000007
| 41> H        -1.760862    1.077499   -0.000002
| 42> H        -1.801648   -1.001624    0.000021
| 43> H         0.857096    1.215327    0.000028
| 44> *
| 45>
| 46>
| 47>
| 48>
| 49>                          ****END OF INPUT****
 Total Charge           Charge          ....    0
 Multiplicity           Mult            ....    1
 Number of Electrons    NEL             ....   24
MP2 TOTAL ENERGY:     -424.214677235 Eh
FINAL SINGLE POINT ENERGY      -424.214677234514
MP2 TOTAL ENERGY:     -424.292301468 Eh
FINAL SINGLE POINT ENERGY      -424.292301467878

CARTESIAN COORDINATES (ANGSTROEM)
---------------------------------
  B     -1.211334    0.027493    0.000013
  S      0.547630   -0.089292   -0.000007
  H     -1.760862    1.077499   -0.000002
  H     -1.801648   -1.001624    0.000021
  H      0.857096    1.215327    0.000028

 Multiplicity           Mult            ....    1
 Number of Electrons    NEL             ....   24
 Basis Dimension        Dim             ....  302

ORBITAL ENERGIES
----------------

  NO   OCC          E(Eh)            E(eV)
   0   2.0000     -91.962297     -2502.4213
   1   2.0000      -8.967450      -244.0167
   2   2.0000      -7.626134      -207.5177
   3   2.0000      -6.648941      -180.9269
   4   2.0000      -6.647890      -180.8983
   5   2.0000      -6.647728      -180.8939
   6   2.0000      -0.994358       -27.0579
   7   2.0000      -0.690017       -18.7763
   8   2.0000      -0.578412       -15.7394
   9   2.0000      -0.501851       -13.6561
  10   2.0000      -0.454239       -12.3605
  11   2.0000      -0.405894       -11.0449
  12   0.0000       0.026396         0.7183
  13   0.0000       0.033581         0.9138
  14   0.0000       0.037858         1.0302
  15   0.0000       0.038422         1.0455
  16   0.0000       0.059443         1.6175

MULLIKEN ATOMIC CHARGES
-----------------------
   0 B :    0.344991
   1 S :   -0.099855
   2 H :   -0.167125
   3 H :   -0.182436
   4 H :    0.104424
Sum of atomic charges:    0.0000000

LOEWDIN ATOMIC CHARGES
----------------------
   0 B :   -0.243301
   1 S :    1.643431
   2 H :   -0.282624
   3 H :   -0.314924
   4 H :   -0.802582

  Mayer bond orders larger than 0.100000
B(  0-B ,  1-S ) :   1.3479 B(  0-B ,  2-H ) :   0.9558 B(  0-B ,  3-H ) :   0.9597
B(  1-S ,  4-H ) :   0.9912

MP2 TOTAL ENERGY:     -424.317228733 Eh
FINAL SINGLE POINT ENERGY      -424.317228732502

DIPOLE MOMENT
-------------
                                X             Y             Z
Electronic contribution:      1.68615      -0.90105      -0.00002
Nuclear contribution   :     -1.71501       1.24907       0.00004
                        -----------------------------------------
Total Dipole Moment    :     -0.02886       0.34802       0.00001
                        -----------------------------------------
Magnitude (a.u.)       :      0.34922
Magnitude (Debye)      :      0.88764

Rotational constants in cm-1:     4.356377     0.517446     0.462510
Rotational constants in MHz : 130600.891292 15512.654585 13865.699468

                             ****ORCA TERMINATED NORMALLY****
TOTAL RUN TIME: 0 days 0 hours 3 minutes 17 seconds 819 msec
