                         Program Version 5.0.4 -  RELEASE  -
|  1> ! ri-mp2 aug-cc-pvdz aug-cc-pvdz/c tightscf
|  2> %pal nprocs 16 end
|  3> %maxcore 3800
|  4> %base "DZ_P-C_51_A"
|  5> %scf
|  6> STABPerform true
|  7> STABRestartUHFifUnstable true
|  8> end
|  9>
| 10> *xyz 0 2
| 11> C         1.431693   -0.796220    0.236050
| 12> P         0.000000    0.081102   -0.503506
| 13> H         1.346811   -0.872535    1.320042
| 14> H         2.347242   -0.259783   -0.011200
| 15> H         1.504596   -1.795766   -0.191722
| 16> C        -1.431688   -0.796228    0.236049
| 17> H        -1.504585   -1.795775   -0.191722
| 18> H        -2.347240   -0.259796   -0.011202
| 19> H        -1.346807   -0.872541    1.320042
| 20> C        -0.000005    1.632836    0.291095
| 21> H         0.919244    2.198670    0.369589
| 22> H        -0.919259    2.198662    0.369594
| 23> *
| 24>
| 25> $new_job
| 26> ! ri-mp2 aug-cc-pvtz aug-cc-pvtz/c tightscf
| 27> %pal nprocs 16 end
| 28> %maxcore 3800
| 29> %base "TZ_P-C_51_A"
| 30>
| 31> *xyz 0 2
| 32> C         1.431693   -0.796220    0.236050
| 33> P         0.000000    0.081102   -0.503506
| 34> H         1.346811   -0.872535    1.320042
| 35> H         2.347242   -0.259783   -0.011200
| 36> H         1.504596   -1.795766   -0.191722
| 37> C        -1.431688   -0.796228    0.236049
| 38> H        -1.504585   -1.795775   -0.191722
| 39> H        -2.347240   -0.259796   -0.011202
| 40> H        -1.346807   -0.872541    1.320042
| 41> C        -0.000005    1.632836    0.291095
| 42> H         0.919244    2.198670    0.369589
| 43> H        -0.919259    2.198662    0.369594
| 44> *
| 45>
| 46> $new_job
| 47> ! ri-mp2 aug-cc-pvqz aug-cc-pvqz/c tightscf
| 48> %pal nprocs 16 end
| 49> %maxcore 3800
| 50> %base "QZ_P-C_51_A"
| 51>
| 52> *xyz 0 2
| 53> C         1.431693   -0.796220    0.236050
| 54> P         0.000000    0.081102   -0.503506
| 55> H         1.346811   -0.872535    1.320042
| 56> H         2.347242   -0.259783   -0.011200
| 57> H         1.504596   -1.795766   -0.191722
| 58> C        -1.431688   -0.796228    0.236049
| 59> H        -1.504585   -1.795775   -0.191722
| 60> H        -2.347240   -0.259796   -0.011202
| 61> H        -1.346807   -0.872541    1.320042
| 62> C        -0.000005    1.632836    0.291095
| 63> H         0.919244    2.198670    0.369589
| 64> H        -0.919259    2.198662    0.369594
| 65> *
| 66>
| 67>
| 68>
| 69>
| 70>                          ****END OF INPUT****
 Total Charge           Charge          ....    0
 Multiplicity           Mult            ....    2
 Number of Electrons    NEL             ....   41
MP2 TOTAL ENERGY:     -459.525284089 Eh
FINAL SINGLE POINT ENERGY      -459.525284089184
MP2 TOTAL ENERGY:     -459.689704117 Eh
FINAL SINGLE POINT ENERGY      -459.689704117081

CARTESIAN COORDINATES (ANGSTROEM)
---------------------------------
  C      1.431693   -0.796220    0.236050
  P      0.000000    0.081102   -0.503506
  H      1.346811   -0.872535    1.320042
  H      2.347242   -0.259783   -0.011200
  H      1.504596   -1.795766   -0.191722
  C     -1.431688   -0.796228    0.236049
  H     -1.504585   -1.795775   -0.191722
  H     -2.347240   -0.259796   -0.011202
  H     -1.346807   -0.872541    1.320042
  C     -0.000005    1.632836    0.291095
  H      0.919244    2.198670    0.369589
  H     -0.919259    2.198662    0.369594

 Multiplicity           Mult            ....    2
 Number of Electrons    NEL             ....   41
 Basis Dimension        Dim             ....  692

ORBITAL ENERGIES
----------------
                 SPIN UP ORBITALS
  NO   OCC          E(Eh)            E(eV)
   0   1.0000     -79.928925     -2174.9766
   1   1.0000     -11.228979      -305.5561
   2   1.0000     -11.220900      -305.3362
   3   1.0000     -11.220891      -305.3360
   4   1.0000      -7.470981      -203.2957
   5   1.0000      -5.366190      -146.0214
   6   1.0000      -5.365210      -145.9948
   7   1.0000      -5.364047      -145.9631
   8   1.0000      -1.029420       -28.0119
   9   1.0000      -0.941588       -25.6219
  10   1.0000      -0.938306       -25.5326
  11   1.0000      -0.716789       -19.5048
  12   1.0000      -0.601105       -16.3569
  13   1.0000      -0.592186       -16.1142
  14   1.0000      -0.586027       -15.9466
  15   1.0000      -0.555854       -15.1256
  16   1.0000      -0.545900       -14.8547
  17   1.0000      -0.495207       -13.4753
  18   1.0000      -0.464656       -12.6439
  19   1.0000      -0.427214       -11.6251
  20   1.0000      -0.294260        -8.0072
  21   0.0000       0.028108         0.7649
  22   0.0000       0.032911         0.8956
  23   0.0000       0.032929         0.8960
  24   0.0000       0.041401         1.1266
  25   0.0000       0.049983         1.3601

                 SPIN DOWN ORBITALS
  NO   OCC          E(Eh)            E(eV)
   0   1.0000     -79.929035     -2174.9796
   1   1.0000     -11.219351      -305.2941
   2   1.0000     -11.219340      -305.2938
   3   1.0000     -11.207964      -304.9842
   4   1.0000      -7.471020      -203.2968
   5   1.0000      -5.366479      -146.0293
   6   1.0000      -5.365923      -146.0142
   7   1.0000      -5.363646      -145.9522
   8   1.0000      -1.013344       -27.5745
   9   1.0000      -0.938312       -25.5328
  10   1.0000      -0.881097       -23.9759
  11   1.0000      -0.703111       -19.1326
  12   1.0000      -0.591599       -16.0982
  13   1.0000      -0.587011       -15.9734
  14   1.0000      -0.583831       -15.8869
  15   1.0000      -0.555180       -15.1072
  16   1.0000      -0.542526       -14.7629
  17   1.0000      -0.477897       -13.0042
  18   1.0000      -0.457784       -12.4569
  19   1.0000      -0.328791        -8.9469
  20   0.0000       0.026493         0.7209
  21   0.0000       0.033010         0.8983
  22   0.0000       0.033075         0.9000
  23   0.0000       0.041003         1.1158
  24   0.0000       0.050053         1.3620

MULLIKEN ATOMIC CHARGES AND SPIN POPULATIONS
--------------------------------------------
   0 C :   -1.156140    0.040280
   1 P :    0.822973   -0.038823
   2 H :    0.284614    0.001817
   3 H :    0.339227   -0.007300
   4 H :    0.324272   -0.007092
   5 C :   -1.156142    0.040279
   6 H :    0.324268   -0.007092
   7 H :    0.339233   -0.007300
   8 H :    0.284618    0.001817
   9 C :   -1.276123    1.099610
  10 H :    0.434603   -0.058098
  11 H :    0.434596   -0.058098
Sum of atomic charges         :   -0.0000000

LOEWDIN ATOMIC CHARGES AND SPIN POPULATIONS
-------------------------------------------
   0 C :    0.765668    0.026499
   1 P :    0.861086    0.197029
   2 H :   -0.350241    0.009368
   3 H :   -0.365830    0.002364
   4 H :   -0.362689    0.007726
   5 C :    0.765668    0.026499
   6 H :   -0.362689    0.007726
   7 H :   -0.365830    0.002364
   8 H :   -0.350240    0.009368
   9 C :    0.623681    0.427212
  10 H :   -0.429292    0.141922
  11 H :   -0.429291    0.141922

  Mayer bond orders larger than 0.100000
B(  0-C ,  1-P ) :   0.9008 B(  0-C ,  2-H ) :   0.8994 B(  0-C ,  3-H ) :   0.8933
B(  0-C ,  4-H ) :   0.9076 B(  1-P ,  5-C ) :   0.9008 B(  1-P ,  9-C ) :   0.9253
B(  5-C ,  6-H ) :   0.9076 B(  5-C ,  7-H ) :   0.8933 B(  5-C ,  8-H ) :   0.8994
B(  9-C , 10-H ) :   0.8133 B(  9-C , 11-H ) :   0.8133

MP2 TOTAL ENERGY:     -459.739205473 Eh
FINAL SINGLE POINT ENERGY      -459.739205473068

DIPOLE MOMENT
-------------
                                X             Y             Z
Electronic contribution:     -0.00000       1.43674      -3.07794
Nuclear contribution   :      0.00000      -1.57559       3.54172
                        -----------------------------------------
Total Dipole Moment    :     -0.00000      -0.13885       0.46378
                        -----------------------------------------
Magnitude (a.u.)       :      0.48412
Magnitude (Debye)      :      1.23054

Rotational constants in cm-1:     0.212695     0.200246     0.124307
Rotational constants in MHz :  6376.438436  6003.221331  3726.628780

                             ****ORCA TERMINATED NORMALLY****
TOTAL RUN TIME: 0 days 1 hours 11 minutes 44 seconds 912 msec
