                         Program Version 5.0.4 -  RELEASE  -
|  1> ! ri-mp2 aug-cc-pvdz aug-cc-pvdz/c tightscf
|  2> %pal nprocs 16 end
|  3> %maxcore 3800
|  4> %base "DZ_P-S_4_A"
|  5> %scf
|  6> STABPerform true
|  7> STABRestartUHFifUnstable true
|  8> end
|  9>
| 10> *xyz 0 2
| 11> S         2.118936   -0.000001   -0.130635
| 12> O         0.835284   -0.000001    0.871679
| 13> C        -0.454697    0.000000    0.362649
| 14> F        -1.244808    0.000001    1.432173
| 15> Cl        -0.783936   -1.454438   -0.586727
| 16> Cl        -0.783934    1.454439   -0.586727
| 17> *
| 18>
| 19> $new_job
| 20> ! ri-mp2 aug-cc-pvtz aug-cc-pvtz/c tightscf
| 21> %pal nprocs 16 end
| 22> %maxcore 3800
| 23> %base "TZ_P-S_4_A"
| 24>
| 25> *xyz 0 2
| 26> S         2.118936   -0.000001   -0.130635
| 27> O         0.835284   -0.000001    0.871679
| 28> C        -0.454697    0.000000    0.362649
| 29> F        -1.244808    0.000001    1.432173
| 30> Cl        -0.783936   -1.454438   -0.586727
| 31> Cl        -0.783934    1.454439   -0.586727
| 32> *
| 33>
| 34> $new_job
| 35> ! ri-mp2 aug-cc-pvqz aug-cc-pvqz/c tightscf
| 36> %pal nprocs 16 end
| 37> %maxcore 3800
| 38> %base "QZ_P-S_4_A"
| 39>
| 40> *xyz 0 2
| 41> S         2.118936   -0.000001   -0.130635
| 42> O         0.835284   -0.000001    0.871679
| 43> C        -0.454697    0.000000    0.362649
| 44> F        -1.244808    0.000001    1.432173
| 45> Cl        -0.783936   -1.454438   -0.586727
| 46> Cl        -0.783934    1.454439   -0.586727
| 47> *
| 48>
| 49>
| 50>
| 51>
| 52>                          ****END OF INPUT****
 Total Charge           Charge          ....    0
 Multiplicity           Mult            ....    2
 Number of Electrons    NEL             ....   73
MP2 TOTAL ENERGY:    -1529.620276850 Eh
FINAL SINGLE POINT ENERGY     -1529.620276849637
MP2 TOTAL ENERGY:    -1529.968232346 Eh
FINAL SINGLE POINT ENERGY     -1529.968232346444

CARTESIAN COORDINATES (ANGSTROEM)
---------------------------------
  S      2.118936   -0.000001   -0.130635
  O      0.835284   -0.000001    0.871679
  C     -0.454697    0.000000    0.362649
  F     -1.244808    0.000001    1.432173
  Cl    -0.783936   -1.454438   -0.586727
  Cl    -0.783934    1.454439   -0.586727

 Multiplicity           Mult            ....    2
 Number of Electrons    NEL             ....   73
 Basis Dimension        Dim             ....  492

ORBITAL ENERGIES
----------------
                 SPIN UP ORBITALS
  NO   OCC          E(Eh)            E(eV)
   0   1.0000    -104.873030     -2853.7402
   1   1.0000    -104.873029     -2853.7402
   2   1.0000     -92.048615     -2504.7702
   3   1.0000     -26.355398      -717.1669
   4   1.0000     -20.664659      -562.3139
   5   1.0000     -11.529915      -313.7449
   6   1.0000     -10.599240      -288.4200
   7   1.0000     -10.599229      -288.4197
   8   1.0000      -9.045256      -246.1339
   9   1.0000      -8.066353      -219.4966
  10   1.0000      -8.066350      -219.4966
  11   1.0000      -8.064264      -219.4398
  12   1.0000      -8.064262      -219.4397
  13   1.0000      -8.064202      -219.4381
  14   1.0000      -8.064201      -219.4381
  15   1.0000      -6.740155      -183.4089
  16   1.0000      -6.722583      -182.9308
  17   1.0000      -6.720179      -182.8654
  18   1.0000      -1.696812       -46.1726
  19   1.0000      -1.482564       -40.3426
  20   1.0000      -1.200885       -32.6777
  21   1.0000      -1.132580       -30.8191
  22   1.0000      -1.022541       -27.8248
  23   1.0000      -0.880021       -23.9466
  24   1.0000      -0.781191       -21.2573
  25   1.0000      -0.774702       -21.0807
  26   1.0000      -0.764385       -20.8000
  27   1.0000      -0.684845       -18.6356
  28   1.0000      -0.647100       -17.6085
  29   1.0000      -0.619606       -16.8603
  30   1.0000      -0.563209       -15.3257
  31   1.0000      -0.520751       -14.1703
  32   1.0000      -0.505147       -13.7457
  33   1.0000      -0.488607       -13.2957
  34   1.0000      -0.469617       -12.7789
  35   1.0000      -0.450102       -12.2479
  36   1.0000      -0.409080       -11.1316
  37   0.0000       0.040017         1.0889
  38   0.0000       0.049228         1.3396
  39   0.0000       0.055268         1.5039
  40   0.0000       0.063264         1.7215
  41   0.0000       0.078606         2.1390

                 SPIN DOWN ORBITALS
  NO   OCC          E(Eh)            E(eV)
   0   1.0000    -104.872967     -2853.7385
   1   1.0000    -104.872967     -2853.7385
   2   1.0000     -92.039653     -2504.5263
   3   1.0000     -26.355483      -717.1692
   4   1.0000     -20.659003      -562.1600
   5   1.0000     -11.530339      -313.7565
   6   1.0000     -10.599185      -288.4185
   7   1.0000     -10.599175      -288.4182
   8   1.0000      -9.035369      -245.8649
   9   1.0000      -8.066065      -219.4888
  10   1.0000      -8.066062      -219.4887
  11   1.0000      -8.064221      -219.4386
  12   1.0000      -8.064220      -219.4386
  13   1.0000      -8.064171      -219.4372
  14   1.0000      -8.064169      -219.4372
  15   1.0000      -6.718905      -182.8307
  16   1.0000      -6.715085      -182.7268
  17   1.0000      -6.698694      -182.2807
  18   1.0000      -1.696711       -46.1698
  19   1.0000      -1.467630       -39.9362
  20   1.0000      -1.199162       -32.6309
  21   1.0000      -1.131895       -30.8004
  22   1.0000      -0.980783       -26.6884
  23   1.0000      -0.856936       -23.3184
  24   1.0000      -0.772160       -21.0115
  25   1.0000      -0.769655       -20.9434
  26   1.0000      -0.750035       -20.4095
  27   1.0000      -0.648566       -17.6484
  28   1.0000      -0.641822       -17.4649
  29   1.0000      -0.602912       -16.4061
  30   1.0000      -0.537703       -14.6316
  31   1.0000      -0.520174       -14.1547
  32   1.0000      -0.504610       -13.7311
  33   1.0000      -0.485608       -13.2141
  34   1.0000      -0.469067       -12.7639
  35   1.0000      -0.391901       -10.6642
  36   0.0000      -0.000297        -0.0081
  37   0.0000       0.041559         1.1309
  38   0.0000       0.049914         1.3582
  39   0.0000       0.057250         1.5578
  40   0.0000       0.063830         1.7369

MULLIKEN ATOMIC CHARGES AND SPIN POPULATIONS
--------------------------------------------
   0 S :    0.307072    0.964098
   1 O :   -0.559798    0.034562
   2 C :    1.065906   -0.011754
   3 F :   -0.537655   -0.000536
   4 Cl:   -0.137763    0.006816
   5 Cl:   -0.137763    0.006816
Sum of atomic charges         :    0.0000000

LOEWDIN ATOMIC CHARGES AND SPIN POPULATIONS
-------------------------------------------
   0 S :    0.570323    0.763641
   1 O :   -0.133713    0.208613
   2 C :   -3.051627    0.012744
   3 F :    0.622432   -0.001275
   4 Cl:    0.996292    0.008138
   5 Cl:    0.996292    0.008138

  Mayer bond orders larger than 0.100000
B(  0-S ,  1-O ) :   0.8453 B(  1-O ,  2-C ) :   0.8280 B(  2-C ,  3-F ) :   0.5615
B(  2-C ,  4-Cl) :   0.9034 B(  2-C ,  5-Cl) :   0.9034

MP2 TOTAL ENERGY:    -1530.083588471 Eh
FINAL SINGLE POINT ENERGY     -1530.083588471066

DIPOLE MOMENT
-------------
                                X             Y             Z
Electronic contribution:     -2.81505       0.00000      -0.64067
Nuclear contribution   :      3.12661      -0.00000       0.25796
                        -----------------------------------------
Total Dipole Moment    :      0.31156      -0.00000      -0.38271
                        -----------------------------------------
Magnitude (a.u.)       :      0.49350
Magnitude (Debye)      :      1.25437

Rotational constants in cm-1:     0.074050     0.054699     0.044301
Rotational constants in MHz :  2219.968878  1639.843922  1328.115221

                             ****ORCA TERMINATED NORMALLY****
TOTAL RUN TIME: 0 days 0 hours 21 minutes 7 seconds 877 msec
