                         Program Version 5.0.4 -  RELEASE  -
|  1> ! ri-mp2 aug-cc-pvdz aug-cc-pvdz/c tightscf
|  2> %pal nprocs 16 end
|  3> %maxcore 3800
|  4> %base "DZ_P-C_59_AB"
|  5>
|  6> *xyz 0 1
|  7> C         1.971829   -1.201463    0.037997
|  8> C         0.596666   -1.171079    0.026965
|  9> C         2.707377   -0.012970    0.013724
| 10> C         2.020850    1.200563   -0.018333
| 11> C         0.642562    1.223279   -0.029797
| 12> C        -0.088860    0.041057   -0.007974
| 13> H         0.113417    2.166373   -0.057406
| 14> H         2.493176   -2.150116    0.068409
| 15> H         0.044867   -2.101746    0.045359
| 16> P        -1.858150    0.124752   -0.016136
| 17> O        -2.414347    1.477368    0.027114
| 18> O        -2.390993   -0.804759    1.179513
| 19> N         4.083285   -0.041932    0.066977
| 20> H         4.535899   -0.900788   -0.192624
| 21> H         4.571842    0.786755   -0.223844
| 22> H         2.577896    2.129045   -0.032884
| 23> H        -2.627532   -0.278090    1.951193
| 24> O        -2.236582   -0.778867   -1.270197
| 25> H        -3.187481   -0.855449   -1.411940
| 26> *
| 27>
| 28> $new_job
| 29> ! ri-mp2 aug-cc-pvtz aug-cc-pvtz/c tightscf
| 30> %pal nprocs 16 end
| 31> %maxcore 3800
| 32> %base "TZ_P-C_59_AB"
| 33>
| 34> *xyz 0 1
| 35> C         1.971829   -1.201463    0.037997
| 36> C         0.596666   -1.171079    0.026965
| 37> C         2.707377   -0.012970    0.013724
| 38> C         2.020850    1.200563   -0.018333
| 39> C         0.642562    1.223279   -0.029797
| 40> C        -0.088860    0.041057   -0.007974
| 41> H         0.113417    2.166373   -0.057406
| 42> H         2.493176   -2.150116    0.068409
| 43> H         0.044867   -2.101746    0.045359
| 44> P        -1.858150    0.124752   -0.016136
| 45> O        -2.414347    1.477368    0.027114
| 46> O        -2.390993   -0.804759    1.179513
| 47> N         4.083285   -0.041932    0.066977
| 48> H         4.535899   -0.900788   -0.192624
| 49> H         4.571842    0.786755   -0.223844
| 50> H         2.577896    2.129045   -0.032884
| 51> H        -2.627532   -0.278090    1.951193
| 52> O        -2.236582   -0.778867   -1.270197
| 53> H        -3.187481   -0.855449   -1.411940
| 54> *
| 55>
| 56> $new_job
| 57> ! ri-mp2 aug-cc-pvqz aug-cc-pvqz/c tightscf
| 58> %pal nprocs 16 end
| 59> %maxcore 3800
| 60> %base "QZ_P-C_59_AB"
| 61>
| 62> *xyz 0 1
| 63> C         1.971829   -1.201463    0.037997
| 64> C         0.596666   -1.171079    0.026965
| 65> C         2.707377   -0.012970    0.013724
| 66> C         2.020850    1.200563   -0.018333
| 67> C         0.642562    1.223279   -0.029797
| 68> C        -0.088860    0.041057   -0.007974
| 69> H         0.113417    2.166373   -0.057406
| 70> H         2.493176   -2.150116    0.068409
| 71> H         0.044867   -2.101746    0.045359
| 72> P        -1.858150    0.124752   -0.016136
| 73> O        -2.414347    1.477368    0.027114
| 74> O        -2.390993   -0.804759    1.179513
| 75> N         4.083285   -0.041932    0.066977
| 76> H         4.535899   -0.900788   -0.192624
| 77> H         4.571842    0.786755   -0.223844
| 78> H         2.577896    2.129045   -0.032884
| 79> H        -2.627532   -0.278090    1.951193
| 80> O        -2.236582   -0.778867   -1.270197
| 81> H        -3.187481   -0.855449   -1.411940
| 82> *
| 83>
| 84>
| 85>
| 86>
| 87>                          ****END OF INPUT****
 Total Charge           Charge          ....    0
 Multiplicity           Mult            ....    1
 Number of Electrons    NEL             ....   90
MP2 TOTAL ENERGY:     -853.507868496 Eh
FINAL SINGLE POINT ENERGY      -853.507868496003
MP2 TOTAL ENERGY:     -854.024874656 Eh
FINAL SINGLE POINT ENERGY      -854.024874656029

CARTESIAN COORDINATES (ANGSTROEM)
---------------------------------
  C      1.971829   -1.201463    0.037997
  C      0.596666   -1.171079    0.026965
  C      2.707377   -0.012970    0.013724
  C      2.020850    1.200563   -0.018333
  C      0.642562    1.223279   -0.029797
  C     -0.088860    0.041057   -0.007974
  H      0.113417    2.166373   -0.057406
  H      2.493176   -2.150116    0.068409
  H      0.044867   -2.101746    0.045359
  P     -1.858150    0.124752   -0.016136
  O     -2.414347    1.477368    0.027114
  O     -2.390993   -0.804759    1.179513
  N      4.083285   -0.041932    0.066977
  H      4.535899   -0.900788   -0.192624
  H      4.571842    0.786755   -0.223844
  H      2.577896    2.129045   -0.032884
  H     -2.627532   -0.278090    1.951193
  O     -2.236582   -0.778867   -1.270197
  H     -3.187481   -0.855449   -1.411940

 Multiplicity           Mult            ....    1
 Number of Electrons    NEL             ....   90
 Basis Dimension        Dim             .... 1252

ORBITAL ENERGIES
----------------

  NO   OCC          E(Eh)            E(eV)
   0   2.0000     -80.057695     -2178.4806
   1   2.0000     -20.589888      -560.2793
   2   2.0000     -20.587381      -560.2111
   3   2.0000     -20.493311      -557.6513
   4   2.0000     -15.579057      -423.9277
   5   2.0000     -11.296764      -307.4006
   6   2.0000     -11.253084      -306.2120
   7   2.0000     -11.249277      -306.1084
   8   2.0000     -11.231929      -305.6363
   9   2.0000     -11.228999      -305.5566
  10   2.0000     -11.225815      -305.4700
  11   2.0000      -7.580272      -206.2697
  12   2.0000      -5.478673      -149.0823
  13   2.0000      -5.477985      -149.0635
  14   2.0000      -5.477027      -149.0375
  15   2.0000      -1.427749       -38.8510
  16   2.0000      -1.372899       -37.3585
  17   2.0000      -1.288594       -35.0644
  18   2.0000      -1.246419       -33.9168
  19   2.0000      -1.148237       -31.2451
  20   2.0000      -1.030550       -28.0427
  21   2.0000      -1.011504       -27.5244
  22   2.0000      -0.869156       -23.6509
  23   2.0000      -0.850705       -23.1489
  24   2.0000      -0.808512       -22.0007
  25   2.0000      -0.742098       -20.1935
  26   2.0000      -0.724087       -19.7034
  27   2.0000      -0.710608       -19.3366
  28   2.0000      -0.681697       -18.5499
  29   2.0000      -0.654496       -17.8097
  30   2.0000      -0.626542       -17.0491
  31   2.0000      -0.617672       -16.8077
  32   2.0000      -0.607281       -16.5249
  33   2.0000      -0.597534       -16.2597
  34   2.0000      -0.579441       -15.7674
  35   2.0000      -0.559897       -15.2356
  36   2.0000      -0.550269       -14.9736
  37   2.0000      -0.542857       -14.7719
  38   2.0000      -0.501907       -13.6576
  39   2.0000      -0.500489       -13.6190
  40   2.0000      -0.469253       -12.7690
  41   2.0000      -0.453335       -12.3359
  42   2.0000      -0.448988       -12.2176
  43   2.0000      -0.353245        -9.6123
  44   2.0000      -0.312462        -8.5025
  45   0.0000       0.017524         0.4769
  46   0.0000       0.027072         0.7367
  47   0.0000       0.029880         0.8131
  48   0.0000       0.039624         1.0782
  49   0.0000       0.041562         1.1309

MULLIKEN ATOMIC CHARGES
-----------------------
   0 C :   -0.214533
   1 C :   -0.499922
   2 C :    0.568865
   3 C :   -0.197254
   4 C :   -0.505588
   5 C :   -0.187221
   6 H :    0.264022
   7 H :    0.193153
   8 H :    0.215667
   9 P :    2.876280
  10 O :   -1.318363
  11 O :   -0.951604
  12 N :   -0.827375
  13 H :    0.283751
  14 H :    0.280592
  15 H :    0.216300
  16 H :    0.389419
  17 O :   -0.981664
  18 H :    0.395475
Sum of atomic charges:    0.0000000

LOEWDIN ATOMIC CHARGES
----------------------
   0 C :    0.353779
   1 C :    0.281593
   2 C :   -0.240071
   3 C :    0.355672
   4 C :    0.275017
   5 C :   -0.159864
   6 H :   -0.341580
   7 H :   -0.320501
   8 H :   -0.318872
   9 P :   -0.669852
  10 O :    0.323999
  11 O :    1.103556
  12 N :    1.279597
  13 H :   -0.498050
  14 H :   -0.497748
  15 H :   -0.320567
  16 H :   -0.866175
  17 O :    1.104131
  18 H :   -0.844064

  Mayer bond orders larger than 0.100000
B(  0-C ,  1-C ) :   1.2589 B(  0-C ,  2-C ) :   1.1481 B(  0-C ,  5-C ) :  -0.3157
B(  0-C ,  7-H ) :   1.0825 B(  0-C ,  8-H ) :  -0.1170 B(  1-C ,  5-C ) :   0.8938
B(  1-C ,  7-H ) :  -0.1786 B(  1-C ,  8-H ) :   1.0851 B(  1-C , 11-O ) :   0.1060
B(  2-C ,  3-C ) :   1.1586 B(  2-C ,  7-H ) :  -0.1298 B(  2-C , 12-N ) :   0.6868
B(  2-C , 15-H ) :  -0.1325 B(  3-C ,  4-C ) :   1.2995 B(  3-C ,  5-C ) :  -0.3255
B(  3-C ,  6-H ) :  -0.1005 B(  3-C , 15-H ) :   1.0608 B(  4-C ,  5-C ) :   0.8653
B(  4-C ,  6-H ) :   1.0053 B(  4-C , 10-O ) :   0.1386 B(  4-C , 15-H ) :  -0.1638
B(  5-C ,  6-H ) :  -0.1153 B(  5-C ,  8-H ) :  -0.1214 B(  5-C ,  9-P ) :   0.9005
B(  5-C , 10-O ) :  -0.1731 B(  9-P , 10-O ) :   1.1680 B(  9-P , 11-O ) :   0.5333
B(  9-P , 17-O ) :   0.4640 B( 11-O , 16-H ) :   0.9023 B( 12-N , 13-H ) :   0.9354
B( 12-N , 14-H ) :   0.9438 B( 17-O , 18-H ) :   0.9209

MP2 TOTAL ENERGY:     -854.192531041 Eh
FINAL SINGLE POINT ENERGY      -854.192531041119

DIPOLE MOMENT
-------------
                                X             Y             Z
Electronic contribution:     -8.65992       0.46693      -0.14141
Nuclear contribution   :      9.96409      -1.29351       0.15723
                        -----------------------------------------
Total Dipole Moment    :      1.30417      -0.82658       0.01581
                        -----------------------------------------
Magnitude (a.u.)       :      1.54414
Magnitude (Debye)      :      3.92489

Rotational constants in cm-1:     0.084545     0.018246     0.016608
Rotational constants in MHz :  2534.599113   546.998161   497.893938

                             ****ORCA TERMINATED NORMALLY****
TOTAL RUN TIME: 0 days 0 hours 50 minutes 59 seconds 193 msec
