                         Program Version 5.0.4 -  RELEASE  -
|  1> ! ri-mp2 aug-cc-pvdz aug-cc-pvdz/c tightscf
|  2> %pal nprocs 16 end
|  3> %maxcore 3800
|  4> %base "DZ_Si-Cl_32_AB"
|  5>
|  6> *xyz 0 1
|  7> Si         1.698045    0.994847    0.000004
|  8> C        -0.099806    0.584583   -0.000001
|  9> C        -0.591676   -0.643933    0.000006
| 10> Cl         2.812465   -0.739774    0.000000
| 11> C        -2.027414   -1.047899    0.000004
| 12> H        -2.245798   -1.651876   -0.879574
| 13> Cl        -3.188066    0.303067   -0.000009
| 14> H        -2.245804   -1.651865    0.879587
| 15> H        -0.802689    1.413816   -0.000009
| 16> H         0.081542   -1.497915    0.000014
| 17> H         2.069352    1.763742    1.202386
| 18> H         2.069355    1.763751   -1.202371
| 19> *
| 20>
| 21> $new_job
| 22> ! ri-mp2 aug-cc-pvtz aug-cc-pvtz/c tightscf
| 23> %pal nprocs 16 end
| 24> %maxcore 3800
| 25> %base "TZ_Si-Cl_32_AB"
| 26>
| 27> *xyz 0 1
| 28> Si         1.698045    0.994847    0.000004
| 29> C        -0.099806    0.584583   -0.000001
| 30> C        -0.591676   -0.643933    0.000006
| 31> Cl         2.812465   -0.739774    0.000000
| 32> C        -2.027414   -1.047899    0.000004
| 33> H        -2.245798   -1.651876   -0.879574
| 34> Cl        -3.188066    0.303067   -0.000009
| 35> H        -2.245804   -1.651865    0.879587
| 36> H        -0.802689    1.413816   -0.000009
| 37> H         0.081542   -1.497915    0.000014
| 38> H         2.069352    1.763742    1.202386
| 39> H         2.069355    1.763751   -1.202371
| 40> *
| 41>
| 42> $new_job
| 43> ! ri-mp2 aug-cc-pvqz aug-cc-pvqz/c tightscf
| 44> %pal nprocs 16 end
| 45> %maxcore 3800
| 46> %base "QZ_Si-Cl_32_AB"
| 47>
| 48> *xyz 0 1
| 49> Si         1.698045    0.994847    0.000004
| 50> C        -0.099806    0.584583   -0.000001
| 51> C        -0.591676   -0.643933    0.000006
| 52> Cl         2.812465   -0.739774    0.000000
| 53> C        -2.027414   -1.047899    0.000004
| 54> H        -2.245798   -1.651876   -0.879574
| 55> Cl        -3.188066    0.303067   -0.000009
| 56> H        -2.245804   -1.651865    0.879587
| 57> H        -0.802689    1.413816   -0.000009
| 58> H         0.081542   -1.497915    0.000014
| 59> H         2.069352    1.763742    1.202386
| 60> H         2.069355    1.763751   -1.202371
| 61> *
| 62>
| 63>
| 64>
| 65>
| 66>                          ****END OF INPUT****
 Total Charge           Charge          ....    0
 Multiplicity           Mult            ....    1
 Number of Electrons    NEL             ....   72
MP2 TOTAL ENERGY:    -1325.904380828 Eh
FINAL SINGLE POINT ENERGY     -1325.904380828211
MP2 TOTAL ENERGY:    -1326.172869654 Eh
FINAL SINGLE POINT ENERGY     -1326.172869654486

CARTESIAN COORDINATES (ANGSTROEM)
---------------------------------
  Si     1.698045    0.994847    0.000004
  C     -0.099806    0.584583   -0.000001
  C     -0.591676   -0.643933    0.000006
  Cl     2.812465   -0.739774    0.000000
  C     -2.027414   -1.047899    0.000004
  H     -2.245798   -1.651876   -0.879574
  Cl    -3.188066    0.303067   -0.000009
  H     -2.245804   -1.651865    0.879587
  H     -0.802689    1.413816   -0.000009
  H      0.081542   -1.497915    0.000014
  H      2.069352    1.763742    1.202386
  H      2.069355    1.763751   -1.202371

 Multiplicity           Mult            ....    1
 Number of Electrons    NEL             ....   72
 Basis Dimension        Dim             ....  768

ORBITAL ENERGIES
----------------

  NO   OCC          E(Eh)            E(eV)
   0   2.0000    -104.832431     -2852.6355
   1   2.0000    -104.826491     -2852.4738
   2   2.0000     -68.813764     -1872.5177
   3   2.0000     -11.307862      -307.7026
   4   2.0000     -11.266938      -306.5890
   5   2.0000     -11.228473      -305.5423
   6   2.0000     -10.558228      -287.3040
   7   2.0000     -10.554058      -287.1905
   8   2.0000      -8.025318      -218.3800
   9   2.0000      -8.023649      -218.3346
  10   2.0000      -8.023602      -218.3333
  11   2.0000      -8.020870      -218.2590
  12   2.0000      -8.019796      -218.2297
  13   2.0000      -8.019772      -218.2291
  14   2.0000      -6.159216      -167.6008
  15   2.0000      -4.266523      -116.0980
  16   2.0000      -4.265170      -116.0612
  17   2.0000      -4.265021      -116.0571
  18   2.0000      -1.158523       -31.5250
  19   2.0000      -1.098952       -29.9040
  20   2.0000      -1.058262       -28.7968
  21   2.0000      -0.936676       -25.4882
  22   2.0000      -0.779844       -21.2206
  23   2.0000      -0.714622       -19.4458
  24   2.0000      -0.643800       -17.5187
  25   2.0000      -0.642045       -17.4709
  26   2.0000      -0.608796       -16.5662
  27   2.0000      -0.539001       -14.6670
  28   2.0000      -0.531021       -14.4498
  29   2.0000      -0.523790       -14.2531
  30   2.0000      -0.491012       -13.3611
  31   2.0000      -0.452333       -12.3086
  32   2.0000      -0.451903       -12.2969
  33   2.0000      -0.447764       -12.1843
  34   2.0000      -0.446781       -12.1575
  35   2.0000      -0.389186       -10.5903
  36   0.0000       0.023282         0.6335
  37   0.0000       0.028395         0.7727
  38   0.0000       0.035785         0.9738
  39   0.0000       0.037108         1.0098
  40   0.0000       0.046446         1.2639

MULLIKEN ATOMIC CHARGES
-----------------------
   0 Si:    1.171355
   1 C :   -0.815158
   2 C :   -0.493532
   3 Cl:   -0.640112
   4 C :   -0.189698
   5 H :    0.291574
   6 Cl:   -0.339330
   7 H :    0.291575
   8 H :    0.523725
   9 H :    0.546836
  10 H :   -0.173618
  11 H :   -0.173619
Sum of atomic charges:   -0.0000000

LOEWDIN ATOMIC CHARGES
----------------------
   0 Si:   -0.017088
   1 C :    0.227006
   2 C :    0.148891
   3 Cl:    0.912609
   4 C :   -0.168301
   5 H :   -0.406068
   6 Cl:    1.184908
   7 H :   -0.406069
   8 H :   -0.489347
   9 H :   -0.398613
  10 H :   -0.293965
  11 H :   -0.293965

  Mayer bond orders larger than 0.100000
B(  0-Si,  1-C ) :   0.9906 B(  0-Si,  2-C ) :  -0.1101 B(  0-Si,  3-Cl) :   0.4050
B(  0-Si, 10-H ) :   0.8513 B(  0-Si, 11-H ) :   0.8513 B(  1-C ,  2-C ) :   1.5790
B(  1-C ,  4-C ) :  -0.1208 B(  1-C ,  8-H ) :   0.6902 B(  2-C ,  4-C ) :   0.8510
B(  2-C ,  9-H ) :   0.6899 B(  4-C ,  5-H ) :   0.8987 B(  4-C ,  6-Cl) :   0.8392
B(  4-C ,  7-H ) :   0.8987

MP2 TOTAL ENERGY:    -1326.260488476 Eh
FINAL SINGLE POINT ENERGY     -1326.260488475625

DIPOLE MOMENT
-------------
                                X             Y             Z
Electronic contribution:      0.43828      -0.95117      -0.00004
Nuclear contribution   :     -0.61323       0.67483       0.00004
                        -----------------------------------------
Total Dipole Moment    :     -0.17495      -0.27634       0.00001
                        -----------------------------------------
Magnitude (a.u.)       :      0.32706
Magnitude (Debye)      :      0.83133

Rotational constants in cm-1:     0.181634     0.021077     0.019077
Rotational constants in MHz :  5445.252304   631.873278   571.907182

                             ****ORCA TERMINATED NORMALLY****
TOTAL RUN TIME: 0 days 0 hours 11 minutes 11 seconds 447 msec
