                         Program Version 5.0.4 -  RELEASE  -
|  1> ! ri-mp2 aug-cc-pvdz aug-cc-pvdz/c tightscf
|  2> %pal nprocs 16 end
|  3> %maxcore 3800
|  4> %base "DZ_Si-Si_14_AB"
|  5> %scf
|  6> STABPerform true
|  7> STABRestartUHFifUnstable true
|  8> end
|  9>
| 10> *xyz 0 1
| 11> Si         1.279510    1.171798    0.000000
| 12> Si        -0.656965   -0.133907    0.000000
| 13> F        -0.656965   -1.082588    1.279631
| 14> H         1.286303    2.028340    1.205533
| 15> F        -0.656965   -1.082588   -1.279631
| 16> H         1.286303    2.028340   -1.205533
| 17> H        -1.935960    0.598722    0.000000
| 18> H         2.473078    0.300719    0.000000
| 19> *
| 20>
| 21> $new_job
| 22> ! ri-mp2 aug-cc-pvtz aug-cc-pvtz/c tightscf
| 23> %pal nprocs 16 end
| 24> %maxcore 3800
| 25> %base "TZ_Si-Si_14_AB"
| 26>
| 27> *xyz 0 1
| 28> Si         1.279510    1.171798    0.000000
| 29> Si        -0.656965   -0.133907    0.000000
| 30> F        -0.656965   -1.082588    1.279631
| 31> H         1.286303    2.028340    1.205533
| 32> F        -0.656965   -1.082588   -1.279631
| 33> H         1.286303    2.028340   -1.205533
| 34> H        -1.935960    0.598722    0.000000
| 35> H         2.473078    0.300719    0.000000
| 36> *
| 37>
| 38> $new_job
| 39> ! ri-mp2 aug-cc-pvqz aug-cc-pvqz/c tightscf
| 40> %pal nprocs 16 end
| 41> %maxcore 3800
| 42> %base "QZ_Si-Si_14_AB"
| 43>
| 44> *xyz 0 1
| 45> Si         1.279510    1.171798    0.000000
| 46> Si        -0.656965   -0.133907    0.000000
| 47> F        -0.656965   -1.082588    1.279631
| 48> H         1.286303    2.028340    1.205533
| 49> F        -0.656965   -1.082588   -1.279631
| 50> H         1.286303    2.028340   -1.205533
| 51> H        -1.935960    0.598722    0.000000
| 52> H         2.473078    0.300719    0.000000
| 53> *
| 54>
| 55>
| 56>
| 57>
| 58>                          ****END OF INPUT****
 Total Charge           Charge          ....    0
 Multiplicity           Mult            ....    1
 Number of Electrons    NEL             ....   50
MP2 TOTAL ENERGY:     -779.825327932 Eh
FINAL SINGLE POINT ENERGY      -779.825327931983
MP2 TOTAL ENERGY:     -780.075551128 Eh
FINAL SINGLE POINT ENERGY      -780.075551127516

CARTESIAN COORDINATES (ANGSTROEM)
---------------------------------
  Si     1.279510    1.171798    0.000000
  Si    -0.656965   -0.133907    0.000000
  F     -0.656965   -1.082588    1.279631
  H      1.286303    2.028340    1.205533
  F     -0.656965   -1.082588   -1.279631
  H      1.286303    2.028340   -1.205533
  H     -1.935960    0.598722    0.000000
  H      2.473078    0.300719    0.000000

 Multiplicity           Mult            ....    1
 Number of Electrons    NEL             ....   50
 Basis Dimension        Dim             ....  512

ORBITAL ENERGIES
----------------

  NO   OCC          E(Eh)            E(eV)
   0   2.0000     -68.849907     -1873.5012
   1   2.0000     -68.783020     -1871.6811
   2   2.0000     -26.295574      -715.5389
   3   2.0000     -26.295566      -715.5387
   4   2.0000      -6.189169      -168.4158
   5   2.0000      -6.134348      -166.9241
   6   2.0000      -4.297004      -116.9274
   7   2.0000      -4.296263      -116.9073
   8   2.0000      -4.295337      -116.8820
   9   2.0000      -4.240517      -115.3903
  10   2.0000      -4.240417      -115.3876
  11   2.0000      -4.240380      -115.3866
  12   2.0000      -1.608859       -43.7793
  13   2.0000      -1.590532       -43.2806
  14   2.0000      -0.806436       -21.9442
  15   2.0000      -0.739552       -20.1242
  16   2.0000      -0.719853       -19.5882
  17   2.0000      -0.699151       -19.0249
  18   2.0000      -0.685949       -18.6656
  19   2.0000      -0.665645       -18.1131
  20   2.0000      -0.647951       -17.6316
  21   2.0000      -0.566504       -15.4154
  22   2.0000      -0.502309       -13.6685
  23   2.0000      -0.502096       -13.6627
  24   2.0000      -0.426378       -11.6023
  25   0.0000       0.025590         0.6963
  26   0.0000       0.031721         0.8632
  27   0.0000       0.039051         1.0626
  28   0.0000       0.040697         1.1074
  29   0.0000       0.052258         1.4220

MULLIKEN ATOMIC CHARGES
-----------------------
   0 Si:    0.348006
   1 Si:    1.673478
   2 F :   -0.697164
   3 H :   -0.146363
   4 F :   -0.697164
   5 H :   -0.146363
   6 H :   -0.196825
   7 H :   -0.137605
Sum of atomic charges:    0.0000000

LOEWDIN ATOMIC CHARGES
----------------------
   0 Si:    1.082818
   1 Si:   -0.555673
   2 F :    0.371211
   3 H :   -0.325419
   4 F :    0.371211
   5 H :   -0.325419
   6 H :   -0.298886
   7 H :   -0.319843

  Mayer bond orders larger than 0.100000
B(  0-Si,  1-Si) :   0.8544 B(  0-Si,  3-H ) :   0.8133 B(  0-Si,  5-H ) :   0.8133
B(  0-Si,  7-H ) :   0.8104 B(  1-Si,  2-F ) :   0.3802 B(  1-Si,  4-F ) :   0.3802
B(  1-Si,  6-H ) :   0.9294

MP2 TOTAL ENERGY:     -780.159570381 Eh
FINAL SINGLE POINT ENERGY      -780.159570380895

DIPOLE MOMENT
-------------
                                X             Y             Z
Electronic contribution:     -4.01919      -5.98854      -0.00000
Nuclear contribution   :      4.17838       6.72379       0.00000
                        -----------------------------------------
Total Dipole Moment    :      0.15919       0.73524      -0.00000
                        -----------------------------------------
Magnitude (a.u.)       :      0.75228
Magnitude (Debye)      :      1.91214

Rotational constants in cm-1:     0.214203     0.093947     0.072967
Rotational constants in MHz :  6421.659333  2816.457853  2187.486653

                             ****ORCA TERMINATED NORMALLY****
TOTAL RUN TIME: 0 days 0 hours 11 minutes 52 seconds 234 msec
