                         Program Version 5.0.4 -  RELEASE  -
|  1> ! ri-mp2 aug-cc-pvdz aug-cc-pvdz/c tightscf
|  2> %pal nprocs 16 end
|  3> %maxcore 3800
|  4> %base "DZ_Si-F_6_A"
|  5> %scf
|  6> STABPerform true
|  7> STABRestartUHFifUnstable true
|  8> end
|  9>
| 10> *xyz 0 2
| 11> Si        -0.722149   -0.570236    0.106320
| 12> C         1.058764   -0.344304   -0.478918
| 13> F        -1.523754    0.791660   -0.158006
| 14> H         1.098374    0.044253   -1.498349
| 15> H         1.597623   -1.294539   -0.451692
| 16> F         1.726676    0.557053    0.354811
| 17> H        -0.764793   -0.838999    1.563829
| 18> *
| 19>
| 20> $new_job
| 21> ! ri-mp2 aug-cc-pvtz aug-cc-pvtz/c tightscf
| 22> %pal nprocs 16 end
| 23> %maxcore 3800
| 24> %base "TZ_Si-F_6_A"
| 25>
| 26> *xyz 0 2
| 27> Si        -0.722149   -0.570236    0.106320
| 28> C         1.058764   -0.344304   -0.478918
| 29> F        -1.523754    0.791660   -0.158006
| 30> H         1.098374    0.044253   -1.498349
| 31> H         1.597623   -1.294539   -0.451692
| 32> F         1.726676    0.557053    0.354811
| 33> H        -0.764793   -0.838999    1.563829
| 34> *
| 35>
| 36> $new_job
| 37> ! ri-mp2 aug-cc-pvqz aug-cc-pvqz/c tightscf
| 38> %pal nprocs 16 end
| 39> %maxcore 3800
| 40> %base "QZ_Si-F_6_A"
| 41>
| 42> *xyz 0 2
| 43> Si        -0.722149   -0.570236    0.106320
| 44> C         1.058764   -0.344304   -0.478918
| 45> F        -1.523754    0.791660   -0.158006
| 46> H         1.098374    0.044253   -1.498349
| 47> H         1.597623   -1.294539   -0.451692
| 48> F         1.726676    0.557053    0.354811
| 49> H        -0.764793   -0.838999    1.563829
| 50> *
| 51>
| 52>
| 53>
| 54>
| 55>                          ****END OF INPUT****
 Total Charge           Charge          ....    0
 Multiplicity           Mult            ....    2
 Number of Electrons    NEL             ....   41
MP2 TOTAL ENERGY:     -528.092245958 Eh
FINAL SINGLE POINT ENERGY      -528.092245958283
MP2 TOTAL ENERGY:     -528.332210440 Eh
FINAL SINGLE POINT ENERGY      -528.332210439598

CARTESIAN COORDINATES (ANGSTROEM)
---------------------------------
  Si    -0.722149   -0.570236    0.106320
  C      1.058764   -0.344304   -0.478918
  F     -1.523754    0.791660   -0.158006
  H      1.098374    0.044253   -1.498349
  H      1.597623   -1.294539   -0.451692
  F      1.726676    0.557053    0.354811
  H     -0.764793   -0.838999    1.563829

 Multiplicity           Mult            ....    2
 Number of Electrons    NEL             ....   41
 Basis Dimension        Dim             ....  462

ORBITAL ENERGIES
----------------
                 SPIN UP ORBITALS
  NO   OCC          E(Eh)            E(eV)
   0   1.0000     -68.831478     -1872.9997
   1   1.0000     -26.291804      -715.4364
   2   1.0000     -26.287143      -715.3095
   3   1.0000     -11.311130      -307.7915
   4   1.0000      -6.176469      -168.0703
   5   1.0000      -4.288688      -116.7011
   6   1.0000      -4.279942      -116.4632
   7   1.0000      -4.278839      -116.4331
   8   1.0000      -1.597131       -43.4601
   9   1.0000      -1.594184       -43.3799
  10   1.0000      -0.964881       -26.2558
  11   1.0000      -0.776508       -21.1299
  12   1.0000      -0.709483       -19.3060
  13   1.0000      -0.705258       -19.1910
  14   1.0000      -0.683120       -18.5886
  15   1.0000      -0.677434       -18.4339
  16   1.0000      -0.666508       -18.1366
  17   1.0000      -0.599679       -16.3181
  18   1.0000      -0.544333       -14.8121
  19   1.0000      -0.478341       -13.0163
  20   1.0000      -0.361392        -9.8340
  21   0.0000       0.023683         0.6444
  22   0.0000       0.034267         0.9325
  23   0.0000       0.035986         0.9792
  24   0.0000       0.045457         1.2370
  25   0.0000       0.057130         1.5546

                 SPIN DOWN ORBITALS
  NO   OCC          E(Eh)            E(eV)
   0   1.0000     -68.825878     -1872.8473
   1   1.0000     -26.288865      -715.3564
   2   1.0000     -26.285350      -715.2607
   3   1.0000     -11.308942      -307.7320
   4   1.0000      -6.167510      -167.8265
   5   1.0000      -4.276488      -116.3692
   6   1.0000      -4.275502      -116.3423
   7   1.0000      -4.267402      -116.1219
   8   1.0000      -1.591078       -43.2954
   9   1.0000      -1.586928       -43.1825
  10   1.0000      -0.957200       -26.0467
  11   1.0000      -0.758707       -20.6455
  12   1.0000      -0.707119       -19.2417
  13   1.0000      -0.692664       -18.8483
  14   1.0000      -0.678322       -18.4581
  15   1.0000      -0.665846       -18.1186
  16   1.0000      -0.654720       -17.8158
  17   1.0000      -0.574465       -15.6320
  18   1.0000      -0.541973       -14.7478
  19   1.0000      -0.462649       -12.5893
  20   0.0000       0.014387         0.3915
  21   0.0000       0.032743         0.8910
  22   0.0000       0.035594         0.9686
  23   0.0000       0.037499         1.0204
  24   0.0000       0.057355         1.5607

MULLIKEN ATOMIC CHARGES AND SPIN POPULATIONS
--------------------------------------------
   0 Si:    1.162710    0.899740
   1 C :   -0.131143    0.049140
   2 F :   -0.701292   -0.005502
   3 H :    0.252289   -0.004818
   4 H :    0.249466   -0.003810
   5 F :   -0.637248    0.019089
   6 H :   -0.194782    0.046161
Sum of atomic charges         :   -0.0000000

LOEWDIN ATOMIC CHARGES AND SPIN POPULATIONS
-------------------------------------------
   0 Si:    0.330738    0.569571
   1 C :   -0.114467    0.139539
   2 F :    0.313982    0.102204
   3 H :   -0.433133    0.013394
   4 H :   -0.439865    0.017465
   5 F :    0.673472    0.029628
   6 H :   -0.330727    0.128200

  Mayer bond orders larger than 0.100000
B(  0-Si,  1-C ) :   0.8954 B(  0-Si,  2-F ) :   0.3588 B(  0-Si,  6-H ) :   0.9259
B(  1-C ,  3-H ) :   0.9247 B(  1-C ,  4-H ) :   0.9120 B(  1-C ,  5-F ) :   0.5249

MP2 TOTAL ENERGY:     -528.411242860 Eh
FINAL SINGLE POINT ENERGY      -528.411242860134

DIPOLE MOMENT
-------------
                                X             Y             Z
Electronic contribution:     -1.65171       2.30241       0.17906
Nuclear contribution   :      1.68459      -3.21480      -0.55724
                        -----------------------------------------
Total Dipole Moment    :      0.03288      -0.91238      -0.37818
                        -----------------------------------------
Magnitude (a.u.)       :      0.98821
Magnitude (Debye)      :      2.51182

Rotational constants in cm-1:     0.408029     0.117023     0.102784
Rotational constants in MHz : 12232.391011  3508.261393  3081.401372

                             ****ORCA TERMINATED NORMALLY****
TOTAL RUN TIME: 0 days 0 hours 20 minutes 9 seconds 735 msec
