                         Program Version 5.0.4 -  RELEASE  -
|  1> ! ri-mp2 aug-cc-pvdz aug-cc-pvdz/c tightscf
|  2> %pal nprocs 16 end
|  3> %maxcore 3800
|  4> %base "DZ_Si-Cl_88_A"
|  5> %scf
|  6> STABPerform true
|  7> STABRestartUHFifUnstable true
|  8> end
|  9>
| 10> *xyz 0 2
| 11> Si        -0.956536   -1.009453   -0.482530
| 12> C         0.593263    0.017410   -0.006729
| 13> Cl        -2.632616    0.058141   -0.010758
| 14> Cl         0.618363    0.349284    1.737661
| 15> Cl         0.647613    1.540770   -0.907855
| 16> Cl         1.998602   -0.990755   -0.438395
| 17> H        -0.911428   -2.248595    0.324711
| 18> *
| 19>
| 20> $new_job
| 21> ! ri-mp2 aug-cc-pvtz aug-cc-pvtz/c tightscf
| 22> %pal nprocs 16 end
| 23> %maxcore 3800
| 24> %base "TZ_Si-Cl_88_A"
| 25>
| 26> *xyz 0 2
| 27> Si        -0.956536   -1.009453   -0.482530
| 28> C         0.593263    0.017410   -0.006729
| 29> Cl        -2.632616    0.058141   -0.010758
| 30> Cl         0.618363    0.349284    1.737661
| 31> Cl         0.647613    1.540770   -0.907855
| 32> Cl         1.998602   -0.990755   -0.438395
| 33> H        -0.911428   -2.248595    0.324711
| 34> *
| 35>
| 36> $new_job
| 37> ! ri-mp2 aug-cc-pvqz aug-cc-pvqz/c tightscf
| 38> %pal nprocs 16 end
| 39> %maxcore 3800
| 40> %base "QZ_Si-Cl_88_A"
| 41>
| 42> *xyz 0 2
| 43> Si        -0.956536   -1.009453   -0.482530
| 44> C         0.593263    0.017410   -0.006729
| 45> Cl        -2.632616    0.058141   -0.010758
| 46> Cl         0.618363    0.349284    1.737661
| 47> Cl         0.647613    1.540770   -0.907855
| 48> Cl         1.998602   -0.990755   -0.438395
| 49> H        -0.911428   -2.248595    0.324711
| 50> *
| 51>
| 52>
| 53>
| 54>
| 55>                          ****END OF INPUT****
 Total Charge           Charge          ....    0
 Multiplicity           Mult            ....    2
 Number of Electrons    NEL             ....   89
MP2 TOTAL ENERGY:    -2166.217047366 Eh
FINAL SINGLE POINT ENERGY     -2166.217047366154
MP2 TOTAL ENERGY:    -2166.523802578 Eh
FINAL SINGLE POINT ENERGY     -2166.523802578050

CARTESIAN COORDINATES (ANGSTROEM)
---------------------------------
  Si    -0.956536   -1.009453   -0.482530
  C      0.593263    0.017410   -0.006729
  Cl    -2.632616    0.058141   -0.010758
  Cl     0.618363    0.349284    1.737661
  Cl     0.647613    1.540770   -0.907855
  Cl     1.998602   -0.990755   -0.438395
  H     -0.911428   -2.248595    0.324711

 Multiplicity           Mult            ....    2
 Number of Electrons    NEL             ....   89
 Basis Dimension        Dim             ....  546

ORBITAL ENERGIES
----------------
                 SPIN UP ORBITALS
  NO   OCC          E(Eh)            E(eV)
   0   1.0000    -104.869774     -2853.6516
   1   1.0000    -104.867353     -2853.5858
   2   1.0000    -104.867116     -2853.5793
   3   1.0000    -104.849129     -2853.0899
   4   1.0000     -68.857913     -1873.7191
   5   1.0000     -11.425820      -310.9124
   6   1.0000     -10.595378      -288.3149
   7   1.0000     -10.592982      -288.2497
   8   1.0000     -10.592713      -288.2424
   9   1.0000     -10.576375      -287.7978
  10   1.0000      -8.062251      -219.3850
  11   1.0000      -8.060470      -219.3365
  12   1.0000      -8.060356      -219.3334
  13   1.0000      -8.060107      -219.3267
  14   1.0000      -8.059864      -219.3201
  15   1.0000      -8.058054      -219.2708
  16   1.0000      -8.057960      -219.2682
  17   1.0000      -8.057786      -219.2635
  18   1.0000      -8.057617      -219.2589
  19   1.0000      -8.044215      -218.8942
  20   1.0000      -8.042057      -218.8355
  21   1.0000      -8.041656      -218.8246
  22   1.0000      -6.203242      -168.7988
  23   1.0000      -4.314500      -117.4035
  24   1.0000      -4.305939      -117.1706
  25   1.0000      -4.304903      -117.1424
  26   1.0000      -1.241775       -33.7904
  27   1.0000      -1.122992       -30.5582
  28   1.0000      -1.117276       -30.4026
  29   1.0000      -1.116770       -30.3889
  30   1.0000      -0.865922       -23.5629
  31   1.0000      -0.730668       -19.8825
  32   1.0000      -0.633430       -17.2365
  33   1.0000      -0.631860       -17.1938
  34   1.0000      -0.612586       -16.6693
  35   1.0000      -0.556043       -15.1307
  36   1.0000      -0.522469       -14.2171
  37   1.0000      -0.509372       -13.8607
  38   1.0000      -0.502503       -13.6738
  39   1.0000      -0.489419       -13.3178
  40   1.0000      -0.469951       -12.7880
  41   1.0000      -0.467458       -12.7202
  42   1.0000      -0.454678       -12.3724
  43   1.0000      -0.439396       -11.9566
  44   1.0000      -0.369613       -10.0577
  45   0.0000       0.027693         0.7536
  46   0.0000       0.037998         1.0340
  47   0.0000       0.040193         1.0937
  48   0.0000       0.042960         1.1690
  49   0.0000       0.064004         1.7416

                 SPIN DOWN ORBITALS
  NO   OCC          E(Eh)            E(eV)
   0   1.0000    -104.869811     -2853.6526
   1   1.0000    -104.867410     -2853.5873
   2   1.0000    -104.866691     -2853.5677
   3   1.0000    -104.848129     -2853.0626
   4   1.0000     -68.851744     -1873.5512
   5   1.0000     -11.424373      -310.8730
   6   1.0000     -10.595418      -288.3160
   7   1.0000     -10.593041      -288.2513
   8   1.0000     -10.592258      -288.2300
   9   1.0000     -10.575290      -287.7683
  10   1.0000      -8.062425      -219.3897
  11   1.0000      -8.060460      -219.3363
  12   1.0000      -8.060387      -219.3343
  13   1.0000      -8.060116      -219.3269
  14   1.0000      -8.058963      -219.2955
  15   1.0000      -8.058042      -219.2705
  16   1.0000      -8.058022      -219.2699
  17   1.0000      -8.057378      -219.2524
  18   1.0000      -8.056972      -219.2413
  19   1.0000      -8.042066      -218.8357
  20   1.0000      -8.041143      -218.8106
  21   1.0000      -8.039634      -218.7696
  22   1.0000      -6.193232      -168.5264
  23   1.0000      -4.301975      -117.0627
  24   1.0000      -4.301040      -117.0372
  25   1.0000      -4.292486      -116.8045
  26   1.0000      -1.239805       -33.7368
  27   1.0000      -1.119175       -30.4543
  28   1.0000      -1.115618       -30.3575
  29   1.0000      -1.112094       -30.2616
  30   1.0000      -0.855760       -23.2864
  31   1.0000      -0.704566       -19.1722
  32   1.0000      -0.631604       -17.1868
  33   1.0000      -0.628567       -17.1042
  34   1.0000      -0.600222       -16.3329
  35   1.0000      -0.542761       -14.7693
  36   1.0000      -0.512628       -13.9493
  37   1.0000      -0.508472       -13.8362
  38   1.0000      -0.491782       -13.3821
  39   1.0000      -0.484095       -13.1729
  40   1.0000      -0.468193       -12.7402
  41   1.0000      -0.466742       -12.7007
  42   1.0000      -0.454077       -12.3561
  43   1.0000      -0.431305       -11.7364
  44   0.0000       0.010195         0.2774
  45   0.0000       0.031729         0.8634
  46   0.0000       0.038836         1.0568
  47   0.0000       0.042386         1.1534
  48   0.0000       0.045711         1.2439

MULLIKEN ATOMIC CHARGES AND SPIN POPULATIONS
--------------------------------------------
   0 Si:    1.112465    0.895563
   1 C :    0.266280   -0.014849
   2 Cl:   -0.568543    0.041709
   3 Cl:   -0.181237    0.025822
   4 Cl:   -0.205467   -0.000244
   5 Cl:   -0.212675    0.000407
   6 H :   -0.210823    0.051592
Sum of atomic charges         :    0.0000000

LOEWDIN ATOMIC CHARGES AND SPIN POPULATIONS
-------------------------------------------
   0 Si:   -0.561305    0.552023
   1 C :   -2.689794    0.132592
   2 Cl:    0.804712    0.130268
   3 Cl:    0.940995    0.033984
   4 Cl:    0.938797    0.010580
   5 Cl:    0.939628    0.016450
   6 H :   -0.373033    0.124103

  Mayer bond orders larger than 0.100000
B(  0-Si,  1-C ) :   0.5903 B(  0-Si,  2-Cl) :   0.6591 B(  0-Si,  6-H ) :   0.9339
B(  1-C ,  3-Cl) :   0.8190 B(  1-C ,  4-Cl) :   0.8046 B(  1-C ,  5-Cl) :   0.8217

MP2 TOTAL ENERGY:    -2166.627730947 Eh
FINAL SINGLE POINT ENERGY     -2166.627730947004

DIPOLE MOMENT
-------------
                                X             Y             Z
Electronic contribution:      1.50711       2.78845      -0.01622
Nuclear contribution   :     -1.60597      -3.25044      -0.17415
                        -----------------------------------------
Total Dipole Moment    :     -0.09887      -0.46199      -0.19037
                        -----------------------------------------
Magnitude (a.u.)       :      0.50936
Magnitude (Debye)      :      1.29470

Rotational constants in cm-1:     0.054954     0.028272     0.027930
Rotational constants in MHz :  1647.493156   847.580538   837.320893

                             ****ORCA TERMINATED NORMALLY****
TOTAL RUN TIME: 0 days 0 hours 57 minutes 6 seconds 613 msec
