                         Program Version 5.0.4 -  RELEASE  -
|  1> ! ri-mp2 aug-cc-pvdz aug-cc-pvdz/c tightscf
|  2> %pal nprocs 16 end
|  3> %maxcore 3800
|  4> %base "DZ_P-C_65_AB"
|  5> %scf
|  6> STABPerform true
|  7> STABRestartUHFifUnstable true
|  8> end
|  9>
| 10> *xyz 0 1
| 11> C        -0.591869   -0.010287    0.006233
| 12> P         1.260017   -0.092212    0.156409
| 13> Cl        -1.169814   -1.575008   -0.583817
| 14> Cl        -1.049765    1.267550   -1.148534
| 15> Cl        -1.281021    0.342779    1.587770
| 16> O         1.696137   -1.063272    1.139248
| 17> O         1.722138   -0.324773   -1.341102
| 18> H         1.901299   -1.249877   -1.547039
| 19> O         1.681140    1.395655    0.436356
| 20> H         1.464532    2.033437   -0.254627
| 21> *
| 22>
| 23> $new_job
| 24> ! ri-mp2 aug-cc-pvtz aug-cc-pvtz/c tightscf
| 25> %pal nprocs 16 end
| 26> %maxcore 3800
| 27> %base "TZ_P-C_65_AB"
| 28>
| 29> *xyz 0 1
| 30> C        -0.591869   -0.010287    0.006233
| 31> P         1.260017   -0.092212    0.156409
| 32> Cl        -1.169814   -1.575008   -0.583817
| 33> Cl        -1.049765    1.267550   -1.148534
| 34> Cl        -1.281021    0.342779    1.587770
| 35> O         1.696137   -1.063272    1.139248
| 36> O         1.722138   -0.324773   -1.341102
| 37> H         1.901299   -1.249877   -1.547039
| 38> O         1.681140    1.395655    0.436356
| 39> H         1.464532    2.033437   -0.254627
| 40> *
| 41>
| 42> $new_job
| 43> ! ri-mp2 aug-cc-pvqz aug-cc-pvqz/c tightscf
| 44> %pal nprocs 16 end
| 45> %maxcore 3800
| 46> %base "QZ_P-C_65_AB"
| 47>
| 48> *xyz 0 1
| 49> C        -0.591869   -0.010287    0.006233
| 50> P         1.260017   -0.092212    0.156409
| 51> Cl        -1.169814   -1.575008   -0.583817
| 52> Cl        -1.049765    1.267550   -1.148534
| 53> Cl        -1.281021    0.342779    1.587770
| 54> O         1.696137   -1.063272    1.139248
| 55> O         1.722138   -0.324773   -1.341102
| 56> H         1.901299   -1.249877   -1.547039
| 57> O         1.681140    1.395655    0.436356
| 58> H         1.464532    2.033437   -0.254627
| 59> *
| 60>
| 61>
| 62>
| 63>
| 64>                          ****END OF INPUT****
 Total Charge           Charge          ....    0
 Multiplicity           Mult            ....    1
 Number of Electrons    NEL             ....   98
MP2 TOTAL ENERGY:    -1984.271082286 Eh
FINAL SINGLE POINT ENERGY     -1984.271082286140
MP2 TOTAL ENERGY:    -1984.752720161 Eh
FINAL SINGLE POINT ENERGY     -1984.752720161373

CARTESIAN COORDINATES (ANGSTROEM)
---------------------------------
  C     -0.591869   -0.010287    0.006233
  P      1.260017   -0.092212    0.156409
  Cl    -1.169814   -1.575008   -0.583817
  Cl    -1.049765    1.267550   -1.148534
  Cl    -1.281021    0.342779    1.587770
  O      1.696137   -1.063272    1.139248
  O      1.722138   -0.324773   -1.341102
  H      1.901299   -1.249877   -1.547039
  O      1.681140    1.395655    0.436356
  H      1.464532    2.033437   -0.254627

 Multiplicity           Mult            ....    1
 Number of Electrons    NEL             ....   98
 Basis Dimension        Dim             ....  748

ORBITAL ENERGIES
----------------

  NO   OCC          E(Eh)            E(eV)
   0   2.0000    -104.881250     -2853.9639
   1   2.0000    -104.877601     -2853.8646
   2   2.0000    -104.873647     -2853.7570
   3   2.0000     -80.103890     -2179.7377
   4   2.0000     -20.628423      -561.3279
   5   2.0000     -20.627192      -561.2944
   6   2.0000     -20.529428      -558.6341
   7   2.0000     -11.445064      -311.4360
   8   2.0000     -10.607017      -288.6316
   9   2.0000     -10.603278      -288.5299
  10   2.0000     -10.599297      -288.4215
  11   2.0000      -8.073976      -219.7041
  12   2.0000      -8.072046      -219.6515
  13   2.0000      -8.072015      -219.6507
  14   2.0000      -8.070276      -219.6034
  15   2.0000      -8.068251      -219.5483
  16   2.0000      -8.068235      -219.5478
  17   2.0000      -8.066315      -219.4956
  18   2.0000      -8.064234      -219.4390
  19   2.0000      -8.064203      -219.4381
  20   2.0000      -7.626014      -207.5144
  21   2.0000      -5.524514      -150.3297
  22   2.0000      -5.523843      -150.3114
  23   2.0000      -5.522846      -150.2843
  24   2.0000      -1.471423       -40.0395
  25   2.0000      -1.415535       -38.5187
  26   2.0000      -1.328589       -36.1527
  27   2.0000      -1.255204       -34.1558
  28   2.0000      -1.129769       -30.7426
  29   2.0000      -1.126841       -30.6629
  30   2.0000      -0.922741       -25.1091
  31   2.0000      -0.838345       -22.8125
  32   2.0000      -0.795269       -21.6404
  33   2.0000      -0.720920       -19.6172
  34   2.0000      -0.683149       -18.5894
  35   2.0000      -0.652596       -17.7580
  36   2.0000      -0.647084       -17.6081
  37   2.0000      -0.628009       -17.0890
  38   2.0000      -0.598608       -16.2890
  39   2.0000      -0.582867       -15.8606
  40   2.0000      -0.574839       -15.6422
  41   2.0000      -0.523326       -14.2404
  42   2.0000      -0.521739       -14.1972
  43   2.0000      -0.507587       -13.8121
  44   2.0000      -0.496784       -13.5182
  45   2.0000      -0.476217       -12.9585
  46   2.0000      -0.472813       -12.8659
  47   2.0000      -0.462455       -12.5840
  48   2.0000      -0.452840       -12.3224
  49   0.0000       0.022338         0.6079
  50   0.0000       0.033182         0.9029
  51   0.0000       0.047011         1.2792
  52   0.0000       0.054330         1.4784
  53   0.0000       0.063851         1.7375

MULLIKEN ATOMIC CHARGES
-----------------------
   0 C :    0.392921
   1 P :    2.457021
   2 Cl:   -0.211794
   3 Cl:   -0.247565
   4 Cl:   -0.201018
   5 O :   -1.153549
   6 O :   -0.889033
   7 H :    0.381631
   8 O :   -0.932294
   9 H :    0.403680
Sum of atomic charges:   -0.0000000

LOEWDIN ATOMIC CHARGES
----------------------
   0 C :   -2.588698
   1 P :   -1.113078
   2 Cl:    1.003570
   3 Cl:    0.997899
   4 Cl:    1.015370
   5 O :    0.285150
   6 O :    1.078050
   7 H :   -0.856314
   8 O :    1.076708
   9 H :   -0.898656

  Mayer bond orders larger than 0.100000
B(  0-C ,  1-P ) :   0.7446 B(  0-C ,  2-Cl) :   0.7192 B(  0-C ,  3-Cl) :   0.7214
B(  0-C ,  4-Cl) :   0.7332 B(  0-C ,  5-O ) :  -0.1094 B(  1-P ,  5-O ) :   1.3896
B(  1-P ,  6-O ) :   0.6624 B(  1-P ,  8-O ) :   0.6208 B(  6-O ,  7-H ) :   0.8814
B(  8-O ,  9-H ) :   0.8168

MP2 TOTAL ENERGY:    -1984.912641379 Eh
FINAL SINGLE POINT ENERGY     -1984.912641379251

DIPOLE MOMENT
-------------
                                X             Y             Z
Electronic contribution:     -6.89727      -0.22165       0.31436
Nuclear contribution   :      6.69740       0.75794      -1.60649
                        -----------------------------------------
Total Dipole Moment    :     -0.19986       0.53629      -1.29212
                        -----------------------------------------
Magnitude (a.u.)       :      1.41320
Magnitude (Debye)      :      3.59207

Rotational constants in cm-1:     0.041119     0.030834     0.030640
Rotational constants in MHz :  1232.724078   924.368848   918.573971

                             ****ORCA TERMINATED NORMALLY****
TOTAL RUN TIME: 0 days 1 hours 11 minutes 52 seconds 773 msec
