                         Program Version 5.0.4 -  RELEASE  -
|  1> ! ri-mp2 aug-cc-pvdz aug-cc-pvdz/c tightscf
|  2> %pal nprocs 16 end
|  3> %maxcore 3800
|  4> %base "DZ_Si-S_35_AB"
|  5> %scf
|  6> STABPerform true
|  7> STABRestartUHFifUnstable true
|  8> end
|  9>
| 10> *xyz 0 1
| 11> C        -0.990233   -0.127964    1.068511
| 12> C        -1.757301   -0.977344    0.066943
| 13> C        -2.771673   -0.199436   -0.753925
| 14> H        -2.266197   -1.765771    0.629257
| 15> H        -1.055531   -1.485058   -0.598940
| 16> H        -2.285816    0.575571   -1.345380
| 17> H        -3.505734    0.286467   -0.107990
| 18> S         0.022683    1.217916    0.353549
| 19> H        -0.350020   -0.749523    1.692454
| 20> H        -1.684326    0.384292    1.735395
| 21> Si         1.535521    0.139931   -0.692291
| 22> C         2.412887   -1.095140    0.394567
| 23> H         2.842959   -0.607909    1.269433
| 24> H         3.217780   -1.579255   -0.161183
| 25> H         1.733430   -1.875912    0.737836
| 26> H        -3.310236   -0.858481   -1.434780
| 27> H         2.456447    1.195156   -1.164457
| 28> H         0.984942   -0.565963   -1.872924
| 29> *
| 30>
| 31> $new_job
| 32> ! ri-mp2 aug-cc-pvtz aug-cc-pvtz/c tightscf
| 33> %pal nprocs 16 end
| 34> %maxcore 3800
| 35> %base "TZ_Si-S_35_AB"
| 36>
| 37> *xyz 0 1
| 38> C        -0.990233   -0.127964    1.068511
| 39> C        -1.757301   -0.977344    0.066943
| 40> C        -2.771673   -0.199436   -0.753925
| 41> H        -2.266197   -1.765771    0.629257
| 42> H        -1.055531   -1.485058   -0.598940
| 43> H        -2.285816    0.575571   -1.345380
| 44> H        -3.505734    0.286467   -0.107990
| 45> S         0.022683    1.217916    0.353549
| 46> H        -0.350020   -0.749523    1.692454
| 47> H        -1.684326    0.384292    1.735395
| 48> Si         1.535521    0.139931   -0.692291
| 49> C         2.412887   -1.095140    0.394567
| 50> H         2.842959   -0.607909    1.269433
| 51> H         3.217780   -1.579255   -0.161183
| 52> H         1.733430   -1.875912    0.737836
| 53> H        -3.310236   -0.858481   -1.434780
| 54> H         2.456447    1.195156   -1.164457
| 55> H         0.984942   -0.565963   -1.872924
| 56> *
| 57>
| 58> $new_job
| 59> ! ri-mp2 aug-cc-pvqz aug-cc-pvqz/c tightscf
| 60> %pal nprocs 16 end
| 61> %maxcore 3800
| 62> %base "QZ_Si-S_35_AB"
| 63>
| 64> *xyz 0 1
| 65> C        -0.990233   -0.127964    1.068511
| 66> C        -1.757301   -0.977344    0.066943
| 67> C        -2.771673   -0.199436   -0.753925
| 68> H        -2.266197   -1.765771    0.629257
| 69> H        -1.055531   -1.485058   -0.598940
| 70> H        -2.285816    0.575571   -1.345380
| 71> H        -3.505734    0.286467   -0.107990
| 72> S         0.022683    1.217916    0.353549
| 73> H        -0.350020   -0.749523    1.692454
| 74> H        -1.684326    0.384292    1.735395
| 75> Si         1.535521    0.139931   -0.692291
| 76> C         2.412887   -1.095140    0.394567
| 77> H         2.842959   -0.607909    1.269433
| 78> H         3.217780   -1.579255   -0.161183
| 79> H         1.733430   -1.875912    0.737836
| 80> H        -3.310236   -0.858481   -1.434780
| 81> H         2.456447    1.195156   -1.164457
| 82> H         0.984942   -0.565963   -1.872924
| 83> *
| 84>
| 85>
| 86>
| 87>
| 88>                          ****END OF INPUT****
 Total Charge           Charge          ....    0
 Multiplicity           Mult            ....    1
 Number of Electrons    NEL             ....   66
MP2 TOTAL ENERGY:     -845.831668381 Eh
FINAL SINGLE POINT ENERGY      -845.831668381112
MP2 TOTAL ENERGY:     -846.080571903 Eh
FINAL SINGLE POINT ENERGY      -846.080571903319

CARTESIAN COORDINATES (ANGSTROEM)
---------------------------------
  C     -0.990233   -0.127964    1.068511
  C     -1.757301   -0.977344    0.066943
  C     -2.771673   -0.199436   -0.753925
  H     -2.266197   -1.765771    0.629257
  H     -1.055531   -1.485058   -0.598940
  H     -2.285816    0.575571   -1.345380
  H     -3.505734    0.286467   -0.107990
  S      0.022683    1.217916    0.353549
  H     -0.350020   -0.749523    1.692454
  H     -1.684326    0.384292    1.735395
  Si     1.535521    0.139931   -0.692291
  C      2.412887   -1.095140    0.394567
  H      2.842959   -0.607909    1.269433
  H      3.217780   -1.579255   -0.161183
  H      1.733430   -1.875912    0.737836
  H     -3.310236   -0.858481   -1.434780
  H      2.456447    1.195156   -1.164457
  H      0.984942   -0.565963   -1.872924

 Multiplicity           Mult            ....    1
 Number of Electrons    NEL             ....   66
 Basis Dimension        Dim             .... 1040

ORBITAL ENERGIES
----------------

  NO   OCC          E(Eh)            E(eV)
   0   2.0000     -91.928090     -2501.4905
   1   2.0000     -68.780234     -1871.6053
   2   2.0000     -11.259220      -306.3790
   3   2.0000     -11.228915      -305.5543
   4   2.0000     -11.210964      -305.0658
   5   2.0000     -11.209935      -305.0378
   6   2.0000      -8.932575      -243.0677
   7   2.0000      -6.614068      -179.9779
   8   2.0000      -6.613304      -179.9572
   9   2.0000      -6.612645      -179.9392
  10   2.0000      -6.127779      -166.7453
  11   2.0000      -4.234536      -115.2276
  12   2.0000      -4.234021      -115.2136
  13   2.0000      -4.233608      -115.2023
  14   2.0000      -1.085800       -29.5461
  15   2.0000      -0.985857       -26.8265
  16   2.0000      -0.951957       -25.9041
  17   2.0000      -0.883944       -24.0534
  18   2.0000      -0.795877       -21.6569
  19   2.0000      -0.673112       -18.3163
  20   2.0000      -0.633525       -17.2391
  21   2.0000      -0.621436       -16.9101
  22   2.0000      -0.577119       -15.7042
  23   2.0000      -0.570040       -15.5116
  24   2.0000      -0.558057       -15.1855
  25   2.0000      -0.520908       -14.1746
  26   2.0000      -0.501539       -13.6476
  27   2.0000      -0.497322       -13.5328
  28   2.0000      -0.477216       -12.9857
  29   2.0000      -0.468415       -12.7462
  30   2.0000      -0.450160       -12.2495
  31   2.0000      -0.406948       -11.0736
  32   2.0000      -0.349377        -9.5070
  33   0.0000       0.022397         0.6095
  34   0.0000       0.029576         0.8048
  35   0.0000       0.031837         0.8663
  36   0.0000       0.033827         0.9205
  37   0.0000       0.044717         1.2168

MULLIKEN ATOMIC CHARGES
-----------------------
   0 C :   -0.514474
   1 C :   -0.441396
   2 C :   -0.874700
   3 H :    0.267883
   4 H :    0.291293
   5 H :    0.275032
   6 H :    0.229326
   7 S :   -0.494380
   8 H :    0.307932
   9 H :    0.347963
  10 Si:    1.240513
  11 C :   -1.044593
  12 H :    0.259385
  13 H :    0.306140
  14 H :    0.249452
  15 H :    0.300242
  16 H :   -0.440815
  17 H :   -0.264803
Sum of atomic charges:   -0.0000000

LOEWDIN ATOMIC CHARGES
----------------------
   0 C :    0.088970
   1 C :    0.407516
   2 C :    0.894773
   3 H :   -0.274189
   4 H :   -0.322078
   5 H :   -0.314142
   6 H :   -0.282381
   7 S :    1.206471
   8 H :   -0.372305
   9 H :   -0.373941
  10 Si:    0.336284
  11 C :    0.877841
  12 H :   -0.358063
  13 H :   -0.357442
  14 H :   -0.364143
  15 H :   -0.279804
  16 H :   -0.271756
  17 H :   -0.241610

  Mayer bond orders larger than 0.100000
B(  0-C ,  1-C ) :   0.9283 B(  0-C ,  7-S ) :   0.8360 B(  0-C ,  8-H ) :   0.9183
B(  0-C ,  9-H ) :   0.8256 B(  1-C ,  2-C ) :   0.9622 B(  1-C ,  3-H ) :   0.8499
B(  1-C ,  4-H ) :   0.8630 B(  2-C ,  5-H ) :   0.9350 B(  2-C ,  6-H ) :   0.9599
B(  2-C , 15-H ) :   0.9501 B(  7-S , 10-Si) :   0.8290 B( 10-Si, 11-C ) :   0.8532
B( 10-Si, 16-H ) :   0.7198 B( 10-Si, 17-H ) :   0.7908 B( 11-C , 12-H ) :   0.9443
B( 11-C , 13-H ) :   0.9162 B( 11-C , 14-H ) :   0.9480

MP2 TOTAL ENERGY:     -846.156696235 Eh
FINAL SINGLE POINT ENERGY      -846.156696234591

DIPOLE MOMENT
-------------
                                X             Y             Z
Electronic contribution:      3.35429       6.49458       0.81615
Nuclear contribution   :     -3.41731      -7.30867      -0.60815
                        -----------------------------------------
Total Dipole Moment    :     -0.06302      -0.81409       0.20800
                        -----------------------------------------
Magnitude (a.u.)       :      0.84260
Magnitude (Debye)      :      2.14171

Rotational constants in cm-1:     0.114483     0.042008     0.038859
Rotational constants in MHz :  3432.115005  1259.355839  1164.977848

                             ****ORCA TERMINATED NORMALLY****
TOTAL RUN TIME: 0 days 1 hours 47 minutes 48 seconds 210 msec
