                         Program Version 5.0.4 -  RELEASE  -
|  1> ! ri-mp2 aug-cc-pvdz aug-cc-pvdz/c tightscf
|  2> %pal nprocs 16 end
|  3> %maxcore 3800
|  4> %base "DZ_P-O_24_AB"
|  5> %scf
|  6> STABPerform true
|  7> STABRestartUHFifUnstable true
|  8> end
|  9>
| 10> *xyz 0 1
| 11> O         0.129449    0.188380    0.606803
| 12> P        -1.235172   -0.210211   -0.059291
| 13> O        -1.236179   -1.211268   -1.113612
| 14> C         1.265875    0.603234   -0.200239
| 15> C         1.486587    2.079805    0.027585
| 16> H         0.596770    2.647243   -0.239748
| 17> H         2.319485    2.432484   -0.581020
| 18> H         1.720086    2.269759    1.075767
| 19> C         2.448212   -0.256094    0.194290
| 20> C         2.250973   -1.735090   -0.092848
| 21> H         2.645940   -0.095952    1.257505
| 22> H         3.320021    0.119064   -0.347526
| 23> H         1.404474   -2.134985    0.463020
| 24> H         3.137622   -2.304189    0.185945
| 25> H         2.055829   -1.908595   -1.151774
| 26> H         1.017500    0.413893   -1.247757
| 27> O        -2.091923   -0.624462    1.201084
| 28> H        -2.018740   -0.021301    1.948774
| 29> O        -1.802693    1.206168   -0.536375
| 30> H        -2.370520    1.114077   -1.309749
| 31> *
| 32>
| 33> $new_job
| 34> ! ri-mp2 aug-cc-pvtz aug-cc-pvtz/c tightscf
| 35> %pal nprocs 16 end
| 36> %maxcore 3800
| 37> %base "TZ_P-O_24_AB"
| 38>
| 39> *xyz 0 1
| 40> O         0.129449    0.188380    0.606803
| 41> P        -1.235172   -0.210211   -0.059291
| 42> O        -1.236179   -1.211268   -1.113612
| 43> C         1.265875    0.603234   -0.200239
| 44> C         1.486587    2.079805    0.027585
| 45> H         0.596770    2.647243   -0.239748
| 46> H         2.319485    2.432484   -0.581020
| 47> H         1.720086    2.269759    1.075767
| 48> C         2.448212   -0.256094    0.194290
| 49> C         2.250973   -1.735090   -0.092848
| 50> H         2.645940   -0.095952    1.257505
| 51> H         3.320021    0.119064   -0.347526
| 52> H         1.404474   -2.134985    0.463020
| 53> H         3.137622   -2.304189    0.185945
| 54> H         2.055829   -1.908595   -1.151774
| 55> H         1.017500    0.413893   -1.247757
| 56> O        -2.091923   -0.624462    1.201084
| 57> H        -2.018740   -0.021301    1.948774
| 58> O        -1.802693    1.206168   -0.536375
| 59> H        -2.370520    1.114077   -1.309749
| 60> *
| 61>
| 62> $new_job
| 63> ! ri-mp2 aug-cc-pvqz aug-cc-pvqz/c tightscf
| 64> %pal nprocs 16 end
| 65> %maxcore 3800
| 66> %base "QZ_P-O_24_AB"
| 67>
| 68> *xyz 0 1
| 69> O         0.129449    0.188380    0.606803
| 70> P        -1.235172   -0.210211   -0.059291
| 71> O        -1.236179   -1.211268   -1.113612
| 72> C         1.265875    0.603234   -0.200239
| 73> C         1.486587    2.079805    0.027585
| 74> H         0.596770    2.647243   -0.239748
| 75> H         2.319485    2.432484   -0.581020
| 76> H         1.720086    2.269759    1.075767
| 77> C         2.448212   -0.256094    0.194290
| 78> C         2.250973   -1.735090   -0.092848
| 79> H         2.645940   -0.095952    1.257505
| 80> H         3.320021    0.119064   -0.347526
| 81> H         1.404474   -2.134985    0.463020
| 82> H         3.137622   -2.304189    0.185945
| 83> H         2.055829   -1.908595   -1.151774
| 84> H         1.017500    0.413893   -1.247757
| 85> O        -2.091923   -0.624462    1.201084
| 86> H        -2.018740   -0.021301    1.948774
| 87> O        -1.802693    1.206168   -0.536375
| 88> H        -2.370520    1.114077   -1.309749
| 89> *
| 90>
| 91>
| 92>
| 93>
| 94>                          ****END OF INPUT****
 Total Charge           Charge          ....    0
 Multiplicity           Mult            ....    1
 Number of Electrons    NEL             ....   82
MP2 TOTAL ENERGY:     -799.752607042 Eh
FINAL SINGLE POINT ENERGY      -799.752607041518
MP2 TOTAL ENERGY:     -800.245955866 Eh
FINAL SINGLE POINT ENERGY      -800.245955865575

CARTESIAN COORDINATES (ANGSTROEM)
---------------------------------
  O      0.129449    0.188380    0.606803
  P     -1.235172   -0.210211   -0.059291
  O     -1.236179   -1.211268   -1.113612
  C      1.265875    0.603234   -0.200239
  C      1.486587    2.079805    0.027585
  H      0.596770    2.647243   -0.239748
  H      2.319485    2.432484   -0.581020
  H      1.720086    2.269759    1.075767
  C      2.448212   -0.256094    0.194290
  C      2.250973   -1.735090   -0.092848
  H      2.645940   -0.095952    1.257505
  H      3.320021    0.119064   -0.347526
  H      1.404474   -2.134985    0.463020
  H      3.137622   -2.304189    0.185945
  H      2.055829   -1.908595   -1.151774
  H      1.017500    0.413893   -1.247757
  O     -2.091923   -0.624462    1.201084
  H     -2.018740   -0.021301    1.948774
  O     -1.802693    1.206168   -0.536375
  H     -2.370520    1.114077   -1.309749

 Multiplicity           Mult            ....    1
 Number of Electrons    NEL             ....   82
 Basis Dimension        Dim             .... 1230

ORBITAL ENERGIES
----------------

  NO   OCC          E(Eh)            E(eV)
   0   2.0000     -80.088598     -2179.3215
   1   2.0000     -20.600221      -560.5605
   2   2.0000     -20.600020      -560.5551
   3   2.0000     -20.587396      -560.2115
   4   2.0000     -20.503136      -557.9187
   5   2.0000     -11.302873      -307.5668
   6   2.0000     -11.227072      -305.5042
   7   2.0000     -11.224501      -305.4342
   8   2.0000     -11.208590      -305.0012
   9   2.0000      -7.606982      -206.9965
  10   2.0000      -5.505901      -149.8232
  11   2.0000      -5.505674      -149.8170
  12   2.0000      -5.504461      -149.7840
  13   2.0000      -1.462002       -39.7831
  14   2.0000      -1.388792       -37.7909
  15   2.0000      -1.387967       -37.7685
  16   2.0000      -1.298696       -35.3393
  17   2.0000      -1.086710       -29.5709
  18   2.0000      -1.000514       -27.2254
  19   2.0000      -0.889040       -24.1920
  20   2.0000      -0.847920       -23.0731
  21   2.0000      -0.803304       -21.8590
  22   2.0000      -0.775154       -21.0930
  23   2.0000      -0.735845       -20.0234
  24   2.0000      -0.660437       -17.9714
  25   2.0000      -0.651923       -17.7397
  26   2.0000      -0.641363       -17.4524
  27   2.0000      -0.612496       -16.6669
  28   2.0000      -0.607235       -16.5237
  29   2.0000      -0.583035       -15.8652
  30   2.0000      -0.579165       -15.7599
  31   2.0000      -0.566454       -15.4140
  32   2.0000      -0.552847       -15.0437
  33   2.0000      -0.542343       -14.7579
  34   2.0000      -0.522031       -14.2052
  35   2.0000      -0.518538       -14.1101
  36   2.0000      -0.492722       -13.4077
  37   2.0000      -0.482905       -13.1405
  38   2.0000      -0.476424       -12.9642
  39   2.0000      -0.468585       -12.7508
  40   2.0000      -0.457221       -12.4416
  41   0.0000       0.021026         0.5722
  42   0.0000       0.029327         0.7980
  43   0.0000       0.029733         0.8091
  44   0.0000       0.033984         0.9247
  45   0.0000       0.043756         1.1907

MULLIKEN ATOMIC CHARGES
-----------------------
   0 O :   -1.071628
   1 P :    2.752447
   2 O :   -1.200737
   3 C :    0.713558
   4 C :   -0.926085
   5 H :    0.259573
   6 H :    0.308618
   7 H :    0.233190
   8 C :   -0.494342
   9 C :   -0.885054
  10 H :    0.226832
  11 H :    0.288661
  12 H :    0.253036
  13 H :    0.299861
  14 H :    0.200921
  15 H :    0.215089
  16 O :   -1.001453
  17 H :    0.388503
  18 O :   -0.934096
  19 H :    0.373107
Sum of atomic charges:   -0.0000000

LOEWDIN ATOMIC CHARGES
----------------------
   0 O :    0.708392
   1 P :   -1.002482
   2 O :    0.321865
   3 C :   -0.282079
   4 C :    0.917179
   5 H :   -0.292333
   6 H :   -0.274903
   7 H :   -0.279099
   8 C :    0.486289
   9 C :    0.929382
  10 H :   -0.273951
  11 H :   -0.272942
  12 H :   -0.295089
  13 H :   -0.277666
  14 H :   -0.277932
  15 H :   -0.321796
  16 O :    1.091651
  17 H :   -0.852924
  18 O :    1.109665
  19 H :   -0.861228

  Mayer bond orders larger than 0.100000
B(  0-O ,  1-P ) :   0.8224 B(  0-O ,  3-C ) :   0.4727 B(  0-O , 16-O ) :  -0.1119
B(  1-P ,  2-O ) :   1.3076 B(  1-P , 16-O ) :   0.4195 B(  1-P , 18-O ) :   0.5957
B(  3-C ,  4-C ) :   0.5056 B(  3-C ,  5-H ) :  -0.1246 B(  3-C ,  8-C ) :   0.6417
B(  3-C , 15-H ) :   0.9465 B(  4-C ,  5-H ) :   1.0489 B(  4-C ,  6-H ) :   0.9627
B(  4-C ,  7-H ) :   1.0003 B(  4-C ,  8-C ) :   0.1237 B(  8-C ,  9-C ) :   0.9600
B(  8-C , 10-H ) :   0.9158 B(  8-C , 11-H ) :   0.9200 B(  9-C , 12-H ) :   0.9323
B(  9-C , 13-H ) :   0.9797 B(  9-C , 14-H ) :   0.9646 B( 16-O , 17-H ) :   0.8405
B( 18-O , 19-H ) :   0.9272

MP2 TOTAL ENERGY:     -800.402022483 Eh
FINAL SINGLE POINT ENERGY      -800.402022482755

DIPOLE MOMENT
-------------
                                X             Y             Z
Electronic contribution:    -14.43902      -1.36701       0.35716
Nuclear contribution   :     14.91628       2.72297       0.11232
                        -----------------------------------------
Total Dipole Moment    :      0.47726       1.35596       0.46948
                        -----------------------------------------
Magnitude (a.u.)       :      1.51223
Magnitude (Debye)      :      3.84377

Rotational constants in cm-1:     0.068002     0.034279     0.027792
Rotational constants in MHz :  2038.649008  1027.673129   833.193691

                             ****ORCA TERMINATED NORMALLY****
TOTAL RUN TIME: 0 days 6 hours 32 minutes 25 seconds 696 msec
