                         Program Version 5.0.4 -  RELEASE  -
|  1> ! ri-mp2 aug-cc-pvdz aug-cc-pvdz/c tightscf
|  2> %pal nprocs 16 end
|  3> %maxcore 3800
|  4> %base "DZ_P-Si_17_AB"
|  5>
|  6> *xyz 0 1
|  7> C         1.052738    1.322078    1.760499
|  8> Si         0.621733    0.691273    0.080867
|  9> H         0.829940    0.581549    2.528331
| 10> H         0.460268    2.212767    1.974402
| 11> H         2.109547    1.582832    1.818178
| 12> C         1.071143    1.755524   -1.353667
| 13> H         0.844306    1.255006   -2.294267
| 14> H         2.132607    2.000045   -1.332214
| 15> H         0.496739    2.682534   -1.314927
| 16> P        -1.508191   -0.045921    0.021328
| 17> N         1.646527   -0.888114   -0.091880
| 18> O         1.134928   -1.979669    0.137369
| 19> O         2.812496   -0.750724   -0.392525
| 20> O        -2.490093    0.943629    0.465543
| 21> O        -1.524381   -1.383710    0.867519
| 22> O        -1.673026   -0.491048   -1.509299
| 23> H        -2.559252   -0.321917   -1.854583
| 24> H        -0.743925   -1.938459    0.676337
| 25> *
| 26>
| 27> $new_job
| 28> ! ri-mp2 aug-cc-pvtz aug-cc-pvtz/c tightscf
| 29> %pal nprocs 16 end
| 30> %maxcore 3800
| 31> %base "TZ_P-Si_17_AB"
| 32>
| 33> *xyz 0 1
| 34> C         1.052738    1.322078    1.760499
| 35> Si         0.621733    0.691273    0.080867
| 36> H         0.829940    0.581549    2.528331
| 37> H         0.460268    2.212767    1.974402
| 38> H         2.109547    1.582832    1.818178
| 39> C         1.071143    1.755524   -1.353667
| 40> H         0.844306    1.255006   -2.294267
| 41> H         2.132607    2.000045   -1.332214
| 42> H         0.496739    2.682534   -1.314927
| 43> P        -1.508191   -0.045921    0.021328
| 44> N         1.646527   -0.888114   -0.091880
| 45> O         1.134928   -1.979669    0.137369
| 46> O         2.812496   -0.750724   -0.392525
| 47> O        -2.490093    0.943629    0.465543
| 48> O        -1.524381   -1.383710    0.867519
| 49> O        -1.673026   -0.491048   -1.509299
| 50> H        -2.559252   -0.321917   -1.854583
| 51> H        -0.743925   -1.938459    0.676337
| 52> *
| 53>
| 54> $new_job
| 55> ! ri-mp2 aug-cc-pvqz aug-cc-pvqz/c tightscf
| 56> %pal nprocs 16 end
| 57> %maxcore 3800
| 58> %base "QZ_P-Si_17_AB"
| 59>
| 60> *xyz 0 1
| 61> C         1.052738    1.322078    1.760499
| 62> Si         0.621733    0.691273    0.080867
| 63> H         0.829940    0.581549    2.528331
| 64> H         0.460268    2.212767    1.974402
| 65> H         2.109547    1.582832    1.818178
| 66> C         1.071143    1.755524   -1.353667
| 67> H         0.844306    1.255006   -2.294267
| 68> H         2.132607    2.000045   -1.332214
| 69> H         0.496739    2.682534   -1.314927
| 70> P        -1.508191   -0.045921    0.021328
| 71> N         1.646527   -0.888114   -0.091880
| 72> O         1.134928   -1.979669    0.137369
| 73> O         2.812496   -0.750724   -0.392525
| 74> O        -2.490093    0.943629    0.465543
| 75> O        -1.524381   -1.383710    0.867519
| 76> O        -1.673026   -0.491048   -1.509299
| 77> H        -2.559252   -0.321917   -1.854583
| 78> H        -0.743925   -1.938459    0.676337
| 79> *
| 80>
| 81>
| 82>
| 83>
| 84>                          ****END OF INPUT****
 Total Charge           Charge          ....    0
 Multiplicity           Mult            ....    1
 Number of Electrons    NEL             ....   96
MP2 TOTAL ENERGY:    -1140.610515323 Eh
FINAL SINGLE POINT ENERGY     -1140.610515322565
MP2 TOTAL ENERGY:    -1141.159535529 Eh
FINAL SINGLE POINT ENERGY     -1141.159535528845

CARTESIAN COORDINATES (ANGSTROEM)
---------------------------------
  C      1.052738    1.322078    1.760499
  Si     0.621733    0.691273    0.080867
  H      0.829940    0.581549    2.528331
  H      0.460268    2.212767    1.974402
  H      2.109547    1.582832    1.818178
  C      1.071143    1.755524   -1.353667
  H      0.844306    1.255006   -2.294267
  H      2.132607    2.000045   -1.332214
  H      0.496739    2.682534   -1.314927
  P     -1.508191   -0.045921    0.021328
  N      1.646527   -0.888114   -0.091880
  O      1.134928   -1.979669    0.137369
  O      2.812496   -0.750724   -0.392525
  O     -2.490093    0.943629    0.465543
  O     -1.524381   -1.383710    0.867519
  O     -1.673026   -0.491048   -1.509299
  H     -2.559252   -0.321917   -1.854583
  H     -0.743925   -1.938459    0.676337

 Multiplicity           Mult            ....    1
 Number of Electrons    NEL             ....   96
 Basis Dimension        Dim             .... 1176

ORBITAL ENERGIES
----------------

  NO   OCC          E(Eh)            E(eV)
   0   2.0000     -80.072472     -2178.8827
   1   2.0000     -68.840532     -1873.2461
   2   2.0000     -20.622976      -561.1797
   3   2.0000     -20.615954      -560.9886
   4   2.0000     -20.609236      -560.8058
   5   2.0000     -20.597206      -560.4785
   6   2.0000     -20.515229      -558.2478
   7   2.0000     -15.830892      -430.7805
   8   2.0000     -11.244829      -305.9874
   9   2.0000     -11.244716      -305.9843
  10   2.0000      -7.596133      -206.7013
  11   2.0000      -6.189071      -168.4132
  12   2.0000      -5.494090      -149.5018
  13   2.0000      -5.493569      -149.4876
  14   2.0000      -5.492709      -149.4642
  15   2.0000      -4.295999      -116.9001
  16   2.0000      -4.294590      -116.8617
  17   2.0000      -4.294085      -116.8480
  18   2.0000      -1.615411       -43.9576
  19   2.0000      -1.441079       -39.2137
  20   2.0000      -1.413572       -38.4652
  21   2.0000      -1.389110       -37.7996
  22   2.0000      -1.306568       -35.5535
  23   2.0000      -1.020750       -27.7760
  24   2.0000      -0.976371       -26.5684
  25   2.0000      -0.953203       -25.9380
  26   2.0000      -0.855977       -23.2923
  27   2.0000      -0.813527       -22.1372
  28   2.0000      -0.762518       -20.7492
  29   2.0000      -0.740114       -20.1395
  30   2.0000      -0.721973       -19.6459
  31   2.0000      -0.694900       -18.9092
  32   2.0000      -0.661303       -17.9950
  33   2.0000      -0.636897       -17.3309
  34   2.0000      -0.622748       -16.9458
  35   2.0000      -0.603033       -16.4094
  36   2.0000      -0.597147       -16.2492
  37   2.0000      -0.592299       -16.1173
  38   2.0000      -0.589320       -16.0362
  39   2.0000      -0.571643       -15.5552
  40   2.0000      -0.545030       -14.8310
  41   2.0000      -0.520393       -14.1606
  42   2.0000      -0.512649       -13.9499
  43   2.0000      -0.497036       -13.5250
  44   2.0000      -0.478946       -13.0328
  45   2.0000      -0.475874       -12.9492
  46   2.0000      -0.473203       -12.8765
  47   2.0000      -0.430598       -11.7172
  48   0.0000       0.017093         0.4651
  49   0.0000       0.026782         0.7288
  50   0.0000       0.033474         0.9109
  51   0.0000       0.037140         1.0106
  52   0.0000       0.044336         1.2064

MULLIKEN ATOMIC CHARGES
-----------------------
   0 C :   -1.156782
   1 Si:    1.365459
   2 H :    0.285877
   3 H :    0.313064
   4 H :    0.321749
   5 C :   -1.154886
   6 H :    0.274821
   7 H :    0.311787
   8 H :    0.295322
   9 P :    2.219790
  10 N :    0.741129
  11 O :   -0.703654
  12 O :   -0.637577
  13 O :   -1.250756
  14 O :   -1.046221
  15 O :   -0.931402
  16 H :    0.344374
  17 H :    0.407906
Sum of atomic charges:   -0.0000000

LOEWDIN ATOMIC CHARGES
----------------------
   0 C :    0.975215
   1 Si:    0.003510
   2 H :   -0.335061
   3 H :   -0.333597
   4 H :   -0.333292
   5 C :    0.972937
   6 H :   -0.339750
   7 H :   -0.338858
   8 H :   -0.332970
   9 P :   -0.590443
  10 N :   -0.802157
  11 O :    0.531986
  12 O :    0.482184
  13 O :    0.252345
  14 O :    1.068274
  15 O :    1.065517
  16 H :   -0.860791
  17 H :   -1.085048

  Mayer bond orders larger than 0.100000
B(  0-C ,  1-Si) :   0.7843 B(  0-C ,  2-H ) :   0.9859 B(  0-C ,  3-H ) :   0.8965
B(  0-C ,  4-H ) :   0.8987 B(  1-Si,  5-C ) :   0.8395 B(  1-Si,  9-P ) :   0.9362
B(  1-Si, 10-N ) :   0.3720 B(  1-Si, 15-O ) :  -0.1691 B(  5-C ,  6-H ) :   0.9760
B(  5-C ,  7-H ) :   0.9115 B(  5-C ,  8-H ) :   0.9157 B(  9-P , 13-O ) :   1.2278
B(  9-P , 14-O ) :   0.6365 B(  9-P , 15-O ) :   0.5840 B( 10-N , 11-O ) :   1.0930
B( 10-N , 12-O ) :   1.2453 B( 11-O , 12-O ) :   0.1366 B( 14-O , 17-H ) :   0.8166
B( 15-O , 16-H ) :   0.9309

MP2 TOTAL ENERGY:    -1141.338135364 Eh
FINAL SINGLE POINT ENERGY     -1141.338135363627

DIPOLE MOMENT
-------------
                                X             Y             Z
Electronic contribution:     -4.28304      -6.79649      -0.70701
Nuclear contribution   :      4.82131       7.78368       0.16427
                        -----------------------------------------
Total Dipole Moment    :      0.53827       0.98719      -0.54273
                        -----------------------------------------
Magnitude (a.u.)       :      1.24853
Magnitude (Debye)      :      3.17352

Rotational constants in cm-1:     0.045913     0.026584     0.023413
Rotational constants in MHz :  1376.422555   796.977887   701.916299

                             ****ORCA TERMINATED NORMALLY****
TOTAL RUN TIME: 0 days 0 hours 45 minutes 12 seconds 297 msec
