                         Program Version 5.0.4 -  RELEASE  -
|  1> ! ri-mp2 aug-cc-pvdz aug-cc-pvdz/c tightscf
|  2> %pal nprocs 16 end
|  3> %maxcore 3800
|  4> %base "DZ_B-P_50_AB"
|  5> %scf
|  6> STABPerform true
|  7> STABRestartUHFifUnstable true
|  8> end
|  9>
| 10> *xyz 0 1
| 11> P         0.550929   -0.000000   -0.110099
| 12> B        -1.294184    0.000000    0.052031
| 13> H        -1.884522   -1.030645    0.022300
| 14> H        -1.884522    1.030645    0.022300
| 15> H         0.988015   -1.080807    0.673365
| 16> H         0.988015    1.080808    0.673364
| 17> *
| 18>
| 19> $new_job
| 20> ! ri-mp2 aug-cc-pvtz aug-cc-pvtz/c tightscf
| 21> %pal nprocs 16 end
| 22> %maxcore 3800
| 23> %base "TZ_B-P_50_AB"
| 24>
| 25> *xyz 0 1
| 26> P         0.550929   -0.000000   -0.110099
| 27> B        -1.294184    0.000000    0.052031
| 28> H        -1.884522   -1.030645    0.022300
| 29> H        -1.884522    1.030645    0.022300
| 30> H         0.988015   -1.080807    0.673365
| 31> H         0.988015    1.080808    0.673364
| 32> *
| 33>
| 34> $new_job
| 35> ! ri-mp2 aug-cc-pvqz aug-cc-pvqz/c tightscf
| 36> %pal nprocs 16 end
| 37> %maxcore 3800
| 38> %base "QZ_B-P_50_AB"
| 39>
| 40> *xyz 0 1
| 41> P         0.550929   -0.000000   -0.110099
| 42> B        -1.294184    0.000000    0.052031
| 43> H        -1.884522   -1.030645    0.022300
| 44> H        -1.884522    1.030645    0.022300
| 45> H         0.988015   -1.080807    0.673365
| 46> H         0.988015    1.080808    0.673364
| 47> *
| 48>
| 49>
| 50>
| 51>
| 52>                          ****END OF INPUT****
 Total Charge           Charge          ....    0
 Multiplicity           Mult            ....    1
 Number of Electrons    NEL             ....   24
MP2 TOTAL ENERGY:     -367.948432241 Eh
FINAL SINGLE POINT ENERGY      -367.948432240541
MP2 TOTAL ENERGY:     -368.017798587 Eh
FINAL SINGLE POINT ENERGY      -368.017798586510

CARTESIAN COORDINATES (ANGSTROEM)
---------------------------------
  P      0.550929   -0.000000   -0.110099
  B     -1.294184    0.000000    0.052031
  H     -1.884522   -1.030645    0.022300
  H     -1.884522    1.030645    0.022300
  H      0.988015   -1.080807    0.673365
  H      0.988015    1.080808    0.673364

 Multiplicity           Mult            ....    1
 Number of Electrons    NEL             ....   24
 Basis Dimension        Dim             ....  348

ORBITAL ENERGIES
----------------

  NO   OCC          E(Eh)            E(eV)
   0   2.0000     -79.930233     -2175.0122
   1   2.0000      -7.615559      -207.2299
   2   2.0000      -7.477052      -203.4609
   3   2.0000      -5.371483      -146.1655
   4   2.0000      -5.371192      -146.1576
   5   2.0000      -5.371023      -146.1530
   6   2.0000      -0.867476       -23.6052
   7   2.0000      -0.674669       -18.3587
   8   2.0000      -0.557608       -15.1733
   9   2.0000      -0.488574       -13.2948
  10   2.0000      -0.479102       -13.0370
  11   2.0000      -0.362228        -9.8567
  12   0.0000       0.025802         0.7021
  13   0.0000       0.032844         0.8937
  14   0.0000       0.035253         0.9593
  15   0.0000       0.035899         0.9769
  16   0.0000       0.056488         1.5371

MULLIKEN ATOMIC CHARGES
-----------------------
   0 P :    0.148580
   1 B :    0.248922
   2 H :   -0.160367
   3 H :   -0.160367
   4 H :   -0.038384
   5 H :   -0.038384
Sum of atomic charges:    0.0000000

LOEWDIN ATOMIC CHARGES
----------------------
   0 P :    1.542928
   1 B :    0.037764
   2 H :   -0.277809
   3 H :   -0.277809
   4 H :   -0.512537
   5 H :   -0.512537

  Mayer bond orders larger than 0.100000
B(  0-P ,  1-B ) :   1.2168 B(  0-P ,  4-H ) :   0.9026 B(  0-P ,  5-H ) :   0.9026
B(  1-B ,  2-H ) :   0.9402 B(  1-B ,  3-H ) :   0.9402

MP2 TOTAL ENERGY:     -368.039688704 Eh
FINAL SINGLE POINT ENERGY      -368.039688704373

DIPOLE MOMENT
-------------
                                X             Y             Z
Electronic contribution:      1.25202      -0.00000      -1.11143
Nuclear contribution   :     -1.25419       0.00000       1.43070
                        -----------------------------------------
Total Dipole Moment    :     -0.00217       0.00000       0.31927
                        -----------------------------------------
Magnitude (a.u.)       :      0.31927
Magnitude (Debye)      :      0.81153

Rotational constants in cm-1:     2.946042     0.445099     0.409716
Rotational constants in MHz : 88320.105589 13343.725005 12282.985774

                             ****ORCA TERMINATED NORMALLY****
TOTAL RUN TIME: 0 days 0 hours 6 minutes 42 seconds 499 msec
