                         Program Version 5.0.4 -  RELEASE  -
|  1> ! ri-mp2 aug-cc-pvdz aug-cc-pvdz/c tightscf
|  2> %pal nprocs 16 end
|  3> %maxcore 3800
|  4> %base "DZ_S-Cl_31_AB"
|  5> %scf
|  6> STABPerform true
|  7> STABRestartUHFifUnstable true
|  8> end
|  9>
| 10> *xyz 0 1
| 11> Cl        -1.819992    0.322484    0.000016
| 12> S        -0.259479   -0.979798   -0.000017
| 13> C         1.215876    0.032052   -0.000008
| 14> O         2.232898   -0.598674   -0.000008
| 15> C         1.113132    1.521759    0.000012
| 16> H         0.566868    1.865878   -0.877562
| 17> H         2.120560    1.929348    0.000019
| 18> H         0.566865    1.865853    0.877594
| 19> *
| 20>
| 21> $new_job
| 22> ! ri-mp2 aug-cc-pvtz aug-cc-pvtz/c tightscf
| 23> %pal nprocs 16 end
| 24> %maxcore 3800
| 25> %base "TZ_S-Cl_31_AB"
| 26>
| 27> *xyz 0 1
| 28> Cl        -1.819992    0.322484    0.000016
| 29> S        -0.259479   -0.979798   -0.000017
| 30> C         1.215876    0.032052   -0.000008
| 31> O         2.232898   -0.598674   -0.000008
| 32> C         1.113132    1.521759    0.000012
| 33> H         0.566868    1.865878   -0.877562
| 34> H         2.120560    1.929348    0.000019
| 35> H         0.566865    1.865853    0.877594
| 36> *
| 37>
| 38> $new_job
| 39> ! ri-mp2 aug-cc-pvqz aug-cc-pvqz/c tightscf
| 40> %pal nprocs 16 end
| 41> %maxcore 3800
| 42> %base "QZ_S-Cl_31_AB"
| 43>
| 44> *xyz 0 1
| 45> Cl        -1.819992    0.322484    0.000016
| 46> S        -0.259479   -0.979798   -0.000017
| 47> C         1.215876    0.032052   -0.000008
| 48> O         2.232898   -0.598674   -0.000008
| 49> C         1.113132    1.521759    0.000012
| 50> H         0.566868    1.865878   -0.877562
| 51> H         2.120560    1.929348    0.000019
| 52> H         0.566865    1.865853    0.877594
| 53> *
| 54>
| 55>
| 56>
| 57>
| 58>                          ****END OF INPUT****
 Total Charge           Charge          ....    0
 Multiplicity           Mult            ....    1
 Number of Electrons    NEL             ....   56
MP2 TOTAL ENERGY:    -1010.154960419 Eh
FINAL SINGLE POINT ENERGY     -1010.154960418776
MP2 TOTAL ENERGY:    -1010.402910757 Eh
FINAL SINGLE POINT ENERGY     -1010.402910757303

CARTESIAN COORDINATES (ANGSTROEM)
---------------------------------
  Cl    -1.819992    0.322484    0.000016
  S     -0.259479   -0.979798   -0.000017
  C      1.215876    0.032052   -0.000008
  O      2.232898   -0.598674   -0.000008
  C      1.113132    1.521759    0.000012
  H      0.566868    1.865878   -0.877562
  H      2.120560    1.929348    0.000019
  H      0.566865    1.865853    0.877594

 Multiplicity           Mult            ....    1
 Number of Electrons    NEL             ....   56
 Basis Dimension        Dim             ....  546

ORBITAL ENERGIES
----------------

  NO   OCC          E(Eh)            E(eV)
   0   2.0000    -104.871433     -2853.6968
   1   2.0000     -92.031658     -2504.3087
   2   2.0000     -20.578198      -559.9612
   3   2.0000     -11.386568      -309.8443
   4   2.0000     -11.259147      -306.3770
   5   2.0000     -10.595840      -288.3275
   6   2.0000      -9.030472      -245.7316
   7   2.0000      -8.062851      -219.4013
   8   2.0000      -8.060922      -219.3488
   9   2.0000      -8.060721      -219.3434
  10   2.0000      -6.711525      -182.6299
  11   2.0000      -6.709817      -182.5834
  12   2.0000      -6.708761      -182.5547
  13   2.0000      -1.434086       -39.0235
  14   2.0000      -1.165767       -31.7221
  15   2.0000      -1.048673       -28.5358
  16   2.0000      -0.963671       -26.2228
  17   2.0000      -0.759221       -20.6595
  18   2.0000      -0.679829       -18.4991
  19   2.0000      -0.658048       -17.9064
  20   2.0000      -0.637936       -17.3591
  21   2.0000      -0.584393       -15.9022
  22   2.0000      -0.548220       -14.9178
  23   2.0000      -0.529234       -14.4012
  24   2.0000      -0.525513       -14.2999
  25   2.0000      -0.501004       -13.6330
  26   2.0000      -0.424585       -11.5535
  27   2.0000      -0.385360       -10.4862
  28   0.0000       0.024684         0.6717
  29   0.0000       0.039181         1.0662
  30   0.0000       0.039549         1.0762
  31   0.0000       0.049432         1.3451
  32   0.0000       0.057474         1.5639

MULLIKEN ATOMIC CHARGES
-----------------------
   0 Cl:   -0.295077
   1 S :    0.356746
   2 C :    0.520164
   3 O :   -0.655811
   4 C :   -0.774370
   5 H :    0.258672
   6 H :    0.331002
   7 H :    0.258673
Sum of atomic charges:   -0.0000000

LOEWDIN ATOMIC CHARGES
----------------------
   0 Cl:    0.497053
   1 S :    0.404155
   2 C :   -1.228622
   3 O :    0.593536
   4 C :    0.741547
   5 H :   -0.341327
   6 H :   -0.325013
   7 H :   -0.341329

  Mayer bond orders larger than 0.100000
B(  0-Cl,  1-S ) :   0.9647 B(  1-S ,  2-C ) :   0.9761 B(  2-C ,  3-O ) :   1.5301
B(  2-C ,  4-C ) :   0.9689 B(  4-C ,  5-H ) :   0.9432 B(  4-C ,  6-H ) :   0.8928
B(  4-C ,  7-H ) :   0.9432

MP2 TOTAL ENERGY:    -1010.484453263 Eh
FINAL SINGLE POINT ENERGY     -1010.484453262732

DIPOLE MOMENT
-------------
                                X             Y             Z
Electronic contribution:     -5.99522      -4.05354      -0.00002
Nuclear contribution   :      5.61380       4.96619       0.00003
                        -----------------------------------------
Total Dipole Moment    :     -0.38142       0.91265       0.00000
                        -----------------------------------------
Magnitude (a.u.)       :      0.98915
Magnitude (Debye)      :      2.51421

Rotational constants in cm-1:     0.211317     0.070607     0.053445
Rotational constants in MHz :  6335.111015  2116.749368  1602.233926

                             ****ORCA TERMINATED NORMALLY****
TOTAL RUN TIME: 0 days 0 hours 14 minutes 59 seconds 336 msec
