                         Program Version 5.0.4 -  RELEASE  -
|  1> ! ri-mp2 aug-cc-pvdz aug-cc-pvdz/c tightscf
|  2> %pal nprocs 16 end
|  3> %maxcore 3800
|  4> %base "DZ_P-N_16_AB"
|  5>
|  6> *xyz 0 1
|  7> C        -1.776620    1.318078   -0.065640
|  8> C        -2.611747    0.223321    0.058484
|  9> C        -2.036597   -1.035741    0.110321
| 10> N        -0.729585   -1.241111    0.050698
| 11> C         0.073144   -0.183537   -0.062716
| 12> C        -0.410273    1.115664   -0.130727
| 13> H        -3.685504    0.335933    0.112981
| 14> H        -2.657219   -1.920169    0.204729
| 15> H         0.280807    1.940658   -0.230026
| 16> H        -2.184724    2.319590   -0.112093
| 17> N         2.611309    0.820459    0.252658
| 18> P         1.847829   -0.609954   -0.233097
| 19> H         1.880553   -1.401069    0.939804
| 20> H         2.572336    1.147250    1.204488
| 21> H         3.476812    1.044985   -0.205260
| 22> *
| 23>
| 24> $new_job
| 25> ! ri-mp2 aug-cc-pvtz aug-cc-pvtz/c tightscf
| 26> %pal nprocs 16 end
| 27> %maxcore 3800
| 28> %base "TZ_P-N_16_AB"
| 29>
| 30> *xyz 0 1
| 31> C        -1.776620    1.318078   -0.065640
| 32> C        -2.611747    0.223321    0.058484
| 33> C        -2.036597   -1.035741    0.110321
| 34> N        -0.729585   -1.241111    0.050698
| 35> C         0.073144   -0.183537   -0.062716
| 36> C        -0.410273    1.115664   -0.130727
| 37> H        -3.685504    0.335933    0.112981
| 38> H        -2.657219   -1.920169    0.204729
| 39> H         0.280807    1.940658   -0.230026
| 40> H        -2.184724    2.319590   -0.112093
| 41> N         2.611309    0.820459    0.252658
| 42> P         1.847829   -0.609954   -0.233097
| 43> H         1.880553   -1.401069    0.939804
| 44> H         2.572336    1.147250    1.204488
| 45> H         3.476812    1.044985   -0.205260
| 46> *
| 47>
| 48> $new_job
| 49> ! ri-mp2 aug-cc-pvqz aug-cc-pvqz/c tightscf
| 50> %pal nprocs 16 end
| 51> %maxcore 3800
| 52> %base "QZ_P-N_16_AB"
| 53>
| 54> *xyz 0 1
| 55> C        -1.776620    1.318078   -0.065640
| 56> C        -2.611747    0.223321    0.058484
| 57> C        -2.036597   -1.035741    0.110321
| 58> N        -0.729585   -1.241111    0.050698
| 59> C         0.073144   -0.183537   -0.062716
| 60> C        -0.410273    1.115664   -0.130727
| 61> H        -3.685504    0.335933    0.112981
| 62> H        -2.657219   -1.920169    0.204729
| 63> H         0.280807    1.940658   -0.230026
| 64> H        -2.184724    2.319590   -0.112093
| 65> N         2.611309    0.820459    0.252658
| 66> P         1.847829   -0.609954   -0.233097
| 67> H         1.880553   -1.401069    0.939804
| 68> H         2.572336    1.147250    1.204488
| 69> H         3.476812    1.044985   -0.205260
| 70> *
| 71>
| 72>
| 73>
| 74>
| 75>                          ****END OF INPUT****
 Total Charge           Charge          ....    0
 Multiplicity           Mult            ....    1
 Number of Electrons    NEL             ....   66
MP2 TOTAL ENERGY:     -644.232092393 Eh
FINAL SINGLE POINT ENERGY      -644.232092393368
MP2 TOTAL ENERGY:     -644.543074607 Eh
FINAL SINGLE POINT ENERGY      -644.543074607430

CARTESIAN COORDINATES (ANGSTROEM)
---------------------------------
  C     -1.776620    1.318078   -0.065640
  C     -2.611747    0.223321    0.058484
  C     -2.036597   -1.035741    0.110321
  N     -0.729585   -1.241111    0.050698
  C      0.073144   -0.183537   -0.062716
  C     -0.410273    1.115664   -0.130727
  H     -3.685504    0.335933    0.112981
  H     -2.657219   -1.920169    0.204729
  H      0.280807    1.940658   -0.230026
  H     -2.184724    2.319590   -0.112093
  N      2.611309    0.820459    0.252658
  P      1.847829   -0.609954   -0.233097
  H      1.880553   -1.401069    0.939804
  H      2.572336    1.147250    1.204488
  H      3.476812    1.044985   -0.205260

 Multiplicity           Mult            ....    1
 Number of Electrons    NEL             ....   66
 Basis Dimension        Dim             ....  966

ORBITAL ENERGIES
----------------

  NO   OCC          E(Eh)            E(eV)
   0   2.0000     -79.954298     -2175.6671
   1   2.0000     -15.559285      -423.3897
   2   2.0000     -15.553357      -423.2284
   3   2.0000     -11.270886      -306.6964
   4   2.0000     -11.269929      -306.6703
   5   2.0000     -11.254346      -306.2463
   6   2.0000     -11.235433      -305.7317
   7   2.0000     -11.233405      -305.6765
   8   2.0000      -7.493037      -203.8959
   9   2.0000      -5.387414      -146.5990
  10   2.0000      -5.386815      -146.5827
  11   2.0000      -5.386294      -146.5685
  12   2.0000      -1.263531       -34.3824
  13   2.0000      -1.167830       -31.7783
  14   2.0000      -1.089892       -29.6575
  15   2.0000      -1.036703       -28.2101
  16   2.0000      -0.878661       -23.9096
  17   2.0000      -0.858557       -23.3625
  18   2.0000      -0.794212       -21.6116
  19   2.0000      -0.702626       -19.1194
  20   2.0000      -0.679278       -18.4841
  21   2.0000      -0.667350       -18.1595
  22   2.0000      -0.634631       -17.2692
  23   2.0000      -0.587145       -15.9770
  24   2.0000      -0.582364       -15.8469
  25   2.0000      -0.561813       -15.2877
  26   2.0000      -0.547764       -14.9054
  27   2.0000      -0.502287       -13.6679
  28   2.0000      -0.426057       -11.5936
  29   2.0000      -0.410686       -11.1753
  30   2.0000      -0.388623       -10.5750
  31   2.0000      -0.373604       -10.1663
  32   2.0000      -0.322241        -8.7686
  33   0.0000       0.021849         0.5945
  34   0.0000       0.026378         0.7178
  35   0.0000       0.031948         0.8693
  36   0.0000       0.040976         1.1150
  37   0.0000       0.042097         1.1455

MULLIKEN ATOMIC CHARGES
-----------------------
   0 C :   -0.178647
   1 C :   -0.318890
   2 C :   -0.397595
   3 N :   -0.548605
   4 C :    0.094021
   5 C :   -0.336804
   6 H :    0.369806
   7 H :    0.468330
   8 H :    0.386697
   9 H :    0.275428
  10 N :   -0.902785
  11 P :    0.693474
  12 H :   -0.089942
  13 H :    0.250646
  14 H :    0.234865
Sum of atomic charges:    0.0000000

LOEWDIN ATOMIC CHARGES
----------------------
   0 C :    0.326024
   1 C :    0.326494
   2 C :    0.064400
   3 N :    0.494657
   4 C :   -0.557350
   5 C :    0.245369
   6 H :   -0.328316
   7 H :   -0.348957
   8 H :   -0.361296
   9 H :   -0.311501
  10 N :    0.993945
  11 P :    1.068380
  12 H :   -0.425917
  13 H :   -0.574903
  14 H :   -0.611029

  Mayer bond orders larger than 0.100000
B(  0-C ,  1-C ) :   1.1901 B(  0-C ,  4-C ) :  -0.2763 B(  0-C ,  5-C ) :   1.1776
B(  0-C ,  9-H ) :   1.0728 B(  1-C ,  2-C ) :   1.3046 B(  1-C ,  6-H ) :   0.9389
B(  2-C ,  3-N ) :   1.3402 B(  2-C ,  5-C ) :   0.1727 B(  2-C ,  7-H ) :   0.8644
B(  3-N ,  4-C ) :   1.0869 B(  4-C ,  5-C ) :   0.7484 B(  4-C , 10-N ) :  -0.1148
B(  4-C , 11-P ) :   0.8434 B(  5-C ,  8-H ) :   0.9154 B(  5-C ,  9-H ) :  -0.1239
B(  5-C , 11-P ) :  -0.1627 B( 10-N , 11-P ) :   0.8633 B( 10-N , 13-H ) :   0.9672
B( 10-N , 14-H ) :   1.0061 B( 11-P , 12-H ) :   0.9311

MP2 TOTAL ENERGY:     -644.642627011 Eh
FINAL SINGLE POINT ENERGY      -644.642627010947

DIPOLE MOMENT
-------------
                                X             Y             Z
Electronic contribution:      1.92561      -2.93914      -1.62791
Nuclear contribution   :     -2.03056       3.97676       2.10200
                        -----------------------------------------
Total Dipole Moment    :     -0.10495       1.03761       0.47409
                        -----------------------------------------
Magnitude (a.u.)       :      1.14561
Magnitude (Debye)      :      2.91190

Rotational constants in cm-1:     0.146516     0.038826     0.031324
Rotational constants in MHz :  4392.449847  1163.964593   939.071845

                             ****ORCA TERMINATED NORMALLY****
TOTAL RUN TIME: 0 days 0 hours 23 minutes 43 seconds 570 msec
