                         Program Version 5.0.4 -  RELEASE  -
|  1> ! ri-mp2 aug-cc-pvdz aug-cc-pvdz/c tightscf
|  2> %pal nprocs 16 end
|  3> %maxcore 3800
|  4> %base "DZ_Si-Cl_65_AB"
|  5>
|  6> *xyz 0 1
|  7> C        -3.018787    1.134635   -0.001646
|  8> C        -1.635809    1.187789   -0.025681
|  9> N        -3.705163    0.000000    0.010614
| 10> C        -3.018786   -1.134635   -0.001646
| 11> C        -1.635809   -1.187788   -0.025681
| 12> C        -0.914714    0.000001   -0.037176
| 13> H        -3.600252    2.049574    0.005536
| 14> H        -1.138008    2.147870   -0.042239
| 15> H        -3.600250   -2.049575    0.005537
| 16> H        -1.138007   -2.147869   -0.042238
| 17> Si         0.935009    0.000000   -0.006475
| 18> Cl         1.656139   -1.658101   -0.937795
| 19> Cl         1.609248   -0.000013    1.913260
| 20> Cl         1.656140    1.658113   -0.937774
| 21> *
| 22>
| 23> $new_job
| 24> ! ri-mp2 aug-cc-pvtz aug-cc-pvtz/c tightscf
| 25> %pal nprocs 16 end
| 26> %maxcore 3800
| 27> %base "TZ_Si-Cl_65_AB"
| 28>
| 29> *xyz 0 1
| 30> C        -3.018787    1.134635   -0.001646
| 31> C        -1.635809    1.187789   -0.025681
| 32> N        -3.705163    0.000000    0.010614
| 33> C        -3.018786   -1.134635   -0.001646
| 34> C        -1.635809   -1.187788   -0.025681
| 35> C        -0.914714    0.000001   -0.037176
| 36> H        -3.600252    2.049574    0.005536
| 37> H        -1.138008    2.147870   -0.042239
| 38> H        -3.600250   -2.049575    0.005537
| 39> H        -1.138007   -2.147869   -0.042238
| 40> Si         0.935009    0.000000   -0.006475
| 41> Cl         1.656139   -1.658101   -0.937795
| 42> Cl         1.609248   -0.000013    1.913260
| 43> Cl         1.656140    1.658113   -0.937774
| 44> *
| 45>
| 46> $new_job
| 47> ! ri-mp2 aug-cc-pvqz aug-cc-pvqz/c tightscf
| 48> %pal nprocs 16 end
| 49> %maxcore 3800
| 50> %base "QZ_Si-Cl_65_AB"
| 51>
| 52> *xyz 0 1
| 53> C        -3.018787    1.134635   -0.001646
| 54> C        -1.635809    1.187789   -0.025681
| 55> N        -3.705163    0.000000    0.010614
| 56> C        -3.018786   -1.134635   -0.001646
| 57> C        -1.635809   -1.187788   -0.025681
| 58> C        -0.914714    0.000001   -0.037176
| 59> H        -3.600252    2.049574    0.005536
| 60> H        -1.138008    2.147870   -0.042239
| 61> H        -3.600250   -2.049575    0.005537
| 62> H        -1.138007   -2.147869   -0.042238
| 63> Si         0.935009    0.000000   -0.006475
| 64> Cl         1.656139   -1.658101   -0.937795
| 65> Cl         1.609248   -0.000013    1.913260
| 66> Cl         1.656140    1.658113   -0.937774
| 67> *
| 68>
| 69>
| 70>
| 71>
| 72>                          ****END OF INPUT****
 Total Charge           Charge          ....    0
 Multiplicity           Mult            ....    1
 Number of Electrons    NEL             ....  106
MP2 TOTAL ENERGY:    -1915.126015135 Eh
FINAL SINGLE POINT ENERGY     -1915.126015134597
MP2 TOTAL ENERGY:    -1915.559384634 Eh
FINAL SINGLE POINT ENERGY     -1915.559384633848

CARTESIAN COORDINATES (ANGSTROEM)
---------------------------------
  C     -3.018787    1.134635   -0.001646
  C     -1.635809    1.187789   -0.025681
  N     -3.705163    0.000000    0.010614
  C     -3.018786   -1.134635   -0.001646
  C     -1.635809   -1.187788   -0.025681
  C     -0.914714    0.000001   -0.037176
  H     -3.600252    2.049574    0.005536
  H     -1.138008    2.147870   -0.042239
  H     -3.600250   -2.049575    0.005537
  H     -1.138007   -2.147869   -0.042238
  Si     0.935009    0.000000   -0.006475
  Cl     1.656139   -1.658101   -0.937795
  Cl     1.609248   -0.000013    1.913260
  Cl     1.656140    1.658113   -0.937774

 Multiplicity           Mult            ....    1
 Number of Electrons    NEL             ....  106
 Basis Dimension        Dim             .... 1000

ORBITAL ENERGIES
----------------

  NO   OCC          E(Eh)            E(eV)
   0   2.0000    -104.853049     -2853.1965
   1   2.0000    -104.853048     -2853.1965
   2   2.0000    -104.850054     -2853.1150
   3   2.0000     -68.904465     -1874.9858
   4   2.0000     -15.580471      -423.9662
   5   2.0000     -11.285524      -307.0947
   6   2.0000     -11.285507      -307.0943
   7   2.0000     -11.266210      -306.5692
   8   2.0000     -11.260486      -306.4134
   9   2.0000     -11.260340      -306.4094
  10   2.0000     -10.580760      -287.9171
  11   2.0000     -10.580754      -287.9170
  12   2.0000     -10.577714      -287.8342
  13   2.0000      -8.047535      -218.9846
  14   2.0000      -8.047534      -218.9845
  15   2.0000      -8.046343      -218.9521
  16   2.0000      -8.046343      -218.9521
  17   2.0000      -8.046329      -218.9517
  18   2.0000      -8.046328      -218.9517
  19   2.0000      -8.044480      -218.9014
  20   2.0000      -8.043282      -218.8688
  21   2.0000      -8.043267      -218.8684
  22   2.0000      -6.240864      -169.8225
  23   2.0000      -4.348473      -118.3280
  24   2.0000      -4.348234      -118.3215
  25   2.0000      -4.346920      -118.2857
  26   2.0000      -1.281306       -34.8661
  27   2.0000      -1.157670       -31.5018
  28   2.0000      -1.112508       -30.2729
  29   2.0000      -1.109461       -30.1900
  30   2.0000      -1.105997       -30.0957
  31   2.0000      -1.053372       -28.6637
  32   2.0000      -0.876893       -23.8615
  33   2.0000      -0.876184       -23.8422
  34   2.0000      -0.751171       -20.4404
  35   2.0000      -0.688575       -18.7371
  36   2.0000      -0.686673       -18.6853
  37   2.0000      -0.663693       -18.0600
  38   2.0000      -0.616081       -16.7644
  39   2.0000      -0.585771       -15.9396
  40   2.0000      -0.579207       -15.7610
  41   2.0000      -0.569269       -15.4906
  42   2.0000      -0.559378       -15.2214
  43   2.0000      -0.536621       -14.6022
  44   2.0000      -0.509420       -13.8620
  45   2.0000      -0.509017       -13.8511
  46   2.0000      -0.486487       -13.2380
  47   2.0000      -0.482679       -13.1344
  48   2.0000      -0.482537       -13.1305
  49   2.0000      -0.467462       -12.7203
  50   2.0000      -0.427904       -11.6439
  51   2.0000      -0.404325       -11.0022
  52   2.0000      -0.364421        -9.9164
  53   0.0000       0.022038         0.5997
  54   0.0000       0.027438         0.7466
  55   0.0000       0.034026         0.9259
  56   0.0000       0.039093         1.0638
  57   0.0000       0.043282         1.1778

MULLIKEN ATOMIC CHARGES
-----------------------
   0 C :   -0.172834
   1 C :   -0.530735
   2 N :   -0.645520
   3 C :   -0.172835
   4 C :   -0.530732
   5 C :    0.000625
   6 H :    0.480409
   7 H :    0.341192
   8 H :    0.480407
   9 H :    0.341190
  10 Si:    2.392698
  11 Cl:   -0.681343
  12 Cl:   -0.621178
  13 Cl:   -0.681344
Sum of atomic charges:    0.0000000

LOEWDIN ATOMIC CHARGES
----------------------
   0 C :    0.084573
   1 C :    0.217433
   2 N :    0.602966
   3 C :    0.084572
   4 C :    0.217432
   5 C :   -0.246980
   6 H :   -0.345108
   7 H :   -0.366344
   8 H :   -0.345108
   9 H :   -0.366343
  10 Si:   -2.339497
  11 Cl:    0.942400
  12 Cl:    0.917604
  13 Cl:    0.942400

  Mayer bond orders larger than 0.100000
B(  0-C ,  1-C ) :   1.3078 B(  0-C ,  2-N ) :   1.1600 B(  0-C ,  5-C ) :  -0.2927
B(  0-C ,  6-H ) :   0.8934 B(  1-C ,  5-C ) :   0.9046 B(  1-C ,  6-H ) :  -0.1347
B(  1-C ,  7-H ) :   0.9505 B(  2-N ,  3-C ) :   1.1600 B(  2-N ,  6-H ) :  -0.1233
B(  2-N ,  8-H ) :  -0.1233 B(  3-C ,  4-C ) :   1.3078 B(  3-C ,  5-C ) :  -0.2927
B(  3-C ,  8-H ) :   0.8934 B(  4-C ,  5-C ) :   0.9046 B(  4-C ,  8-H ) :  -0.1347
B(  4-C ,  9-H ) :   0.9505 B(  5-C ,  7-H ) :  -0.1055 B(  5-C ,  9-H ) :  -0.1055
B(  5-C , 10-Si) :   1.0891 B( 10-Si, 11-Cl) :   0.3679 B( 10-Si, 12-Cl) :   0.3592
B( 10-Si, 13-Cl) :   0.3679

MP2 TOTAL ENERGY:    -1915.703062890 Eh
FINAL SINGLE POINT ENERGY     -1915.703062889517

DIPOLE MOMENT
-------------
                                X             Y             Z
Electronic contribution:     15.55267      -0.00000       0.08119
Nuclear contribution   :    -15.54476       0.00000      -0.11883
                        -----------------------------------------
Total Dipole Moment    :      0.00791       0.00000      -0.03764
                        -----------------------------------------
Magnitude (a.u.)       :      0.03847
Magnitude (Debye)      :      0.09777

Rotational constants in cm-1:     0.035890     0.016592     0.015306
Rotational constants in MHz :  1075.953442   497.411976   458.863121

                             ****ORCA TERMINATED NORMALLY****
TOTAL RUN TIME: 0 days 0 hours 28 minutes 4 seconds 605 msec
