                         Program Version 5.0.4 -  RELEASE  -
|  1> ! ri-mp2 aug-cc-pvdz aug-cc-pvdz/c tightscf
|  2> %pal nprocs 16 end
|  3> %maxcore 3800
|  4> %base "DZ_B-B_42_A"
|  5> %scf
|  6> STABPerform true
|  7> STABRestartUHFifUnstable true
|  8> end
|  9>
| 10> *xyz 0 2
| 11> B        -1.732417    0.294028    0.000000
| 12> O        -0.633669   -0.507483   -0.000000
| 13> C         0.592769   -0.088154   -0.000000
| 14> N         1.692321    0.233600    0.000000
| 15> H        -1.671424    1.483451    0.000001
| 16> *
| 17>
| 18> $new_job
| 19> ! ri-mp2 aug-cc-pvtz aug-cc-pvtz/c tightscf
| 20> %pal nprocs 16 end
| 21> %maxcore 3800
| 22> %base "TZ_B-B_42_A"
| 23>
| 24> *xyz 0 2
| 25> B        -1.732417    0.294028    0.000000
| 26> O        -0.633669   -0.507483   -0.000000
| 27> C         0.592769   -0.088154   -0.000000
| 28> N         1.692321    0.233600    0.000000
| 29> H        -1.671424    1.483451    0.000001
| 30> *
| 31>
| 32> $new_job
| 33> ! ri-mp2 aug-cc-pvqz aug-cc-pvqz/c tightscf
| 34> %pal nprocs 16 end
| 35> %maxcore 3800
| 36> %base "QZ_B-B_42_A"
| 37>
| 38> *xyz 0 2
| 39> B        -1.732417    0.294028    0.000000
| 40> O        -0.633669   -0.507483   -0.000000
| 41> C         0.592769   -0.088154   -0.000000
| 42> N         1.692321    0.233600    0.000000
| 43> H        -1.671424    1.483451    0.000001
| 44> *
| 45>
| 46>
| 47>
| 48>
| 49>                          ****END OF INPUT****
 Total Charge           Charge          ....    0
 Multiplicity           Mult            ....    2
 Number of Electrons    NEL             ....   27
MP2 TOTAL ENERGY:     -192.935779237 Eh
FINAL SINGLE POINT ENERGY      -192.935779237107
MP2 TOTAL ENERGY:     -193.096454028 Eh
FINAL SINGLE POINT ENERGY      -193.096454028263

CARTESIAN COORDINATES (ANGSTROEM)
---------------------------------
  B     -1.732417    0.294028    0.000000
  O     -0.633669   -0.507483   -0.000000
  C      0.592769   -0.088154   -0.000000
  N      1.692321    0.233600    0.000000
  H     -1.671424    1.483451    0.000001

 Multiplicity           Mult            ....    2
 Number of Electrons    NEL             ....   27
 Basis Dimension        Dim             ....  366

ORBITAL ENERGIES
----------------
                 SPIN UP ORBITALS
  NO   OCC          E(Eh)            E(eV)
   0   1.0000     -20.688712      -562.9685
   1   1.0000     -15.583587      -424.0510
   2   1.0000     -11.355346      -308.9947
   3   1.0000      -7.714396      -209.9194
   4   1.0000      -1.515681       -41.2438
   5   1.0000      -1.239543       -33.7297
   6   1.0000      -0.926579       -25.2135
   7   1.0000      -0.755399       -20.5555
   8   1.0000      -0.694927       -18.9099
   9   1.0000      -0.633838       -17.2476
  10   1.0000      -0.580817       -15.8048
  11   1.0000      -0.481976       -13.1152
  12   1.0000      -0.473491       -12.8844
  13   1.0000      -0.401722       -10.9314
  14   0.0000       0.021488         0.5847
  15   0.0000       0.024491         0.6664
  16   0.0000       0.033335         0.9071
  17   0.0000       0.038542         1.0488
  18   0.0000       0.065344         1.7781

                 SPIN DOWN ORBITALS
  NO   OCC          E(Eh)            E(eV)
   0   1.0000     -20.687626      -562.9389
   1   1.0000     -15.584997      -424.0893
   2   1.0000     -11.352679      -308.9221
   3   1.0000      -7.692921      -209.3350
   4   1.0000      -1.511975       -41.1429
   5   1.0000      -1.240756       -33.7627
   6   1.0000      -0.908916       -24.7329
   7   1.0000      -0.739987       -20.1361
   8   1.0000      -0.695574       -18.9275
   9   1.0000      -0.596996       -16.2451
  10   1.0000      -0.582289       -15.8449
  11   1.0000      -0.481807       -13.1106
  12   1.0000      -0.476160       -12.9570
  13   0.0000       0.018409         0.5009
  14   0.0000       0.027909         0.7594
  15   0.0000       0.033615         0.9147
  16   0.0000       0.037640         1.0242
  17   0.0000       0.057172         1.5557

MULLIKEN ATOMIC CHARGES AND SPIN POPULATIONS
--------------------------------------------
   0 B :    0.611160    1.001632
   1 O :   -0.744305   -0.061457
   2 C :    0.862549    0.068846
   3 N :   -0.594705   -0.044759
   4 H :   -0.134700    0.035739
Sum of atomic charges         :    0.0000000

LOEWDIN ATOMIC CHARGES AND SPIN POPULATIONS
-------------------------------------------
   0 B :   -0.004670    0.617527
   1 O :    0.725292    0.180813
   2 C :   -0.788539    0.041027
   3 N :    0.348270   -0.018281
   4 H :   -0.280353    0.178914

  Mayer bond orders larger than 0.100000
B(  0-B ,  1-O ) :   0.6266 B(  0-B ,  4-H ) :   0.9616 B(  1-O ,  2-C ) :   1.0487
B(  2-C ,  3-N ) :   2.6993

MP2 TOTAL ENERGY:     -193.148425040 Eh
FINAL SINGLE POINT ENERGY      -193.148425040414

DIPOLE MOMENT
-------------
                                X             Y             Z
Electronic contribution:     -0.97050      -1.12670      -0.00000
Nuclear contribution   :     -0.25949       1.16787       0.00000
                        -----------------------------------------
Total Dipole Moment    :     -1.22999       0.04118       0.00000
                        -----------------------------------------
Magnitude (a.u.)       :      1.23068
Magnitude (Debye)      :      3.12815

Rotational constants in cm-1:     2.094518     0.195854     0.179106
Rotational constants in MHz : 62792.074066  5871.562533  5369.473680

                             ****ORCA TERMINATED NORMALLY****
TOTAL RUN TIME: 0 days 0 hours 10 minutes 15 seconds 581 msec
