                         Program Version 5.0.4 -  RELEASE  -
|  1> ! ri-mp2 aug-cc-pvdz aug-cc-pvdz/c tightscf
|  2> %pal nprocs 16 end
|  3> %maxcore 3800
|  4> %base "DZ_B-P_43_AB"
|  5> %scf
|  6> STABPerform true
|  7> STABRestartUHFifUnstable true
|  8> end
|  9>
| 10> *xyz 0 1
| 11> P         0.734737   -0.593163   -0.093081
| 12> C        -0.986882   -0.326185    0.489036
| 13> B         1.757377    0.905960    0.128425
| 14> N        -1.761497    0.527479   -0.393159
| 15> H        -0.885453    0.037350    1.520280
| 16> H        -1.476159   -1.299075    0.545040
| 17> H        -1.356092    1.451194   -0.461618
| 18> H        -2.717804    0.618422   -0.074548
| 19> H         2.704903    1.077828   -0.567532
| 20> H         1.569761    1.602513    1.075666
| 21> H         0.604679   -0.855834   -1.465302
| 22> *
| 23>
| 24> $new_job
| 25> ! ri-mp2 aug-cc-pvtz aug-cc-pvtz/c tightscf
| 26> %pal nprocs 16 end
| 27> %maxcore 3800
| 28> %base "TZ_B-P_43_AB"
| 29>
| 30> *xyz 0 1
| 31> P         0.734737   -0.593163   -0.093081
| 32> C        -0.986882   -0.326185    0.489036
| 33> B         1.757377    0.905960    0.128425
| 34> N        -1.761497    0.527479   -0.393159
| 35> H        -0.885453    0.037350    1.520280
| 36> H        -1.476159   -1.299075    0.545040
| 37> H        -1.356092    1.451194   -0.461618
| 38> H        -2.717804    0.618422   -0.074548
| 39> H         2.704903    1.077828   -0.567532
| 40> H         1.569761    1.602513    1.075666
| 41> H         0.604679   -0.855834   -1.465302
| 42> *
| 43>
| 44> $new_job
| 45> ! ri-mp2 aug-cc-pvqz aug-cc-pvqz/c tightscf
| 46> %pal nprocs 16 end
| 47> %maxcore 3800
| 48> %base "QZ_B-P_43_AB"
| 49>
| 50> *xyz 0 1
| 51> P         0.734737   -0.593163   -0.093081
| 52> C        -0.986882   -0.326185    0.489036
| 53> B         1.757377    0.905960    0.128425
| 54> N        -1.761497    0.527479   -0.393159
| 55> H        -0.885453    0.037350    1.520280
| 56> H        -1.476159   -1.299075    0.545040
| 57> H        -1.356092    1.451194   -0.461618
| 58> H        -2.717804    0.618422   -0.074548
| 59> H         2.704903    1.077828   -0.567532
| 60> H         1.569761    1.602513    1.075666
| 61> H         0.604679   -0.855834   -1.465302
| 62> *
| 63>
| 64>
| 65>
| 66>
| 67>                          ****END OF INPUT****
 Total Charge           Charge          ....    0
 Multiplicity           Mult            ....    1
 Number of Electrons    NEL             ....   40
MP2 TOTAL ENERGY:     -462.348167188 Eh
FINAL SINGLE POINT ENERGY      -462.348167188033
MP2 TOTAL ENERGY:     -462.505022419 Eh
FINAL SINGLE POINT ENERGY      -462.505022419210

CARTESIAN COORDINATES (ANGSTROEM)
---------------------------------
  P      0.734737   -0.593163   -0.093081
  C     -0.986882   -0.326185    0.489036
  B      1.757377    0.905960    0.128425
  N     -1.761497    0.527479   -0.393159
  H     -0.885453    0.037350    1.520280
  H     -1.476159   -1.299075    0.545040
  H     -1.356092    1.451194   -0.461618
  H     -2.717804    0.618422   -0.074548
  H      2.704903    1.077828   -0.567532
  H      1.569761    1.602513    1.075666
  H      0.604679   -0.855834   -1.465302

 Multiplicity           Mult            ....    1
 Number of Electrons    NEL             ....   40
 Basis Dimension        Dim             ....  646

ORBITAL ENERGIES
----------------

  NO   OCC          E(Eh)            E(eV)
   0   2.0000     -79.921182     -2174.7659
   1   2.0000     -15.551303      -423.1725
   2   2.0000     -11.268156      -306.6221
   3   2.0000      -7.603927      -206.9134
   4   2.0000      -7.468411      -203.2258
   5   2.0000      -5.363041      -145.9358
   6   2.0000      -5.362967      -145.9337
   7   2.0000      -5.362472      -145.9203
   8   2.0000      -1.189499       -32.3679
   9   2.0000      -0.942979       -25.6598
  10   2.0000      -0.811972       -22.0949
  11   2.0000      -0.676531       -18.4093
  12   2.0000      -0.664738       -18.0884
  13   2.0000      -0.627983       -17.0883
  14   2.0000      -0.569551       -15.4983
  15   2.0000      -0.527769       -14.3613
  16   2.0000      -0.479514       -13.0483
  17   2.0000      -0.459504       -12.5038
  18   2.0000      -0.401455       -10.9241
  19   2.0000      -0.338220        -9.2034
  20   0.0000       0.021784         0.5928
  21   0.0000       0.030405         0.8274
  22   0.0000       0.034200         0.9306
  23   0.0000       0.035944         0.9781
  24   0.0000       0.043721         1.1897

MULLIKEN ATOMIC CHARGES
-----------------------
   0 P :    0.273684
   1 C :   -0.450895
   2 B :    0.198529
   3 N :   -0.691034
   4 H :    0.250432
   5 H :    0.289009
   6 H :    0.284315
   7 H :    0.229633
   8 H :   -0.228122
   9 H :   -0.138204
  10 H :   -0.017347
Sum of atomic charges:    0.0000000

LOEWDIN ATOMIC CHARGES
----------------------
   0 P :    1.297837
   1 C :    0.140454
   2 B :    0.090938
   3 N :    1.213877
   4 H :   -0.360710
   5 H :   -0.375796
   6 H :   -0.536272
   7 H :   -0.509217
   8 H :   -0.272810
   9 H :   -0.259938
  10 H :   -0.428363

  Mayer bond orders larger than 0.100000
B(  0-P ,  1-C ) :   0.8887 B(  0-P ,  2-B ) :   1.3337 B(  0-P , 10-H ) :   0.9451
B(  1-C ,  3-N ) :   0.9085 B(  1-C ,  4-H ) :   0.9038 B(  1-C ,  5-H ) :   0.8942
B(  2-B ,  8-H ) :   0.9227 B(  2-B ,  9-H ) :   0.9360 B(  3-N ,  6-H ) :   0.8757
B(  3-N ,  7-H ) :   0.9525

MP2 TOTAL ENERGY:     -462.554326464 Eh
FINAL SINGLE POINT ENERGY      -462.554326464287

DIPOLE MOMENT
-------------
                                X             Y             Z
Electronic contribution:      3.08882      -2.14603      -0.28191
Nuclear contribution   :     -3.69538       2.47912       0.55680
                        -----------------------------------------
Total Dipole Moment    :     -0.60655       0.33309       0.27489
                        -----------------------------------------
Magnitude (a.u.)       :      0.74460
Magnitude (Debye)      :      1.89262

Rotational constants in cm-1:     0.370756     0.120753     0.104545
Rotational constants in MHz : 11114.999451  3620.096022  3134.194633

                             ****ORCA TERMINATED NORMALLY****
TOTAL RUN TIME: 0 days 0 hours 23 minutes 45 seconds 833 msec
