                         Program Version 5.0.4 -  RELEASE  -
|  1> ! ri-mp2 aug-cc-pvdz aug-cc-pvdz/c tightscf
|  2> %pal nprocs 16 end
|  3> %maxcore 3800
|  4> %base "DZ_B-B_66_AB"
|  5> %scf
|  6> STABPerform true
|  7> STABRestartUHFifUnstable true
|  8> end
|  9>
| 10> *xyz 0 1
| 11> B         2.388416   -0.000015   -0.360409
| 12> B         1.105884   -0.000007    0.624775
| 13> B        -0.504630   -0.000006    0.107220
| 14> O        -1.120363    1.203910   -0.089386
| 15> O        -1.120398   -1.203901   -0.089382
| 16> H        -2.040851    1.178937   -0.369222
| 17> H        -2.040881   -1.178900   -0.369230
| 18> H         1.289966    0.000019    1.809419
| 19> H         2.884719    1.015317   -0.749371
| 20> H         2.884781   -1.015305   -0.749392
| 21> *
| 22>
| 23> $new_job
| 24> ! ri-mp2 aug-cc-pvtz aug-cc-pvtz/c tightscf
| 25> %pal nprocs 16 end
| 26> %maxcore 3800
| 27> %base "TZ_B-B_66_AB"
| 28>
| 29> *xyz 0 1
| 30> B         2.388416   -0.000015   -0.360409
| 31> B         1.105884   -0.000007    0.624775
| 32> B        -0.504630   -0.000006    0.107220
| 33> O        -1.120363    1.203910   -0.089386
| 34> O        -1.120398   -1.203901   -0.089382
| 35> H        -2.040851    1.178937   -0.369222
| 36> H        -2.040881   -1.178900   -0.369230
| 37> H         1.289966    0.000019    1.809419
| 38> H         2.884719    1.015317   -0.749371
| 39> H         2.884781   -1.015305   -0.749392
| 40> *
| 41>
| 42> $new_job
| 43> ! ri-mp2 aug-cc-pvqz aug-cc-pvqz/c tightscf
| 44> %pal nprocs 16 end
| 45> %maxcore 3800
| 46> %base "QZ_B-B_66_AB"
| 47>
| 48> *xyz 0 1
| 49> B         2.388416   -0.000015   -0.360409
| 50> B         1.105884   -0.000007    0.624775
| 51> B        -0.504630   -0.000006    0.107220
| 52> O        -1.120363    1.203910   -0.089386
| 53> O        -1.120398   -1.203901   -0.089382
| 54> H        -2.040851    1.178937   -0.369222
| 55> H        -2.040881   -1.178900   -0.369230
| 56> H         1.289966    0.000019    1.809419
| 57> H         2.884719    1.015317   -0.749371
| 58> H         2.884781   -1.015305   -0.749392
| 59> *
| 60>
| 61>
| 62>
| 63>
| 64>                          ****END OF INPUT****
 Total Charge           Charge          ....    0
 Multiplicity           Mult            ....    1
 Number of Electrons    NEL             ....   36
MP2 TOTAL ENERGY:     -227.412087474 Eh
FINAL SINGLE POINT ENERGY      -227.412087474427
MP2 TOTAL ENERGY:     -227.612877034 Eh
FINAL SINGLE POINT ENERGY      -227.612877034108

CARTESIAN COORDINATES (ANGSTROEM)
---------------------------------
  B      2.388416   -0.000015   -0.360409
  B      1.105884   -0.000007    0.624775
  B     -0.504630   -0.000006    0.107220
  O     -1.120363    1.203910   -0.089386
  O     -1.120398   -1.203901   -0.089382
  H     -2.040851    1.178937   -0.369222
  H     -2.040881   -1.178900   -0.369230
  H      1.289966    0.000019    1.809419
  H      2.884719    1.015317   -0.749371
  H      2.884781   -1.015305   -0.749392

 Multiplicity           Mult            ....    1
 Number of Electrons    NEL             ....   36
 Basis Dimension        Dim             ....  630

ORBITAL ENERGIES
----------------

  NO   OCC          E(Eh)            E(eV)
   0   2.0000     -20.572961      -559.8187
   1   2.0000     -20.572940      -559.8182
   2   2.0000      -7.629897      -207.6201
   3   2.0000      -7.577541      -206.1954
   4   2.0000      -7.563201      -205.8052
   5   2.0000      -1.388953       -37.7953
   6   2.0000      -1.349520       -36.7223
   7   2.0000      -0.794952       -21.6317
   8   2.0000      -0.740524       -20.1507
   9   2.0000      -0.719565       -19.5804
  10   2.0000      -0.642713       -17.4891
  11   2.0000      -0.602480       -16.3943
  12   2.0000      -0.576052       -15.6752
  13   2.0000      -0.535499       -14.5717
  14   2.0000      -0.510617       -13.8946
  15   2.0000      -0.483810       -13.1651
  16   2.0000      -0.451829       -12.2949
  17   2.0000      -0.413740       -11.2584
  18   0.0000       0.016211         0.4411
  19   0.0000       0.031467         0.8563
  20   0.0000       0.033390         0.9086
  21   0.0000       0.035066         0.9542
  22   0.0000       0.044095         1.1999

MULLIKEN ATOMIC CHARGES
-----------------------
   0 B :    0.232006
   1 B :    0.241950
   2 B :    1.472423
   3 O :   -1.034078
   4 O :   -1.034091
   5 H :    0.340909
   6 H :    0.340911
   7 H :   -0.200398
   8 H :   -0.179811
   9 H :   -0.179822
Sum of atomic charges:    0.0000000

LOEWDIN ATOMIC CHARGES
----------------------
   0 B :    0.473012
   1 B :    0.137603
   2 B :   -1.109357
   3 O :    1.337997
   4 O :    1.337999
   5 H :   -0.783708
   6 H :   -0.783710
   7 H :   -0.193549
   8 H :   -0.208144
   9 H :   -0.208143

  Mayer bond orders larger than 0.100000
B(  0-B ,  1-B ) :   1.0535 B(  0-B ,  8-H ) :   0.9550 B(  0-B ,  9-H ) :   0.9550
B(  1-B ,  2-B ) :   0.9397 B(  1-B ,  3-O ) :  -0.1435 B(  1-B ,  4-O ) :  -0.1435
B(  1-B ,  7-H ) :   0.9023 B(  2-B ,  3-O ) :   0.3973 B(  2-B ,  4-O ) :   0.3973
B(  3-O ,  5-H ) :   0.9518 B(  4-O ,  6-H ) :   0.9518

MP2 TOTAL ENERGY:     -227.678019680 Eh
FINAL SINGLE POINT ENERGY      -227.678019680311

DIPOLE MOMENT
-------------
                                X             Y             Z
Electronic contribution:     -1.56126      -0.00009       0.45902
Nuclear contribution   :      0.51907       0.00009      -0.71052
                        -----------------------------------------
Total Dipole Moment    :     -1.04220      -0.00000      -0.25150
                        -----------------------------------------
Magnitude (a.u.)       :      1.07211
Magnitude (Debye)      :      2.72510

Rotational constants in cm-1:     0.272072     0.108511     0.086048
Rotational constants in MHz :  8156.508847  3253.063888  2579.651290

                             ****ORCA TERMINATED NORMALLY****
TOTAL RUN TIME: 0 days 0 hours 20 minutes 53 seconds 626 msec
