                         Program Version 5.0.4 -  RELEASE  -
|  1> ! ri-mp2 aug-cc-pvdz aug-cc-pvdz/c tightscf
|  2> %pal nprocs 16 end
|  3> %maxcore 3800
|  4> %base "DZ_P-S_24_AB"
|  5> %scf
|  6> STABPerform true
|  7> STABRestartUHFifUnstable true
|  8> end
|  9>
| 10> *xyz 0 1
| 11> S         0.134984    1.331700   -0.479598
| 12> P         1.492583   -0.186978    0.063528
| 13> O         2.815624    0.343922   -0.224299
| 14> O         1.062550   -1.493434   -0.665961
| 15> O        -1.322802    0.910152    0.272578
| 16> C        -2.011041   -0.181155   -0.105048
| 17> C        -3.381431   -0.178173    0.487210
| 18> H        -3.882662   -1.109333    0.244519
| 19> H        -3.944196    0.666468    0.090529
| 20> H        -3.315215   -0.051208    1.566627
| 21> O        -1.565096   -1.045892   -0.812570
| 22> O         1.168254   -0.520428    1.581842
| 23> H         1.577789    0.103859    2.193510
| 24> H         0.102377   -1.510916   -0.880226
| 25> *
| 26>
| 27> $new_job
| 28> ! ri-mp2 aug-cc-pvtz aug-cc-pvtz/c tightscf
| 29> %pal nprocs 16 end
| 30> %maxcore 3800
| 31> %base "TZ_P-S_24_AB"
| 32>
| 33> *xyz 0 1
| 34> S         0.134984    1.331700   -0.479598
| 35> P         1.492583   -0.186978    0.063528
| 36> O         2.815624    0.343922   -0.224299
| 37> O         1.062550   -1.493434   -0.665961
| 38> O        -1.322802    0.910152    0.272578
| 39> C        -2.011041   -0.181155   -0.105048
| 40> C        -3.381431   -0.178173    0.487210
| 41> H        -3.882662   -1.109333    0.244519
| 42> H        -3.944196    0.666468    0.090529
| 43> H        -3.315215   -0.051208    1.566627
| 44> O        -1.565096   -1.045892   -0.812570
| 45> O         1.168254   -0.520428    1.581842
| 46> H         1.577789    0.103859    2.193510
| 47> H         0.102377   -1.510916   -0.880226
| 48> *
| 49>
| 50> $new_job
| 51> ! ri-mp2 aug-cc-pvqz aug-cc-pvqz/c tightscf
| 52> %pal nprocs 16 end
| 53> %maxcore 3800
| 54> %base "QZ_P-S_24_AB"
| 55>
| 56> *xyz 0 1
| 57> S         0.134984    1.331700   -0.479598
| 58> P         1.492583   -0.186978    0.063528
| 59> O         2.815624    0.343922   -0.224299
| 60> O         1.062550   -1.493434   -0.665961
| 61> O        -1.322802    0.910152    0.272578
| 62> C        -2.011041   -0.181155   -0.105048
| 63> C        -3.381431   -0.178173    0.487210
| 64> H        -3.882662   -1.109333    0.244519
| 65> H        -3.944196    0.666468    0.090529
| 66> H        -3.315215   -0.051208    1.566627
| 67> O        -1.565096   -1.045892   -0.812570
| 68> O         1.168254   -0.520428    1.581842
| 69> H         1.577789    0.103859    2.193510
| 70> H         0.102377   -1.510916   -0.880226
| 71> *
| 72>
| 73>
| 74>
| 75>
| 76>                          ****END OF INPUT****
 Total Charge           Charge          ....    0
 Multiplicity           Mult            ....    1
 Number of Electrons    NEL             ....   88
MP2 TOTAL ENERGY:    -1192.899797115 Eh
FINAL SINGLE POINT ENERGY     -1192.899797114635
MP2 TOTAL ENERGY:    -1193.419121573 Eh
FINAL SINGLE POINT ENERGY     -1193.419121573457

CARTESIAN COORDINATES (ANGSTROEM)
---------------------------------
  S      0.134984    1.331700   -0.479598
  P      1.492583   -0.186978    0.063528
  O      2.815624    0.343922   -0.224299
  O      1.062550   -1.493434   -0.665961
  O     -1.322802    0.910152    0.272578
  C     -2.011041   -0.181155   -0.105048
  C     -3.381431   -0.178173    0.487210
  H     -3.882662   -1.109333    0.244519
  H     -3.944196    0.666468    0.090529
  H     -3.315215   -0.051208    1.566627
  O     -1.565096   -1.045892   -0.812570
  O      1.168254   -0.520428    1.581842
  H      1.577789    0.103859    2.193510
  H      0.102377   -1.510916   -0.880226

 Multiplicity           Mult            ....    1
 Number of Electrons    NEL             ....   88
 Basis Dimension        Dim             ....  958

ORBITAL ENERGIES
----------------

  NO   OCC          E(Eh)            E(eV)
   0   2.0000     -92.035578     -2504.4154
   1   2.0000     -80.097714     -2179.5696
   2   2.0000     -20.656529      -562.0927
   3   2.0000     -20.618400      -561.0552
   4   2.0000     -20.596262      -560.4528
   5   2.0000     -20.591576      -560.3253
   6   2.0000     -20.521414      -558.4161
   7   2.0000     -11.428516      -310.9857
   8   2.0000     -11.269359      -306.6548
   9   2.0000      -9.033228      -245.8066
  10   2.0000      -7.618238      -207.3028
  11   2.0000      -6.714583      -182.7131
  12   2.0000      -6.712627      -182.6599
  13   2.0000      -6.711673      -182.6339
  14   2.0000      -5.516735      -150.1180
  15   2.0000      -5.516236      -150.1044
  16   2.0000      -5.515165      -150.0753
  17   2.0000      -1.507313       -41.0161
  18   2.0000      -1.452120       -39.5142
  19   2.0000      -1.411202       -38.4008
  20   2.0000      -1.394126       -37.9361
  21   2.0000      -1.316806       -35.8321
  22   2.0000      -1.073868       -29.2214
  23   2.0000      -0.994007       -27.0483
  24   2.0000      -0.865624       -23.5548
  25   2.0000      -0.810392       -22.0519
  26   2.0000      -0.780738       -21.2449
  27   2.0000      -0.733742       -19.9661
  28   2.0000      -0.719202       -19.5705
  29   2.0000      -0.705036       -19.1850
  30   2.0000      -0.672197       -18.2914
  31   2.0000      -0.644216       -17.5300
  32   2.0000      -0.617742       -16.8096
  33   2.0000      -0.609578       -16.5875
  34   2.0000      -0.597661       -16.2632
  35   2.0000      -0.591592       -16.0980
  36   2.0000      -0.575239       -15.6531
  37   2.0000      -0.558966       -15.2103
  38   2.0000      -0.543770       -14.7967
  39   2.0000      -0.514577       -14.0024
  40   2.0000      -0.491882       -13.3848
  41   2.0000      -0.485053       -13.1990
  42   2.0000      -0.450390       -12.2557
  43   2.0000      -0.408507       -11.1160
  44   0.0000       0.016006         0.4355
  45   0.0000       0.028123         0.7653
  46   0.0000       0.034705         0.9444
  47   0.0000       0.038108         1.0370
  48   0.0000       0.050441         1.3726

MULLIKEN ATOMIC CHARGES
-----------------------
   0 S :    0.162235
   1 P :    2.300589
   2 O :   -1.176846
   3 O :   -0.869897
   4 O :   -0.672303
   5 C :    0.919014
   6 C :   -0.753626
   7 H :    0.319721
   8 H :    0.296025
   9 H :    0.298025
  10 O :   -0.689063
  11 O :   -0.860508
  12 H :    0.379042
  13 H :    0.347592
Sum of atomic charges:    0.0000000

LOEWDIN ATOMIC CHARGES
----------------------
   0 S :    0.855540
   1 P :   -1.069312
   2 O :    0.229489
   3 O :    1.051316
   4 O :    0.309950
   5 C :   -1.153229
   6 C :    0.872072
   7 H :   -0.314946
   8 H :   -0.295816
   9 H :   -0.299899
  10 O :    0.826032
  11 O :    1.060704
  12 H :   -0.867304
  13 H :   -1.204598

  Mayer bond orders larger than 0.100000
B(  0-S ,  1-P ) :   0.9380 B(  0-S ,  4-O ) :   0.6436 B(  1-P ,  2-O ) :   1.3358
B(  1-P ,  3-O ) :   0.7236 B(  1-P , 11-O ) :   0.7163 B(  3-O , 13-H ) :   0.8339
B(  4-O ,  5-C ) :   1.0068 B(  5-C ,  6-C ) :   0.8300 B(  5-C , 10-O ) :   1.4596
B(  6-C ,  7-H ) :   0.9449 B(  6-C ,  8-H ) :   0.9231 B(  6-C ,  9-H ) :   0.9197
B( 10-O , 13-H ) :   0.1144 B( 11-O , 12-H ) :   0.8955

MP2 TOTAL ENERGY:    -1193.588463224 Eh
FINAL SINGLE POINT ENERGY     -1193.588463224060

DIPOLE MOMENT
-------------
                                X             Y             Z
Electronic contribution:      8.19466       2.10244      -1.97491
Nuclear contribution   :    -10.42338      -1.72157       3.04594
                        -----------------------------------------
Total Dipole Moment    :     -2.22872       0.38088       1.07103
                        -----------------------------------------
Magnitude (a.u.)       :      2.50187
Magnitude (Debye)      :      6.35925

Rotational constants in cm-1:     0.078918     0.027568     0.025212
Rotational constants in MHz :  2365.905651   826.476452   755.840436

                             ****ORCA TERMINATED NORMALLY****
TOTAL RUN TIME: 0 days 1 hours 52 minutes 37 seconds 190 msec
