                         Program Version 5.0.4 -  RELEASE  -
|  1> ! ri-mp2 aug-cc-pvdz aug-cc-pvdz/c tightscf
|  2> %pal nprocs 16 end
|  3> %maxcore 3800
|  4> %base "DZ_B-Si_29_A"
|  5> %scf
|  6> STABPerform true
|  7> STABRestartUHFifUnstable true
|  8> end
|  9>
| 10> *xyz 0 2
| 11> C        -0.767888   -0.000001    0.023228
| 12> N        -1.916686   -0.000001    0.013711
| 13> Si         1.061496   -0.000000   -0.091081
| 14> H         1.581605   -1.235563    0.519901
| 15> H         1.581574    1.235579    0.519894
| 16> *
| 17>
| 18> $new_job
| 19> ! ri-mp2 aug-cc-pvtz aug-cc-pvtz/c tightscf
| 20> %pal nprocs 16 end
| 21> %maxcore 3800
| 22> %base "TZ_B-Si_29_A"
| 23>
| 24> *xyz 0 2
| 25> C        -0.767888   -0.000001    0.023228
| 26> N        -1.916686   -0.000001    0.013711
| 27> Si         1.061496   -0.000000   -0.091081
| 28> H         1.581605   -1.235563    0.519901
| 29> H         1.581574    1.235579    0.519894
| 30> *
| 31>
| 32> $new_job
| 33> ! ri-mp2 aug-cc-pvqz aug-cc-pvqz/c tightscf
| 34> %pal nprocs 16 end
| 35> %maxcore 3800
| 36> %base "QZ_B-Si_29_A"
| 37>
| 38> *xyz 0 2
| 39> C        -0.767888   -0.000001    0.023228
| 40> N        -1.916686   -0.000001    0.013711
| 41> Si         1.061496   -0.000000   -0.091081
| 42> H         1.581605   -1.235563    0.519901
| 43> H         1.581574    1.235579    0.519894
| 44> *
| 45>
| 46>
| 47>
| 48>
| 49>                          ****END OF INPUT****
 Total Charge           Charge          ....    0
 Multiplicity           Mult            ....    2
 Number of Electrons    NEL             ....   29
MP2 TOTAL ENERGY:     -382.749172743 Eh
FINAL SINGLE POINT ENERGY      -382.749172743159
MP2 TOTAL ENERGY:     -382.856392052 Eh
FINAL SINGLE POINT ENERGY      -382.856392052472

CARTESIAN COORDINATES (ANGSTROEM)
---------------------------------
  C     -0.767888   -0.000001    0.023228
  N     -1.916686   -0.000001    0.013711
  Si     1.061496   -0.000000   -0.091081
  H      1.581605   -1.235563    0.519901
  H      1.581574    1.235579    0.519894

 Multiplicity           Mult            ....    2
 Number of Electrons    NEL             ....   29
 Basis Dimension        Dim             ....  336

ORBITAL ENERGIES
----------------
                 SPIN UP ORBITALS
  NO   OCC          E(Eh)            E(eV)
   0   1.0000     -68.832457     -1873.0264
   1   1.0000     -15.593486      -424.3203
   2   1.0000     -11.256322      -306.3001
   3   1.0000      -6.182147      -168.2248
   4   1.0000      -4.294955      -116.8717
   5   1.0000      -4.285644      -116.6183
   6   1.0000      -4.284514      -116.5876
   7   1.0000      -1.240921       -33.7672
   8   1.0000      -0.818387       -22.2694
   9   1.0000      -0.632650       -17.2153
  10   1.0000      -0.560557       -15.2535
  11   1.0000      -0.544037       -14.8040
  12   1.0000      -0.514996       -14.0138
  13   1.0000      -0.486930       -13.2500
  14   1.0000      -0.372622       -10.1396
  15   0.0000       0.021667         0.5896
  16   0.0000       0.034882         0.9492
  17   0.0000       0.037129         1.0103
  18   0.0000       0.038056         1.0356
  19   0.0000       0.058825         1.6007

                 SPIN DOWN ORBITALS
  NO   OCC          E(Eh)            E(eV)
   0   1.0000     -68.826193     -1872.8559
   1   1.0000     -15.581749      -424.0010
   2   1.0000     -11.263768      -306.5027
   3   1.0000      -6.172454      -167.9610
   4   1.0000      -4.280935      -116.4902
   5   1.0000      -4.280249      -116.4715
   6   1.0000      -4.271712      -116.2392
   7   1.0000      -1.219735       -33.1907
   8   1.0000      -0.792083       -21.5537
   9   1.0000      -0.618642       -16.8341
  10   1.0000      -0.547300       -14.8928
  11   1.0000      -0.538122       -14.6430
  12   1.0000      -0.481477       -13.1017
  13   1.0000      -0.473363       -12.8809
  14   0.0000       0.001743         0.0474
  15   0.0000       0.023731         0.6458
  16   0.0000       0.035176         0.9572
  17   0.0000       0.038130         1.0376
  18   0.0000       0.046680         1.2702

MULLIKEN ATOMIC CHARGES AND SPIN POPULATIONS
--------------------------------------------
   0 C :   -0.118433   -0.341999
   1 N :   -0.465409    0.378549
   2 Si:    0.935142    0.940478
   3 H :   -0.175650    0.011487
   4 H :   -0.175650    0.011485
Sum of atomic charges         :   -0.0000000

LOEWDIN ATOMIC CHARGES AND SPIN POPULATIONS
-------------------------------------------
   0 C :   -0.505227    0.086195
   1 N :    0.266073    0.176806
   2 Si:    0.978096    0.483118
   3 H :   -0.369470    0.126941
   4 H :   -0.369472    0.126940

  Mayer bond orders larger than 0.100000
B(  0-C ,  1-N ) :   2.6340 B(  0-C ,  2-Si) :   0.7767 B(  2-Si,  3-H ) :   0.8971
B(  2-Si,  4-H ) :   0.8971

MP2 TOTAL ENERGY:     -382.891804182 Eh
FINAL SINGLE POINT ENERGY      -382.891804181836

DIPOLE MOMENT
-------------
                                X             Y             Z
Electronic contribution:     -1.57222      -0.00002      -1.02537
Nuclear contribution   :      2.99639       0.00002       1.01456
                        -----------------------------------------
Total Dipole Moment    :      1.42417      -0.00001      -0.01081
                        -----------------------------------------
Magnitude (a.u.)       :      1.42421
Magnitude (Debye)      :      3.62006

Rotational constants in cm-1:     4.418830     0.175914     0.171720
Rotational constants in MHz : 132473.184226  5273.759511  5148.028939

                             ****ORCA TERMINATED NORMALLY****
TOTAL RUN TIME: 0 days 0 hours 9 minutes 4 seconds 933 msec
