                         Program Version 5.0.4 -  RELEASE  -
|  1> ! ri-mp2 aug-cc-pvdz aug-cc-pvdz/c tightscf
|  2> %pal nprocs 16 end
|  3> %maxcore 3800
|  4> %base "DZ_P-F_15_AB"
|  5>
|  6> *xyz 0 1
|  7> C        -1.065220    0.133271    0.719136
|  8> C         0.999483    0.110167    0.176427
|  9> C         2.750116   -1.529548    0.090671
| 10> C         3.242825    0.825354   -0.469167
| 11> H         3.804995    0.525090   -1.354595
| 12> H         2.747726    1.769433   -0.666351
| 13> H         3.462143   -1.797661   -0.689926
| 14> H         1.917710   -2.226482    0.077589
| 15> N         0.100553   -0.679800    0.652272
| 16> N        -0.681459    1.472921    0.306100
| 17> N         0.514035    1.455983   -0.024345
| 18> P        -2.237982   -0.581280   -0.551557
| 19> N         2.262128   -0.190682   -0.150111
| 20> F        -3.615603    0.116406   -0.110281
| 21> H         3.947636    0.959921    0.356777
| 22> H         3.251268   -1.603379    1.060765
| 23> H        -2.400522   -1.773182    0.195724
| 24> H        -1.550832    0.173392    1.696078
| 25> *
| 26>
| 27> $new_job
| 28> ! ri-mp2 aug-cc-pvtz aug-cc-pvtz/c tightscf
| 29> %pal nprocs 16 end
| 30> %maxcore 3800
| 31> %base "TZ_P-F_15_AB"
| 32>
| 33> *xyz 0 1
| 34> C        -1.065220    0.133271    0.719136
| 35> C         0.999483    0.110167    0.176427
| 36> C         2.750116   -1.529548    0.090671
| 37> C         3.242825    0.825354   -0.469167
| 38> H         3.804995    0.525090   -1.354595
| 39> H         2.747726    1.769433   -0.666351
| 40> H         3.462143   -1.797661   -0.689926
| 41> H         1.917710   -2.226482    0.077589
| 42> N         0.100553   -0.679800    0.652272
| 43> N        -0.681459    1.472921    0.306100
| 44> N         0.514035    1.455983   -0.024345
| 45> P        -2.237982   -0.581280   -0.551557
| 46> N         2.262128   -0.190682   -0.150111
| 47> F        -3.615603    0.116406   -0.110281
| 48> H         3.947636    0.959921    0.356777
| 49> H         3.251268   -1.603379    1.060765
| 50> H        -2.400522   -1.773182    0.195724
| 51> H        -1.550832    0.173392    1.696078
| 52> *
| 53>
| 54> $new_job
| 55> ! ri-mp2 aug-cc-pvqz aug-cc-pvqz/c tightscf
| 56> %pal nprocs 16 end
| 57> %maxcore 3800
| 58> %base "QZ_P-F_15_AB"
| 59>
| 60> *xyz 0 1
| 61> C        -1.065220    0.133271    0.719136
| 62> C         0.999483    0.110167    0.176427
| 63> C         2.750116   -1.529548    0.090671
| 64> C         3.242825    0.825354   -0.469167
| 65> H         3.804995    0.525090   -1.354595
| 66> H         2.747726    1.769433   -0.666351
| 67> H         3.462143   -1.797661   -0.689926
| 68> H         1.917710   -2.226482    0.077589
| 69> N         0.100553   -0.679800    0.652272
| 70> N        -0.681459    1.472921    0.306100
| 71> N         0.514035    1.455983   -0.024345
| 72> P        -2.237982   -0.581280   -0.551557
| 73> N         2.262128   -0.190682   -0.150111
| 74> F        -3.615603    0.116406   -0.110281
| 75> H         3.947636    0.959921    0.356777
| 76> H         3.251268   -1.603379    1.060765
| 77> H        -2.400522   -1.773182    0.195724
| 78> H        -1.550832    0.173392    1.696078
| 79> *
| 80>
| 81>
| 82>
| 83>
| 84>                          ****END OF INPUT****
 Total Charge           Charge          ....    0
 Multiplicity           Mult            ....    1
 Number of Electrons    NEL             ....   84
MP2 TOTAL ENERGY:     -815.694854551 Eh
FINAL SINGLE POINT ENERGY      -815.694854550512
MP2 TOTAL ENERGY:     -816.147627875 Eh
FINAL SINGLE POINT ENERGY      -816.147627874712

CARTESIAN COORDINATES (ANGSTROEM)
---------------------------------
  C     -1.065220    0.133271    0.719136
  C      0.999483    0.110167    0.176427
  C      2.750116   -1.529548    0.090671
  C      3.242825    0.825354   -0.469167
  H      3.804995    0.525090   -1.354595
  H      2.747726    1.769433   -0.666351
  H      3.462143   -1.797661   -0.689926
  H      1.917710   -2.226482    0.077589
  N      0.100553   -0.679800    0.652272
  N     -0.681459    1.472921    0.306100
  N      0.514035    1.455983   -0.024345
  P     -2.237982   -0.581280   -0.551557
  N      2.262128   -0.190682   -0.150111
  F     -3.615603    0.116406   -0.110281
  H      3.947636    0.959921    0.356777
  H      3.251268   -1.603379    1.060765
  H     -2.400522   -1.773182    0.195724
  H     -1.550832    0.173392    1.696078

 Multiplicity           Mult            ....    1
 Number of Electrons    NEL             ....   84
 Basis Dimension        Dim             .... 1172

ORBITAL ENERGIES
----------------

  NO   OCC          E(Eh)            E(eV)
   0   2.0000     -80.009717     -2177.1751
   1   2.0000     -26.294285      -715.5039
   2   2.0000     -15.648892      -425.8280
   3   2.0000     -15.637129      -425.5079
   4   2.0000     -15.603012      -424.5795
   5   2.0000     -15.551713      -423.1836
   6   2.0000     -11.354066      -308.9598
   7   2.0000     -11.300588      -307.5046
   8   2.0000     -11.271489      -306.7128
   9   2.0000     -11.268422      -306.6293
  10   2.0000      -7.544061      -205.2843
  11   2.0000      -5.438040      -147.9766
  12   2.0000      -5.436855      -147.9443
  13   2.0000      -5.435777      -147.9150
  14   2.0000      -1.601502       -43.5791
  15   2.0000      -1.434964       -39.0473
  16   2.0000      -1.299969       -35.3740
  17   2.0000      -1.213337       -33.0166
  18   2.0000      -1.063587       -28.9417
  19   2.0000      -0.993700       -27.0400
  20   2.0000      -0.937663       -25.5151
  21   2.0000      -0.885581       -24.0979
  22   2.0000      -0.826085       -22.4789
  23   2.0000      -0.779169       -21.2023
  24   2.0000      -0.730290       -19.8722
  25   2.0000      -0.696153       -18.9433
  26   2.0000      -0.687653       -18.7120
  27   2.0000      -0.681379       -18.5413
  28   2.0000      -0.661902       -18.0113
  29   2.0000      -0.644227       -17.5303
  30   2.0000      -0.622580       -16.9413
  31   2.0000      -0.597449       -16.2574
  32   2.0000      -0.578344       -15.7375
  33   2.0000      -0.572232       -15.5712
  34   2.0000      -0.557399       -15.1676
  35   2.0000      -0.551871       -15.0172
  36   2.0000      -0.494814       -13.4646
  37   2.0000      -0.474113       -12.9013
  38   2.0000      -0.459380       -12.5004
  39   2.0000      -0.429870       -11.6973
  40   2.0000      -0.395034       -10.7494
  41   2.0000      -0.348806        -9.4915
  42   0.0000       0.020800         0.5660
  43   0.0000       0.030285         0.8241
  44   0.0000       0.031968         0.8699
  45   0.0000       0.035451         0.9647
  46   0.0000       0.044378         1.2076

MULLIKEN ATOMIC CHARGES
-----------------------
   0 C :   -0.062122
   1 C :    0.957641
   2 C :   -0.950454
   3 C :   -0.890499
   4 H :    0.298002
   5 H :    0.345949
   6 H :    0.316119
   7 H :    0.303585
   8 N :   -0.677572
   9 N :   -0.172622
  10 N :   -0.310404
  11 P :    0.914801
  12 N :   -0.325783
  13 F :   -0.719357
  14 H :    0.313688
  15 H :    0.323956
  16 H :   -0.100203
  17 H :    0.435277
Sum of atomic charges:   -0.0000000

LOEWDIN ATOMIC CHARGES
----------------------
   0 C :   -0.641272
   1 C :   -0.803386
   2 C :    0.770392
   3 C :    0.775883
   4 H :   -0.281197
   5 H :   -0.352011
   6 H :   -0.285243
   7 H :   -0.327272
   8 N :    0.489172
   9 N :    0.294954
  10 N :    0.361187
  11 P :    0.691705
  12 N :    0.408270
  13 F :    0.267234
  14 H :   -0.266624
  15 H :   -0.261372
  16 H :   -0.458630
  17 H :   -0.381789

  Mayer bond orders larger than 0.100000
B(  0-C ,  8-N ) :   0.8886 B(  0-C ,  9-N ) :   0.8297 B(  0-C , 11-P ) :   0.7999
B(  0-C , 17-H ) :   0.7678 B(  1-C ,  8-N ) :   1.4845 B(  1-C , 10-N ) :   0.9912
B(  1-C , 12-N ) :   1.1083 B(  2-C ,  6-H ) :   0.9460 B(  2-C ,  7-H ) :   0.9082
B(  2-C , 12-N ) :   0.8144 B(  2-C , 15-H ) :   0.9433 B(  3-C ,  4-H ) :   0.9692
B(  3-C ,  5-H ) :   0.8891 B(  3-C , 12-N ) :   0.7802 B(  3-C , 14-H ) :   0.9457
B(  8-N ,  9-N ) :   0.1095 B(  8-N , 12-N ) :   0.1075 B(  9-N , 10-N ) :   1.2382
B( 11-P , 13-F ) :   0.4761 B( 11-P , 16-H ) :   0.9588

MP2 TOTAL ENERGY:     -816.294454752 Eh
FINAL SINGLE POINT ENERGY      -816.294454752149

DIPOLE MOMENT
-------------
                                X             Y             Z
Electronic contribution:    -18.85533       2.76925      -1.13408
Nuclear contribution   :     20.33445      -3.42764       1.27958
                        -----------------------------------------
Total Dipole Moment    :      1.47912      -0.65839       0.14550
                        -----------------------------------------
Magnitude (a.u.)       :      1.62556
Magnitude (Debye)      :      4.13186

Rotational constants in cm-1:     0.101429     0.020269     0.018104
Rotational constants in MHz :  3040.769221   607.636630   542.751727

                             ****ORCA TERMINATED NORMALLY****
TOTAL RUN TIME: 0 days 0 hours 40 minutes 31 seconds 951 msec
