                         Program Version 5.0.4 -  RELEASE  -
|  1> ! ri-mp2 aug-cc-pvdz aug-cc-pvdz/c tightscf
|  2> %pal nprocs 16 end
|  3> %maxcore 3800
|  4> %base "DZ_S-S_41_AB"
|  5> %scf
|  6> STABPerform true
|  7> STABRestartUHFifUnstable true
|  8> end
|  9>
| 10> *xyz 0 1
| 11> S         0.857428    1.313799   -0.539424
| 12> S        -0.857428    1.313798    0.539425
| 13> C        -1.738839   -0.096594   -0.176076
| 14> C         1.738839   -0.096593    0.176076
| 15> O         1.305203   -0.747242    1.074108
| 16> O        -1.305203   -0.747242   -1.074110
| 17> C        -3.964829   -1.273239   -0.245574
| 18> C         3.964825   -1.273246    0.245569
| 19> H         4.876109   -1.462771   -0.320181
| 20> H         3.478384   -2.224870    0.449568
| 21> H         4.240865   -0.831504    1.202323
| 22> H        -4.876109   -1.462771    0.320180
| 23> H        -3.478391   -2.224860   -0.449592
| 24> H        -4.240876   -0.831479   -1.202318
| 25> C         3.043652   -0.353323   -0.534431
| 26> C        -3.043648   -0.353331    0.534435
| 27> H         2.781925   -0.789541   -1.502737
| 28> H         3.519532    0.604827   -0.754429
| 29> H        -3.519523    0.604816    0.754452
| 30> H        -2.781914   -0.789566    1.502731
| 31> *
| 32>
| 33> $new_job
| 34> ! ri-mp2 aug-cc-pvtz aug-cc-pvtz/c tightscf
| 35> %pal nprocs 16 end
| 36> %maxcore 3800
| 37> %base "TZ_S-S_41_AB"
| 38>
| 39> *xyz 0 1
| 40> S         0.857428    1.313799   -0.539424
| 41> S        -0.857428    1.313798    0.539425
| 42> C        -1.738839   -0.096594   -0.176076
| 43> C         1.738839   -0.096593    0.176076
| 44> O         1.305203   -0.747242    1.074108
| 45> O        -1.305203   -0.747242   -1.074110
| 46> C        -3.964829   -1.273239   -0.245574
| 47> C         3.964825   -1.273246    0.245569
| 48> H         4.876109   -1.462771   -0.320181
| 49> H         3.478384   -2.224870    0.449568
| 50> H         4.240865   -0.831504    1.202323
| 51> H        -4.876109   -1.462771    0.320180
| 52> H        -3.478391   -2.224860   -0.449592
| 53> H        -4.240876   -0.831479   -1.202318
| 54> C         3.043652   -0.353323   -0.534431
| 55> C        -3.043648   -0.353331    0.534435
| 56> H         2.781925   -0.789541   -1.502737
| 57> H         3.519532    0.604827   -0.754429
| 58> H        -3.519523    0.604816    0.754452
| 59> H        -2.781914   -0.789566    1.502731
| 60> *
| 61>
| 62> $new_job
| 63> ! ri-mp2 aug-cc-pvqz aug-cc-pvqz/c tightscf
| 64> %pal nprocs 16 end
| 65> %maxcore 3800
| 66> %base "QZ_S-S_41_AB"
| 67>
| 68> *xyz 0 1
| 69> S         0.857428    1.313799   -0.539424
| 70> S        -0.857428    1.313798    0.539425
| 71> C        -1.738839   -0.096594   -0.176076
| 72> C         1.738839   -0.096593    0.176076
| 73> O         1.305203   -0.747242    1.074108
| 74> O        -1.305203   -0.747242   -1.074110
| 75> C        -3.964829   -1.273239   -0.245574
| 76> C         3.964825   -1.273246    0.245569
| 77> H         4.876109   -1.462771   -0.320181
| 78> H         3.478384   -2.224870    0.449568
| 79> H         4.240865   -0.831504    1.202323
| 80> H        -4.876109   -1.462771    0.320180
| 81> H        -3.478391   -2.224860   -0.449592
| 82> H        -4.240876   -0.831479   -1.202318
| 83> C         3.043652   -0.353323   -0.534431
| 84> C        -3.043648   -0.353331    0.534435
| 85> H         2.781925   -0.789541   -1.502737
| 86> H         3.519532    0.604827   -0.754429
| 87> H        -3.519523    0.604816    0.754452
| 88> H        -2.781914   -0.789566    1.502731
| 89> *
| 90>
| 91>
| 92>
| 93>
| 94>                          ****END OF INPUT****
 Total Charge           Charge          ....    0
 Multiplicity           Mult            ....    1
 Number of Electrons    NEL             ....   94
MP2 TOTAL ENERGY:    -1179.417068278 Eh
FINAL SINGLE POINT ENERGY     -1179.417068277893
MP2 TOTAL ENERGY:    -1179.860825871 Eh
FINAL SINGLE POINT ENERGY     -1179.860825871357

CARTESIAN COORDINATES (ANGSTROEM)
---------------------------------
  S      0.857428    1.313799   -0.539424
  S     -0.857428    1.313798    0.539425
  C     -1.738839   -0.096594   -0.176076
  C      1.738839   -0.096593    0.176076
  O      1.305203   -0.747242    1.074108
  O     -1.305203   -0.747242   -1.074110
  C     -3.964829   -1.273239   -0.245574
  C      3.964825   -1.273246    0.245569
  H      4.876109   -1.462771   -0.320181
  H      3.478384   -2.224870    0.449568
  H      4.240865   -0.831504    1.202323
  H     -4.876109   -1.462771    0.320180
  H     -3.478391   -2.224860   -0.449592
  H     -4.240876   -0.831479   -1.202318
  C      3.043652   -0.353323   -0.534431
  C     -3.043648   -0.353331    0.534435
  H      2.781925   -0.789541   -1.502737
  H      3.519532    0.604827   -0.754429
  H     -3.519523    0.604816    0.754452
  H     -2.781914   -0.789566    1.502731

 Multiplicity           Mult            ....    1
 Number of Electrons    NEL             ....   94
 Basis Dimension        Dim             .... 1268

ORBITAL ENERGIES
----------------

  NO   OCC          E(Eh)            E(eV)
   0   2.0000     -91.991924     -2503.2275
   1   2.0000     -91.991922     -2503.2275
   2   2.0000     -20.564181      -559.5798
   3   2.0000     -20.564180      -559.5798
   4   2.0000     -11.365638      -309.2747
   5   2.0000     -11.365638      -309.2747
   6   2.0000     -11.252762      -306.2032
   7   2.0000     -11.252762      -306.2032
   8   2.0000     -11.225881      -305.4718
   9   2.0000     -11.225881      -305.4718
  10   2.0000      -8.993673      -244.7303
  11   2.0000      -8.993455      -244.7244
  12   2.0000      -6.675050      -181.6373
  13   2.0000      -6.674652      -181.6265
  14   2.0000      -6.673535      -181.5961
  15   2.0000      -6.673424      -181.5931
  16   2.0000      -6.672823      -181.5767
  17   2.0000      -6.672813      -181.5765
  18   2.0000      -1.421927       -38.6926
  19   2.0000      -1.418554       -38.6008
  20   2.0000      -1.099023       -29.9059
  21   2.0000      -1.078291       -29.3418
  22   2.0000      -1.057777       -28.7836
  23   2.0000      -0.961432       -26.1619
  24   2.0000      -0.904940       -24.6247
  25   2.0000      -0.857448       -23.3323
  26   2.0000      -0.752108       -20.4659
  27   2.0000      -0.728929       -19.8352
  28   2.0000      -0.675466       -18.3804
  29   2.0000      -0.662696       -18.0329
  30   2.0000      -0.654292       -17.8042
  31   2.0000      -0.647853       -17.6290
  32   2.0000      -0.645667       -17.5695
  33   2.0000      -0.603228       -16.4147
  34   2.0000      -0.562674       -15.3111
  35   2.0000      -0.558858       -15.2073
  36   2.0000      -0.555055       -15.1038
  37   2.0000      -0.542060       -14.7502
  38   2.0000      -0.528485       -14.3808
  39   2.0000      -0.525894       -14.3103
  40   2.0000      -0.506431       -13.7807
  41   2.0000      -0.503460       -13.6998
  42   2.0000      -0.477222       -12.9859
  43   2.0000      -0.430184       -11.7059
  44   2.0000      -0.425934       -11.5902
  45   2.0000      -0.389049       -10.5866
  46   2.0000      -0.369005       -10.0411
  47   0.0000       0.025234         0.6867
  48   0.0000       0.025538         0.6949
  49   0.0000       0.035559         0.9676
  50   0.0000       0.036498         0.9932
  51   0.0000       0.042025         1.1435

MULLIKEN ATOMIC CHARGES
-----------------------
   0 S :    0.012773
   1 S :    0.012772
   2 C :    0.544439
   3 C :    0.544436
   4 O :   -0.788230
   5 O :   -0.788231
   6 C :   -0.821065
   7 C :   -0.821064
   8 H :    0.326879
   9 H :    0.247244
  10 H :    0.237101
  11 H :    0.326879
  12 H :    0.247245
  13 H :    0.237100
  14 C :   -0.326820
  15 C :   -0.326824
  16 H :    0.305129
  17 H :    0.262551
  18 H :    0.262552
  19 H :    0.305132
Sum of atomic charges:    0.0000000

LOEWDIN ATOMIC CHARGES
----------------------
   0 S :    0.750424
   1 S :    0.750424
   2 C :   -1.157816
   3 C :   -1.157817
   4 O :    0.650251
   5 O :    0.650251
   6 C :    0.897707
   7 C :    0.897706
   8 H :   -0.282165
   9 H :   -0.295402
  10 H :   -0.284064
  11 H :   -0.282165
  12 H :   -0.295403
  13 H :   -0.284063
  14 C :    0.347814
  15 C :    0.347814
  16 H :   -0.298813
  17 H :   -0.327935
  18 H :   -0.327937
  19 H :   -0.298813

  Mayer bond orders larger than 0.100000
B(  0-S ,  1-S ) :   1.0787 B(  0-S ,  3-C ) :   0.9626 B(  1-S ,  2-C ) :   0.9626
B(  2-C ,  5-O ) :   1.3857 B(  2-C , 15-C ) :   0.7748 B(  3-C ,  4-O ) :   1.3857
B(  3-C , 14-C ) :   0.7748 B(  6-C , 11-H ) :   0.9386 B(  6-C , 12-H ) :   0.9481
B(  6-C , 13-H ) :   0.9668 B(  6-C , 15-C ) :   0.9588 B(  7-C ,  8-H ) :   0.9386
B(  7-C ,  9-H ) :   0.9481 B(  7-C , 10-H ) :   0.9668 B(  7-C , 14-C ) :   0.9588
B( 14-C , 16-H ) :   0.8448 B( 14-C , 17-H ) :   0.9078 B( 15-C , 18-H ) :   0.9078
B( 15-C , 19-H ) :   0.8448

MP2 TOTAL ENERGY:    -1180.003814252 Eh
FINAL SINGLE POINT ENERGY     -1180.003814252271

DIPOLE MOMENT
-------------
                                X             Y             Z
Electronic contribution:      0.00000       9.59700       0.00001
Nuclear contribution   :      0.00000      -9.42030      -0.00000
                        -----------------------------------------
Total Dipole Moment    :      0.00000       0.17670       0.00000
                        -----------------------------------------
Magnitude (a.u.)       :      0.17670
Magnitude (Debye)      :      0.44914

Rotational constants in cm-1:     0.064408     0.016901     0.015167
Rotational constants in MHz :  1930.908237   506.669489   454.683080

                             ****ORCA TERMINATED NORMALLY****
TOTAL RUN TIME: 0 days 3 hours 36 minutes 32 seconds 644 msec
