                         Program Version 5.0.4 -  RELEASE  -
|  1> ! ri-mp2 aug-cc-pvdz aug-cc-pvdz/c tightscf
|  2> %pal nprocs 16 end
|  3> %maxcore 3800
|  4> %base "DZ_S-Cl_85_AB"
|  5> %scf
|  6> STABPerform true
|  7> STABRestartUHFifUnstable true
|  8> end
|  9>
| 10> *xyz 0 1
| 11> C        -0.972652   -1.112160   -0.413202
| 12> C        -2.198223   -1.403522    0.443783
| 13> C        -3.282818   -0.352442    0.242562
| 14> C        -2.743393    1.050197    0.494057
| 15> C        -1.514363    1.336899   -0.360286
| 16> C         0.780874    0.615294   -1.022246
| 17> C        -0.423472    0.286678   -0.153429
| 18> S         2.245485   -0.402773   -0.780232
| 19> Cl         2.783277    0.157681    1.104729
| 20> H        -1.245084   -1.192205   -1.472479
| 21> H        -0.196483   -1.856352   -0.232222
| 22> H        -1.902441   -1.419920    1.497615
| 23> H        -2.585843   -2.397879    0.214889
| 24> H        -4.132836   -0.553327    0.897370
| 25> H        -3.657730   -0.414791   -0.784426
| 26> H        -2.474571    1.148495    1.550610
| 27> H        -3.516239    1.796023    0.298847
| 28> H        -1.121087    2.330816   -0.133969
| 29> H        -1.802855    1.347395   -1.417719
| 30> H         1.071163    1.660590   -0.915274
| 31> H         0.548617    0.449218   -2.079942
| 32> H        -0.103790    0.340055    0.892578
| 33> *
| 34>
| 35> $new_job
| 36> ! ri-mp2 aug-cc-pvtz aug-cc-pvtz/c tightscf
| 37> %pal nprocs 16 end
| 38> %maxcore 3800
| 39> %base "TZ_S-Cl_85_AB"
| 40>
| 41> *xyz 0 1
| 42> C        -0.972652   -1.112160   -0.413202
| 43> C        -2.198223   -1.403522    0.443783
| 44> C        -3.282818   -0.352442    0.242562
| 45> C        -2.743393    1.050197    0.494057
| 46> C        -1.514363    1.336899   -0.360286
| 47> C         0.780874    0.615294   -1.022246
| 48> C        -0.423472    0.286678   -0.153429
| 49> S         2.245485   -0.402773   -0.780232
| 50> Cl         2.783277    0.157681    1.104729
| 51> H        -1.245084   -1.192205   -1.472479
| 52> H        -0.196483   -1.856352   -0.232222
| 53> H        -1.902441   -1.419920    1.497615
| 54> H        -2.585843   -2.397879    0.214889
| 55> H        -4.132836   -0.553327    0.897370
| 56> H        -3.657730   -0.414791   -0.784426
| 57> H        -2.474571    1.148495    1.550610
| 58> H        -3.516239    1.796023    0.298847
| 59> H        -1.121087    2.330816   -0.133969
| 60> H        -1.802855    1.347395   -1.417719
| 61> H         1.071163    1.660590   -0.915274
| 62> H         0.548617    0.449218   -2.079942
| 63> H        -0.103790    0.340055    0.892578
| 64> *
| 65>
| 66> $new_job
| 67> ! ri-mp2 aug-cc-pvqz aug-cc-pvqz/c tightscf
| 68> %pal nprocs 16 end
| 69> %maxcore 3800
| 70> %base "QZ_S-Cl_85_AB"
| 71>
| 72> *xyz 0 1
| 73> C        -0.972652   -1.112160   -0.413202
| 74> C        -2.198223   -1.403522    0.443783
| 75> C        -3.282818   -0.352442    0.242562
| 76> C        -2.743393    1.050197    0.494057
| 77> C        -1.514363    1.336899   -0.360286
| 78> C         0.780874    0.615294   -1.022246
| 79> C        -0.423472    0.286678   -0.153429
| 80> S         2.245485   -0.402773   -0.780232
| 81> Cl         2.783277    0.157681    1.104729
| 82> H        -1.245084   -1.192205   -1.472479
| 83> H        -0.196483   -1.856352   -0.232222
| 84> H        -1.902441   -1.419920    1.497615
| 85> H        -2.585843   -2.397879    0.214889
| 86> H        -4.132836   -0.553327    0.897370
| 87> H        -3.657730   -0.414791   -0.784426
| 88> H        -2.474571    1.148495    1.550610
| 89> H        -3.516239    1.796023    0.298847
| 90> H        -1.121087    2.330816   -0.133969
| 91> H        -1.802855    1.347395   -1.417719
| 92> H         1.071163    1.660590   -0.915274
| 93> H         0.548617    0.449218   -2.079942
| 94> H        -0.103790    0.340055    0.892578
| 95> *
| 96>
| 97>
| 98>
| 99>
|100>                          ****END OF INPUT****
 Total Charge           Charge          ....    0
 Multiplicity           Mult            ....    1
 Number of Electrons    NEL             ....   88
MP2 TOTAL ENERGY:    -1131.039312969 Eh
FINAL SINGLE POINT ENERGY     -1131.039312969171
MP2 TOTAL ENERGY:    -1131.412337263 Eh
FINAL SINGLE POINT ENERGY     -1131.412337262513

CARTESIAN COORDINATES (ANGSTROEM)
---------------------------------
  C     -0.972652   -1.112160   -0.413202
  C     -2.198223   -1.403522    0.443783
  C     -3.282818   -0.352442    0.242562
  C     -2.743393    1.050197    0.494057
  C     -1.514363    1.336899   -0.360286
  C      0.780874    0.615294   -1.022246
  C     -0.423472    0.286678   -0.153429
  S      2.245485   -0.402773   -0.780232
  Cl     2.783277    0.157681    1.104729
  H     -1.245084   -1.192205   -1.472479
  H     -0.196483   -1.856352   -0.232222
  H     -1.902441   -1.419920    1.497615
  H     -2.585843   -2.397879    0.214889
  H     -4.132836   -0.553327    0.897370
  H     -3.657730   -0.414791   -0.784426
  H     -2.474571    1.148495    1.550610
  H     -3.516239    1.796023    0.298847
  H     -1.121087    2.330816   -0.133969
  H     -1.802855    1.347395   -1.417719
  H      1.071163    1.660590   -0.915274
  H      0.548617    0.449218   -2.079942
  H     -0.103790    0.340055    0.892578

 Multiplicity           Mult            ....    1
 Number of Electrons    NEL             ....   88
 Basis Dimension        Dim             .... 1326

ORBITAL ENERGIES
----------------

  NO   OCC          E(Eh)            E(eV)
   0   2.0000    -104.844961     -2852.9764
   1   2.0000     -91.999582     -2503.4359
   2   2.0000     -11.267222      -306.5967
   3   2.0000     -11.231709      -305.6303
   4   2.0000     -11.222190      -305.3713
   5   2.0000     -11.218486      -305.2705
   6   2.0000     -11.216875      -305.2267
   7   2.0000     -11.216407      -305.2140
   8   2.0000     -11.215908      -305.2004
   9   2.0000     -10.569398      -287.6079
  10   2.0000      -8.998034      -244.8490
  11   2.0000      -8.036413      -218.6819
  12   2.0000      -8.034565      -218.6316
  13   2.0000      -8.034382      -218.6267
  14   2.0000      -6.679406      -181.7559
  15   2.0000      -6.677665      -181.7085
  16   2.0000      -6.676604      -181.6796
  17   2.0000      -1.152225       -31.3536
  18   2.0000      -1.125918       -30.6378
  19   2.0000      -1.053926       -28.6788
  20   2.0000      -1.011099       -27.5134
  21   2.0000      -0.972064       -26.4512
  22   2.0000      -0.860786       -23.4232
  23   2.0000      -0.838103       -22.8059
  24   2.0000      -0.794397       -21.6166
  25   2.0000      -0.762631       -20.7523
  26   2.0000      -0.657666       -17.8960
  27   2.0000      -0.634617       -17.2688
  28   2.0000      -0.614021       -16.7084
  29   2.0000      -0.606356       -16.4998
  30   2.0000      -0.591257       -16.0889
  31   2.0000      -0.560602       -15.2548
  32   2.0000      -0.539382       -14.6773
  33   2.0000      -0.532717       -14.4960
  34   2.0000      -0.517353       -14.0779
  35   2.0000      -0.499303       -13.5867
  36   2.0000      -0.494296       -13.4505
  37   2.0000      -0.488105       -13.2820
  38   2.0000      -0.479214       -13.0401
  39   2.0000      -0.460252       -12.5241
  40   2.0000      -0.449235       -12.2243
  41   2.0000      -0.436548       -11.8791
  42   2.0000      -0.419396       -11.4123
  43   2.0000      -0.351145        -9.5551
  44   0.0000       0.023953         0.6518
  45   0.0000       0.028364         0.7718
  46   0.0000       0.028822         0.7843
  47   0.0000       0.034802         0.9470
  48   0.0000       0.043259         1.1771

MULLIKEN ATOMIC CHARGES
-----------------------
   0 C :   -0.429242
   1 C :   -0.478285
   2 C :   -0.452596
   3 C :   -0.486996
   4 C :   -0.477635
   5 C :   -0.443145
   6 C :    0.642209
   7 S :   -0.034757
   8 Cl:   -0.408087
   9 H :    0.165045
  10 H :    0.274893
  11 H :    0.131434
  12 H :    0.223571
  13 H :    0.245637
  14 H :    0.111241
  15 H :    0.144235
  16 H :    0.225690
  17 H :    0.248005
  18 H :    0.164517
  19 H :    0.193511
  20 H :    0.205912
  21 H :    0.234842
Sum of atomic charges:    0.0000000

LOEWDIN ATOMIC CHARGES
----------------------
   0 C :    0.492340
   1 C :    0.542822
   2 C :    0.535997
   3 C :    0.543623
   4 C :    0.521041
   5 C :    0.023954
   6 C :    0.003879
   7 S :    0.515655
   8 Cl:    0.514784
   9 H :   -0.260777
  10 H :   -0.293598
  11 H :   -0.259318
  12 H :   -0.256228
  13 H :   -0.258015
  14 H :   -0.262260
  15 H :   -0.260062
  16 H :   -0.256336
  17 H :   -0.256143
  18 H :   -0.256799
  19 H :   -0.375353
  20 H :   -0.377091
  21 H :   -0.322115

  Mayer bond orders larger than 0.100000
B(  0-C ,  1-C ) :   0.8579 B(  0-C ,  6-C ) :   0.6939 B(  0-C ,  9-H ) :   0.9921
B(  0-C , 10-H ) :   0.9553 B(  1-C ,  2-C ) :   0.8699 B(  1-C , 11-H ) :   1.0387
B(  1-C , 12-H ) :   1.0066 B(  2-C ,  3-C ) :   0.8905 B(  2-C , 13-H ) :   0.9568
B(  2-C , 14-H ) :   1.0540 B(  3-C ,  4-C ) :   0.8701 B(  3-C , 15-H ) :   1.0271
B(  3-C , 16-H ) :   1.0079 B(  4-C ,  5-C ) :   0.1073 B(  4-C ,  6-C ) :   0.6060
B(  4-C , 17-H ) :   0.9564 B(  4-C , 18-H ) :   0.9976 B(  5-C ,  6-C ) :   0.5156
B(  5-C ,  7-S ) :   0.8649 B(  5-C ,  8-Cl) :  -0.2984 B(  5-C , 19-H ) :   1.0476
B(  5-C , 20-H ) :   0.9489 B(  6-C ,  7-S ) :  -0.3350 B(  6-C , 21-H ) :   0.9391
B(  7-S ,  8-Cl) :   1.0668

MP2 TOTAL ENERGY:    -1131.528317272 Eh
FINAL SINGLE POINT ENERGY     -1131.528317272414

DIPOLE MOMENT
-------------
                                X             Y             Z
Electronic contribution:     24.37829      -0.78940       2.87642
Nuclear contribution   :    -25.25847       1.02855      -3.25187
                        -----------------------------------------
Total Dipole Moment    :     -0.88019       0.23914      -0.37546
                        -----------------------------------------
Magnitude (a.u.)       :      0.98635
Magnitude (Debye)      :      2.50710

Rotational constants in cm-1:     0.078011     0.018182     0.017906
Rotational constants in MHz :  2338.695973   545.075792   536.817419

                             ****ORCA TERMINATED NORMALLY****
TOTAL RUN TIME: 0 days 5 hours 52 minutes 37 seconds 209 msec
