                         Program Version 5.0.4 -  RELEASE  -
|  1> ! ri-mp2 aug-cc-pvdz aug-cc-pvdz/c tightscf
|  2> %pal nprocs 16 end
|  3> %maxcore 3800
|  4> %base "DZ_B-B_52_AB"
|  5> %scf
|  6> STABPerform true
|  7> STABRestartUHFifUnstable true
|  8> end
|  9>
| 10> *xyz 0 1
| 11> B         3.257486    0.113573   -0.236884
| 12> B         1.750314   -0.166021    0.411335
| 13> S        -0.873600   -0.147681    0.378228
| 14> O         0.617379    0.208501   -0.258974
| 15> O        -1.572038    1.212525   -0.091908
| 16> O        -1.376328   -1.207768   -0.452815
| 17> H        -1.699485    1.203649   -1.055821
| 18> H         3.810880   -0.704021   -0.905980
| 19> H         3.860266    1.118316   -0.012876
| 20> H         1.614839   -0.698876    1.480339
| 21> *
| 22>
| 23> $new_job
| 24> ! ri-mp2 aug-cc-pvtz aug-cc-pvtz/c tightscf
| 25> %pal nprocs 16 end
| 26> %maxcore 3800
| 27> %base "TZ_B-B_52_AB"
| 28>
| 29> *xyz 0 1
| 30> B         3.257486    0.113573   -0.236884
| 31> B         1.750314   -0.166021    0.411335
| 32> S        -0.873600   -0.147681    0.378228
| 33> O         0.617379    0.208501   -0.258974
| 34> O        -1.572038    1.212525   -0.091908
| 35> O        -1.376328   -1.207768   -0.452815
| 36> H        -1.699485    1.203649   -1.055821
| 37> H         3.810880   -0.704021   -0.905980
| 38> H         3.860266    1.118316   -0.012876
| 39> H         1.614839   -0.698876    1.480339
| 40> *
| 41>
| 42> $new_job
| 43> ! ri-mp2 aug-cc-pvqz aug-cc-pvqz/c tightscf
| 44> %pal nprocs 16 end
| 45> %maxcore 3800
| 46> %base "QZ_B-B_52_AB"
| 47>
| 48> *xyz 0 1
| 49> B         3.257486    0.113573   -0.236884
| 50> B         1.750314   -0.166021    0.411335
| 51> S        -0.873600   -0.147681    0.378228
| 52> O         0.617379    0.208501   -0.258974
| 53> O        -1.572038    1.212525   -0.091908
| 54> O        -1.376328   -1.207768   -0.452815
| 55> H        -1.699485    1.203649   -1.055821
| 56> H         3.810880   -0.704021   -0.905980
| 57> H         3.860266    1.118316   -0.012876
| 58> H         1.614839   -0.698876    1.480339
| 59> *
| 60>
| 61>
| 62>
| 63>
| 64>                          ****END OF INPUT****
 Total Charge           Charge          ....    0
 Multiplicity           Mult            ....    1
 Number of Electrons    NEL             ....   54
MP2 TOTAL ENERGY:     -674.698013476 Eh
FINAL SINGLE POINT ENERGY      -674.698013475880
MP2 TOTAL ENERGY:     -675.018340463 Eh
FINAL SINGLE POINT ENERGY      -675.018340462533

CARTESIAN COORDINATES (ANGSTROEM)
---------------------------------
  B      3.257486    0.113573   -0.236884
  B      1.750314   -0.166021    0.411335
  S     -0.873600   -0.147681    0.378228
  O      0.617379    0.208501   -0.258974
  O     -1.572038    1.212525   -0.091908
  O     -1.376328   -1.207768   -0.452815
  H     -1.699485    1.203649   -1.055821
  H      3.810880   -0.704021   -0.905980
  H      3.860266    1.118316   -0.012876
  H      1.614839   -0.698876    1.480339

 Multiplicity           Mult            ....    1
 Number of Electrons    NEL             ....   54
 Basis Dimension        Dim             ....  668

ORBITAL ENERGIES
----------------

  NO   OCC          E(Eh)            E(eV)
   0   2.0000     -92.173731     -2508.1747
   1   2.0000     -20.628857      -561.3397
   2   2.0000     -20.615419      -560.9741
   3   2.0000     -20.557503      -559.3981
   4   2.0000      -9.148487      -248.9430
   5   2.0000      -7.633734      -207.7245
   6   2.0000      -7.602829      -206.8835
   7   2.0000      -6.830580      -185.8695
   8   2.0000      -6.830146      -185.8577
   9   2.0000      -6.827890      -185.7963
  10   2.0000      -1.497258       -40.7425
  11   2.0000      -1.397999       -38.0415
  12   2.0000      -1.370662       -37.2976
  13   2.0000      -0.939345       -25.5609
  14   2.0000      -0.801002       -21.7964
  15   2.0000      -0.734839       -19.9960
  16   2.0000      -0.710895       -19.3444
  17   2.0000      -0.694643       -18.9022
  18   2.0000      -0.647955       -17.6318
  19   2.0000      -0.619535       -16.8584
  20   2.0000      -0.585592       -15.9348
  21   2.0000      -0.558385       -15.1944
  22   2.0000      -0.547022       -14.8852
  23   2.0000      -0.506696       -13.7879
  24   2.0000      -0.494842       -13.4653
  25   2.0000      -0.456852       -12.4316
  26   2.0000      -0.424230       -11.5439
  27   0.0000       0.023900         0.6504
  28   0.0000       0.027459         0.7472
  29   0.0000       0.031367         0.8535
  30   0.0000       0.034097         0.9278
  31   0.0000       0.039861         1.0847

MULLIKEN ATOMIC CHARGES
-----------------------
   0 B :    0.415095
   1 B :    0.765463
   2 S :    1.867542
   3 O :   -0.960626
   4 O :   -0.794092
   5 O :   -1.075840
   6 H :    0.364479
   7 H :   -0.184265
   8 H :   -0.179861
   9 H :   -0.217894
Sum of atomic charges:    0.0000000

LOEWDIN ATOMIC CHARGES
----------------------
   0 B :    0.486109
   1 B :   -0.536152
   2 S :    0.044681
   3 O :    0.561208
   4 O :    0.901185
   5 O :    0.114191
   6 H :   -0.905810
   7 H :   -0.221851
   8 H :   -0.222575
   9 H :   -0.220985

  Mayer bond orders larger than 0.100000
B(  0-B ,  1-B ) :   1.0374 B(  0-B ,  3-O ) :  -0.1600 B(  0-B ,  7-H ) :   0.9856
B(  0-B ,  8-H ) :   0.9747 B(  1-B ,  3-O ) :   0.5801 B(  1-B ,  9-H ) :   0.8919
B(  2-S ,  3-O ) :   0.8771 B(  2-S ,  4-O ) :   0.7541 B(  2-S ,  5-O ) :   1.4208
B(  4-O ,  6-H ) :   0.8655

MP2 TOTAL ENERGY:     -675.121750404 Eh
FINAL SINGLE POINT ENERGY      -675.121750404015

DIPOLE MOMENT
-------------
                                X             Y             Z
Electronic contribution:     -2.97311      -0.31818       0.76338
Nuclear contribution   :      3.39759       0.92989      -0.63248
                        -----------------------------------------
Total Dipole Moment    :      0.42448       0.61171       0.13090
                        -----------------------------------------
Magnitude (a.u.)       :      0.75598
Magnitude (Debye)      :      1.92155

Rotational constants in cm-1:     0.247723     0.056394     0.050204
Rotational constants in MHz :  7426.560249  1690.652192  1505.067416

                             ****ORCA TERMINATED NORMALLY****
TOTAL RUN TIME: 0 days 0 hours 21 minutes 47 seconds 536 msec
