                         Program Version 5.0.4 -  RELEASE  -
|  1> ! ri-mp2 aug-cc-pvdz aug-cc-pvdz/c tightscf
|  2> %pal nprocs 16 end
|  3> %maxcore 3800
|  4> %base "DZ_B-B_36_AB"
|  5> %scf
|  6> STABPerform true
|  7> STABRestartUHFifUnstable true
|  8> end
|  9>
| 10> *xyz 0 1
| 11> B        -1.859914   -1.542881   -0.323672
| 12> B        -0.973269   -0.553548    0.623538
| 13> C         0.012281    0.546136    0.078182
| 14> N         1.235734    0.391321   -0.199222
| 15> C        -0.611424    1.905226   -0.103500
| 16> H        -1.439979    1.864285   -0.814300
| 17> H         0.142754    2.598758   -0.470306
| 18> H        -1.014866    2.277750    0.840995
| 19> C         1.824183   -0.915328   -0.009777
| 20> H         2.601324   -0.853879    0.754009
| 21> H         2.308432   -1.232482   -0.934396
| 22> H         1.112079   -1.698669    0.288460
| 23> H        -1.130443   -0.584948    1.811342
| 24> H        -2.914024   -1.198318   -0.767168
| 25> H        -1.499738   -2.645800   -0.602840
| 26> *
| 27>
| 28> $new_job
| 29> ! ri-mp2 aug-cc-pvtz aug-cc-pvtz/c tightscf
| 30> %pal nprocs 16 end
| 31> %maxcore 3800
| 32> %base "TZ_B-B_36_AB"
| 33>
| 34> *xyz 0 1
| 35> B        -1.859914   -1.542881   -0.323672
| 36> B        -0.973269   -0.553548    0.623538
| 37> C         0.012281    0.546136    0.078182
| 38> N         1.235734    0.391321   -0.199222
| 39> C        -0.611424    1.905226   -0.103500
| 40> H        -1.439979    1.864285   -0.814300
| 41> H         0.142754    2.598758   -0.470306
| 42> H        -1.014866    2.277750    0.840995
| 43> C         1.824183   -0.915328   -0.009777
| 44> H         2.601324   -0.853879    0.754009
| 45> H         2.308432   -1.232482   -0.934396
| 46> H         1.112079   -1.698669    0.288460
| 47> H        -1.130443   -0.584948    1.811342
| 48> H        -2.914024   -1.198318   -0.767168
| 49> H        -1.499738   -2.645800   -0.602840
| 50> *
| 51>
| 52> $new_job
| 53> ! ri-mp2 aug-cc-pvqz aug-cc-pvqz/c tightscf
| 54> %pal nprocs 16 end
| 55> %maxcore 3800
| 56> %base "QZ_B-B_36_AB"
| 57>
| 58> *xyz 0 1
| 59> B        -1.859914   -1.542881   -0.323672
| 60> B        -0.973269   -0.553548    0.623538
| 61> C         0.012281    0.546136    0.078182
| 62> N         1.235734    0.391321   -0.199222
| 63> C        -0.611424    1.905226   -0.103500
| 64> H        -1.439979    1.864285   -0.814300
| 65> H         0.142754    2.598758   -0.470306
| 66> H        -1.014866    2.277750    0.840995
| 67> C         1.824183   -0.915328   -0.009777
| 68> H         2.601324   -0.853879    0.754009
| 69> H         2.308432   -1.232482   -0.934396
| 70> H         1.112079   -1.698669    0.288460
| 71> H        -1.130443   -0.584948    1.811342
| 72> H        -2.914024   -1.198318   -0.767168
| 73> H        -1.499738   -2.645800   -0.602840
| 74> *
| 75>
| 76>
| 77>
| 78>
| 79>                          ****END OF INPUT****
 Total Charge           Charge          ....    0
 Multiplicity           Mult            ....    1
 Number of Electrons    NEL             ....   44
MP2 TOTAL ENERGY:     -223.380998550 Eh
FINAL SINGLE POINT ENERGY      -223.380998550313
MP2 TOTAL ENERGY:     -223.585548632 Eh
FINAL SINGLE POINT ENERGY      -223.585548632494

CARTESIAN COORDINATES (ANGSTROEM)
---------------------------------
  B     -1.859914   -1.542881   -0.323672
  B     -0.973269   -0.553548    0.623538
  C      0.012281    0.546136    0.078182
  N      1.235734    0.391321   -0.199222
  C     -0.611424    1.905226   -0.103500
  H     -1.439979    1.864285   -0.814300
  H      0.142754    2.598758   -0.470306
  H     -1.014866    2.277750    0.840995
  C      1.824183   -0.915328   -0.009777
  H      2.601324   -0.853879    0.754009
  H      2.308432   -1.232482   -0.934396
  H      1.112079   -1.698669    0.288460
  H     -1.130443   -0.584948    1.811342
  H     -2.914024   -1.198318   -0.767168
  H     -1.499738   -2.645800   -0.602840

 Multiplicity           Mult            ....    1
 Number of Electrons    NEL             ....   44
 Basis Dimension        Dim             ....  894

ORBITAL ENERGIES
----------------

  NO   OCC          E(Eh)            E(eV)
   0   2.0000     -15.542435      -422.9312
   1   2.0000     -11.258058      -306.3473
   2   2.0000     -11.243278      -305.9452
   3   2.0000     -11.222454      -305.3785
   4   2.0000      -7.597282      -206.7325
   5   2.0000      -7.595771      -206.6914
   6   2.0000      -1.223747       -33.2999
   7   2.0000      -1.011927       -27.5359
   8   2.0000      -0.913346       -24.8534
   9   2.0000      -0.796149       -21.6643
  10   2.0000      -0.705717       -19.2035
  11   2.0000      -0.652794       -17.7634
  12   2.0000      -0.616110       -16.7652
  13   2.0000      -0.601953       -16.3800
  14   2.0000      -0.576952       -15.6997
  15   2.0000      -0.566500       -15.4152
  16   2.0000      -0.530830       -14.4446
  17   2.0000      -0.503631       -13.7045
  18   2.0000      -0.499199       -13.5839
  19   2.0000      -0.465420       -12.6647
  20   2.0000      -0.387194       -10.5361
  21   2.0000      -0.376263       -10.2386
  22   0.0000       0.020926         0.5694
  23   0.0000       0.028219         0.7679
  24   0.0000       0.029193         0.7944
  25   0.0000       0.031358         0.8533
  26   0.0000       0.041741         1.1358

MULLIKEN ATOMIC CHARGES
-----------------------
   0 B :    0.344107
   1 B :    0.479661
   2 C :    0.418568
   3 N :   -0.610560
   4 C :   -0.810483
   5 H :    0.249974
   6 H :    0.330561
   7 H :    0.259516
   8 C :   -0.832495
   9 H :    0.358245
  10 H :    0.352285
  11 H :    0.204209
  12 H :   -0.303592
  13 H :   -0.236862
  14 H :   -0.203134
Sum of atomic charges:   -0.0000000

LOEWDIN ATOMIC CHARGES
----------------------
   0 B :    0.507533
   1 B :   -0.076610
   2 C :   -0.221632
   3 N :    0.618737
   4 C :    0.877653
   5 H :   -0.283738
   6 H :   -0.313997
   7 H :   -0.282549
   8 C :    0.668684
   9 H :   -0.304020
  10 H :   -0.306191
  11 H :   -0.345686
  12 H :   -0.145206
  13 H :   -0.197908
  14 H :   -0.195071

  Mayer bond orders larger than 0.100000
B(  0-B ,  1-B ) :   1.0056 B(  0-B , 13-H ) :   0.9758 B(  0-B , 14-H ) :   1.0019
B(  1-B ,  2-C ) :   0.8062 B(  1-B , 12-H ) :   0.9029 B(  2-C ,  3-N ) :   1.4712
B(  2-C ,  4-C ) :   0.7757 B(  3-N ,  8-C ) :   0.9097 B(  4-C ,  5-H ) :   0.9662
B(  4-C ,  6-H ) :   0.9531 B(  4-C ,  7-H ) :   0.9533 B(  8-C ,  9-H ) :   0.8907
B(  8-C , 10-H ) :   0.8981 B(  8-C , 11-H ) :   0.9425

MP2 TOTAL ENERGY:     -223.648692893 Eh
FINAL SINGLE POINT ENERGY      -223.648692892939

DIPOLE MOMENT
-------------
                                X             Y             Z
Electronic contribution:     -1.01634      -0.50534       0.36442
Nuclear contribution   :      0.46652       0.22345      -0.14024
                        -----------------------------------------
Total Dipole Moment    :     -0.54982      -0.28189       0.22418
                        -----------------------------------------
Magnitude (a.u.)       :      0.65728
Magnitude (Debye)      :      1.67068

Rotational constants in cm-1:     0.129672     0.107260     0.064787
Rotational constants in MHz :  3887.481286  3215.563708  1942.268259

                             ****ORCA TERMINATED NORMALLY****
TOTAL RUN TIME: 0 days 1 hours 4 minutes 50 seconds 280 msec
