                         Program Version 5.0.4 -  RELEASE  -
|  1> ! ri-mp2 aug-cc-pvdz aug-cc-pvdz/c tightscf
|  2> %pal nprocs 16 end
|  3> %maxcore 3800
|  4> %base "DZ_B-B_44_B"
|  5> %scf
|  6> STABPerform true
|  7> STABRestartUHFifUnstable true
|  8> end
|  9>
| 10> *xyz 0 2
| 11> B        -1.667702    0.463909    0.000001
| 12> O        -0.616500   -0.402159    0.000001
| 13> C         0.630763   -0.060955   -0.000000
| 14> N         1.750987    0.177438   -0.000001
| 15> H        -2.770978    0.021398    0.000001
| 16> *
| 17>
| 18> $new_job
| 19> ! ri-mp2 aug-cc-pvtz aug-cc-pvtz/c tightscf
| 20> %pal nprocs 16 end
| 21> %maxcore 3800
| 22> %base "TZ_B-B_44_B"
| 23>
| 24> *xyz 0 2
| 25> B        -1.667702    0.463909    0.000001
| 26> O        -0.616500   -0.402159    0.000001
| 27> C         0.630763   -0.060955   -0.000000
| 28> N         1.750987    0.177438   -0.000001
| 29> H        -2.770978    0.021398    0.000001
| 30> *
| 31>
| 32> $new_job
| 33> ! ri-mp2 aug-cc-pvqz aug-cc-pvqz/c tightscf
| 34> %pal nprocs 16 end
| 35> %maxcore 3800
| 36> %base "QZ_B-B_44_B"
| 37>
| 38> *xyz 0 2
| 39> B        -1.667702    0.463909    0.000001
| 40> O        -0.616500   -0.402159    0.000001
| 41> C         0.630763   -0.060955   -0.000000
| 42> N         1.750987    0.177438   -0.000001
| 43> H        -2.770978    0.021398    0.000001
| 44> *
| 45>
| 46>
| 47>
| 48>
| 49>                          ****END OF INPUT****
 Total Charge           Charge          ....    0
 Multiplicity           Mult            ....    2
 Number of Electrons    NEL             ....   27
MP2 TOTAL ENERGY:     -192.937465899 Eh
FINAL SINGLE POINT ENERGY      -192.937465898777
MP2 TOTAL ENERGY:     -193.098061508 Eh
FINAL SINGLE POINT ENERGY      -193.098061508104

CARTESIAN COORDINATES (ANGSTROEM)
---------------------------------
  B     -1.667702    0.463909    0.000001
  O     -0.616500   -0.402159    0.000001
  C      0.630763   -0.060955   -0.000000
  N      1.750987    0.177438   -0.000001
  H     -2.770978    0.021398    0.000001

 Multiplicity           Mult            ....    2
 Number of Electrons    NEL             ....   27
 Basis Dimension        Dim             ....  366

ORBITAL ENERGIES
----------------
                 SPIN UP ORBITALS
  NO   OCC          E(Eh)            E(eV)
   0   1.0000     -20.689898      -563.0007
   1   1.0000     -15.581781      -424.0018
   2   1.0000     -11.353223      -308.9369
   3   1.0000      -7.713938      -209.9069
   4   1.0000      -1.518081       -41.3091
   5   1.0000      -1.237746       -33.6808
   6   1.0000      -0.928106       -25.2550
   7   1.0000      -0.747285       -20.3346
   8   1.0000      -0.695269       -18.9192
   9   1.0000      -0.645750       -17.5718
  10   1.0000      -0.577799       -15.7227
  11   1.0000      -0.484347       -13.1797
  12   1.0000      -0.472321       -12.8525
  13   1.0000      -0.398216       -10.8360
  14   0.0000       0.021355         0.5811
  15   0.0000       0.026295         0.7155
  16   0.0000       0.033122         0.9013
  17   0.0000       0.037418         1.0182
  18   0.0000       0.065487         1.7820

                 SPIN DOWN ORBITALS
  NO   OCC          E(Eh)            E(eV)
   0   1.0000     -20.688368      -562.9591
   1   1.0000     -15.582831      -424.0304
   2   1.0000     -11.352035      -308.9046
   3   1.0000      -7.693618      -209.3540
   4   1.0000      -1.511453       -41.1287
   5   1.0000      -1.239327       -33.7238
   6   1.0000      -0.917964       -24.9791
   7   1.0000      -0.718487       -19.5510
   8   1.0000      -0.696880       -18.9631
   9   1.0000      -0.607613       -16.5340
  10   1.0000      -0.577621       -15.7179
  11   1.0000      -0.481179       -13.0935
  12   1.0000      -0.474112       -12.9012
  13   0.0000       0.021373         0.5816
  14   0.0000       0.027594         0.7509
  15   0.0000       0.031123         0.8469
  16   0.0000       0.034145         0.9291
  17   0.0000       0.060504         1.6464

MULLIKEN ATOMIC CHARGES AND SPIN POPULATIONS
--------------------------------------------
   0 B :    0.538140    0.982065
   1 O :   -0.710135   -0.009577
   2 C :    0.887280    0.018435
   3 N :   -0.607502   -0.028627
   4 H :   -0.107782    0.037704
Sum of atomic charges         :    0.0000000

LOEWDIN ATOMIC CHARGES AND SPIN POPULATIONS
-------------------------------------------
   0 B :    0.012560    0.588187
   1 O :    0.733913    0.177269
   2 C :   -0.788192    0.068878
   3 N :    0.343638   -0.007235
   4 H :   -0.301920    0.172901

  Mayer bond orders larger than 0.100000
B(  0-B ,  1-O ) :   0.6747 B(  0-B ,  4-H ) :   0.9812 B(  1-O ,  2-C ) :   1.0360
B(  2-C ,  3-N ) :   2.6868

MP2 TOTAL ENERGY:     -193.149985111 Eh
FINAL SINGLE POINT ENERGY      -193.149985111346

DIPOLE MOMENT
-------------
                                X             Y             Z
Electronic contribution:     -0.08932       0.20131       0.00000
Nuclear contribution   :     -1.34372      -0.33694       0.00000
                        -----------------------------------------
Total Dipole Moment    :     -1.43304      -0.13563       0.00000
                        -----------------------------------------
Magnitude (a.u.)       :      1.43944
Magnitude (Debye)      :      3.65877

Rotational constants in cm-1:     3.125328     0.184084     0.173845
Rotational constants in MHz : 93694.990125  5518.708241  5211.733084

                             ****ORCA TERMINATED NORMALLY****
TOTAL RUN TIME: 0 days 0 hours 11 minutes 54 seconds 835 msec
