                         Program Version 5.0.4 -  RELEASE  -
|  1> ! ri-mp2 aug-cc-pvdz aug-cc-pvdz/c tightscf
|  2> %pal nprocs 16 end
|  3> %maxcore 3800
|  4> %base "DZ_B-Cl_72_A"
|  5> %scf
|  6> STABPerform true
|  7> STABRestartUHFifUnstable true
|  8> end
|  9>
| 10> *xyz 0 2
| 11> B         0.000000    1.752216   -0.218403
| 12> O         1.194827    1.160049   -0.042473
| 13> O        -1.194827    1.160049   -0.042473
| 14> C        -0.000000   -0.945069   -0.080348
| 15> C        -1.255224   -0.221120    0.370033
| 16> C         1.255224   -0.221120    0.370033
| 17> C         2.523481   -0.815928   -0.189400
| 18> H         2.497222   -0.806635   -1.279451
| 19> H         2.644241   -1.846024    0.148389
| 20> H         3.387084   -0.239009    0.137589
| 21> H         1.301880   -0.221244    1.463331
| 22> H        -0.000000   -1.019676   -1.172022
| 23> H        -0.000000   -1.961368    0.318380
| 24> C        -2.523481   -0.815928   -0.189400
| 25> H        -1.301880   -0.221243    1.463331
| 26> H        -2.497222   -0.806636   -1.279450
| 27> H        -3.387084   -0.239009    0.137589
| 28> H        -2.644241   -1.846024    0.148389
| 29> *
| 30>
| 31> $new_job
| 32> ! ri-mp2 aug-cc-pvtz aug-cc-pvtz/c tightscf
| 33> %pal nprocs 16 end
| 34> %maxcore 3800
| 35> %base "TZ_B-Cl_72_A"
| 36>
| 37> *xyz 0 2
| 38> B         0.000000    1.752216   -0.218403
| 39> O         1.194827    1.160049   -0.042473
| 40> O        -1.194827    1.160049   -0.042473
| 41> C        -0.000000   -0.945069   -0.080348
| 42> C        -1.255224   -0.221120    0.370033
| 43> C         1.255224   -0.221120    0.370033
| 44> C         2.523481   -0.815928   -0.189400
| 45> H         2.497222   -0.806635   -1.279451
| 46> H         2.644241   -1.846024    0.148389
| 47> H         3.387084   -0.239009    0.137589
| 48> H         1.301880   -0.221244    1.463331
| 49> H        -0.000000   -1.019676   -1.172022
| 50> H        -0.000000   -1.961368    0.318380
| 51> C        -2.523481   -0.815928   -0.189400
| 52> H        -1.301880   -0.221243    1.463331
| 53> H        -2.497222   -0.806636   -1.279450
| 54> H        -3.387084   -0.239009    0.137589
| 55> H        -2.644241   -1.846024    0.148389
| 56> *
| 57>
| 58> $new_job
| 59> ! ri-mp2 aug-cc-pvqz aug-cc-pvqz/c tightscf
| 60> %pal nprocs 16 end
| 61> %maxcore 3800
| 62> %base "QZ_B-Cl_72_A"
| 63>
| 64> *xyz 0 2
| 65> B         0.000000    1.752216   -0.218403
| 66> O         1.194827    1.160049   -0.042473
| 67> O        -1.194827    1.160049   -0.042473
| 68> C        -0.000000   -0.945069   -0.080348
| 69> C        -1.255224   -0.221120    0.370033
| 70> C         1.255224   -0.221120    0.370033
| 71> C         2.523481   -0.815928   -0.189400
| 72> H         2.497222   -0.806635   -1.279451
| 73> H         2.644241   -1.846024    0.148389
| 74> H         3.387084   -0.239009    0.137589
| 75> H         1.301880   -0.221244    1.463331
| 76> H        -0.000000   -1.019676   -1.172022
| 77> H        -0.000000   -1.961368    0.318380
| 78> C        -2.523481   -0.815928   -0.189400
| 79> H        -1.301880   -0.221243    1.463331
| 80> H        -2.497222   -0.806636   -1.279450
| 81> H        -3.387084   -0.239009    0.137589
| 82> H        -2.644241   -1.846024    0.148389
| 83> *
| 84>
| 85>
| 86>
| 87>
| 88>                          ****END OF INPUT****
 Total Charge           Charge          ....    0
 Multiplicity           Mult            ....    2
 Number of Electrons    NEL             ....   61
MP2 TOTAL ENERGY:     -370.836911265 Eh
FINAL SINGLE POINT ENERGY      -370.836911264626
MP2 TOTAL ENERGY:     -371.171658113 Eh
FINAL SINGLE POINT ENERGY      -371.171658112873

CARTESIAN COORDINATES (ANGSTROEM)
---------------------------------
  B      0.000000    1.752216   -0.218403
  O      1.194827    1.160049   -0.042473
  O     -1.194827    1.160049   -0.042473
  C     -0.000000   -0.945069   -0.080348
  C     -1.255224   -0.221120    0.370033
  C      1.255224   -0.221120    0.370033
  C      2.523481   -0.815928   -0.189400
  H      2.497222   -0.806635   -1.279451
  H      2.644241   -1.846024    0.148389
  H      3.387084   -0.239009    0.137589
  H      1.301880   -0.221244    1.463331
  H     -0.000000   -1.019676   -1.172022
  H     -0.000000   -1.961368    0.318380
  C     -2.523481   -0.815928   -0.189400
  H     -1.301880   -0.221243    1.463331
  H     -2.497222   -0.806636   -1.279450
  H     -3.387084   -0.239009    0.137589
  H     -2.644241   -1.846024    0.148389

 Multiplicity           Mult            ....    2
 Number of Electrons    NEL             ....   61
 Basis Dimension        Dim             .... 1100

ORBITAL ENERGIES
----------------
                 SPIN UP ORBITALS
  NO   OCC          E(Eh)            E(eV)
   0   1.0000     -20.561294      -559.5013
   1   1.0000     -20.561275      -559.5007
   2   1.0000     -11.296099      -307.3825
   3   1.0000     -11.296093      -307.3823
   4   1.0000     -11.235258      -305.7269
   5   1.0000     -11.221397      -305.3497
   6   1.0000     -11.221397      -305.3497
   7   1.0000      -7.646035      -208.0592
   8   1.0000      -1.401258       -38.1302
   9   1.0000      -1.356196       -36.9040
  10   1.0000      -1.093267       -29.7493
  11   1.0000      -1.030442       -28.0397
  12   1.0000      -0.953326       -25.9413
  13   1.0000      -0.841322       -22.8935
  14   1.0000      -0.829558       -22.5734
  15   1.0000      -0.728876       -19.8337
  16   1.0000      -0.687254       -18.7011
  17   1.0000      -0.678579       -18.4651
  18   1.0000      -0.652514       -17.7558
  19   1.0000      -0.604245       -16.4424
  20   1.0000      -0.567861       -15.4523
  21   1.0000      -0.560518       -15.2525
  22   1.0000      -0.558512       -15.1979
  23   1.0000      -0.550371       -14.9764
  24   1.0000      -0.543677       -14.7942
  25   1.0000      -0.530283       -14.4297
  26   1.0000      -0.525662       -14.3040
  27   1.0000      -0.470753       -12.8098
  28   1.0000      -0.453624       -12.3437
  29   1.0000      -0.448603       -12.2071
  30   1.0000      -0.331776        -9.0281
  31   0.0000       0.021592         0.5876
  32   0.0000       0.028426         0.7735
  33   0.0000       0.028973         0.7884
  34   0.0000       0.033547         0.9129
  35   0.0000       0.045118         1.2277

                 SPIN DOWN ORBITALS
  NO   OCC          E(Eh)            E(eV)
   0   1.0000     -20.559949      -559.4647
   1   1.0000     -20.559929      -559.4641
   2   1.0000     -11.294796      -307.3470
   3   1.0000     -11.294789      -307.3468
   4   1.0000     -11.235473      -305.7328
   5   1.0000     -11.221476      -305.3519
   6   1.0000     -11.221476      -305.3519
   7   1.0000      -7.624384      -207.4700
   8   1.0000      -1.395879       -37.9838
   9   1.0000      -1.352274       -36.7972
  10   1.0000      -1.089711       -29.6525
  11   1.0000      -1.027733       -27.9660
  12   1.0000      -0.953241       -25.9390
  13   1.0000      -0.836630       -22.7659
  14   1.0000      -0.819376       -22.2964
  15   1.0000      -0.721723       -19.6391
  16   1.0000      -0.681260       -18.5380
  17   1.0000      -0.673578       -18.3290
  18   1.0000      -0.652781       -17.7631
  19   1.0000      -0.596757       -16.2386
  20   1.0000      -0.565766       -15.3953
  21   1.0000      -0.559431       -15.2229
  22   1.0000      -0.557918       -15.1817
  23   1.0000      -0.545734       -14.8502
  24   1.0000      -0.542823       -14.7710
  25   1.0000      -0.530357       -14.4317
  26   1.0000      -0.518109       -14.0985
  27   1.0000      -0.469233       -12.7685
  28   1.0000      -0.453162       -12.3312
  29   1.0000      -0.451392       -12.2830
  30   0.0000       0.021277         0.5790
  31   0.0000       0.028450         0.7742
  32   0.0000       0.029127         0.7926
  33   0.0000       0.032465         0.8834
  34   0.0000       0.044455         1.2097

MULLIKEN ATOMIC CHARGES AND SPIN POPULATIONS
--------------------------------------------
   0 B :    0.773134    1.190605
   1 O :   -0.996884   -0.133937
   2 O :   -0.996962   -0.133911
   3 C :   -0.532493   -0.017828
   4 C :    0.548996    0.051248
   5 C :    0.548942    0.051249
   6 C :   -0.935723   -0.005508
   7 H :    0.209909    0.000432
   8 H :    0.252991    0.001570
   9 H :    0.262932    0.000497
  10 H :    0.217022   -0.004085
  11 H :    0.224841    0.000020
  12 H :    0.416187    0.006737
  13 C :   -0.935770   -0.005504
  14 H :    0.217044   -0.004086
  15 H :    0.209907    0.000433
  16 H :    0.262948    0.000497
  17 H :    0.252980    0.001571
Sum of atomic charges         :   -0.0000000

LOEWDIN ATOMIC CHARGES AND SPIN POPULATIONS
-------------------------------------------
   0 B :   -0.872020    0.584016
   1 O :    0.888291    0.154409
   2 O :    0.888291    0.154409
   3 C :    0.477389    0.014334
   4 C :   -0.237553    0.033608
   5 C :   -0.237554    0.033608
   6 C :    0.922189    0.004917
   7 H :   -0.280375    0.000552
   8 H :   -0.275694    0.001130
   9 H :   -0.278641    0.000356
  10 H :   -0.281542    0.003848
  11 H :   -0.268310    0.001742
  12 H :   -0.250406    0.002267
  13 C :    0.922190    0.004917
  14 H :   -0.281542    0.003848
  15 H :   -0.280376    0.000552
  16 H :   -0.278641    0.000356
  17 H :   -0.275694    0.001130

  Mayer bond orders larger than 0.100000
B(  0-B ,  1-O ) :   0.4713 B(  0-B ,  2-O ) :   0.4714 B(  1-O ,  5-C ) :   0.2400
B(  2-O ,  4-C ) :   0.2399 B(  3-C ,  4-C ) :   0.7968 B(  3-C ,  5-C ) :   0.7968
B(  3-C , 11-H ) :   0.8965 B(  3-C , 12-H ) :   0.8061 B(  4-C , 13-C ) :   0.7575
B(  4-C , 14-H ) :   0.9350 B(  4-C , 16-H ) :  -0.1084 B(  5-C ,  6-C ) :   0.7575
B(  5-C ,  9-H ) :  -0.1084 B(  5-C , 10-H ) :   0.9350 B(  6-C ,  7-H ) :   0.9755
B(  6-C ,  8-H ) :   0.9901 B(  6-C ,  9-H ) :   1.0326 B( 13-C , 15-H ) :   0.9755
B( 13-C , 16-H ) :   1.0325 B( 13-C , 17-H ) :   0.9901

MP2 TOTAL ENERGY:     -371.276291880 Eh
FINAL SINGLE POINT ENERGY      -371.276291879504

DIPOLE MOMENT
-------------
                                X             Y             Z
Electronic contribution:     -0.00000       9.30836       0.10294
Nuclear contribution   :     -0.00000     -10.73397       0.26446
                        -----------------------------------------
Total Dipole Moment    :     -0.00000      -1.42561       0.36741
                        -----------------------------------------
Magnitude (a.u.)       :      1.47219
Magnitude (Debye)      :      3.74201

Rotational constants in cm-1:     0.129203     0.055512     0.041498
Rotational constants in MHz :  3873.406884  1664.212553  1244.083189

                             ****ORCA TERMINATED NORMALLY****
TOTAL RUN TIME: 0 days 4 hours 32 minutes 52 seconds 295 msec
