                         Program Version 5.0.4 -  RELEASE  -
|  1> ! ri-mp2 aug-cc-pvdz aug-cc-pvdz/c tightscf
|  2> %pal nprocs 16 end
|  3> %maxcore 3800
|  4> %base "DZ_S-Cl_58_A"
|  5> %scf
|  6> STABPerform true
|  7> STABRestartUHFifUnstable true
|  8> end
|  9>
| 10> *xyz 0 2
| 11> S        -1.722200   -0.065025   -0.000001
| 12> C        -0.036173    0.372061   -0.000013
| 13> N         0.896179   -0.463220    0.000014
| 14> H         0.114533    1.462096   -0.000044
| 15> C         2.253196    0.029077    0.000005
| 16> H         2.774203   -0.355288   -0.877688
| 17> H         2.774193   -0.355228    0.877730
| 18> H         2.316880    1.124537   -0.000032
| 19> *
| 20>
| 21> $new_job
| 22> ! ri-mp2 aug-cc-pvtz aug-cc-pvtz/c tightscf
| 23> %pal nprocs 16 end
| 24> %maxcore 3800
| 25> %base "TZ_S-Cl_58_A"
| 26>
| 27> *xyz 0 2
| 28> S        -1.722200   -0.065025   -0.000001
| 29> C        -0.036173    0.372061   -0.000013
| 30> N         0.896179   -0.463220    0.000014
| 31> H         0.114533    1.462096   -0.000044
| 32> C         2.253196    0.029077    0.000005
| 33> H         2.774203   -0.355288   -0.877688
| 34> H         2.774193   -0.355228    0.877730
| 35> H         2.316880    1.124537   -0.000032
| 36> *
| 37>
| 38> $new_job
| 39> ! ri-mp2 aug-cc-pvqz aug-cc-pvqz/c tightscf
| 40> %pal nprocs 16 end
| 41> %maxcore 3800
| 42> %base "QZ_S-Cl_58_A"
| 43>
| 44> *xyz 0 2
| 45> S        -1.722200   -0.065025   -0.000001
| 46> C        -0.036173    0.372061   -0.000013
| 47> N         0.896179   -0.463220    0.000014
| 48> H         0.114533    1.462096   -0.000044
| 49> C         2.253196    0.029077    0.000005
| 50> H         2.774203   -0.355288   -0.877688
| 51> H         2.774193   -0.355228    0.877730
| 52> H         2.316880    1.124537   -0.000032
| 53> *
| 54>
| 55>
| 56>
| 57>
| 58>                          ****END OF INPUT****
 Total Charge           Charge          ....    0
 Multiplicity           Mult            ....    2
 Number of Electrons    NEL             ....   39
MP2 TOTAL ENERGY:     -530.582568492 Eh
FINAL SINGLE POINT ENERGY      -530.582568492439
MP2 TOTAL ENERGY:     -530.748477590 Eh
FINAL SINGLE POINT ENERGY      -530.748477589879

CARTESIAN COORDINATES (ANGSTROEM)
---------------------------------
  S     -1.722200   -0.065025   -0.000001
  C     -0.036173    0.372061   -0.000013
  N      0.896179   -0.463220    0.000014
  H      0.114533    1.462096   -0.000044
  C      2.253196    0.029077    0.000005
  H      2.774203   -0.355288   -0.877688
  H      2.774193   -0.355228    0.877730
  H      2.316880    1.124537   -0.000032

 Multiplicity           Mult            ....    2
 Number of Electrons    NEL             ....   39
 Basis Dimension        Dim             ....  508

ORBITAL ENERGIES
----------------
                 SPIN UP ORBITALS
  NO   OCC          E(Eh)            E(eV)
   0   1.0000     -91.993482     -2503.2699
   1   1.0000     -15.565668      -423.5634
   2   1.0000     -11.314509      -307.8834
   3   1.0000     -11.255121      -306.2674
   4   1.0000      -8.995934      -244.7918
   5   1.0000      -6.692054      -182.1001
   6   1.0000      -6.673053      -181.5830
   7   1.0000      -6.671829      -181.5497
   8   1.0000      -1.253842       -34.1188
   9   1.0000      -1.044961       -28.4348
  10   1.0000      -0.933728       -25.4080
  11   1.0000      -0.778171       -21.1751
  12   1.0000      -0.663486       -18.0544
  13   1.0000      -0.619007       -16.8440
  14   1.0000      -0.602880       -16.4052
  15   1.0000      -0.522317       -14.2130
  16   1.0000      -0.485448       -13.2097
  17   1.0000      -0.464043       -12.6273
  18   1.0000      -0.416079       -11.3221
  19   1.0000      -0.366728        -9.9792
  20   0.0000       0.025705         0.6995
  21   0.0000       0.035806         0.9743
  22   0.0000       0.042918         1.1678
  23   0.0000       0.044231         1.2036
  24   0.0000       0.058223         1.5843

                 SPIN DOWN ORBITALS
  NO   OCC          E(Eh)            E(eV)
   0   1.0000     -91.984177     -2503.0167
   1   1.0000     -15.564833      -423.5406
   2   1.0000     -11.315544      -307.9116
   3   1.0000     -11.255102      -306.2669
   4   1.0000      -8.985650      -244.5120
   5   1.0000      -6.668272      -181.4529
   6   1.0000      -6.666300      -181.3992
   7   1.0000      -6.649978      -180.9551
   8   1.0000      -1.250103       -34.0170
   9   1.0000      -1.004247       -27.3269
  10   1.0000      -0.900866       -24.5138
  11   1.0000      -0.755087       -20.5470
  12   1.0000      -0.654972       -17.8227
  13   1.0000      -0.608567       -16.5600
  14   1.0000      -0.602507       -16.3951
  15   1.0000      -0.514437       -13.9985
  16   1.0000      -0.479453       -13.0466
  17   1.0000      -0.412725       -11.2308
  18   1.0000      -0.351931        -9.5765
  19   0.0000       0.003755         0.1022
  20   0.0000       0.025978         0.7069
  21   0.0000       0.037198         1.0122
  22   0.0000       0.042955         1.1689
  23   0.0000       0.044737         1.2173

MULLIKEN ATOMIC CHARGES AND SPIN POPULATIONS
--------------------------------------------
   0 S :    0.135073    1.113674
   1 C :   -0.257312   -0.138533
   2 N :   -0.421690   -0.002616
   3 H :    0.351100    0.031111
   4 C :   -0.611142   -0.002788
   5 H :    0.278366   -0.000158
   6 H :    0.278367   -0.000158
   7 H :    0.247239   -0.000531
Sum of atomic charges         :   -0.0000000

LOEWDIN ATOMIC CHARGES AND SPIN POPULATIONS
-------------------------------------------
   0 S :    1.019534    0.742514
   1 C :   -0.626529    0.206335
   2 N :    0.428358    0.020781
   3 H :   -0.466608    0.026142
   4 C :    0.633683    0.002828
   5 H :   -0.324035    0.000250
   6 H :   -0.324035    0.000250
   7 H :   -0.340368    0.000900

  Mayer bond orders larger than 0.100000
B(  0-S ,  1-C ) :   0.8546 B(  1-C ,  2-N ) :   1.7960 B(  1-C ,  3-H ) :   0.8326
B(  2-N ,  4-C ) :   0.9141 B(  4-C ,  5-H ) :   0.9251 B(  4-C ,  6-H ) :   0.9251
B(  4-C ,  7-H ) :   0.9279

MP2 TOTAL ENERGY:     -530.801431876 Eh
FINAL SINGLE POINT ENERGY      -530.801431876000

DIPOLE MOMENT
-------------
                                X             Y             Z
Electronic contribution:     -7.58448      -1.10654       0.00001
Nuclear contribution   :      7.94319       1.85324      -0.00003
                        -----------------------------------------
Total Dipole Moment    :      0.35871       0.74669      -0.00002
                        -----------------------------------------
Magnitude (a.u.)       :      0.82839
Magnitude (Debye)      :      2.10559

Rotational constants in cm-1:     1.686004     0.089208     0.086069
Rotational constants in MHz : 50545.130886  2674.389323  2580.277101

                             ****ORCA TERMINATED NORMALLY****
TOTAL RUN TIME: 0 days 0 hours 32 minutes 3 seconds 377 msec
