                         Program Version 5.0.4 -  RELEASE  -
|  1> ! ri-mp2 aug-cc-pvdz aug-cc-pvdz/c tightscf
|  2> %pal nprocs 16 end
|  3> %maxcore 3800
|  4> %base "DZ_B-S_24_A"
|  5> %scf
|  6> STABPerform true
|  7> STABRestartUHFifUnstable true
|  8> end
|  9>
| 10> *xyz 0 2
| 11> S        -1.975759   -0.006774   -0.087895
| 12> C        -0.364709   -0.667236    0.326073
| 13> C         0.834617    0.008441   -0.330687
| 14> C         0.978840    1.450602    0.131400
| 15> H         0.076398    2.024072   -0.081357
| 16> H         1.814960    1.939902   -0.368887
| 17> H         1.162894    1.493726    1.208105
| 18> C         2.100199   -0.791025   -0.044740
| 19> H         0.658951    0.008285   -1.410170
| 20> H         2.300572   -0.831231    1.028669
| 21> H         2.966292   -0.334637   -0.525021
| 22> H         2.017242   -1.816631   -0.407936
| 23> H        -0.409861   -1.727250    0.053996
| 24> H        -0.268978   -0.652540    1.416652
| 25> *
| 26>
| 27> $new_job
| 28> ! ri-mp2 aug-cc-pvtz aug-cc-pvtz/c tightscf
| 29> %pal nprocs 16 end
| 30> %maxcore 3800
| 31> %base "TZ_B-S_24_A"
| 32>
| 33> *xyz 0 2
| 34> S        -1.975759   -0.006774   -0.087895
| 35> C        -0.364709   -0.667236    0.326073
| 36> C         0.834617    0.008441   -0.330687
| 37> C         0.978840    1.450602    0.131400
| 38> H         0.076398    2.024072   -0.081357
| 39> H         1.814960    1.939902   -0.368887
| 40> H         1.162894    1.493726    1.208105
| 41> C         2.100199   -0.791025   -0.044740
| 42> H         0.658951    0.008285   -1.410170
| 43> H         2.300572   -0.831231    1.028669
| 44> H         2.966292   -0.334637   -0.525021
| 45> H         2.017242   -1.816631   -0.407936
| 46> H        -0.409861   -1.727250    0.053996
| 47> H        -0.268978   -0.652540    1.416652
| 48> *
| 49>
| 50> $new_job
| 51> ! ri-mp2 aug-cc-pvqz aug-cc-pvqz/c tightscf
| 52> %pal nprocs 16 end
| 53> %maxcore 3800
| 54> %base "QZ_B-S_24_A"
| 55>
| 56> *xyz 0 2
| 57> S        -1.975759   -0.006774   -0.087895
| 58> C        -0.364709   -0.667236    0.326073
| 59> C         0.834617    0.008441   -0.330687
| 60> C         0.978840    1.450602    0.131400
| 61> H         0.076398    2.024072   -0.081357
| 62> H         1.814960    1.939902   -0.368887
| 63> H         1.162894    1.493726    1.208105
| 64> C         2.100199   -0.791025   -0.044740
| 65> H         0.658951    0.008285   -1.410170
| 66> H         2.300572   -0.831231    1.028669
| 67> H         2.966292   -0.334637   -0.525021
| 68> H         2.017242   -1.816631   -0.407936
| 69> H        -0.409861   -1.727250    0.053996
| 70> H        -0.268978   -0.652540    1.416652
| 71> *
| 72>
| 73>
| 74>
| 75>
| 76>                          ****END OF INPUT****
 Total Charge           Charge          ....    0
 Multiplicity           Mult            ....    2
 Number of Electrons    NEL             ....   49
MP2 TOTAL ENERGY:     -554.964841216 Eh
FINAL SINGLE POINT ENERGY      -554.964841216219
MP2 TOTAL ENERGY:     -555.165570816 Eh
FINAL SINGLE POINT ENERGY      -555.165570815887

CARTESIAN COORDINATES (ANGSTROEM)
---------------------------------
  S     -1.975759   -0.006774   -0.087895
  C     -0.364709   -0.667236    0.326073
  C      0.834617    0.008441   -0.330687
  C      0.978840    1.450602    0.131400
  H      0.076398    2.024072   -0.081357
  H      1.814960    1.939902   -0.368887
  H      1.162894    1.493726    1.208105
  C      2.100199   -0.791025   -0.044740
  H      0.658951    0.008285   -1.410170
  H      2.300572   -0.831231    1.028669
  H      2.966292   -0.334637   -0.525021
  H      2.017242   -1.816631   -0.407936
  H     -0.409861   -1.727250    0.053996
  H     -0.268978   -0.652540    1.416652

 Multiplicity           Mult            ....    2
 Number of Electrons    NEL             ....   49
 Basis Dimension        Dim             ....  818

ORBITAL ENERGIES
----------------
                 SPIN UP ORBITALS
  NO   OCC          E(Eh)            E(eV)
   0   1.0000     -91.963446     -2502.4526
   1   1.0000     -11.258156      -306.3500
   2   1.0000     -11.233828      -305.6880
   3   1.0000     -11.217722      -305.2497
   4   1.0000     -11.213305      -305.1295
   5   1.0000      -8.965708      -243.9693
   6   1.0000      -6.661627      -181.2721
   7   1.0000      -6.643178      -180.7701
   8   1.0000      -6.641771      -180.7318
   9   1.0000      -1.112090       -30.2615
  10   1.0000      -1.014971       -27.6188
  11   1.0000      -0.937939       -25.5226
  12   1.0000      -0.865473       -23.5507
  13   1.0000      -0.774749       -21.0820
  14   1.0000      -0.650000       -17.6874
  15   1.0000      -0.611163       -16.6306
  16   1.0000      -0.593992       -16.1633
  17   1.0000      -0.559814       -15.2333
  18   1.0000      -0.541550       -14.7363
  19   1.0000      -0.512405       -13.9433
  20   1.0000      -0.489258       -13.3134
  21   1.0000      -0.477319       -12.9885
  22   1.0000      -0.460104       -12.5201
  23   1.0000      -0.422532       -11.4977
  24   1.0000      -0.364656        -9.9228
  25   0.0000       0.025921         0.7054
  26   0.0000       0.032813         0.8929
  27   0.0000       0.033165         0.9025
  28   0.0000       0.037619         1.0237
  29   0.0000       0.051622         1.4047

                 SPIN DOWN ORBITALS
  NO   OCC          E(Eh)            E(eV)
   0   1.0000     -91.954361     -2502.2054
   1   1.0000     -11.259165      -306.3775
   2   1.0000     -11.233776      -305.6866
   3   1.0000     -11.217768      -305.2510
   4   1.0000     -11.213232      -305.1275
   5   1.0000      -8.955701      -243.6970
   6   1.0000      -6.638145      -180.6331
   7   1.0000      -6.636511      -180.5887
   8   1.0000      -6.620619      -180.1562
   9   1.0000      -1.106063       -30.0975
  10   1.0000      -0.984944       -26.8017
  11   1.0000      -0.937591       -25.5131
  12   1.0000      -0.819306       -22.2944
  13   1.0000      -0.760135       -20.6843
  14   1.0000      -0.641054       -17.4440
  15   1.0000      -0.609528       -16.5861
  16   1.0000      -0.584037       -15.8925
  17   1.0000      -0.550693       -14.9851
  18   1.0000      -0.540671       -14.7124
  19   1.0000      -0.507905       -13.8208
  20   1.0000      -0.485456       -13.2099
  21   1.0000      -0.474558       -12.9134
  22   1.0000      -0.452295       -12.3076
  23   1.0000      -0.346064        -9.4169
  24   0.0000       0.022110         0.6016
  25   0.0000       0.026036         0.7085
  26   0.0000       0.032909         0.8955
  27   0.0000       0.035730         0.9723
  28   0.0000       0.037959         1.0329

MULLIKEN ATOMIC CHARGES AND SPIN POPULATIONS
--------------------------------------------
   0 S :   -0.234093    1.133091
   1 C :   -0.408131   -0.213304
   2 C :    0.248123    0.024056
   3 C :   -0.888781    0.000526
   4 H :    0.278669   -0.004119
   5 H :    0.262603   -0.000340
   6 H :    0.205141   -0.000701
   7 C :   -0.892515   -0.000758
   8 H :    0.307018   -0.000461
   9 H :    0.197707    0.000199
  10 H :    0.248683   -0.000596
  11 H :    0.263476    0.000318
  12 H :    0.215106    0.039873
  13 H :    0.196995    0.022215
Sum of atomic charges         :   -0.0000000

LOEWDIN ATOMIC CHARGES AND SPIN POPULATIONS
-------------------------------------------
   0 S :    1.111161    0.735331
   1 C :   -0.079729    0.188283
   2 C :   -0.030411    0.009396
   3 C :    0.876175    0.008191
   4 H :   -0.315324    0.009837
   5 H :   -0.274949    0.000494
   6 H :   -0.278681    0.000524
   7 C :    0.907487    0.000640
   8 H :   -0.301882    0.000229
   9 H :   -0.277321    0.000125
  10 H :   -0.275958   -0.000171
  11 H :   -0.277242    0.000398
  12 H :   -0.396637    0.029643
  13 H :   -0.386688    0.017080

  Mayer bond orders larger than 0.100000
B(  0-S ,  1-C ) :   0.8328 B(  0-S ,  2-C ) :  -0.1154 B(  1-C ,  2-C ) :   0.7798
B(  1-C , 12-H ) :   0.9646 B(  1-C , 13-H ) :   0.9472 B(  2-C ,  3-C ) :   0.7347
B(  2-C ,  7-C ) :   0.7196 B(  2-C ,  8-H ) :   0.8258 B(  3-C ,  4-H ) :   0.9770
B(  3-C ,  5-H ) :   0.9798 B(  3-C ,  6-H ) :   0.9771 B(  7-C ,  9-H ) :   0.9810
B(  7-C , 10-H ) :   1.0043 B(  7-C , 11-H ) :   0.9733

MP2 TOTAL ENERGY:     -555.226603656 Eh
FINAL SINGLE POINT ENERGY      -555.226603656136

DIPOLE MOMENT
-------------
                                X             Y             Z
Electronic contribution:    -10.02919      -0.31974      -0.85431
Nuclear contribution   :     10.71110       0.10722       0.94606
                        -----------------------------------------
Total Dipole Moment    :      0.68192      -0.21252       0.09175
                        -----------------------------------------
Magnitude (a.u.)       :      0.72013
Magnitude (Debye)      :      1.83043

Rotational constants in cm-1:     0.255033     0.072568     0.060646
Rotational constants in MHz :  7645.684931  2175.531345  1818.119232

                             ****ORCA TERMINATED NORMALLY****
TOTAL RUN TIME: 0 days 2 hours 33 minutes 10 seconds 884 msec
