                         Program Version 5.0.4 -  RELEASE  -
|  1> ! ri-mp2 aug-cc-pvdz aug-cc-pvdz/c tightscf
|  2> %pal nprocs 16 end
|  3> %maxcore 3800
|  4> %base "DZ_S-Cl_62_A"
|  5> %scf
|  6> STABPerform true
|  7> STABRestartUHFifUnstable true
|  8> end
|  9>
| 10> *xyz 0 2
| 11> S         0.040442    1.605997   -0.510953
| 12> C         0.010106   -0.033471    0.361076
| 13> O         1.276331   -0.501999    0.635999
| 14> O        -0.604577   -0.964855   -0.484741
| 15> C         2.098942   -0.804071   -0.475152
| 16> H         3.071244   -1.067734   -0.067716
| 17> H         2.203794    0.069962   -1.123625
| 18> H         1.698150   -1.638962   -1.048459
| 19> C        -1.999436   -0.864794   -0.687075
| 20> H        -2.237211   -1.540795   -1.504621
| 21> H        -2.289520    0.150793   -0.962780
| 22> H        -2.554152   -1.173867    0.201340
| 23> C        -0.678974    0.149355    1.697836
| 24> H        -0.091692    0.826281    2.314410
| 25> H        -0.724098   -0.821234    2.192478
| 26> H        -1.681444    0.552324    1.584034
| 27> *
| 28>
| 29> $new_job
| 30> ! ri-mp2 aug-cc-pvtz aug-cc-pvtz/c tightscf
| 31> %pal nprocs 16 end
| 32> %maxcore 3800
| 33> %base "TZ_S-Cl_62_A"
| 34>
| 35> *xyz 0 2
| 36> S         0.040442    1.605997   -0.510953
| 37> C         0.010106   -0.033471    0.361076
| 38> O         1.276331   -0.501999    0.635999
| 39> O        -0.604577   -0.964855   -0.484741
| 40> C         2.098942   -0.804071   -0.475152
| 41> H         3.071244   -1.067734   -0.067716
| 42> H         2.203794    0.069962   -1.123625
| 43> H         1.698150   -1.638962   -1.048459
| 44> C        -1.999436   -0.864794   -0.687075
| 45> H        -2.237211   -1.540795   -1.504621
| 46> H        -2.289520    0.150793   -0.962780
| 47> H        -2.554152   -1.173867    0.201340
| 48> C        -0.678974    0.149355    1.697836
| 49> H        -0.091692    0.826281    2.314410
| 50> H        -0.724098   -0.821234    2.192478
| 51> H        -1.681444    0.552324    1.584034
| 52> *
| 53>
| 54> $new_job
| 55> ! ri-mp2 aug-cc-pvqz aug-cc-pvqz/c tightscf
| 56> %pal nprocs 16 end
| 57> %maxcore 3800
| 58> %base "QZ_S-Cl_62_A"
| 59>
| 60> *xyz 0 2
| 61> S         0.040442    1.605997   -0.510953
| 62> C         0.010106   -0.033471    0.361076
| 63> O         1.276331   -0.501999    0.635999
| 64> O        -0.604577   -0.964855   -0.484741
| 65> C         2.098942   -0.804071   -0.475152
| 66> H         3.071244   -1.067734   -0.067716
| 67> H         2.203794    0.069962   -1.123625
| 68> H         1.698150   -1.638962   -1.048459
| 69> C        -1.999436   -0.864794   -0.687075
| 70> H        -2.237211   -1.540795   -1.504621
| 71> H        -2.289520    0.150793   -0.962780
| 72> H        -2.554152   -1.173867    0.201340
| 73> C        -0.678974    0.149355    1.697836
| 74> H        -0.091692    0.826281    2.314410
| 75> H        -0.724098   -0.821234    2.192478
| 76> H        -1.681444    0.552324    1.584034
| 77> *
| 78>
| 79>
| 80>
| 81>
| 82>                          ****END OF INPUT****
 Total Charge           Charge          ....    0
 Multiplicity           Mult            ....    2
 Number of Electrons    NEL             ....   65
MP2 TOTAL ENERGY:     -705.066550062 Eh
FINAL SINGLE POINT ENERGY      -705.066550061630
MP2 TOTAL ENERGY:     -705.390931552 Eh
FINAL SINGLE POINT ENERGY      -705.390931551583

CARTESIAN COORDINATES (ANGSTROEM)
---------------------------------
  S      0.040442    1.605997   -0.510953
  C      0.010106   -0.033471    0.361076
  O      1.276331   -0.501999    0.635999
  O     -0.604577   -0.964855   -0.484741
  C      2.098942   -0.804071   -0.475152
  H      3.071244   -1.067734   -0.067716
  H      2.203794    0.069962   -1.123625
  H      1.698150   -1.638962   -1.048459
  C     -1.999436   -0.864794   -0.687075
  H     -2.237211   -1.540795   -1.504621
  H     -2.289520    0.150793   -0.962780
  H     -2.554152   -1.173867    0.201340
  C     -0.678974    0.149355    1.697836
  H     -0.091692    0.826281    2.314410
  H     -0.724098   -0.821234    2.192478
  H     -1.681444    0.552324    1.584034

 Multiplicity           Mult            ....    2
 Number of Electrons    NEL             ....   65
 Basis Dimension        Dim             ....  978

ORBITAL ENERGIES
----------------
                 SPIN UP ORBITALS
  NO   OCC          E(Eh)            E(eV)
   0   1.0000     -91.964622     -2502.4846
   1   1.0000     -20.573126      -559.8232
   2   1.0000     -20.567367      -559.6665
   3   1.0000     -11.379260      -309.6454
   4   1.0000     -11.278030      -306.8908
   5   1.0000     -11.266589      -306.5795
   6   1.0000     -11.229262      -305.5637
   7   1.0000      -8.967704      -244.0236
   8   1.0000      -6.663662      -181.3275
   9   1.0000      -6.645018      -180.8201
  10   1.0000      -6.643606      -180.7817
  11   1.0000      -1.441026       -39.2123
  12   1.0000      -1.361725       -37.0544
  13   1.0000      -1.061590       -28.8873
  14   1.0000      -0.965134       -26.2626
  15   1.0000      -0.954690       -25.9784
  16   1.0000      -0.925106       -25.1734
  17   1.0000      -0.776622       -21.1329
  18   1.0000      -0.706621       -19.2281
  19   1.0000      -0.679535       -18.4911
  20   1.0000      -0.671908       -18.2836
  21   1.0000      -0.633681       -17.2433
  22   1.0000      -0.602682       -16.3998
  23   1.0000      -0.593600       -16.1527
  24   1.0000      -0.566754       -15.4221
  25   1.0000      -0.552446       -15.0328
  26   1.0000      -0.530554       -14.4371
  27   1.0000      -0.502791       -13.6816
  28   1.0000      -0.499132       -13.5821
  29   1.0000      -0.452516       -12.3136
  30   1.0000      -0.436916       -11.8891
  31   1.0000      -0.411720       -11.2035
  32   1.0000      -0.379891       -10.3374
  33   0.0000       0.025887         0.7044
  34   0.0000       0.033050         0.8993
  35   0.0000       0.034339         0.9344
  36   0.0000       0.038830         1.0566
  37   0.0000       0.047151         1.2830

                 SPIN DOWN ORBITALS
  NO   OCC          E(Eh)            E(eV)
   0   1.0000     -91.955424     -2502.2343
   1   1.0000     -20.572342      -559.8019
   2   1.0000     -20.567480      -559.6696
   3   1.0000     -11.380416      -309.6769
   4   1.0000     -11.278077      -306.8921
   5   1.0000     -11.266457      -306.5759
   6   1.0000     -11.228769      -305.5503
   7   1.0000      -8.957591      -243.7484
   8   1.0000      -6.639604      -180.6728
   9   1.0000      -6.638330      -180.6381
  10   1.0000      -6.622306      -180.2021
  11   1.0000      -1.440054       -39.1859
  12   1.0000      -1.360772       -37.0285
  13   1.0000      -1.050880       -28.5959
  14   1.0000      -0.956292       -26.0220
  15   1.0000      -0.927153       -25.2291
  16   1.0000      -0.895980       -24.3808
  17   1.0000      -0.763408       -20.7734
  18   1.0000      -0.705784       -19.2054
  19   1.0000      -0.675953       -18.3936
  20   1.0000      -0.658080       -17.9073
  21   1.0000      -0.633038       -17.2258
  22   1.0000      -0.594400       -16.1744
  23   1.0000      -0.593135       -16.1400
  24   1.0000      -0.565507       -15.3882
  25   1.0000      -0.551783       -15.0148
  26   1.0000      -0.525652       -14.3037
  27   1.0000      -0.500695       -13.6246
  28   1.0000      -0.494766       -13.4633
  29   1.0000      -0.450284       -12.2529
  30   1.0000      -0.404020       -10.9939
  31   1.0000      -0.360390        -9.8067
  32   0.0000       0.016546         0.4502
  33   0.0000       0.026069         0.7094
  34   0.0000       0.033780         0.9192
  35   0.0000       0.037212         1.0126
  36   0.0000       0.039039         1.0623

MULLIKEN ATOMIC CHARGES AND SPIN POPULATIONS
--------------------------------------------
   0 S :   -0.266588    1.142338
   1 C :    1.632111   -0.153422
   2 O :   -0.869861   -0.007454
   3 O :   -0.834182    0.008128
   4 C :   -0.691765    0.010711
   5 H :    0.404478    0.000371
   6 H :    0.277905   -0.006073
   7 H :    0.308876    0.000127
   8 C :   -0.669327   -0.000987
   9 H :    0.403298    0.000160
  10 H :    0.293472    0.002015
  11 H :    0.275909   -0.000810
  12 C :   -1.159400    0.006748
  13 H :    0.335885   -0.005389
  14 H :    0.265459    0.010417
  15 H :    0.293731   -0.006881
Sum of atomic charges         :    0.0000000

LOEWDIN ATOMIC CHARGES AND SPIN POPULATIONS
-------------------------------------------
   0 S :    1.087245    0.746882
   1 C :   -1.562004    0.155716
   2 O :    0.797459   -0.000859
   3 O :    0.801606    0.017245
   4 C :    0.530894    0.009012
   5 H :   -0.322902    0.000717
   6 H :   -0.375069    0.013035
   7 H :   -0.326694    0.000727
   8 C :    0.530566    0.003983
   9 H :   -0.317493    0.000079
  10 H :   -0.363724    0.001561
  11 H :   -0.316483   -0.000208
  12 C :    0.751916    0.030016
  13 H :   -0.303364    0.011629
  14 H :   -0.282822    0.003396
  15 H :   -0.329129    0.007070

  Mayer bond orders larger than 0.100000
B(  0-S ,  1-C ) :   0.7167 B(  1-C ,  2-O ) :   0.5160 B(  1-C ,  3-O ) :   0.3569
B(  1-C ,  4-C ) :  -0.1118 B(  1-C , 12-C ) :   0.6631 B(  2-O ,  4-C ) :   0.9079
B(  2-O , 12-C ) :   0.1341 B(  3-O ,  8-C ) :   0.8865 B(  4-C ,  5-H ) :   0.8746
B(  4-C ,  6-H ) :   0.9080 B(  4-C ,  7-H ) :   0.8910 B(  8-C ,  9-H ) :   0.8621
B(  8-C , 10-H ) :   0.9070 B(  8-C , 11-H ) :   0.9247 B( 12-C , 13-H ) :   0.9161
B( 12-C , 14-H ) :   0.9122 B( 12-C , 15-H ) :   1.0024

MP2 TOTAL ENERGY:     -705.493060963 Eh
FINAL SINGLE POINT ENERGY      -705.493060962944

DIPOLE MOMENT
-------------
                                X             Y             Z
Electronic contribution:      2.11275       4.49815      -1.59087
Nuclear contribution   :     -2.61488      -4.75097       1.61513
                        -----------------------------------------
Total Dipole Moment    :     -0.50213      -0.25282       0.02426
                        -----------------------------------------
Magnitude (a.u.)       :      0.56271
Magnitude (Debye)      :      1.43029

Rotational constants in cm-1:     0.080575     0.065568     0.055381
Rotational constants in MHz :  2415.585272  1965.679381  1660.294141

                             ****ORCA TERMINATED NORMALLY****
TOTAL RUN TIME: 0 days 4 hours 25 minutes 4 seconds 459 msec
