                         Program Version 5.0.4 -  RELEASE  -
|  1> ! ri-mp2 aug-cc-pvdz aug-cc-pvdz/c tightscf
|  2> %pal nprocs 16 end
|  3> %maxcore 3800
|  4> %base "DZ_Si-Si_132_A"
|  5> %scf
|  6> STABPerform true
|  7> STABRestartUHFifUnstable true
|  8> end
|  9>
| 10> *xyz 0 2
| 11> Si         2.109175   -0.260756   -0.090304
| 12> C         0.332973    0.422875    0.002304
| 13> H         3.035737    0.676729    0.574269
| 14> H         2.199717   -1.639962    0.435544
| 15> O         0.110174    1.606935    0.012357
| 16> S        -0.936527   -0.821448    0.012710
| 17> C        -2.422299    0.193941   -0.005417
| 18> H        -3.027685   -0.066650   -0.869402
| 19> H        -2.108172    1.234566   -0.067207
| 20> H        -2.989061    0.032692    0.907505
| 21> *
| 22>
| 23> $new_job
| 24> ! ri-mp2 aug-cc-pvtz aug-cc-pvtz/c tightscf
| 25> %pal nprocs 16 end
| 26> %maxcore 3800
| 27> %base "TZ_Si-Si_132_A"
| 28>
| 29> *xyz 0 2
| 30> Si         2.109175   -0.260756   -0.090304
| 31> C         0.332973    0.422875    0.002304
| 32> H         3.035737    0.676729    0.574269
| 33> H         2.199717   -1.639962    0.435544
| 34> O         0.110174    1.606935    0.012357
| 35> S        -0.936527   -0.821448    0.012710
| 36> C        -2.422299    0.193941   -0.005417
| 37> H        -3.027685   -0.066650   -0.869402
| 38> H        -2.108172    1.234566   -0.067207
| 39> H        -2.989061    0.032692    0.907505
| 40> *
| 41>
| 42> $new_job
| 43> ! ri-mp2 aug-cc-pvqz aug-cc-pvqz/c tightscf
| 44> %pal nprocs 16 end
| 45> %maxcore 3800
| 46> %base "QZ_Si-Si_132_A"
| 47>
| 48> *xyz 0 2
| 49> Si         2.109175   -0.260756   -0.090304
| 50> C         0.332973    0.422875    0.002304
| 51> H         3.035737    0.676729    0.574269
| 52> H         2.199717   -1.639962    0.435544
| 53> O         0.110174    1.606935    0.012357
| 54> S        -0.936527   -0.821448    0.012710
| 55> C        -2.422299    0.193941   -0.005417
| 56> H        -3.027685   -0.066650   -0.869402
| 57> H        -2.108172    1.234566   -0.067207
| 58> H        -2.989061    0.032692    0.907505
| 59> *
| 60>
| 61>
| 62>
| 63>
| 64>                          ****END OF INPUT****
 Total Charge           Charge          ....    0
 Multiplicity           Mult            ....    2
 Number of Electrons    NEL             ....   55
MP2 TOTAL ENERGY:     -840.652509041 Eh
FINAL SINGLE POINT ENERGY      -840.652509041284
MP2 TOTAL ENERGY:     -840.869655549 Eh
FINAL SINGLE POINT ENERGY      -840.869655549417

CARTESIAN COORDINATES (ANGSTROEM)
---------------------------------
  Si     2.109175   -0.260756   -0.090304
  C      0.332973    0.422875    0.002304
  H      3.035737    0.676729    0.574269
  H      2.199717   -1.639962    0.435544
  O      0.110174    1.606935    0.012357
  S     -0.936527   -0.821448    0.012710
  C     -2.422299    0.193941   -0.005417
  H     -3.027685   -0.066650   -0.869402
  H     -2.108172    1.234566   -0.067207
  H     -2.989061    0.032692    0.907505

 Multiplicity           Mult            ....    2
 Number of Electrons    NEL             ....   55
 Basis Dimension        Dim             ....  638

ORBITAL ENERGIES
----------------
                 SPIN UP ORBITALS
  NO   OCC          E(Eh)            E(eV)
   0   1.0000     -91.970822     -2502.6533
   1   1.0000     -68.802337     -1872.2068
   2   1.0000     -20.568509      -559.6976
   3   1.0000     -11.353045      -308.9320
   4   1.0000     -11.257154      -306.3227
   5   1.0000      -8.974216      -244.2008
   6   1.0000      -6.655789      -181.1132
   7   1.0000      -6.654635      -181.0818
   8   1.0000      -6.653881      -181.0613
   9   1.0000      -6.153431      -167.4434
  10   1.0000      -4.266291      -116.0917
  11   1.0000      -4.256120      -115.8149
  12   1.0000      -4.255987      -115.8113
  13   1.0000      -1.414691       -38.4957
  14   1.0000      -1.066998       -29.0345
  15   1.0000      -0.924836       -25.1661
  16   1.0000      -0.795823       -21.6554
  17   1.0000      -0.706017       -19.2117
  18   1.0000      -0.650634       -17.7047
  19   1.0000      -0.609054       -16.5732
  20   1.0000      -0.605744       -16.4831
  21   1.0000      -0.569623       -15.5002
  22   1.0000      -0.561952       -15.2915
  23   1.0000      -0.508247       -13.8301
  24   1.0000      -0.472660       -12.8617
  25   1.0000      -0.402023       -10.9396
  26   1.0000      -0.381270       -10.3749
  27   1.0000      -0.342252        -9.3132
  28   0.0000       0.025267         0.6875
  29   0.0000       0.031437         0.8554
  30   0.0000       0.038169         1.0386
  31   0.0000       0.039227         1.0674
  32   0.0000       0.048121         1.3094

                 SPIN DOWN ORBITALS
  NO   OCC          E(Eh)            E(eV)
   0   1.0000     -91.970737     -2502.6510
   1   1.0000     -68.796447     -1872.0465
   2   1.0000     -20.563953      -559.5736
   3   1.0000     -11.354713      -308.9775
   4   1.0000     -11.257166      -306.3231
   5   1.0000      -8.974114      -244.1981
   6   1.0000      -6.655616      -181.1085
   7   1.0000      -6.654509      -181.0784
   8   1.0000      -6.653736      -181.0574
   9   1.0000      -6.144449      -167.1990
  10   1.0000      -4.252034      -115.7037
  11   1.0000      -4.251960      -115.7017
  12   1.0000      -4.243236      -115.4643
  13   1.0000      -1.405178       -38.2368
  14   1.0000      -1.066091       -29.0098
  15   1.0000      -0.922458       -25.1014
  16   1.0000      -0.776783       -21.1373
  17   1.0000      -0.689509       -18.7625
  18   1.0000      -0.647774       -17.6268
  19   1.0000      -0.604282       -16.4433
  20   1.0000      -0.597949       -16.2710
  21   1.0000      -0.562438       -15.3047
  22   1.0000      -0.545730       -14.8501
  23   1.0000      -0.501792       -13.6544
  24   1.0000      -0.471871       -12.8403
  25   1.0000      -0.392390       -10.6775
  26   1.0000      -0.369892       -10.0653
  27   0.0000       0.013236         0.3602
  28   0.0000       0.026288         0.7153
  29   0.0000       0.032686         0.8894
  30   0.0000       0.038945         1.0597
  31   0.0000       0.041513         1.1296

MULLIKEN ATOMIC CHARGES AND SPIN POPULATIONS
--------------------------------------------
   0 Si:    0.797767    0.953202
   1 C :    0.126348   -0.074247
   2 H :   -0.189960    0.003603
   3 H :   -0.202026    0.005055
   4 O :   -0.732228    0.104616
   5 S :    0.185544    0.007490
   6 C :   -0.919957   -0.000445
   7 H :    0.288506    0.001774
   8 H :    0.364337   -0.000516
   9 H :    0.281667   -0.000532
Sum of atomic charges         :   -0.0000000

LOEWDIN ATOMIC CHARGES AND SPIN POPULATIONS
-------------------------------------------
   0 Si:    0.934534    0.521057
   1 C :   -1.260367    0.133867
   2 H :   -0.354544    0.128103
   3 H :   -0.360072    0.130381
   4 O :    0.528332    0.071799
   5 S :    1.196494    0.012938
   6 C :    0.530586    0.001044
   7 H :   -0.376765    0.001148
   8 H :   -0.463620    0.000172
   9 H :   -0.374579   -0.000508

  Mayer bond orders larger than 0.100000
B(  0-Si,  1-C ) :   0.7541 B(  0-Si,  2-H ) :   0.9141 B(  0-Si,  3-H ) :   0.8866
B(  1-C ,  4-O ) :   1.5555 B(  1-C ,  5-S ) :   1.0037 B(  5-S ,  6-C ) :   1.0112
B(  6-C ,  7-H ) :   0.9192 B(  6-C ,  8-H ) :   0.8486 B(  6-C ,  9-H ) :   0.9200

MP2 TOTAL ENERGY:     -840.940653622 Eh
FINAL SINGLE POINT ENERGY      -840.940653621699

DIPOLE MOMENT
-------------
                                X             Y             Z
Electronic contribution:      2.79658      -0.81561      -0.95924
Nuclear contribution   :     -2.93256       0.29836       0.96807
                        -----------------------------------------
Total Dipole Moment    :     -0.13598      -0.51725       0.00883
                        -----------------------------------------
Magnitude (a.u.)       :      0.53490
Magnitude (Debye)      :      1.35961

Rotational constants in cm-1:     0.226569     0.063781     0.050461
Rotational constants in MHz :  6792.376811  1912.109260  1512.779959

                             ****ORCA TERMINATED NORMALLY****
TOTAL RUN TIME: 0 days 0 hours 51 minutes 5 seconds 650 msec
