                         Program Version 5.0.4 -  RELEASE  -
|  1> ! ri-mp2 aug-cc-pvdz aug-cc-pvdz/c tightscf
|  2> %pal nprocs 16 end
|  3> %maxcore 3800
|  4> %base "DZ_P-Si_24_AB"
|  5> %scf
|  6> STABPerform true
|  7> STABRestartUHFifUnstable true
|  8> end
|  9>
| 10> *xyz 0 1
| 11> P        -2.353151   -0.092097   -0.370706
| 12> Si        -0.361004   -0.070939    0.684409
| 13> C         0.787904    1.383661    0.331449
| 14> C         0.790387   -1.397267   -0.007447
| 15> C         2.123416   -0.652049   -0.195592
| 16> H         0.414345   -1.743601   -0.973276
| 17> H         0.888291   -2.277470    0.626508
| 18> C         1.824567    0.784433   -0.633449
| 19> H         2.773655   -1.157937   -0.911257
| 20> H         2.662676   -0.625738    0.755704
| 21> H         2.735228    1.384249   -0.676207
| 22> H         1.411921    0.767565   -1.646687
| 23> H         1.273889    1.691875    1.260611
| 24> H         0.292044    2.262177   -0.078532
| 25> H        -1.839079    0.421036   -1.586061
| 26> H        -2.765207    1.173671    0.108965
| 27> H        -0.654086   -0.233905    2.129319
| 28> *
| 29>
| 30> $new_job
| 31> ! ri-mp2 aug-cc-pvtz aug-cc-pvtz/c tightscf
| 32> %pal nprocs 16 end
| 33> %maxcore 3800
| 34> %base "TZ_P-Si_24_AB"
| 35>
| 36> *xyz 0 1
| 37> P        -2.353151   -0.092097   -0.370706
| 38> Si        -0.361004   -0.070939    0.684409
| 39> C         0.787904    1.383661    0.331449
| 40> C         0.790387   -1.397267   -0.007447
| 41> C         2.123416   -0.652049   -0.195592
| 42> H         0.414345   -1.743601   -0.973276
| 43> H         0.888291   -2.277470    0.626508
| 44> C         1.824567    0.784433   -0.633449
| 45> H         2.773655   -1.157937   -0.911257
| 46> H         2.662676   -0.625738    0.755704
| 47> H         2.735228    1.384249   -0.676207
| 48> H         1.411921    0.767565   -1.646687
| 49> H         1.273889    1.691875    1.260611
| 50> H         0.292044    2.262177   -0.078532
| 51> H        -1.839079    0.421036   -1.586061
| 52> H        -2.765207    1.173671    0.108965
| 53> H        -0.654086   -0.233905    2.129319
| 54> *
| 55>
| 56> $new_job
| 57> ! ri-mp2 aug-cc-pvqz aug-cc-pvqz/c tightscf
| 58> %pal nprocs 16 end
| 59> %maxcore 3800
| 60> %base "QZ_P-Si_24_AB"
| 61>
| 62> *xyz 0 1
| 63> P        -2.353151   -0.092097   -0.370706
| 64> Si        -0.361004   -0.070939    0.684409
| 65> C         0.787904    1.383661    0.331449
| 66> C         0.790387   -1.397267   -0.007447
| 67> C         2.123416   -0.652049   -0.195592
| 68> H         0.414345   -1.743601   -0.973276
| 69> H         0.888291   -2.277470    0.626508
| 70> C         1.824567    0.784433   -0.633449
| 71> H         2.773655   -1.157937   -0.911257
| 72> H         2.662676   -0.625738    0.755704
| 73> H         2.735228    1.384249   -0.676207
| 74> H         1.411921    0.767565   -1.646687
| 75> H         1.273889    1.691875    1.260611
| 76> H         0.292044    2.262177   -0.078532
| 77> H        -1.839079    0.421036   -1.586061
| 78> H        -2.765207    1.173671    0.108965
| 79> H        -0.654086   -0.233905    2.129319
| 80> *
| 81>
| 82>
| 83>
| 84>
| 85>                          ****END OF INPUT****
 Total Charge           Charge          ....    0
 Multiplicity           Mult            ....    1
 Number of Electrons    NEL             ....   64
MP2 TOTAL ENERGY:     -788.402317469 Eh
FINAL SINGLE POINT ENERGY      -788.402317469419
MP2 TOTAL ENERGY:     -788.633987515 Eh
FINAL SINGLE POINT ENERGY      -788.633987514543

CARTESIAN COORDINATES (ANGSTROEM)
---------------------------------
  P     -2.353151   -0.092097   -0.370706
  Si    -0.361004   -0.070939    0.684409
  C      0.787904    1.383661    0.331449
  C      0.790387   -1.397267   -0.007447
  C      2.123416   -0.652049   -0.195592
  H      0.414345   -1.743601   -0.973276
  H      0.888291   -2.277470    0.626508
  C      1.824567    0.784433   -0.633449
  H      2.773655   -1.157937   -0.911257
  H      2.662676   -0.625738    0.755704
  H      2.735228    1.384249   -0.676207
  H      1.411921    0.767565   -1.646687
  H      1.273889    1.691875    1.260611
  H      0.292044    2.262177   -0.078532
  H     -1.839079    0.421036   -1.586061
  H     -2.765207    1.173671    0.108965
  H     -0.654086   -0.233905    2.129319

 Multiplicity           Mult            ....    1
 Number of Electrons    NEL             ....   64
 Basis Dimension        Dim             ....  994

ORBITAL ENERGIES
----------------

  NO   OCC          E(Eh)            E(eV)
   0   2.0000     -79.924671     -2174.8609
   1   2.0000     -68.761868     -1871.1056
   2   2.0000     -11.223401      -305.4043
   3   2.0000     -11.222687      -305.3848
   4   2.0000     -11.204314      -304.8849
   5   2.0000     -11.203949      -304.8750
   6   2.0000      -7.469674      -203.2602
   7   2.0000      -6.111463      -166.3014
   8   2.0000      -5.363589      -145.9507
   9   2.0000      -5.363213      -145.9404
  10   2.0000      -5.362626      -145.9245
  11   2.0000      -4.217892      -114.7747
  12   2.0000      -4.217419      -114.7618
  13   2.0000      -4.217106      -114.7533
  14   2.0000      -1.086966       -29.5778
  15   2.0000      -0.964166       -26.2363
  16   2.0000      -0.887420       -24.1479
  17   2.0000      -0.835602       -22.7379
  18   2.0000      -0.776886       -21.1402
  19   2.0000      -0.664879       -18.0923
  20   2.0000      -0.633259       -17.2319
  21   2.0000      -0.606855       -16.5134
  22   2.0000      -0.579889       -15.7796
  23   2.0000      -0.531564       -14.4646
  24   2.0000      -0.515131       -14.0174
  25   2.0000      -0.493028       -13.4160
  26   2.0000      -0.478195       -13.0123
  27   2.0000      -0.467666       -12.7258
  28   2.0000      -0.441906       -12.0249
  29   2.0000      -0.438592       -11.9347
  30   2.0000      -0.405256       -11.0276
  31   2.0000      -0.354680        -9.6513
  32   0.0000       0.022330         0.6076
  33   0.0000       0.031220         0.8495
  34   0.0000       0.031917         0.8685
  35   0.0000       0.033542         0.9127
  36   0.0000       0.047460         1.2915

MULLIKEN ATOMIC CHARGES
-----------------------
   0 P :    0.028094
   1 Si:    0.812921
   2 C :   -0.721510
   3 C :   -0.772166
   4 C :   -0.415554
   5 H :    0.190379
   6 H :    0.302143
   7 C :   -0.450716
   8 H :    0.315879
   9 H :    0.192138
  10 H :    0.330075
  11 H :    0.201883
  12 H :    0.223376
  13 H :    0.299783
  14 H :   -0.078432
  15 H :   -0.084891
  16 H :   -0.373402
Sum of atomic charges:   -0.0000000

LOEWDIN ATOMIC CHARGES
----------------------
   0 P :    1.475148
   1 Si:    0.241784
   2 C :    0.541073
   3 C :    0.530346
   4 C :    0.457388
   5 H :   -0.336064
   6 H :   -0.321065
   7 C :    0.451715
   8 H :   -0.260800
   9 H :   -0.274586
  10 H :   -0.260193
  11 H :   -0.276252
  12 H :   -0.326674
  13 H :   -0.326379
  14 H :   -0.544957
  15 H :   -0.553053
  16 H :   -0.217431

  Mayer bond orders larger than 0.100000
B(  0-P ,  1-Si) :   0.9168 B(  0-P , 14-H ) :   0.9203 B(  0-P , 15-H ) :   0.9091
B(  1-Si,  2-C ) :   0.7748 B(  1-Si,  3-C ) :   0.8046 B(  1-Si, 16-H ) :   0.7464
B(  2-C ,  4-C ) :  -0.1222 B(  2-C ,  7-C ) :   0.9510 B(  2-C , 12-H ) :   0.9570
B(  2-C , 13-H ) :   0.9341 B(  3-C ,  4-C ) :   0.9493 B(  3-C ,  5-H ) :   0.9708
B(  3-C ,  6-H ) :   0.9313 B(  3-C ,  7-C ) :  -0.1234 B(  4-C ,  7-C ) :   0.9309
B(  4-C ,  8-H ) :   0.8298 B(  4-C ,  9-H ) :   0.9824 B(  7-C , 10-H ) :   0.8254
B(  7-C , 11-H ) :   0.9620

MP2 TOTAL ENERGY:     -788.704858641 Eh
FINAL SINGLE POINT ENERGY      -788.704858641178

DIPOLE MOMENT
-------------
                                X             Y             Z
Electronic contribution:     -9.07475      -1.53531       0.64697
Nuclear contribution   :      9.61707       1.78369      -0.69093
                        -----------------------------------------
Total Dipole Moment    :      0.54232       0.24838      -0.04396
                        -----------------------------------------
Magnitude (a.u.)       :      0.59811
Magnitude (Debye)      :      1.52027

Rotational constants in cm-1:     0.140296     0.046701     0.041748
Rotational constants in MHz :  4205.983108  1400.075352  1251.569205

                             ****ORCA TERMINATED NORMALLY****
TOTAL RUN TIME: 0 days 1 hours 55 minutes 11 seconds 915 msec
