                         Program Version 5.0.4 -  RELEASE  -
|  1> ! ri-mp2 aug-cc-pvdz aug-cc-pvdz/c tightscf
|  2> %pal nprocs 16 end
|  3> %maxcore 3800
|  4> %base "DZ_P-P_6_AB"
|  5> %scf
|  6> STABPerform true
|  7> STABRestartUHFifUnstable true
|  8> end
|  9>
| 10> *xyz 0 1
| 11> N         1.851030   -1.303887    0.203688
| 12> P         1.183237   -0.030524   -0.687999
| 13> H         1.926629   -2.182473   -0.282473
| 14> H         1.586051   -1.424609    1.170834
| 15> C         1.706018    1.411080    0.313647
| 16> P        -0.910817   -0.108042   -0.045245
| 17> H         2.772927    1.561843    0.153859
| 18> H         1.517428    1.272377    1.377282
| 19> H         1.172877    2.297797   -0.027984
| 20> O        -1.705830   -1.235312   -0.544418
| 21> O        -1.517854    1.320109   -0.456676
| 22> H        -2.221032    1.223882   -1.110264
| 23> O        -0.831706   -0.029689    1.555121
| 24> H        -1.591387   -0.450456    1.977483
| 25> *
| 26>
| 27> $new_job
| 28> ! ri-mp2 aug-cc-pvtz aug-cc-pvtz/c tightscf
| 29> %pal nprocs 16 end
| 30> %maxcore 3800
| 31> %base "TZ_P-P_6_AB"
| 32>
| 33> *xyz 0 1
| 34> N         1.851030   -1.303887    0.203688
| 35> P         1.183237   -0.030524   -0.687999
| 36> H         1.926629   -2.182473   -0.282473
| 37> H         1.586051   -1.424609    1.170834
| 38> C         1.706018    1.411080    0.313647
| 39> P        -0.910817   -0.108042   -0.045245
| 40> H         2.772927    1.561843    0.153859
| 41> H         1.517428    1.272377    1.377282
| 42> H         1.172877    2.297797   -0.027984
| 43> O        -1.705830   -1.235312   -0.544418
| 44> O        -1.517854    1.320109   -0.456676
| 45> H        -2.221032    1.223882   -1.110264
| 46> O        -0.831706   -0.029689    1.555121
| 47> H        -1.591387   -0.450456    1.977483
| 48> *
| 49>
| 50> $new_job
| 51> ! ri-mp2 aug-cc-pvqz aug-cc-pvqz/c tightscf
| 52> %pal nprocs 16 end
| 53> %maxcore 3800
| 54> %base "QZ_P-P_6_AB"
| 55>
| 56> *xyz 0 1
| 57> N         1.851030   -1.303887    0.203688
| 58> P         1.183237   -0.030524   -0.687999
| 59> H         1.926629   -2.182473   -0.282473
| 60> H         1.586051   -1.424609    1.170834
| 61> C         1.706018    1.411080    0.313647
| 62> P        -0.910817   -0.108042   -0.045245
| 63> H         2.772927    1.561843    0.153859
| 64> H         1.517428    1.272377    1.377282
| 65> H         1.172877    2.297797   -0.027984
| 66> O        -1.705830   -1.235312   -0.544418
| 67> O        -1.517854    1.320109   -0.456676
| 68> H        -2.221032    1.223882   -1.110264
| 69> O        -0.831706   -0.029689    1.555121
| 70> H        -1.591387   -0.450456    1.977483
| 71> *
| 72>
| 73>
| 74>
| 75>
| 76>                          ****END OF INPUT****
 Total Charge           Charge          ....    0
 Multiplicity           Mult            ....    1
 Number of Electrons    NEL             ....   74
MP2 TOTAL ENERGY:    -1003.777030236 Eh
FINAL SINGLE POINT ENERGY     -1003.777030236181
MP2 TOTAL ENERGY:    -1004.182235994 Eh
FINAL SINGLE POINT ENERGY     -1004.182235993931

CARTESIAN COORDINATES (ANGSTROEM)
---------------------------------
  N      1.851030   -1.303887    0.203688
  P      1.183237   -0.030524   -0.687999
  H      1.926629   -2.182473   -0.282473
  H      1.586051   -1.424609    1.170834
  C      1.706018    1.411080    0.313647
  P     -0.910817   -0.108042   -0.045245
  H      2.772927    1.561843    0.153859
  H      1.517428    1.272377    1.377282
  H      1.172877    2.297797   -0.027984
  O     -1.705830   -1.235312   -0.544418
  O     -1.517854    1.320109   -0.456676
  H     -2.221032    1.223882   -1.110264
  O     -0.831706   -0.029689    1.555121
  H     -1.591387   -0.450456    1.977483

 Multiplicity           Mult            ....    1
 Number of Electrons    NEL             ....   74
 Basis Dimension        Dim             ....  890

ORBITAL ENERGIES
----------------

  NO   OCC          E(Eh)            E(eV)
   0   2.0000     -80.062215     -2178.6036
   1   2.0000     -79.971134     -2176.1252
   2   2.0000     -20.600320      -560.5632
   3   2.0000     -20.597609      -560.4894
   4   2.0000     -20.504621      -557.9591
   5   2.0000     -15.562954      -423.4895
   6   2.0000     -11.231360      -305.6208
   7   2.0000      -7.585829      -206.4209
   8   2.0000      -7.509932      -204.3556
   9   2.0000      -5.483636      -149.2173
  10   2.0000      -5.483070      -149.2019
  11   2.0000      -5.481976      -149.1721
  12   2.0000      -5.404085      -147.0526
  13   2.0000      -5.403648      -147.0407
  14   2.0000      -5.402927      -147.0211
  15   2.0000      -1.432815       -38.9889
  16   2.0000      -1.383770       -37.6543
  17   2.0000      -1.295012       -35.2391
  18   2.0000      -1.179180       -32.0871
  19   2.0000      -0.988044       -26.8860
  20   2.0000      -0.867472       -23.6051
  21   2.0000      -0.777507       -21.1570
  22   2.0000      -0.739175       -20.1140
  23   2.0000      -0.685819       -18.6621
  24   2.0000      -0.673693       -18.3321
  25   2.0000      -0.654709       -17.8155
  26   2.0000      -0.631786       -17.1918
  27   2.0000      -0.588314       -16.0088
  28   2.0000      -0.580263       -15.7898
  29   2.0000      -0.559661       -15.2291
  30   2.0000      -0.548274       -14.9193
  31   2.0000      -0.538103       -14.6425
  32   2.0000      -0.520762       -14.1706
  33   2.0000      -0.467400       -12.7186
  34   2.0000      -0.462848       -12.5947
  35   2.0000      -0.404902       -11.0180
  36   2.0000      -0.361759        -9.8440
  37   0.0000       0.023226         0.6320
  38   0.0000       0.030767         0.8372
  39   0.0000       0.033359         0.9077
  40   0.0000       0.037441         1.0188
  41   0.0000       0.049735         1.3534

MULLIKEN ATOMIC CHARGES
-----------------------
   0 N :   -0.926987
   1 P :    0.696342
   2 H :    0.242913
   3 H :    0.285404
   4 C :   -1.121379
   5 P :    2.181055
   6 H :    0.364987
   7 H :    0.302259
   8 H :    0.339194
   9 O :   -1.274052
  10 O :   -0.927129
  11 H :    0.367953
  12 O :   -0.864276
  13 H :    0.333715
Sum of atomic charges:   -0.0000000

LOEWDIN ATOMIC CHARGES
----------------------
   0 N :    1.011414
   1 P :    0.736893
   2 H :   -0.603848
   3 H :   -0.594017
   4 C :    0.728629
   5 P :   -0.791019
   6 H :   -0.362844
   7 H :   -0.365168
   8 H :   -0.371261
   9 O :    0.245109
  10 O :    1.054193
  11 H :   -0.884868
  12 O :    1.059164
  13 H :   -0.862377

  Mayer bond orders larger than 0.100000
B(  0-N ,  1-P ) :   0.7611 B(  0-N ,  2-H ) :   0.9974 B(  0-N ,  3-H ) :   0.9185
B(  1-P ,  4-C ) :   0.8657 B(  1-P ,  5-P ) :   0.9478 B(  4-C ,  6-H ) :   0.8579
B(  4-C ,  7-H ) :   0.9052 B(  4-C ,  8-H ) :   0.9009 B(  5-P ,  9-O ) :   1.2622
B(  5-P , 10-O ) :   0.5615 B(  5-P , 12-O ) :   0.6013 B( 10-O , 11-H ) :   0.9317
B( 12-O , 13-H ) :   0.9426

MP2 TOTAL ENERGY:    -1004.312145525 Eh
FINAL SINGLE POINT ENERGY     -1004.312145525005

DIPOLE MOMENT
-------------
                                X             Y             Z
Electronic contribution:     -4.45561      -1.91722      -3.15965
Nuclear contribution   :      4.71390       2.35506       3.85488
                        -----------------------------------------
Total Dipole Moment    :      0.25829       0.43784       0.69523
                        -----------------------------------------
Magnitude (a.u.)       :      0.86126
Magnitude (Debye)      :      2.18914

Rotational constants in cm-1:     0.088717     0.049106     0.043217
Rotational constants in MHz :  2659.678312  1472.171175  1295.612614

                             ****ORCA TERMINATED NORMALLY****
TOTAL RUN TIME: 0 days 1 hours 26 minutes 54 seconds 461 msec
