                         Program Version 5.0.4 -  RELEASE  -
|  1> ! ri-mp2 aug-cc-pvdz aug-cc-pvdz/c tightscf
|  2> %pal nprocs 16 end
|  3> %maxcore 3800
|  4> %base "DZ_S-Cl_85_A"
|  5> %scf
|  6> STABPerform true
|  7> STABRestartUHFifUnstable true
|  8> end
|  9>
| 10> *xyz 0 2
| 11> C         0.224063   -1.049775    0.339567
| 12> C         1.603970   -1.451256   -0.165177
| 13> C         2.647905   -0.392723    0.169517
| 14> C         2.232802    0.976053   -0.356072
| 15> C         0.849190    1.370791    0.147059
| 16> C        -1.565822    0.727510    0.340790
| 17> C        -0.201748    0.315011   -0.191860
| 18> S        -2.954719   -0.276215   -0.177365
| 19> H         0.236191   -1.011305    1.435438
| 20> H        -0.517820   -1.800052    0.059002
| 21> H         1.563126   -1.587202   -1.250635
| 22> H         1.891726   -2.415461    0.257948
| 23> H         3.619997   -0.675405   -0.238966
| 24> H         2.769247   -0.338746    1.256468
| 25> H         2.222355    0.952857   -1.450498
| 26> H         2.965667    1.732169   -0.068054
| 27> H         0.556260    2.336287   -0.273085
| 28> H         0.883492    1.501253    1.234733
| 29> H        -1.815207    1.745365    0.020571
| 30> H        -1.563782    0.760283    1.434601
| 31> H        -0.277921    0.245724   -1.282638
| 32> *
| 33>
| 34> $new_job
| 35> ! ri-mp2 aug-cc-pvtz aug-cc-pvtz/c tightscf
| 36> %pal nprocs 16 end
| 37> %maxcore 3800
| 38> %base "TZ_S-Cl_85_A"
| 39>
| 40> *xyz 0 2
| 41> C         0.224063   -1.049775    0.339567
| 42> C         1.603970   -1.451256   -0.165177
| 43> C         2.647905   -0.392723    0.169517
| 44> C         2.232802    0.976053   -0.356072
| 45> C         0.849190    1.370791    0.147059
| 46> C        -1.565822    0.727510    0.340790
| 47> C        -0.201748    0.315011   -0.191860
| 48> S        -2.954719   -0.276215   -0.177365
| 49> H         0.236191   -1.011305    1.435438
| 50> H        -0.517820   -1.800052    0.059002
| 51> H         1.563126   -1.587202   -1.250635
| 52> H         1.891726   -2.415461    0.257948
| 53> H         3.619997   -0.675405   -0.238966
| 54> H         2.769247   -0.338746    1.256468
| 55> H         2.222355    0.952857   -1.450498
| 56> H         2.965667    1.732169   -0.068054
| 57> H         0.556260    2.336287   -0.273085
| 58> H         0.883492    1.501253    1.234733
| 59> H        -1.815207    1.745365    0.020571
| 60> H        -1.563782    0.760283    1.434601
| 61> H        -0.277921    0.245724   -1.282638
| 62> *
| 63>
| 64> $new_job
| 65> ! ri-mp2 aug-cc-pvqz aug-cc-pvqz/c tightscf
| 66> %pal nprocs 16 end
| 67> %maxcore 3800
| 68> %base "QZ_S-Cl_85_A"
| 69>
| 70> *xyz 0 2
| 71> C         0.224063   -1.049775    0.339567
| 72> C         1.603970   -1.451256   -0.165177
| 73> C         2.647905   -0.392723    0.169517
| 74> C         2.232802    0.976053   -0.356072
| 75> C         0.849190    1.370791    0.147059
| 76> C        -1.565822    0.727510    0.340790
| 77> C        -0.201748    0.315011   -0.191860
| 78> S        -2.954719   -0.276215   -0.177365
| 79> H         0.236191   -1.011305    1.435438
| 80> H        -0.517820   -1.800052    0.059002
| 81> H         1.563126   -1.587202   -1.250635
| 82> H         1.891726   -2.415461    0.257948
| 83> H         3.619997   -0.675405   -0.238966
| 84> H         2.769247   -0.338746    1.256468
| 85> H         2.222355    0.952857   -1.450498
| 86> H         2.965667    1.732169   -0.068054
| 87> H         0.556260    2.336287   -0.273085
| 88> H         0.883492    1.501253    1.234733
| 89> H        -1.815207    1.745365    0.020571
| 90> H        -1.563782    0.760283    1.434601
| 91> H        -0.277921    0.245724   -1.282638
| 92> *
| 93>
| 94>
| 95>
| 96>
| 97>                          ****END OF INPUT****
 Total Charge           Charge          ....    0
 Multiplicity           Mult            ....    2
 Number of Electrons    NEL             ....   71
MP2 TOTAL ENERGY:     -671.349091911 Eh
FINAL SINGLE POINT ENERGY      -671.349091911267
MP2 TOTAL ENERGY:     -671.653342635 Eh
FINAL SINGLE POINT ENERGY      -671.653342634782

CARTESIAN COORDINATES (ANGSTROEM)
---------------------------------
  C      0.224063   -1.049775    0.339567
  C      1.603970   -1.451256   -0.165177
  C      2.647905   -0.392723    0.169517
  C      2.232802    0.976053   -0.356072
  C      0.849190    1.370791    0.147059
  C     -1.565822    0.727510    0.340790
  C     -0.201748    0.315011   -0.191860
  S     -2.954719   -0.276215   -0.177365
  H      0.236191   -1.011305    1.435438
  H     -0.517820   -1.800052    0.059002
  H      1.563126   -1.587202   -1.250635
  H      1.891726   -2.415461    0.257948
  H      3.619997   -0.675405   -0.238966
  H      2.769247   -0.338746    1.256468
  H      2.222355    0.952857   -1.450498
  H      2.965667    1.732169   -0.068054
  H      0.556260    2.336287   -0.273085
  H      0.883492    1.501253    1.234733
  H     -1.815207    1.745365    0.020571
  H     -1.563782    0.760283    1.434601
  H     -0.277921    0.245724   -1.282638

 Multiplicity           Mult            ....    2
 Number of Electrons    NEL             ....   71
 Basis Dimension        Dim             .... 1242

ORBITAL ENERGIES
----------------
                 SPIN UP ORBITALS
  NO   OCC          E(Eh)            E(eV)
   0   1.0000     -91.962099     -2502.4159
   1   1.0000     -11.256465      -306.3040
   2   1.0000     -11.227389      -305.5128
   3   1.0000     -11.219000      -305.2845
   4   1.0000     -11.216745      -305.2232
   5   1.0000     -11.215303      -305.1839
   6   1.0000     -11.214869      -305.1721
   7   1.0000     -11.214410      -305.1596
   8   1.0000      -8.964347      -243.9323
   9   1.0000      -6.660267      -181.2351
  10   1.0000      -6.641822      -180.7332
  11   1.0000      -6.640416      -180.6949
  12   1.0000      -1.136086       -30.9145
  13   1.0000      -1.067977       -29.0611
  14   1.0000      -1.009142       -27.4602
  15   1.0000      -0.988176       -26.8896
  16   1.0000      -0.869330       -23.6557
  17   1.0000      -0.836501       -22.7624
  18   1.0000      -0.793849       -21.6017
  19   1.0000      -0.759547       -20.6683
  20   1.0000      -0.654203       -17.8018
  21   1.0000      -0.631163       -17.1748
  22   1.0000      -0.611142       -16.6300
  23   1.0000      -0.601804       -16.3759
  24   1.0000      -0.575296       -15.6546
  25   1.0000      -0.548805       -14.9337
  26   1.0000      -0.530948       -14.4478
  27   1.0000      -0.523998       -14.2587
  28   1.0000      -0.489287       -13.3142
  29   1.0000      -0.485532       -13.2120
  30   1.0000      -0.474949       -12.9240
  31   1.0000      -0.457109       -12.4386
  32   1.0000      -0.438893       -11.9429
  33   1.0000      -0.431442       -11.7401
  34   1.0000      -0.416684       -11.3385
  35   1.0000      -0.362805        -9.8724
  36   0.0000       0.024854         0.6763
  37   0.0000       0.028788         0.7834
  38   0.0000       0.030392         0.8270
  39   0.0000       0.033574         0.9136
  40   0.0000       0.044423         1.2088

                 SPIN DOWN ORBITALS
  NO   OCC          E(Eh)            E(eV)
   0   1.0000     -91.953013     -2502.1687
   1   1.0000     -11.257472      -306.3314
   2   1.0000     -11.227318      -305.5109
   3   1.0000     -11.219048      -305.2858
   4   1.0000     -11.216758      -305.2235
   5   1.0000     -11.215283      -305.1834
   6   1.0000     -11.214819      -305.1707
   7   1.0000     -11.214395      -305.1592
   8   1.0000      -8.954339      -243.6599
   9   1.0000      -6.636782      -180.5960
  10   1.0000      -6.635152      -180.5517
  11   1.0000      -6.619265      -180.1194
  12   1.0000      -1.134322       -30.8665
  13   1.0000      -1.056299       -28.7433
  14   1.0000      -1.008878       -27.4530
  15   1.0000      -0.963791       -26.2261
  16   1.0000      -0.841507       -22.8986
  17   1.0000      -0.831320       -22.6214
  18   1.0000      -0.767488       -20.8844
  19   1.0000      -0.758729       -20.6461
  20   1.0000      -0.653395       -17.7798
  21   1.0000      -0.620599       -16.8874
  22   1.0000      -0.610734       -16.6189
  23   1.0000      -0.600417       -16.3382
  24   1.0000      -0.564440       -15.3592
  25   1.0000      -0.545565       -14.8456
  26   1.0000      -0.530476       -14.4350
  27   1.0000      -0.517895       -14.0927
  28   1.0000      -0.487149       -13.2560
  29   1.0000      -0.482348       -13.1253
  30   1.0000      -0.469908       -12.7869
  31   1.0000      -0.456963       -12.4346
  32   1.0000      -0.436195       -11.8695
  33   1.0000      -0.425207       -11.5705
  34   1.0000      -0.344399        -9.3716
  35   0.0000       0.022854         0.6219
  36   0.0000       0.024884         0.6771
  37   0.0000       0.029294         0.7971
  38   0.0000       0.031997         0.8707
  39   0.0000       0.033881         0.9219

MULLIKEN ATOMIC CHARGES AND SPIN POPULATIONS
--------------------------------------------
   0 C :   -0.406060   -0.010780
   1 C :   -0.470338   -0.002408
   2 C :   -0.438844    0.001106
   3 C :   -0.481506   -0.000972
   4 C :   -0.428896   -0.005042
   5 C :   -0.494929   -0.229490
   6 C :    0.508635    0.039264
   7 S :   -0.290377    1.147582
   8 H :    0.183044   -0.002763
   9 H :    0.263497    0.003454
  10 H :    0.134022   -0.000348
  11 H :    0.225358    0.000064
  12 H :    0.239280    0.000101
  13 H :    0.117476    0.000117
  14 H :    0.146528   -0.000120
  15 H :    0.223834   -0.000164
  16 H :    0.247095    0.002108
  17 H :    0.172437   -0.000044
  18 H :    0.185350    0.042694
  19 H :    0.156550    0.020916
  20 H :    0.207845   -0.005273
Sum of atomic charges         :    0.0000000

LOEWDIN ATOMIC CHARGES AND SPIN POPULATIONS
-------------------------------------------
   0 C :    0.486771    0.008656
   1 C :    0.541671    0.000423
   2 C :    0.534643    0.000132
   3 C :    0.541419   -0.000154
   4 C :    0.518580    0.000656
   5 C :   -0.055384    0.187720
   6 C :    0.000181    0.009694
   7 S :    1.119748    0.734555
   8 H :   -0.261165    0.000634
   9 H :   -0.293818    0.010530
  10 H :   -0.259896    0.000006
  11 H :   -0.256724    0.000052
  12 H :   -0.258409    0.000046
  13 H :   -0.262402    0.000043
  14 H :   -0.260771   -0.000011
  15 H :   -0.257045   -0.000057
  16 H :   -0.256609    0.000422
  17 H :   -0.259102    0.000123
  18 H :   -0.390476    0.030515
  19 H :   -0.380691    0.016030
  20 H :   -0.290521   -0.000014

  Mayer bond orders larger than 0.100000
B(  0-C ,  1-C ) :   0.8520 B(  0-C ,  5-C ) :   0.1072 B(  0-C ,  6-C ) :   0.7053
B(  0-C ,  8-H ) :   0.9750 B(  0-C ,  9-H ) :   0.9627 B(  1-C ,  2-C ) :   0.8852
B(  1-C , 10-H ) :   1.0270 B(  1-C , 11-H ) :   0.9999 B(  2-C ,  3-C ) :   0.8810
B(  2-C , 12-H ) :   0.9573 B(  2-C , 13-H ) :   1.0442 B(  3-C ,  4-C ) :   0.8763
B(  3-C , 14-H ) :   1.0209 B(  3-C , 15-H ) :   1.0054 B(  4-C ,  6-C ) :   0.6346
B(  4-C , 16-H ) :   0.9610 B(  4-C , 17-H ) :   0.9784 B(  5-C ,  6-C ) :   0.5888
B(  5-C ,  7-S ) :   0.8735 B(  5-C , 18-H ) :   1.0297 B(  5-C , 19-H ) :   0.9932
B(  6-C ,  7-S ) :  -0.2893 B(  6-C , 20-H ) :   0.9304

MP2 TOTAL ENERGY:     -671.746450517 Eh
FINAL SINGLE POINT ENERGY      -671.746450516847

DIPOLE MOMENT
-------------
                                X             Y             Z
Electronic contribution:    -12.34799      -1.16606      -1.03286
Nuclear contribution   :     13.02521       1.50045       1.17656
                        -----------------------------------------
Total Dipole Moment    :      0.67723       0.33439       0.14369
                        -----------------------------------------
Magnitude (a.u.)       :      0.76883
Magnitude (Debye)      :      1.95422

Rotational constants in cm-1:     0.127169     0.030072     0.025771
Rotational constants in MHz :  3812.417731   901.535407   772.598555

                             ****ORCA TERMINATED NORMALLY****
TOTAL RUN TIME: 0 days 12 hours 19 minutes 25 seconds 818 msec
