                         Program Version 5.0.4 -  RELEASE  -
|  1> ! ri-mp2 aug-cc-pvdz aug-cc-pvdz/c tightscf
|  2> %pal nprocs 16 end
|  3> %maxcore 3800
|  4> %base "DZ_B-F_68_AB"
|  5>
|  6> *xyz 0 1
|  7> F        -3.202763   -1.311431   -0.000002
|  8> F        -3.418776    0.927041   -0.000003
|  9> B        -2.611805   -0.124542   -0.000000
| 10> C        -1.086190    0.022811    0.000000
| 11> C        -0.478986    1.284558    0.000000
| 12> C         0.887817    1.419090    0.000001
| 13> C         1.697295    0.283641    0.000001
| 14> C        -0.258070   -1.095858    0.000001
| 15> H        -0.701528   -2.083431    0.000001
| 16> C         1.120358   -0.981565    0.000001
| 17> H         1.730634   -1.871429    0.000002
| 18> H        -1.099234    2.171674   -0.000000
| 19> O         3.025930    0.509257    0.000001
| 20> C         3.903493   -0.597383    0.000001
| 21> H         3.765138   -1.213060    0.891623
| 22> H         4.908044   -0.184497    0.000000
| 23> H         3.765137   -1.213060   -0.891621
| 24> H         1.362956    2.390218    0.000001
| 25> *
| 26>
| 27> $new_job
| 28> ! ri-mp2 aug-cc-pvtz aug-cc-pvtz/c tightscf
| 29> %pal nprocs 16 end
| 30> %maxcore 3800
| 31> %base "TZ_B-F_68_AB"
| 32>
| 33> *xyz 0 1
| 34> F        -3.202763   -1.311431   -0.000002
| 35> F        -3.418776    0.927041   -0.000003
| 36> B        -2.611805   -0.124542   -0.000000
| 37> C        -1.086190    0.022811    0.000000
| 38> C        -0.478986    1.284558    0.000000
| 39> C         0.887817    1.419090    0.000001
| 40> C         1.697295    0.283641    0.000001
| 41> C        -0.258070   -1.095858    0.000001
| 42> H        -0.701528   -2.083431    0.000001
| 43> C         1.120358   -0.981565    0.000001
| 44> H         1.730634   -1.871429    0.000002
| 45> H        -1.099234    2.171674   -0.000000
| 46> O         3.025930    0.509257    0.000001
| 47> C         3.903493   -0.597383    0.000001
| 48> H         3.765138   -1.213060    0.891623
| 49> H         4.908044   -0.184497    0.000000
| 50> H         3.765137   -1.213060   -0.891621
| 51> H         1.362956    2.390218    0.000001
| 52> *
| 53>
| 54> $new_job
| 55> ! ri-mp2 aug-cc-pvqz aug-cc-pvqz/c tightscf
| 56> %pal nprocs 16 end
| 57> %maxcore 3800
| 58> %base "QZ_B-F_68_AB"
| 59>
| 60> *xyz 0 1
| 61> F        -3.202763   -1.311431   -0.000002
| 62> F        -3.418776    0.927041   -0.000003
| 63> B        -2.611805   -0.124542   -0.000000
| 64> C        -1.086190    0.022811    0.000000
| 65> C        -0.478986    1.284558    0.000000
| 66> C         0.887817    1.419090    0.000001
| 67> C         1.697295    0.283641    0.000001
| 68> C        -0.258070   -1.095858    0.000001
| 69> H        -0.701528   -2.083431    0.000001
| 70> C         1.120358   -0.981565    0.000001
| 71> H         1.730634   -1.871429    0.000002
| 72> H        -1.099234    2.171674   -0.000000
| 73> O         3.025930    0.509257    0.000001
| 74> C         3.903493   -0.597383    0.000001
| 75> H         3.765138   -1.213060    0.891623
| 76> H         4.908044   -0.184497    0.000000
| 77> H         3.765137   -1.213060   -0.891621
| 78> H         1.362956    2.390218    0.000001
| 79> *
| 80>
| 81>
| 82>
| 83>
| 84>                          ****END OF INPUT****
 Total Charge           Charge          ....    0
 Multiplicity           Mult            ....    1
 Number of Electrons    NEL             ....   80
MP2 TOTAL ENERGY:     -569.397579320 Eh
FINAL SINGLE POINT ENERGY      -569.397579320349
MP2 TOTAL ENERGY:     -569.894075486 Eh
FINAL SINGLE POINT ENERGY      -569.894075485862

CARTESIAN COORDINATES (ANGSTROEM)
---------------------------------
  F     -3.202763   -1.311431   -0.000002
  F     -3.418776    0.927041   -0.000003
  B     -2.611805   -0.124542   -0.000000
  C     -1.086190    0.022811    0.000000
  C     -0.478986    1.284558    0.000000
  C      0.887817    1.419090    0.000001
  C      1.697295    0.283641    0.000001
  C     -0.258070   -1.095858    0.000001
  H     -0.701528   -2.083431    0.000001
  C      1.120358   -0.981565    0.000001
  H      1.730634   -1.871429    0.000002
  H     -1.099234    2.171674   -0.000000
  O      3.025930    0.509257    0.000001
  C      3.903493   -0.597383    0.000001
  H      3.765138   -1.213060    0.891623
  H      4.908044   -0.184497    0.000000
  H      3.765137   -1.213060   -0.891621
  H      1.362956    2.390218    0.000001

 Multiplicity           Mult            ....    1
 Number of Electrons    NEL             ....   80
 Basis Dimension        Dim             .... 1202

ORBITAL ENERGIES
----------------

  NO   OCC          E(Eh)            E(eV)
   0   2.0000     -26.297718      -715.5973
   1   2.0000     -26.297605      -715.5942
   2   2.0000     -20.598816      -560.5223
   3   2.0000     -11.319092      -308.0082
   4   2.0000     -11.294302      -307.3336
   5   2.0000     -11.255758      -306.2848
   6   2.0000     -11.252367      -306.1925
   7   2.0000     -11.237379      -305.7846
   8   2.0000     -11.232574      -305.6539
   9   2.0000     -11.216067      -305.2047
  10   2.0000      -7.691928      -209.3080
  11   2.0000      -1.631327       -44.3907
  12   2.0000      -1.598637       -43.5011
  13   2.0000      -1.432767       -38.9876
  14   2.0000      -1.164960       -31.7002
  15   2.0000      -1.040348       -28.3093
  16   2.0000      -1.031901       -28.0794
  17   2.0000      -0.958565       -26.0839
  18   2.0000      -0.851076       -23.1589
  19   2.0000      -0.833420       -22.6785
  20   2.0000      -0.800118       -21.7723
  21   2.0000      -0.747367       -20.3369
  22   2.0000      -0.746350       -20.3092
  23   2.0000      -0.717968       -19.5369
  24   2.0000      -0.701441       -19.0872
  25   2.0000      -0.680278       -18.5113
  26   2.0000      -0.672073       -18.2880
  27   2.0000      -0.648621       -17.6499
  28   2.0000      -0.647962       -17.6319
  29   2.0000      -0.637895       -17.3580
  30   2.0000      -0.622025       -16.9262
  31   2.0000      -0.601415       -16.3653
  32   2.0000      -0.590374       -16.0649
  33   2.0000      -0.542348       -14.7580
  34   2.0000      -0.534657       -14.5487
  35   2.0000      -0.506949       -13.7948
  36   2.0000      -0.492361       -13.3978
  37   2.0000      -0.483989       -13.1700
  38   2.0000      -0.356319        -9.6959
  39   2.0000      -0.331878        -9.0309
  40   0.0000       0.018667         0.5080
  41   0.0000       0.028222         0.7680
  42   0.0000       0.028534         0.7764
  43   0.0000       0.035262         0.9595
  44   0.0000       0.041867         1.1393

MULLIKEN ATOMIC CHARGES
-----------------------
   0 F :   -0.894780
   1 F :   -0.891210
   2 B :    1.893105
   3 C :   -0.058977
   4 C :   -0.310910
   5 C :   -0.497640
   6 C :    1.131539
   7 C :   -0.282613
   8 H :    0.203315
   9 C :   -0.422086
  10 H :    0.158103
  11 H :    0.207742
  12 O :   -0.806441
  13 C :   -0.658849
  14 H :    0.243847
  15 H :    0.510873
  16 H :    0.243846
  17 H :    0.231137
Sum of atomic charges:   -0.0000000

LOEWDIN ATOMIC CHARGES
----------------------
   0 F :    0.827116
   1 F :    0.827296
   2 B :   -1.743341
   3 C :    0.000391
   4 C :    0.308355
   5 C :    0.340721
   6 C :   -0.457981
   7 C :    0.315546
   8 H :   -0.316415
   9 C :    0.348223
  10 H :   -0.357649
  11 H :   -0.317628
  12 O :    0.890052
  13 C :    0.583039
  14 H :   -0.304531
  15 H :   -0.314716
  16 H :   -0.304531
  17 H :   -0.323946

  Mayer bond orders larger than 0.100000
B(  0-F ,  2-B ) :   0.1466 B(  1-F ,  2-B ) :   0.1009 B(  2-B ,  3-C ) :   1.0068
B(  3-C ,  4-C ) :   1.0342 B(  3-C ,  5-C ) :  -0.1937 B(  3-C ,  7-C ) :   1.0698
B(  3-C ,  8-H ) :  -0.1361 B(  3-C ,  9-C ) :  -0.3559 B(  3-C , 11-H ) :  -0.1351
B(  4-C ,  5-C ) :   1.3295 B(  4-C ,  6-C ) :  -0.2836 B(  4-C , 11-H ) :   1.0658
B(  4-C , 17-H ) :  -0.1090 B(  5-C ,  6-C ) :   1.1274 B(  5-C ,  7-C ) :   0.1679
B(  5-C ,  9-C ) :  -0.1092 B(  5-C , 11-H ) :  -0.1402 B(  5-C , 12-O ) :   0.2130
B(  5-C , 17-H ) :   1.0189 B(  6-C ,  7-C ) :  -0.1244 B(  6-C ,  9-C ) :   1.3545
B(  6-C , 10-H ) :  -0.1028 B(  6-C , 12-O ) :   0.1178 B(  6-C , 13-C ) :  -0.1367
B(  6-C , 17-H ) :  -0.1044 B(  7-C ,  8-H ) :   1.0134 B(  7-C ,  9-C ) :   0.9927
B(  7-C , 10-H ) :  -0.1922 B(  8-H ,  9-C ) :  -0.1390 B(  9-C , 10-H ) :   1.1772
B(  9-C , 12-O ) :   0.1714 B(  9-C , 13-C ) :   0.1357 B( 12-O , 13-C ) :   0.9143
B( 13-C , 14-H ) :   0.9240 B( 13-C , 15-H ) :   0.7339 B( 13-C , 16-H ) :   0.9240

MP2 TOTAL ENERGY:     -570.052349140 Eh
FINAL SINGLE POINT ENERGY      -570.052349140364

DIPOLE MOMENT
-------------
                                X             Y             Z
Electronic contribution:    -20.19365       1.05921      -0.00001
Nuclear contribution   :     21.60432      -1.46026       0.00001
                        -----------------------------------------
Total Dipole Moment    :      1.41066      -0.40105       0.00000
                        -----------------------------------------
Magnitude (a.u.)       :      1.46657
Magnitude (Debye)      :      3.72772

Rotational constants in cm-1:     0.111347     0.017650     0.015279
Rotational constants in MHz :  3338.089364   529.128599   458.057980

                             ****ORCA TERMINATED NORMALLY****
TOTAL RUN TIME: 0 days 0 hours 43 minutes 13 seconds 809 msec
