                         Program Version 5.0.4 -  RELEASE  -
|  1> ! ri-mp2 aug-cc-pvdz aug-cc-pvdz/c tightscf
|  2> %pal nprocs 16 end
|  3> %maxcore 3800
|  4> %base "DZ_Si-Si_7_AB"
|  5> %scf
|  6> STABPerform true
|  7> STABRestartUHFifUnstable true
|  8> end
|  9>
| 10> *xyz 0 1
| 11> Si         1.037225   -0.549255   -0.000001
| 12> Si        -1.037225    0.549255   -0.000001
| 13> F        -2.182756   -0.577667    0.000001
| 14> H        -1.217934    1.384447   -1.205409
| 15> H        -1.217930    1.384449    1.205408
| 16> F         2.182757    0.577666    0.000002
| 17> H         1.217932   -1.384447   -1.205410
| 18> H         1.217928   -1.384449    1.205407
| 19> *
| 20>
| 21> $new_job
| 22> ! ri-mp2 aug-cc-pvtz aug-cc-pvtz/c tightscf
| 23> %pal nprocs 16 end
| 24> %maxcore 3800
| 25> %base "TZ_Si-Si_7_AB"
| 26>
| 27> *xyz 0 1
| 28> Si         1.037225   -0.549255   -0.000001
| 29> Si        -1.037225    0.549255   -0.000001
| 30> F        -2.182756   -0.577667    0.000001
| 31> H        -1.217934    1.384447   -1.205409
| 32> H        -1.217930    1.384449    1.205408
| 33> F         2.182757    0.577666    0.000002
| 34> H         1.217932   -1.384447   -1.205410
| 35> H         1.217928   -1.384449    1.205407
| 36> *
| 37>
| 38> $new_job
| 39> ! ri-mp2 aug-cc-pvqz aug-cc-pvqz/c tightscf
| 40> %pal nprocs 16 end
| 41> %maxcore 3800
| 42> %base "QZ_Si-Si_7_AB"
| 43>
| 44> *xyz 0 1
| 45> Si         1.037225   -0.549255   -0.000001
| 46> Si        -1.037225    0.549255   -0.000001
| 47> F        -2.182756   -0.577667    0.000001
| 48> H        -1.217934    1.384447   -1.205409
| 49> H        -1.217930    1.384449    1.205408
| 50> F         2.182757    0.577666    0.000002
| 51> H         1.217932   -1.384447   -1.205410
| 52> H         1.217928   -1.384449    1.205407
| 53> *
| 54>
| 55>
| 56>
| 57>
| 58>                          ****END OF INPUT****
 Total Charge           Charge          ....    0
 Multiplicity           Mult            ....    1
 Number of Electrons    NEL             ....   50
MP2 TOTAL ENERGY:     -779.814670323 Eh
FINAL SINGLE POINT ENERGY      -779.814670322807
MP2 TOTAL ENERGY:     -780.063591813 Eh
FINAL SINGLE POINT ENERGY      -780.063591812716

CARTESIAN COORDINATES (ANGSTROEM)
---------------------------------
  Si     1.037225   -0.549255   -0.000001
  Si    -1.037225    0.549255   -0.000001
  F     -2.182756   -0.577667    0.000001
  H     -1.217934    1.384447   -1.205409
  H     -1.217930    1.384449    1.205408
  F      2.182757    0.577666    0.000002
  H      1.217932   -1.384447   -1.205410
  H      1.217928   -1.384449    1.205407

 Multiplicity           Mult            ....    1
 Number of Electrons    NEL             ....   50
 Basis Dimension        Dim             ....  512

ORBITAL ENERGIES
----------------

  NO   OCC          E(Eh)            E(eV)
   0   2.0000     -68.819269     -1872.6675
   1   2.0000     -68.819268     -1872.6675
   2   2.0000     -26.288604      -715.3493
   3   2.0000     -26.288604      -715.3493
   4   2.0000      -6.163907      -167.7284
   5   2.0000      -6.163764      -167.7245
   6   2.0000      -4.270913      -116.2174
   7   2.0000      -4.270906      -116.2173
   8   2.0000      -4.270298      -116.2007
   9   2.0000      -4.270070      -116.1945
  10   2.0000      -4.269989      -116.1923
  11   2.0000      -4.269656      -116.1832
  12   2.0000      -1.590404       -43.2771
  13   2.0000      -1.590090       -43.2685
  14   2.0000      -0.796686       -21.6789
  15   2.0000      -0.759108       -20.6564
  16   2.0000      -0.676111       -18.3979
  17   2.0000      -0.675162       -18.3721
  18   2.0000      -0.675055       -18.3692
  19   2.0000      -0.671994       -18.2859
  20   2.0000      -0.646330       -17.5875
  21   2.0000      -0.608670       -16.5628
  22   2.0000      -0.506218       -13.7749
  23   2.0000      -0.486453       -13.2371
  24   2.0000      -0.420442       -11.4408
  25   0.0000       0.028206         0.7675
  26   0.0000       0.029249         0.7959
  27   0.0000       0.034468         0.9379
  28   0.0000       0.041129         1.1192
  29   0.0000       0.051745         1.4081

MULLIKEN ATOMIC CHARGES
-----------------------
   0 Si:    1.030260
   1 Si:    1.030260
   2 F :   -0.684909
   3 H :   -0.172675
   4 H :   -0.172676
   5 F :   -0.684909
   6 H :   -0.172676
   7 H :   -0.172675
Sum of atomic charges:    0.0000000

LOEWDIN ATOMIC CHARGES
----------------------
   0 Si:    0.275372
   1 Si:    0.275372
   2 F :    0.343637
   3 H :   -0.309505
   4 H :   -0.309504
   5 F :    0.343637
   6 H :   -0.309504
   7 H :   -0.309505

  Mayer bond orders larger than 0.100000
B(  0-Si,  1-Si) :   0.8958 B(  0-Si,  5-F ) :   0.3235 B(  0-Si,  6-H ) :   0.8843
B(  0-Si,  7-H ) :   0.8843 B(  1-Si,  2-F ) :   0.3235 B(  1-Si,  3-H ) :   0.8843
B(  1-Si,  4-H ) :   0.8843

MP2 TOTAL ENERGY:     -780.147431730 Eh
FINAL SINGLE POINT ENERGY      -780.147431730185

DIPOLE MOMENT
-------------
                                X             Y             Z
Electronic contribution:      0.00001      -0.00000       0.00000
Nuclear contribution   :     -0.00000       0.00000      -0.00001
                        -----------------------------------------
Total Dipole Moment    :      0.00000      -0.00000      -0.00000
                        -----------------------------------------
Magnitude (a.u.)       :      0.00000
Magnitude (Debye)      :      0.00001

Rotational constants in cm-1:     0.393708     0.066449     0.059192
Rotational constants in MHz : 11803.066436  1992.077811  1774.536377

                             ****ORCA TERMINATED NORMALLY****
TOTAL RUN TIME: 0 days 0 hours 10 minutes 5 seconds 717 msec
