                         Program Version 5.0.4 -  RELEASE  -
|  1> ! ri-mp2 aug-cc-pvdz aug-cc-pvdz/c tightscf
|  2> %pal nprocs 16 end
|  3> %maxcore 3800
|  4> %base "DZ_S-F_3_AB"
|  5> %scf
|  6> STABPerform true
|  7> STABRestartUHFifUnstable true
|  8> end
|  9>
| 10> *xyz 0 1
| 11> F         1.717666    0.763721   -0.452550
| 12> S        -0.821901   -0.565697   -0.395754
| 13> S         0.935946   -0.342063    0.470320
| 14> C        -1.847924    0.765743    0.279477
| 15> H        -2.859431    0.593845   -0.087650
| 16> H        -1.494698    1.730123   -0.074585
| 17> H        -1.842045    0.732232    1.365258
| 18> *
| 19>
| 20> $new_job
| 21> ! ri-mp2 aug-cc-pvtz aug-cc-pvtz/c tightscf
| 22> %pal nprocs 16 end
| 23> %maxcore 3800
| 24> %base "TZ_S-F_3_AB"
| 25>
| 26> *xyz 0 1
| 27> F         1.717666    0.763721   -0.452550
| 28> S        -0.821901   -0.565697   -0.395754
| 29> S         0.935946   -0.342063    0.470320
| 30> C        -1.847924    0.765743    0.279477
| 31> H        -2.859431    0.593845   -0.087650
| 32> H        -1.494698    1.730123   -0.074585
| 33> H        -1.842045    0.732232    1.365258
| 34> *
| 35>
| 36> $new_job
| 37> ! ri-mp2 aug-cc-pvqz aug-cc-pvqz/c tightscf
| 38> %pal nprocs 16 end
| 39> %maxcore 3800
| 40> %base "QZ_S-F_3_AB"
| 41>
| 42> *xyz 0 1
| 43> F         1.717666    0.763721   -0.452550
| 44> S        -0.821901   -0.565697   -0.395754
| 45> S         0.935946   -0.342063    0.470320
| 46> C        -1.847924    0.765743    0.279477
| 47> H        -2.859431    0.593845   -0.087650
| 48> H        -1.494698    1.730123   -0.074585
| 49> H        -1.842045    0.732232    1.365258
| 50> *
| 51>
| 52>
| 53>
| 54>
| 55>                          ****END OF INPUT****
 Total Charge           Charge          ....    0
 Multiplicity           Mult            ....    1
 Number of Electrons    NEL             ....   50
MP2 TOTAL ENERGY:     -934.743784233 Eh
FINAL SINGLE POINT ENERGY      -934.743784232908
MP2 TOTAL ENERGY:     -934.977167392 Eh
FINAL SINGLE POINT ENERGY      -934.977167392256

CARTESIAN COORDINATES (ANGSTROEM)
---------------------------------
  F      1.717666    0.763721   -0.452550
  S     -0.821901   -0.565697   -0.395754
  S      0.935946   -0.342063    0.470320
  C     -1.847924    0.765743    0.279477
  H     -2.859431    0.593845   -0.087650
  H     -1.494698    1.730123   -0.074585
  H     -1.842045    0.732232    1.365258

 Multiplicity           Mult            ....    1
 Number of Electrons    NEL             ....   50
 Basis Dimension        Dim             ....  466

ORBITAL ENERGIES
----------------

  NO   OCC          E(Eh)            E(eV)
   0   2.0000     -92.051175     -2504.8398
   1   2.0000     -91.999150     -2503.4241
   2   2.0000     -26.301207      -715.6922
   3   2.0000     -11.270847      -306.6953
   4   2.0000      -9.043805      -246.0944
   5   2.0000      -8.999771      -244.8962
   6   2.0000      -6.724995      -182.9964
   7   2.0000      -6.723314      -182.9507
   8   2.0000      -6.721881      -182.9117
   9   2.0000      -6.681159      -181.8036
  10   2.0000      -6.679781      -181.7661
  11   2.0000      -6.679323      -181.7536
  12   2.0000      -1.597861       -43.4800
  13   2.0000      -1.102096       -29.9896
  14   2.0000      -0.977343       -26.5949
  15   2.0000      -0.835572       -22.7371
  16   2.0000      -0.683284       -18.5931
  17   2.0000      -0.680813       -18.5259
  18   2.0000      -0.667158       -18.1543
  19   2.0000      -0.610747       -16.6193
  20   2.0000      -0.603506       -16.4222
  21   2.0000      -0.533506       -14.5174
  22   2.0000      -0.471167       -12.8211
  23   2.0000      -0.398915       -10.8550
  24   2.0000      -0.375400       -10.2151
  25   0.0000       0.024513         0.6670
  26   0.0000       0.038325         1.0429
  27   0.0000       0.042013         1.1432
  28   0.0000       0.051281         1.3954
  29   0.0000       0.060931         1.6580

MULLIKEN ATOMIC CHARGES
-----------------------
   0 F :   -0.583404
   1 S :    0.108355
   2 S :    0.433642
   3 C :   -0.811211
   4 H :    0.309555
   5 H :    0.262558
   6 H :    0.280505
Sum of atomic charges:   -0.0000000

LOEWDIN ATOMIC CHARGES
----------------------
   0 F :   -0.013839
   1 S :    0.656537
   2 S :    0.093992
   3 C :    0.458124
   4 H :   -0.402393
   5 H :   -0.390091
   6 H :   -0.402332

  Mayer bond orders larger than 0.100000
B(  0-F ,  2-S ) :   0.5878 B(  1-S ,  2-S ) :   1.3179 B(  1-S ,  3-C ) :   0.9530
B(  3-C ,  4-H ) :   0.8731 B(  3-C ,  5-H ) :   0.9209 B(  3-C ,  6-H ) :   0.9180

MP2 TOTAL ENERGY:     -935.053056815 Eh
FINAL SINGLE POINT ENERGY      -935.053056814602

DIPOLE MOMENT
-------------
                                X             Y             Z
Electronic contribution:      6.57886      -2.07640      -1.18932
Nuclear contribution   :     -7.55420       2.22910       1.57632
                        -----------------------------------------
Total Dipole Moment    :     -0.97534       0.15269       0.38701
                        -----------------------------------------
Magnitude (a.u.)       :      1.06037
Magnitude (Debye)      :      2.69524

Rotational constants in cm-1:     0.309981     0.094068     0.085921
Rotational constants in MHz :  9292.988742  2820.076788  2575.847476

                             ****ORCA TERMINATED NORMALLY****
TOTAL RUN TIME: 0 days 0 hours 9 minutes 58 seconds 107 msec
