                         Program Version 5.0.4 -  RELEASE  -
|  1> ! ri-mp2 aug-cc-pvdz aug-cc-pvdz/c tightscf
|  2> %pal nprocs 16 end
|  3> %maxcore 3800
|  4> %base "DZ_P-F_14_AB"
|  5>
|  6> *xyz 0 1
|  7> F        -2.043885   -0.959270    1.133105
|  8> P        -1.625840   -0.705428   -0.412420
|  9> C        -1.811055    1.135876   -0.454647
| 10> N        -0.606283    1.712429    0.112329
| 11> H        -0.444133    2.697304   -0.012854
| 12> C         0.151360   -0.469134   -0.230243
| 13> C         1.151920   -1.427558   -0.303900
| 14> H         0.895460   -2.456234   -0.524514
| 15> C         2.779287    0.259104    0.184641
| 16> H         3.812146    0.541223    0.343962
| 17> C         0.473840    0.864516    0.051604
| 18> C         2.469787   -1.068299   -0.096770
| 19> H         3.255360   -1.808304   -0.154683
| 20> C         1.801164    1.230407    0.261930
| 21> H         2.060663    2.257556    0.483872
| 22> H        -2.705847    1.426627    0.096029
| 23> H        -1.944933    1.420186   -1.505461
| 24> *
| 25>
| 26> $new_job
| 27> ! ri-mp2 aug-cc-pvtz aug-cc-pvtz/c tightscf
| 28> %pal nprocs 16 end
| 29> %maxcore 3800
| 30> %base "TZ_P-F_14_AB"
| 31>
| 32> *xyz 0 1
| 33> F        -2.043885   -0.959270    1.133105
| 34> P        -1.625840   -0.705428   -0.412420
| 35> C        -1.811055    1.135876   -0.454647
| 36> N        -0.606283    1.712429    0.112329
| 37> H        -0.444133    2.697304   -0.012854
| 38> C         0.151360   -0.469134   -0.230243
| 39> C         1.151920   -1.427558   -0.303900
| 40> H         0.895460   -2.456234   -0.524514
| 41> C         2.779287    0.259104    0.184641
| 42> H         3.812146    0.541223    0.343962
| 43> C         0.473840    0.864516    0.051604
| 44> C         2.469787   -1.068299   -0.096770
| 45> H         3.255360   -1.808304   -0.154683
| 46> C         1.801164    1.230407    0.261930
| 47> H         2.060663    2.257556    0.483872
| 48> H        -2.705847    1.426627    0.096029
| 49> H        -1.944933    1.420186   -1.505461
| 50> *
| 51>
| 52> $new_job
| 53> ! ri-mp2 aug-cc-pvqz aug-cc-pvqz/c tightscf
| 54> %pal nprocs 16 end
| 55> %maxcore 3800
| 56> %base "QZ_P-F_14_AB"
| 57>
| 58> *xyz 0 1
| 59> F        -2.043885   -0.959270    1.133105
| 60> P        -1.625840   -0.705428   -0.412420
| 61> C        -1.811055    1.135876   -0.454647
| 62> N        -0.606283    1.712429    0.112329
| 63> H        -0.444133    2.697304   -0.012854
| 64> C         0.151360   -0.469134   -0.230243
| 65> C         1.151920   -1.427558   -0.303900
| 66> H         0.895460   -2.456234   -0.524514
| 67> C         2.779287    0.259104    0.184641
| 68> H         3.812146    0.541223    0.343962
| 69> C         0.473840    0.864516    0.051604
| 70> C         2.469787   -1.068299   -0.096770
| 71> H         3.255360   -1.808304   -0.154683
| 72> C         1.801164    1.230407    0.261930
| 73> H         2.060663    2.257556    0.483872
| 74> H        -2.705847    1.426627    0.096029
| 75> H        -1.944933    1.420186   -1.505461
| 76> *
| 77>
| 78>
| 79>
| 80>
| 81>                          ****END OF INPUT****
 Total Charge           Charge          ....    0
 Multiplicity           Mult            ....    1
 Number of Electrons    NEL             ....   80
MP2 TOTAL ENERGY:     -765.296599605 Eh
FINAL SINGLE POINT ENERGY      -765.296599605291
MP2 TOTAL ENERGY:     -765.709630728 Eh
FINAL SINGLE POINT ENERGY      -765.709630728229

CARTESIAN COORDINATES (ANGSTROEM)
---------------------------------
  F     -2.043885   -0.959270    1.133105
  P     -1.625840   -0.705428   -0.412420
  C     -1.811055    1.135876   -0.454647
  N     -0.606283    1.712429    0.112329
  H     -0.444133    2.697304   -0.012854
  C      0.151360   -0.469134   -0.230243
  C      1.151920   -1.427558   -0.303900
  H      0.895460   -2.456234   -0.524514
  C      2.779287    0.259104    0.184641
  H      3.812146    0.541223    0.343962
  C      0.473840    0.864516    0.051604
  C      2.469787   -1.068299   -0.096770
  H      3.255360   -1.808304   -0.154683
  C      1.801164    1.230407    0.261930
  H      2.060663    2.257556    0.483872
  H     -2.705847    1.426627    0.096029
  H     -1.944933    1.420186   -1.505461

 Multiplicity           Mult            ....    1
 Number of Electrons    NEL             ....   80
 Basis Dimension        Dim             .... 1126

ORBITAL ENERGIES
----------------

  NO   OCC          E(Eh)            E(eV)
   0   2.0000     -79.993281     -2176.7278
   1   2.0000     -26.274396      -714.9627
   2   2.0000     -15.578746      -423.9192
   3   2.0000     -11.289568      -307.2048
   4   2.0000     -11.269514      -306.6591
   5   2.0000     -11.248822      -306.0960
   6   2.0000     -11.248457      -306.0861
   7   2.0000     -11.230997      -305.6110
   8   2.0000     -11.224016      -305.4210
   9   2.0000     -11.223922      -305.4185
  10   2.0000      -7.527574      -204.8357
  11   2.0000      -5.421835      -147.5356
  12   2.0000      -5.420805      -147.5076
  13   2.0000      -5.419829      -147.4810
  14   2.0000      -1.580059       -42.9956
  15   2.0000      -1.270473       -34.5713
  16   2.0000      -1.147061       -31.2131
  17   2.0000      -1.037820       -28.2405
  18   2.0000      -1.010096       -27.4861
  19   2.0000      -0.962002       -26.1774
  20   2.0000      -0.854621       -23.2554
  21   2.0000      -0.816176       -22.2093
  22   2.0000      -0.793972       -21.6051
  23   2.0000      -0.726857       -19.7788
  24   2.0000      -0.684120       -18.6158
  25   2.0000      -0.669690       -18.2232
  26   2.0000      -0.664225       -18.0745
  27   2.0000      -0.643857       -17.5202
  28   2.0000      -0.636425       -17.3180
  29   2.0000      -0.614959       -16.7339
  30   2.0000      -0.603125       -16.4119
  31   2.0000      -0.595022       -16.1914
  32   2.0000      -0.536507       -14.5991
  33   2.0000      -0.525860       -14.3094
  34   2.0000      -0.513589       -13.9755
  35   2.0000      -0.462595       -12.5878
  36   2.0000      -0.442452       -12.0397
  37   2.0000      -0.379157       -10.3174
  38   2.0000      -0.351450        -9.5635
  39   2.0000      -0.301195        -8.1959
  40   0.0000       0.020656         0.5621
  41   0.0000       0.026345         0.7169
  42   0.0000       0.030668         0.8345
  43   0.0000       0.039393         1.0719
  44   0.0000       0.040004         1.0886

MULLIKEN ATOMIC CHARGES
-----------------------
   0 F :   -0.753873
   1 P :    1.047230
   2 C :   -0.613821
   3 N :   -0.658292
   4 H :    0.207912
   5 C :   -0.260445
   6 C :   -0.328781
   7 H :    0.353864
   8 C :   -0.367811
   9 H :    0.277072
  10 C :    0.927143
  11 C :   -0.452880
  12 H :    0.243707
  13 C :   -0.479340
  14 H :    0.261255
  15 H :    0.295821
  16 H :    0.301237
Sum of atomic charges:   -0.0000000

LOEWDIN ATOMIC CHARGES
----------------------
   0 F :    0.300493
   1 P :    0.493097
   2 C :    0.220632
   3 N :    0.817847
   4 H :   -0.480801
   5 C :   -0.286209
   6 C :    0.259319
   7 H :   -0.329047
   8 C :    0.331371
   9 H :   -0.316331
  10 C :   -0.362076
  11 C :    0.335907
  12 H :   -0.331837
  13 C :    0.364085
  14 H :   -0.319283
  15 H :   -0.349262
  16 H :   -0.347904

  Mayer bond orders larger than 0.100000
B(  0-F ,  1-P ) :   0.4053 B(  1-P ,  2-C ) :   0.8160 B(  1-P ,  5-C ) :   0.9422
B(  1-P , 10-C ) :  -0.1795 B(  2-C ,  3-N ) :   0.9870 B(  2-C , 10-C ) :  -0.2001
B(  2-C , 15-H ) :   0.9068 B(  2-C , 16-H ) :   0.9262 B(  3-N ,  4-H ) :   1.0281
B(  3-N , 10-C ) :   0.5462 B(  5-C ,  6-C ) :   0.7834 B(  5-C ,  7-H ) :  -0.1572
B(  5-C , 10-C ) :   1.0721 B(  5-C , 11-C ) :  -0.2687 B(  5-C , 13-C ) :  -0.1606
B(  6-C ,  7-H ) :   0.9521 B(  6-C , 10-C ) :  -0.1422 B(  6-C , 11-C ) :   1.3331
B(  6-C , 12-H ) :  -0.1303 B(  6-C , 13-C ) :   0.1369 B(  8-C ,  9-H ) :   1.0959
B(  8-C , 10-C ) :  -0.3377 B(  8-C , 11-C ) :   1.1767 B(  8-C , 13-C ) :   1.3754
B(  9-H , 11-C ) :  -0.1136 B(  9-H , 13-C ) :  -0.1365 B( 10-C , 13-C ) :   1.0944
B( 11-C , 12-H ) :   1.1104 B( 13-C , 14-H ) :   0.9784

MP2 TOTAL ENERGY:     -765.842837671 Eh
FINAL SINGLE POINT ENERGY      -765.842837670863

DIPOLE MOMENT
-------------
                                X             Y             Z
Electronic contribution:     -7.74641      -4.54291       1.37553
Nuclear contribution   :      8.22567       5.52855      -1.93653
                        -----------------------------------------
Total Dipole Moment    :      0.47926       0.98564      -0.56101
                        -----------------------------------------
Magnitude (a.u.)       :      1.23122
Magnitude (Debye)      :      3.12951

Rotational constants in cm-1:     0.075904     0.033061     0.025720
Rotational constants in MHz :  2275.540255   991.135264   771.077379

                             ****ORCA TERMINATED NORMALLY****
TOTAL RUN TIME: 0 days 0 hours 47 minutes 33 seconds 555 msec
