                         Program Version 5.0.4 -  RELEASE  -
|  1> ! ri-mp2 aug-cc-pvdz aug-cc-pvdz/c tightscf
|  2> %pal nprocs 16 end
|  3> %maxcore 3800
|  4> %base "DZ_Si-Si_152_AB"
|  5> %scf
|  6> STABPerform true
|  7> STABRestartUHFifUnstable true
|  8> end
|  9>
| 10> *xyz 0 1
| 11> Si         2.154663    0.369537   -0.374532
| 12> Si         0.369220   -0.744826    0.643844
| 13> B        -1.410801   -0.012797   -0.020721
| 14> H         0.505599   -0.580535    2.112846
| 15> H         0.493984   -2.197660    0.342331
| 16> H         2.094908    0.193888   -1.844611
| 17> H         3.462701   -0.134172    0.101743
| 18> O        -2.220487   -0.774018   -0.799925
| 19> C        -1.883317    1.439339    0.310313
| 20> H         2.077275    1.820037   -0.083010
| 21> H        -1.898633   -1.662609   -0.975678
| 22> H        -1.153815    2.173378   -0.044423
| 23> H        -1.945647    1.588259    1.391933
| 24> H        -2.852925    1.673565   -0.130359
| 25> *
| 26>
| 27> $new_job
| 28> ! ri-mp2 aug-cc-pvtz aug-cc-pvtz/c tightscf
| 29> %pal nprocs 16 end
| 30> %maxcore 3800
| 31> %base "TZ_Si-Si_152_AB"
| 32>
| 33> *xyz 0 1
| 34> Si         2.154663    0.369537   -0.374532
| 35> Si         0.369220   -0.744826    0.643844
| 36> B        -1.410801   -0.012797   -0.020721
| 37> H         0.505599   -0.580535    2.112846
| 38> H         0.493984   -2.197660    0.342331
| 39> H         2.094908    0.193888   -1.844611
| 40> H         3.462701   -0.134172    0.101743
| 41> O        -2.220487   -0.774018   -0.799925
| 42> C        -1.883317    1.439339    0.310313
| 43> H         2.077275    1.820037   -0.083010
| 44> H        -1.898633   -1.662609   -0.975678
| 45> H        -1.153815    2.173378   -0.044423
| 46> H        -1.945647    1.588259    1.391933
| 47> H        -2.852925    1.673565   -0.130359
| 48> *
| 49>
| 50> $new_job
| 51> ! ri-mp2 aug-cc-pvqz aug-cc-pvqz/c tightscf
| 52> %pal nprocs 16 end
| 53> %maxcore 3800
| 54> %base "QZ_Si-Si_152_AB"
| 55>
| 56> *xyz 0 1
| 57> Si         2.154663    0.369537   -0.374532
| 58> Si         0.369220   -0.744826    0.643844
| 59> B        -1.410801   -0.012797   -0.020721
| 60> H         0.505599   -0.580535    2.112846
| 61> H         0.493984   -2.197660    0.342331
| 62> H         2.094908    0.193888   -1.844611
| 63> H         3.462701   -0.134172    0.101743
| 64> O        -2.220487   -0.774018   -0.799925
| 65> C        -1.883317    1.439339    0.310313
| 66> H         2.077275    1.820037   -0.083010
| 67> H        -1.898633   -1.662609   -0.975678
| 68> H        -1.153815    2.173378   -0.044423
| 69> H        -1.945647    1.588259    1.391933
| 70> H        -2.852925    1.673565   -0.130359
| 71> *
| 72>
| 73>
| 74>
| 75>
| 76>                          ****END OF INPUT****
 Total Charge           Charge          ....    0
 Multiplicity           Mult            ....    1
 Number of Electrons    NEL             ....   56
MP2 TOTAL ENERGY:     -721.233848009 Eh
FINAL SINGLE POINT ENERGY      -721.233848009389
MP2 TOTAL ENERGY:     -721.434847559 Eh
FINAL SINGLE POINT ENERGY      -721.434847558658

CARTESIAN COORDINATES (ANGSTROEM)
---------------------------------
  Si     2.154663    0.369537   -0.374532
  Si     0.369220   -0.744826    0.643844
  B     -1.410801   -0.012797   -0.020721
  H      0.505599   -0.580535    2.112846
  H      0.493984   -2.197660    0.342331
  H      2.094908    0.193888   -1.844611
  H      3.462701   -0.134172    0.101743
  O     -2.220487   -0.774018   -0.799925
  C     -1.883317    1.439339    0.310313
  H      2.077275    1.820037   -0.083010
  H     -1.898633   -1.662609   -0.975678
  H     -1.153815    2.173378   -0.044423
  H     -1.945647    1.588259    1.391933
  H     -2.852925    1.673565   -0.130359

 Multiplicity           Mult            ....    1
 Number of Electrons    NEL             ....   56
 Basis Dimension        Dim             ....  822

ORBITAL ENERGIES
----------------

  NO   OCC          E(Eh)            E(eV)
   0   2.0000     -68.765525     -1871.2051
   1   2.0000     -68.751930     -1870.8351
   2   2.0000     -20.580248      -560.0170
   3   2.0000     -11.193400      -304.5879
   4   2.0000      -7.621071      -207.3799
   5   2.0000      -6.116287      -166.4326
   6   2.0000      -6.104783      -166.1196
   7   2.0000      -4.222365      -114.8964
   8   2.0000      -4.222360      -114.8963
   9   2.0000      -4.222311      -114.8949
  10   2.0000      -4.210880      -114.5839
  11   2.0000      -4.210818      -114.5822
  12   2.0000      -4.210349      -114.5694
  13   2.0000      -1.375254       -37.4226
  14   2.0000      -0.952971       -25.9317
  15   2.0000      -0.761945       -20.7336
  16   2.0000      -0.752226       -20.4691
  17   2.0000      -0.682442       -18.5702
  18   2.0000      -0.608061       -16.5462
  19   2.0000      -0.567441       -15.4409
  20   2.0000      -0.560597       -15.2546
  21   2.0000      -0.526820       -14.3355
  22   2.0000      -0.523344       -14.2409
  23   2.0000      -0.495342       -13.4789
  24   2.0000      -0.485191       -13.2027
  25   2.0000      -0.468063       -12.7366
  26   2.0000      -0.415439       -11.3047
  27   2.0000      -0.377214       -10.2645
  28   0.0000       0.022290         0.6066
  29   0.0000       0.028887         0.7861
  30   0.0000       0.033312         0.9065
  31   0.0000       0.033957         0.9240
  32   0.0000       0.045351         1.2341

MULLIKEN ATOMIC CHARGES
-----------------------
   0 Si:    0.419417
   1 Si:    0.555438
   2 B :    0.889522
   3 H :   -0.197088
   4 H :   -0.251660
   5 H :   -0.171553
   6 H :   -0.164133
   7 O :   -1.221162
   8 C :   -0.994030
   9 H :   -0.161479
  10 H :    0.366653
  11 H :    0.297332
  12 H :    0.281211
  13 H :    0.351532
Sum of atomic charges:   -0.0000000

LOEWDIN ATOMIC CHARGES
----------------------
   0 Si:    1.020166
   1 Si:    0.836095
   2 B :   -0.895436
   3 H :   -0.281215
   4 H :   -0.281751
   5 H :   -0.311401
   6 H :   -0.317085
   7 O :    1.324724
   8 C :    0.980174
   9 H :   -0.309458
  10 H :   -0.814381
  11 H :   -0.319665
  12 H :   -0.315369
  13 H :   -0.315400

  Mayer bond orders larger than 0.100000
B(  0-Si,  1-Si) :   0.7137 B(  0-Si,  5-H ) :   0.7800 B(  0-Si,  6-H ) :   0.7721
B(  0-Si,  9-H ) :   0.7861 B(  1-Si,  2-B ) :   0.7415 B(  1-Si,  3-H ) :   0.7871
B(  1-Si,  4-H ) :   0.7600 B(  2-B ,  7-O ) :   0.4393 B(  2-B ,  8-C ) :   0.9322
B(  7-O , 10-H ) :   0.9007 B(  8-C , 11-H ) :   0.9137 B(  8-C , 12-H ) :   0.9360
B(  8-C , 13-H ) :   0.8466

MP2 TOTAL ENERGY:     -721.499297105 Eh
FINAL SINGLE POINT ENERGY      -721.499297105477

DIPOLE MOMENT
-------------
                                X             Y             Z
Electronic contribution:     -1.74081      -3.17771      -0.84040
Nuclear contribution   :      1.75049       2.92587       0.86765
                        -----------------------------------------
Total Dipole Moment    :      0.00969      -0.25184       0.02725
                        -----------------------------------------
Magnitude (a.u.)       :      0.25350
Magnitude (Debye)      :      0.64433

Rotational constants in cm-1:     0.148958     0.047676     0.043121
Rotational constants in MHz :  4465.656149  1429.302743  1292.734344

                             ****ORCA TERMINATED NORMALLY****
TOTAL RUN TIME: 0 days 0 hours 48 minutes 42 seconds 827 msec
