                         Program Version 5.0.4 -  RELEASE  -
|  1> ! ri-mp2 aug-cc-pvdz aug-cc-pvdz/c tightscf
|  2> %pal nprocs 16 end
|  3> %maxcore 3800
|  4> %base "DZ_B-P_12_AB"
|  5> %scf
|  6> STABPerform true
|  7> STABRestartUHFifUnstable true
|  8> end
|  9>
| 10> *xyz 0 1
| 11> P         0.316876    0.584009   -0.838793
| 12> B        -1.262718   -0.206276   -0.070869
| 13> O        -1.623303   -1.511332   -0.266668
| 14> O        -2.112339    0.579602    0.640651
| 15> C         1.598251   -0.696228   -0.430775
| 16> C         1.726630   -1.141914    1.019142
| 17> H         2.551294   -0.300717   -0.788889
| 18> H         1.391690   -1.554747   -1.076357
| 19> H         0.796296   -1.577292    1.386715
| 20> H         1.980050   -0.306550    1.670971
| 21> C         0.666305    1.934268    0.365011
| 22> H         1.616539    2.405640    0.114595
| 23> H         0.690759    1.606977    1.402561
| 24> H        -0.116449    2.684484    0.265873
| 25> H         2.511586   -1.892205    1.130818
| 26> H        -1.011224   -2.030670   -0.792374
| 27> H        -2.912080    0.113409    0.910197
| 28> *
| 29>
| 30> $new_job
| 31> ! ri-mp2 aug-cc-pvtz aug-cc-pvtz/c tightscf
| 32> %pal nprocs 16 end
| 33> %maxcore 3800
| 34> %base "TZ_B-P_12_AB"
| 35>
| 36> *xyz 0 1
| 37> P         0.316876    0.584009   -0.838793
| 38> B        -1.262718   -0.206276   -0.070869
| 39> O        -1.623303   -1.511332   -0.266668
| 40> O        -2.112339    0.579602    0.640651
| 41> C         1.598251   -0.696228   -0.430775
| 42> C         1.726630   -1.141914    1.019142
| 43> H         2.551294   -0.300717   -0.788889
| 44> H         1.391690   -1.554747   -1.076357
| 45> H         0.796296   -1.577292    1.386715
| 46> H         1.980050   -0.306550    1.670971
| 47> C         0.666305    1.934268    0.365011
| 48> H         1.616539    2.405640    0.114595
| 49> H         0.690759    1.606977    1.402561
| 50> H        -0.116449    2.684484    0.265873
| 51> H         2.511586   -1.892205    1.130818
| 52> H        -1.011224   -2.030670   -0.792374
| 53> H        -2.912080    0.113409    0.910197
| 54> *
| 55>
| 56> $new_job
| 57> ! ri-mp2 aug-cc-pvqz aug-cc-pvqz/c tightscf
| 58> %pal nprocs 16 end
| 59> %maxcore 3800
| 60> %base "QZ_B-P_12_AB"
| 61>
| 62> *xyz 0 1
| 63> P         0.316876    0.584009   -0.838793
| 64> B        -1.262718   -0.206276   -0.070869
| 65> O        -1.623303   -1.511332   -0.266668
| 66> O        -2.112339    0.579602    0.640651
| 67> C         1.598251   -0.696228   -0.430775
| 68> C         1.726630   -1.141914    1.019142
| 69> H         2.551294   -0.300717   -0.788889
| 70> H         1.391690   -1.554747   -1.076357
| 71> H         0.796296   -1.577292    1.386715
| 72> H         1.980050   -0.306550    1.670971
| 73> C         0.666305    1.934268    0.365011
| 74> H         1.616539    2.405640    0.114595
| 75> H         0.690759    1.606977    1.402561
| 76> H        -0.116449    2.684484    0.265873
| 77> H         2.511586   -1.892205    1.130818
| 78> H        -1.011224   -2.030670   -0.792374
| 79> H        -2.912080    0.113409    0.910197
| 80> *
| 81>
| 82>
| 83>
| 84>
| 85>                          ****END OF INPUT****
 Total Charge           Charge          ....    0
 Multiplicity           Mult            ....    1
 Number of Electrons    NEL             ....   64
MP2 TOTAL ENERGY:     -635.797664002 Eh
FINAL SINGLE POINT ENERGY      -635.797664002134
MP2 TOTAL ENERGY:     -636.113029751 Eh
FINAL SINGLE POINT ENERGY      -636.113029751312

CARTESIAN COORDINATES (ANGSTROEM)
---------------------------------
  P      0.316876    0.584009   -0.838793
  B     -1.262718   -0.206276   -0.070869
  O     -1.623303   -1.511332   -0.266668
  O     -2.112339    0.579602    0.640651
  C      1.598251   -0.696228   -0.430775
  C      1.726630   -1.141914    1.019142
  H      2.551294   -0.300717   -0.788889
  H      1.391690   -1.554747   -1.076357
  H      0.796296   -1.577292    1.386715
  H      1.980050   -0.306550    1.670971
  C      0.666305    1.934268    0.365011
  H      1.616539    2.405640    0.114595
  H      0.690759    1.606977    1.402561
  H     -0.116449    2.684484    0.265873
  H      2.511586   -1.892205    1.130818
  H     -1.011224   -2.030670   -0.792374
  H     -2.912080    0.113409    0.910197

 Multiplicity           Mult            ....    1
 Number of Electrons    NEL             ....   64
 Basis Dimension        Dim             .... 1024

ORBITAL ENERGIES
----------------

  NO   OCC          E(Eh)            E(eV)
   0   2.0000     -79.909702     -2174.4535
   1   2.0000     -20.573654      -559.8376
   2   2.0000     -20.566070      -559.6312
   3   2.0000     -11.231944      -305.6367
   4   2.0000     -11.221090      -305.3414
   5   2.0000     -11.215768      -305.1966
   6   2.0000      -7.642316      -207.9580
   7   2.0000      -7.454257      -202.8406
   8   2.0000      -5.348677      -145.5449
   9   2.0000      -5.348482      -145.5396
  10   2.0000      -5.347726      -145.5190
  11   2.0000      -1.389463       -37.8092
  12   2.0000      -1.348197       -36.6863
  13   2.0000      -1.044504       -28.4224
  14   2.0000      -0.963957       -26.2306
  15   2.0000      -0.867549       -23.6072
  16   2.0000      -0.786384       -21.3986
  17   2.0000      -0.750937       -20.4340
  18   2.0000      -0.711220       -19.3533
  19   2.0000      -0.630141       -17.1470
  20   2.0000      -0.600969       -16.3532
  21   2.0000      -0.596535       -16.2325
  22   2.0000      -0.574639       -15.6367
  23   2.0000      -0.569236       -15.4897
  24   2.0000      -0.557718       -15.1763
  25   2.0000      -0.546783       -14.8787
  26   2.0000      -0.531085       -14.4516
  27   2.0000      -0.506663       -13.7870
  28   2.0000      -0.503659       -13.7053
  29   2.0000      -0.448302       -12.1989
  30   2.0000      -0.428174       -11.6512
  31   2.0000      -0.324034        -8.8174
  32   0.0000       0.021611         0.5881
  33   0.0000       0.029997         0.8163
  34   0.0000       0.031349         0.8530
  35   0.0000       0.035722         0.9721
  36   0.0000       0.046016         1.2522

MULLIKEN ATOMIC CHARGES
-----------------------
   0 P :    0.455439
   1 B :    1.341332
   2 O :   -1.179770
   3 O :   -1.028311
   4 C :   -0.583622
   5 C :   -0.901231
   6 H :    0.272855
   7 H :    0.284786
   8 H :    0.243590
   9 H :    0.245085
  10 C :   -1.190492
  11 H :    0.333723
  12 H :    0.315106
  13 H :    0.383481
  14 H :    0.347416
  15 H :    0.352082
  16 H :    0.308532
Sum of atomic charges:   -0.0000000

LOEWDIN ATOMIC CHARGES
----------------------
   0 P :    1.078141
   1 B :   -1.426925
   2 O :    1.329968
   3 O :    1.299573
   4 C :    0.352778
   5 C :    0.868813
   6 H :   -0.347759
   7 H :   -0.356823
   8 H :   -0.300661
   9 H :   -0.305869
  10 C :    0.759359
  11 H :   -0.348826
  12 H :   -0.353477
  13 H :   -0.360167
  14 H :   -0.275803
  15 H :   -0.816640
  16 H :   -0.795682

  Mayer bond orders larger than 0.100000
B(  0-P ,  1-B ) :   1.0316 B(  0-P ,  4-C ) :   0.7819 B(  0-P , 10-C ) :   0.8917
B(  1-B ,  2-O ) :   0.3440 B(  1-B ,  3-O ) :   0.4278 B(  2-O ,  3-O ) :  -0.1068
B(  2-O , 15-H ) :   0.9086 B(  3-O , 16-H ) :   0.9700 B(  4-C ,  5-C ) :   0.9433
B(  4-C ,  6-H ) :   0.8995 B(  4-C ,  7-H ) :   0.9016 B(  5-C ,  8-H ) :   0.9518
B(  5-C ,  9-H ) :   0.9537 B(  5-C , 14-H ) :   0.8880 B( 10-C , 11-H ) :   0.9033
B( 10-C , 12-H ) :   0.8832 B( 10-C , 13-H ) :   0.8654

MP2 TOTAL ENERGY:     -636.212393261 Eh
FINAL SINGLE POINT ENERGY      -636.212393261176

DIPOLE MOMENT
-------------
                                X             Y             Z
Electronic contribution:     -7.86069       0.68776      -4.78653
Nuclear contribution   :      8.17581      -1.25950       5.09875
                        -----------------------------------------
Total Dipole Moment    :      0.31512      -0.57173       0.31222
                        -----------------------------------------
Magnitude (a.u.)       :      0.72364
Magnitude (Debye)      :      1.83935

Rotational constants in cm-1:     0.082328     0.057254     0.043738
Rotational constants in MHz :  2468.135191  1716.433348  1311.221468

                             ****ORCA TERMINATED NORMALLY****
TOTAL RUN TIME: 0 days 1 hours 34 minutes 40 seconds 212 msec
