                         Program Version 5.0.4 -  RELEASE  -
|  1> ! ri-mp2 aug-cc-pvdz aug-cc-pvdz/c tightscf
|  2> %pal nprocs 16 end
|  3> %maxcore 3800
|  4> %base "DZ_S-S_35_AB"
|  5> %scf
|  6> STABPerform true
|  7> STABRestartUHFifUnstable true
|  8> end
|  9>
| 10> *xyz 0 1
| 11> C         3.086562    0.199653    0.118539
| 12> O         1.934663   -0.485394    0.440716
| 13> F         3.480749   -0.065280   -1.116199
| 14> F         4.013736   -0.211448    0.963855
| 15> F         2.929711    1.505970    0.251606
| 16> C         0.797068   -0.249373   -0.285016
| 17> S        -0.446298   -1.316584    0.433579
| 18> O         0.692081    0.499832   -1.187399
| 19> S        -2.036029   -0.913502   -0.755484
| 20> C        -2.802208    0.462094    0.163202
| 21> F        -3.873538    0.831828   -0.537561
| 22> F        -3.198194    0.107279    1.382782
| 23> F        -1.995270    1.508499    0.293693
| 24> *
| 25>
| 26> $new_job
| 27> ! ri-mp2 aug-cc-pvtz aug-cc-pvtz/c tightscf
| 28> %pal nprocs 16 end
| 29> %maxcore 3800
| 30> %base "TZ_S-S_35_AB"
| 31>
| 32> *xyz 0 1
| 33> C         3.086562    0.199653    0.118539
| 34> O         1.934663   -0.485394    0.440716
| 35> F         3.480749   -0.065280   -1.116199
| 36> F         4.013736   -0.211448    0.963855
| 37> F         2.929711    1.505970    0.251606
| 38> C         0.797068   -0.249373   -0.285016
| 39> S        -0.446298   -1.316584    0.433579
| 40> O         0.692081    0.499832   -1.187399
| 41> S        -2.036029   -0.913502   -0.755484
| 42> C        -2.802208    0.462094    0.163202
| 43> F        -3.873538    0.831828   -0.537561
| 44> F        -3.198194    0.107279    1.382782
| 45> F        -1.995270    1.508499    0.293693
| 46> *
| 47>
| 48> $new_job
| 49> ! ri-mp2 aug-cc-pvqz aug-cc-pvqz/c tightscf
| 50> %pal nprocs 16 end
| 51> %maxcore 3800
| 52> %base "QZ_S-S_35_AB"
| 53>
| 54> *xyz 0 1
| 55> C         3.086562    0.199653    0.118539
| 56> O         1.934663   -0.485394    0.440716
| 57> F         3.480749   -0.065280   -1.116199
| 58> F         4.013736   -0.211448    0.963855
| 59> F         2.929711    1.505970    0.251606
| 60> C         0.797068   -0.249373   -0.285016
| 61> S        -0.446298   -1.316584    0.433579
| 62> O         0.692081    0.499832   -1.187399
| 63> S        -2.036029   -0.913502   -0.755484
| 64> C        -2.802208    0.462094    0.163202
| 65> F        -3.873538    0.831828   -0.537561
| 66> F        -3.198194    0.107279    1.382782
| 67> F        -1.995270    1.508499    0.293693
| 68> *
| 69>
| 70>
| 71>
| 72>
| 73>                          ****END OF INPUT****
 Total Charge           Charge          ....    0
 Multiplicity           Mult            ....    1
 Number of Electrons    NEL             ....  120
MP2 TOTAL ENERGY:    -1657.419298104 Eh
FINAL SINGLE POINT ENERGY     -1657.419298104364
MP2 TOTAL ENERGY:    -1658.240189303 Eh
FINAL SINGLE POINT ENERGY     -1658.240189302683

CARTESIAN COORDINATES (ANGSTROEM)
---------------------------------
  C      3.086562    0.199653    0.118539
  O      1.934663   -0.485394    0.440716
  F      3.480749   -0.065280   -1.116199
  F      4.013736   -0.211448    0.963855
  F      2.929711    1.505970    0.251606
  C      0.797068   -0.249373   -0.285016
  S     -0.446298   -1.316584    0.433579
  O      0.692081    0.499832   -1.187399
  S     -2.036029   -0.913502   -0.755484
  C     -2.802208    0.462094    0.163202
  F     -3.873538    0.831828   -0.537561
  F     -3.198194    0.107279    1.382782
  F     -1.995270    1.508499    0.293693

 Multiplicity           Mult            ....    1
 Number of Electrons    NEL             ....  120
 Basis Dimension        Dim             .... 1048

ORBITAL ENERGIES
----------------

  NO   OCC          E(Eh)            E(eV)
   0   2.0000     -92.046260     -2504.7061
   1   2.0000     -92.038186     -2504.4864
   2   2.0000     -26.370006      -717.5643
   3   2.0000     -26.368738      -717.5298
   4   2.0000     -26.368547      -717.5246
   5   2.0000     -26.366256      -717.4623
   6   2.0000     -26.362578      -717.3622
   7   2.0000     -26.362543      -717.3613
   8   2.0000     -20.678889      -562.7012
   9   2.0000     -20.607235      -560.7514
  10   2.0000     -11.594754      -315.5093
  11   2.0000     -11.554033      -314.4012
  12   2.0000     -11.461121      -311.8730
  13   2.0000      -9.046842      -246.1771
  14   2.0000      -9.039116      -245.9669
  15   2.0000      -6.727952      -183.0769
  16   2.0000      -6.726716      -183.0432
  17   2.0000      -6.725878      -183.0204
  18   2.0000      -6.720153      -182.8647
  19   2.0000      -6.719014      -182.8337
  20   2.0000      -6.717988      -182.8057
  21   2.0000      -1.780609       -48.4528
  22   2.0000      -1.761978       -47.9459
  23   2.0000      -1.675168       -45.5836
  24   2.0000      -1.673952       -45.5506
  25   2.0000      -1.666237       -45.3406
  26   2.0000      -1.662604       -45.2418
  27   2.0000      -1.537078       -41.8260
  28   2.0000      -1.446206       -39.3533
  29   2.0000      -1.145703       -31.1762
  30   2.0000      -1.059302       -28.8251
  31   2.0000      -1.004223       -27.3263
  32   2.0000      -0.946854       -25.7652
  33   2.0000      -0.906743       -24.6737
  34   2.0000      -0.875858       -23.8333
  35   2.0000      -0.872431       -23.7401
  36   2.0000      -0.854139       -23.2423
  37   2.0000      -0.853151       -23.2154
  38   2.0000      -0.804763       -21.8987
  39   2.0000      -0.783072       -21.3085
  40   2.0000      -0.754741       -20.5375
  41   2.0000      -0.744405       -20.2563
  42   2.0000      -0.738417       -20.0933
  43   2.0000      -0.736336       -20.0367
  44   2.0000      -0.724202       -19.7065
  45   2.0000      -0.708927       -19.2909
  46   2.0000      -0.705900       -19.2085
  47   2.0000      -0.694033       -18.8856
  48   2.0000      -0.693028       -18.8583
  49   2.0000      -0.686392       -18.6777
  50   2.0000      -0.681743       -18.5512
  51   2.0000      -0.675523       -18.3819
  52   2.0000      -0.673757       -18.3339
  53   2.0000      -0.625399       -17.0180
  54   2.0000      -0.581081       -15.8120
  55   2.0000      -0.558883       -15.2080
  56   2.0000      -0.532202       -14.4819
  57   2.0000      -0.497604       -13.5405
  58   2.0000      -0.434830       -11.8323
  59   2.0000      -0.430892       -11.7252
  60   0.0000       0.036681         0.9981
  61   0.0000       0.041043         1.1168
  62   0.0000       0.048761         1.3269
  63   0.0000       0.051441         1.3998
  64   0.0000       0.063188         1.7194

MULLIKEN ATOMIC CHARGES
-----------------------
   0 C :    2.077118
   1 O :   -0.598384
   2 F :   -0.564629
   3 F :   -0.600941
   4 F :   -0.563860
   5 C :    0.674534
   6 S :    0.228574
   7 O :   -0.618145
   8 S :    0.034714
   9 C :    1.628788
  10 F :   -0.576443
  11 F :   -0.550367
  12 F :   -0.570959
Sum of atomic charges:    0.0000000

LOEWDIN ATOMIC CHARGES
----------------------
   0 C :   -2.633570
   1 O :    0.610332
   2 F :    0.772275
   3 F :    0.759138
   4 F :    0.773952
   5 C :   -1.639691
   6 S :    0.721524
   7 O :    0.606005
   8 S :    0.665076
   9 C :   -2.691273
  10 F :    0.678835
  11 F :    0.681865
  12 F :    0.695533

  Mayer bond orders larger than 0.100000
B(  0-C ,  1-O ) :   0.8881 B(  0-C ,  2-F ) :   0.5425 B(  0-C ,  3-F ) :   0.4941
B(  0-C ,  4-F ) :   0.5465 B(  1-O ,  5-C ) :   0.9089 B(  5-C ,  6-S ) :   0.9082
B(  5-C ,  7-O ) :   1.6975 B(  6-S ,  8-S ) :   1.1391 B(  8-S ,  9-C ) :   0.9447
B(  9-C , 10-F ) :   0.5394 B(  9-C , 11-F ) :   0.5627 B(  9-C , 12-F ) :   0.5792

MP2 TOTAL ENERGY:    -1658.512279683 Eh
FINAL SINGLE POINT ENERGY     -1658.512279682572

DIPOLE MOMENT
-------------
                                X             Y             Z
Electronic contribution:      1.00261       2.55238       1.34330
Nuclear contribution   :     -1.11920      -3.26159      -1.12131
                        -----------------------------------------
Total Dipole Moment    :     -0.11659      -0.70921       0.22199
                        -----------------------------------------
Magnitude (a.u.)       :      0.75223
Magnitude (Debye)      :      1.91202

Rotational constants in cm-1:     0.050798     0.009288     0.009005
Rotational constants in MHz :  1522.871428   278.456830   269.974801

                             ****ORCA TERMINATED NORMALLY****
TOTAL RUN TIME: 0 days 1 hours 56 minutes 47 seconds 920 msec
