                         Program Version 5.0.4 -  RELEASE  -
|  1> ! ri-mp2 aug-cc-pvdz aug-cc-pvdz/c tightscf
|  2> %pal nprocs 16 end
|  3> %maxcore 3800
|  4> %base "DZ_P-F_26_AB"
|  5> %scf
|  6> STABPerform true
|  7> STABRestartUHFifUnstable true
|  8> end
|  9>
| 10> *xyz 0 1
| 11> F         2.789366   -0.464274   -0.416398
| 12> F        -1.842201    1.888482    0.097194
| 13> O         1.240505    2.384515   -0.090565
| 14> O         0.520480   -2.344003   -0.614834
| 15> P         1.641480   -0.219022    0.658457
| 16> P        -0.940556    0.915210   -0.797316
| 17> C         0.758498    1.291059   -0.075600
| 18> C         0.294766   -1.310736   -0.053470
| 19> C        -1.095992   -0.707911    0.124382
| 20> C        -1.374018   -0.488561    1.618755
| 21> H        -0.628485    0.134939    2.113815
| 22> H        -1.401661   -1.450530    2.131783
| 23> H        -2.337890   -0.000961    1.750362
| 24> C        -2.161103   -1.588090   -0.512596
| 25> H        -1.953428   -1.763685   -1.566291
| 26> H        -2.195091   -2.557635   -0.015907
| 27> H        -3.142571   -1.121468   -0.423678
| 28> *
| 29>
| 30> $new_job
| 31> ! ri-mp2 aug-cc-pvtz aug-cc-pvtz/c tightscf
| 32> %pal nprocs 16 end
| 33> %maxcore 3800
| 34> %base "TZ_P-F_26_AB"
| 35>
| 36> *xyz 0 1
| 37> F         2.789366   -0.464274   -0.416398
| 38> F        -1.842201    1.888482    0.097194
| 39> O         1.240505    2.384515   -0.090565
| 40> O         0.520480   -2.344003   -0.614834
| 41> P         1.641480   -0.219022    0.658457
| 42> P        -0.940556    0.915210   -0.797316
| 43> C         0.758498    1.291059   -0.075600
| 44> C         0.294766   -1.310736   -0.053470
| 45> C        -1.095992   -0.707911    0.124382
| 46> C        -1.374018   -0.488561    1.618755
| 47> H        -0.628485    0.134939    2.113815
| 48> H        -1.401661   -1.450530    2.131783
| 49> H        -2.337890   -0.000961    1.750362
| 50> C        -2.161103   -1.588090   -0.512596
| 51> H        -1.953428   -1.763685   -1.566291
| 52> H        -2.195091   -2.557635   -0.015907
| 53> H        -3.142571   -1.121468   -0.423678
| 54> *
| 55>
| 56> $new_job
| 57> ! ri-mp2 aug-cc-pvqz aug-cc-pvqz/c tightscf
| 58> %pal nprocs 16 end
| 59> %maxcore 3800
| 60> %base "QZ_P-F_26_AB"
| 61>
| 62> *xyz 0 1
| 63> F         2.789366   -0.464274   -0.416398
| 64> F        -1.842201    1.888482    0.097194
| 65> O         1.240505    2.384515   -0.090565
| 66> O         0.520480   -2.344003   -0.614834
| 67> P         1.641480   -0.219022    0.658457
| 68> P        -0.940556    0.915210   -0.797316
| 69> C         0.758498    1.291059   -0.075600
| 70> C         0.294766   -1.310736   -0.053470
| 71> C        -1.095992   -0.707911    0.124382
| 72> C        -1.374018   -0.488561    1.618755
| 73> H        -0.628485    0.134939    2.113815
| 74> H        -1.401661   -1.450530    2.131783
| 75> H        -2.337890   -0.000961    1.750362
| 76> C        -2.161103   -1.588090   -0.512596
| 77> H        -1.953428   -1.763685   -1.566291
| 78> H        -2.195091   -2.557635   -0.015907
| 79> H        -3.142571   -1.121468   -0.423678
| 80> *
| 81>
| 82>
| 83>
| 84>
| 85>                          ****END OF INPUT****
 Total Charge           Charge          ....    0
 Multiplicity           Mult            ....    1
 Number of Electrons    NEL             ....  100
MP2 TOTAL ENERGY:    -1224.720566530 Eh
FINAL SINGLE POINT ENERGY     -1224.720566530364
MP2 TOTAL ENERGY:    -1225.268133796 Eh
FINAL SINGLE POINT ENERGY     -1225.268133796099

CARTESIAN COORDINATES (ANGSTROEM)
---------------------------------
  F      2.789366   -0.464274   -0.416398
  F     -1.842201    1.888482    0.097194
  O      1.240505    2.384515   -0.090565
  O      0.520480   -2.344003   -0.614834
  P      1.641480   -0.219022    0.658457
  P     -0.940556    0.915210   -0.797316
  C      0.758498    1.291059   -0.075600
  C      0.294766   -1.310736   -0.053470
  C     -1.095992   -0.707911    0.124382
  C     -1.374018   -0.488561    1.618755
  H     -0.628485    0.134939    2.113815
  H     -1.401661   -1.450530    2.131783
  H     -2.337890   -0.000961    1.750362
  C     -2.161103   -1.588090   -0.512596
  H     -1.953428   -1.763685   -1.566291
  H     -2.195091   -2.557635   -0.015907
  H     -3.142571   -1.121468   -0.423678

 Multiplicity           Mult            ....    1
 Number of Electrons    NEL             ....  100
 Basis Dimension        Dim             .... 1164

ORBITAL ENERGIES
----------------

  NO   OCC          E(Eh)            E(eV)
   0   2.0000     -80.041157     -2178.0306
   1   2.0000     -80.037997     -2177.9446
   2   2.0000     -26.328087      -716.4237
   3   2.0000     -26.328009      -716.4216
   4   2.0000     -20.608678      -560.7906
   5   2.0000     -20.595132      -560.4220
   6   2.0000     -11.368259      -309.3461
   7   2.0000     -11.365817      -309.2796
   8   2.0000     -11.289694      -307.2082
   9   2.0000     -11.264089      -306.5114
  10   2.0000     -11.246474      -306.0321
  11   2.0000      -7.576539      -206.1681
  12   2.0000      -7.573012      -206.0721
  13   2.0000      -5.470440      -148.8582
  14   2.0000      -5.469314      -148.8276
  15   2.0000      -5.468617      -148.8086
  16   2.0000      -5.466918      -148.7624
  17   2.0000      -5.465782      -148.7315
  18   2.0000      -5.464788      -148.7044
  19   2.0000      -1.635849       -44.5137
  20   2.0000      -1.635464       -44.5032
  21   2.0000      -1.445550       -39.3354
  22   2.0000      -1.438567       -39.1454
  23   2.0000      -1.142509       -31.0892
  24   2.0000      -0.999694       -27.2031
  25   2.0000      -0.975819       -26.5534
  26   2.0000      -0.906048       -24.6548
  27   2.0000      -0.880236       -23.9524
  28   2.0000      -0.795759       -21.6537
  29   2.0000      -0.764652       -20.8072
  30   2.0000      -0.734043       -19.9743
  31   2.0000      -0.729138       -19.8408
  32   2.0000      -0.710572       -19.3356
  33   2.0000      -0.709268       -19.3002
  34   2.0000      -0.703356       -19.1393
  35   2.0000      -0.692164       -18.8347
  36   2.0000      -0.670150       -18.2357
  37   2.0000      -0.654572       -17.8118
  38   2.0000      -0.636230       -17.3127
  39   2.0000      -0.603685       -16.4271
  40   2.0000      -0.584722       -15.9111
  41   2.0000      -0.578034       -15.7291
  42   2.0000      -0.567342       -15.4382
  43   2.0000      -0.563799       -15.3417
  44   2.0000      -0.547768       -14.9055
  45   2.0000      -0.532440       -14.4884
  46   2.0000      -0.491574       -13.3764
  47   2.0000      -0.432965       -11.7816
  48   2.0000      -0.398351       -10.8397
  49   2.0000      -0.366961        -9.9855
  50   0.0000       0.013620         0.3706
  51   0.0000       0.020554         0.5593
  52   0.0000       0.029104         0.7919
  53   0.0000       0.036425         0.9912
  54   0.0000       0.040004         1.0886

MULLIKEN ATOMIC CHARGES
-----------------------
   0 F :   -0.757836
   1 F :   -0.764002
   2 O :   -0.779531
   3 O :   -0.915623
   4 P :    1.153247
   5 P :    1.140780
   6 C :    0.253929
   7 C :    0.602560
   8 C :    0.554783
   9 C :   -1.141096
  10 H :    0.250675
  11 H :    0.327125
  12 H :    0.333055
  13 C :   -1.047194
  14 H :    0.249702
  15 H :    0.271944
  16 H :    0.267485
Sum of atomic charges:   -0.0000000

LOEWDIN ATOMIC CHARGES
----------------------
   0 F :    0.307025
   1 F :    0.344176
   2 O :    0.544715
   3 O :    0.686650
   4 P :    0.348799
   5 P :    0.391218
   6 C :   -0.976867
   7 C :   -0.954952
   8 C :   -0.581389
   9 C :    0.816296
  10 H :   -0.327541
  11 H :   -0.261814
  12 H :   -0.289009
  13 C :    0.808578
  14 H :   -0.298457
  15 H :   -0.277416
  16 H :   -0.280012

  Mayer bond orders larger than 0.100000
B(  0-F ,  4-P ) :   0.5266 B(  0-F ,  6-C ) :  -0.1092 B(  0-F ,  7-C ) :  -0.1293
B(  1-F ,  5-P ) :   0.4754 B(  1-F ,  8-C ) :  -0.1539 B(  2-O ,  6-C ) :   1.2745
B(  3-O ,  7-C ) :   0.9366 B(  3-O ,  8-C ) :   0.2988 B(  4-P ,  6-C ) :   0.8483
B(  4-P ,  7-C ) :   0.9045 B(  4-P ,  8-C ) :  -0.1183 B(  5-P ,  6-C ) :   0.9272
B(  5-P ,  8-C ) :   0.6803 B(  5-P ,  9-C ) :   0.1035 B(  7-C ,  8-C ) :   0.7760
B(  8-C ,  9-C ) :   0.7461 B(  8-C , 13-C ) :   0.2765 B(  8-C , 14-H ) :  -0.1446
B(  8-C , 15-H ) :  -0.1355 B(  8-C , 16-H ) :  -0.1275 B(  9-C , 10-H ) :   1.0236
B(  9-C , 11-H ) :   0.9227 B(  9-C , 12-H ) :   0.9121 B(  9-C , 13-C ) :   0.1221
B( 13-C , 14-H ) :   1.0691 B( 13-C , 15-H ) :   1.0239 B( 13-C , 16-H ) :   1.0030

MP2 TOTAL ENERGY:    -1225.447973094 Eh
FINAL SINGLE POINT ENERGY     -1225.447973093976

DIPOLE MOMENT
-------------
                                X             Y             Z
Electronic contribution:     11.39791       7.87443      -3.46546
Nuclear contribution   :    -12.55018      -8.37190       4.19763
                        -----------------------------------------
Total Dipole Moment    :     -1.15227      -0.49747       0.73217
                        -----------------------------------------
Magnitude (a.u.)       :      1.45302
Magnitude (Debye)      :      3.69329

Rotational constants in cm-1:     0.036711     0.029305     0.019839
Rotational constants in MHz :  1100.563894   878.549882   594.761277

                             ****ORCA TERMINATED NORMALLY****
TOTAL RUN TIME: 0 days 2 hours 30 minutes 19 seconds 429 msec
