                         Program Version 5.0.4 -  RELEASE  -
|  1> ! ri-mp2 aug-cc-pvdz aug-cc-pvdz/c tightscf
|  2> %pal nprocs 16 end
|  3> %maxcore 3800
|  4> %base "DZ_B-P_44_AB"
|  5> %scf
|  6> STABPerform true
|  7> STABRestartUHFifUnstable true
|  8> end
|  9>
| 10> *xyz 0 1
| 11> B         1.592316    0.562580    0.084836
| 12> P         0.119887   -0.495080   -0.149241
| 13> C        -1.455275    0.416318    0.081672
| 14> H        -1.614107    0.724983    1.112160
| 15> H        -2.294007   -0.197435   -0.240964
| 16> H        -1.424091    1.304099   -0.548516
| 17> H         2.617812    0.057916    0.410613
| 18> H         1.561339    1.699286   -0.265480
| 19> H         0.124816   -1.473455    0.856587
| 20> *
| 21>
| 22> $new_job
| 23> ! ri-mp2 aug-cc-pvtz aug-cc-pvtz/c tightscf
| 24> %pal nprocs 16 end
| 25> %maxcore 3800
| 26> %base "TZ_B-P_44_AB"
| 27>
| 28> *xyz 0 1
| 29> B         1.592316    0.562580    0.084836
| 30> P         0.119887   -0.495080   -0.149241
| 31> C        -1.455275    0.416318    0.081672
| 32> H        -1.614107    0.724983    1.112160
| 33> H        -2.294007   -0.197435   -0.240964
| 34> H        -1.424091    1.304099   -0.548516
| 35> H         2.617812    0.057916    0.410613
| 36> H         1.561339    1.699286   -0.265480
| 37> H         0.124816   -1.473455    0.856587
| 38> *
| 39>
| 40> $new_job
| 41> ! ri-mp2 aug-cc-pvqz aug-cc-pvqz/c tightscf
| 42> %pal nprocs 16 end
| 43> %maxcore 3800
| 44> %base "QZ_B-P_44_AB"
| 45>
| 46> *xyz 0 1
| 47> B         1.592316    0.562580    0.084836
| 48> P         0.119887   -0.495080   -0.149241
| 49> C        -1.455275    0.416318    0.081672
| 50> H        -1.614107    0.724983    1.112160
| 51> H        -2.294007   -0.197435   -0.240964
| 52> H        -1.424091    1.304099   -0.548516
| 53> H         2.617812    0.057916    0.410613
| 54> H         1.561339    1.699286   -0.265480
| 55> H         0.124816   -1.473455    0.856587
| 56> *
| 57>
| 58>
| 59>
| 60>
| 61>                          ****END OF INPUT****
 Total Charge           Charge          ....    0
 Multiplicity           Mult            ....    1
 Number of Electrons    NEL             ....   32
MP2 TOTAL ENERGY:     -407.137555522 Eh
FINAL SINGLE POINT ENERGY      -407.137555521710
MP2 TOTAL ENERGY:     -407.247880809 Eh
FINAL SINGLE POINT ENERGY      -407.247880808614

CARTESIAN COORDINATES (ANGSTROEM)
---------------------------------
  B      1.592316    0.562580    0.084836
  P      0.119887   -0.495080   -0.149241
  C     -1.455275    0.416318    0.081672
  H     -1.614107    0.724983    1.112160
  H     -2.294007   -0.197435   -0.240964
  H     -1.424091    1.304099   -0.548516
  H      2.617812    0.057916    0.410613
  H      1.561339    1.699286   -0.265480
  H      0.124816   -1.473455    0.856587

 Multiplicity           Mult            ....    1
 Number of Electrons    NEL             ....   32
 Basis Dimension        Dim             ....  520

ORBITAL ENERGIES
----------------

  NO   OCC          E(Eh)            E(eV)
   0   2.0000     -79.923790     -2174.8369
   1   2.0000     -11.235400      -305.7308
   2   2.0000      -7.602256      -206.8679
   3   2.0000      -7.470301      -203.2772
   4   2.0000      -5.364996      -145.9890
   5   2.0000      -5.364899      -145.9863
   6   2.0000      -5.364416      -145.9732
   7   2.0000      -0.988380       -26.8952
   8   2.0000      -0.816374       -22.2147
   9   2.0000      -0.662725       -18.0337
  10   2.0000      -0.586652       -15.9636
  11   2.0000      -0.580044       -15.7838
  12   2.0000      -0.524036       -14.2597
  13   2.0000      -0.476974       -12.9791
  14   2.0000      -0.462497       -12.5852
  15   2.0000      -0.334279        -9.0962
  16   0.0000       0.022865         0.6222
  17   0.0000       0.031745         0.8638
  18   0.0000       0.034539         0.9398
  19   0.0000       0.036433         0.9914
  20   0.0000       0.049746         1.3537

MULLIKEN ATOMIC CHARGES
-----------------------
   0 B :    0.203856
   1 P :    0.346575
   2 C :   -0.993884
   3 H :    0.287330
   4 H :    0.300325
   5 H :    0.271261
   6 H :   -0.207167
   7 H :   -0.160559
   8 H :   -0.047737
Sum of atomic charges:   -0.0000000

LOEWDIN ATOMIC CHARGES
----------------------
   0 B :    0.086475
   1 P :    1.280361
   2 C :    0.720556
   3 H :   -0.354636
   4 H :   -0.370106
   5 H :   -0.374778
   6 H :   -0.277654
   7 H :   -0.264815
   8 H :   -0.445402

  Mayer bond orders larger than 0.100000
B(  0-B ,  1-P ) :   1.3195 B(  0-B ,  6-H ) :   0.9390 B(  0-B ,  7-H ) :   0.9383
B(  1-P ,  2-C ) :   0.9124 B(  1-P ,  8-H ) :   0.9429 B(  2-C ,  3-H ) :   0.8969
B(  2-C ,  4-H ) :   0.9173 B(  2-C ,  5-H ) :   0.9125

MP2 TOTAL ENERGY:     -407.281539804 Eh
FINAL SINGLE POINT ENERGY      -407.281539803811

DIPOLE MOMENT
-------------
                                X             Y             Z
Electronic contribution:      1.95483      -1.97499      -1.06094
Nuclear contribution   :     -2.43586       2.14267       1.40414
                        -----------------------------------------
Total Dipole Moment    :     -0.48103       0.16768       0.34320
                        -----------------------------------------
Magnitude (a.u.)       :      0.61424
Magnitude (Debye)      :      1.56127

Rotational constants in cm-1:     0.708282     0.222356     0.181060
Rotational constants in MHz : 21233.771598  6666.056402  5428.048639

                             ****ORCA TERMINATED NORMALLY****
TOTAL RUN TIME: 0 days 0 hours 15 minutes 27 seconds 150 msec
