                         Program Version 5.0.4 -  RELEASE  -
|  1> ! ri-mp2 aug-cc-pvdz aug-cc-pvdz/c tightscf
|  2> %pal nprocs 16 end
|  3> %maxcore 3800
|  4> %base "DZ_B-S_42_AB"
|  5>
|  6> *xyz 0 1
|  7> C        -3.575410    0.396974    0.000004
|  8> C        -2.935290    0.131146    1.198739
|  9> C        -1.656684   -0.398042    1.201554
| 10> C        -2.935294    0.131088   -1.198721
| 11> C        -1.656689   -0.398100   -1.201514
| 12> C        -1.013959   -0.657878    0.000025
| 13> H        -4.574694    0.811243   -0.000004
| 14> H        -3.431722    0.336986    2.137535
| 15> H        -1.150393   -0.605004    2.134191
| 16> H        -3.431730    0.336883   -2.137524
| 17> H        -1.150401   -0.605107   -2.134144
| 18> S         0.621273   -1.363473    0.000039
| 19> B         1.701820    0.073536   -0.000010
| 20> S         3.488617   -0.175835   -0.000021
| 21> S         1.026506    1.742582   -0.000048
| 22> H         3.486921   -1.516509    0.000034
| 23> H         2.200536    2.390338   -0.000088
| 24> *
| 25>
| 26> $new_job
| 27> ! ri-mp2 aug-cc-pvtz aug-cc-pvtz/c tightscf
| 28> %pal nprocs 16 end
| 29> %maxcore 3800
| 30> %base "TZ_B-S_42_AB"
| 31>
| 32> *xyz 0 1
| 33> C        -3.575410    0.396974    0.000004
| 34> C        -2.935290    0.131146    1.198739
| 35> C        -1.656684   -0.398042    1.201554
| 36> C        -2.935294    0.131088   -1.198721
| 37> C        -1.656689   -0.398100   -1.201514
| 38> C        -1.013959   -0.657878    0.000025
| 39> H        -4.574694    0.811243   -0.000004
| 40> H        -3.431722    0.336986    2.137535
| 41> H        -1.150393   -0.605004    2.134191
| 42> H        -3.431730    0.336883   -2.137524
| 43> H        -1.150401   -0.605107   -2.134144
| 44> S         0.621273   -1.363473    0.000039
| 45> B         1.701820    0.073536   -0.000010
| 46> S         3.488617   -0.175835   -0.000021
| 47> S         1.026506    1.742582   -0.000048
| 48> H         3.486921   -1.516509    0.000034
| 49> H         2.200536    2.390338   -0.000088
| 50> *
| 51>
| 52> $new_job
| 53> ! ri-mp2 aug-cc-pvqz aug-cc-pvqz/c tightscf
| 54> %pal nprocs 16 end
| 55> %maxcore 3800
| 56> %base "QZ_B-S_42_AB"
| 57>
| 58> *xyz 0 1
| 59> C        -3.575410    0.396974    0.000004
| 60> C        -2.935290    0.131146    1.198739
| 61> C        -1.656684   -0.398042    1.201554
| 62> C        -2.935294    0.131088   -1.198721
| 63> C        -1.656689   -0.398100   -1.201514
| 64> C        -1.013959   -0.657878    0.000025
| 65> H        -4.574694    0.811243   -0.000004
| 66> H        -3.431722    0.336986    2.137535
| 67> H        -1.150393   -0.605004    2.134191
| 68> H        -3.431730    0.336883   -2.137524
| 69> H        -1.150401   -0.605107   -2.134144
| 70> S         0.621273   -1.363473    0.000039
| 71> B         1.701820    0.073536   -0.000010
| 72> S         3.488617   -0.175835   -0.000021
| 73> S         1.026506    1.742582   -0.000048
| 74> H         3.486921   -1.516509    0.000034
| 75> H         2.200536    2.390338   -0.000088
| 76> *
| 77>
| 78>
| 79>
| 80>
| 81>                          ****END OF INPUT****
 Total Charge           Charge          ....    0
 Multiplicity           Mult            ....    1
 Number of Electrons    NEL             ....   96
MP2 TOTAL ENERGY:    -1450.012870375 Eh
FINAL SINGLE POINT ENERGY     -1450.012870374714
MP2 TOTAL ENERGY:    -1450.387210490 Eh
FINAL SINGLE POINT ENERGY     -1450.387210489605

CARTESIAN COORDINATES (ANGSTROEM)
---------------------------------
  C     -3.575410    0.396974    0.000004
  C     -2.935290    0.131146    1.198739
  C     -1.656684   -0.398042    1.201554
  C     -2.935294    0.131088   -1.198721
  C     -1.656689   -0.398100   -1.201514
  C     -1.013959   -0.657878    0.000025
  H     -4.574694    0.811243   -0.000004
  H     -3.431722    0.336986    2.137535
  H     -1.150393   -0.605004    2.134191
  H     -3.431730    0.336883   -2.137524
  H     -1.150401   -0.605107   -2.134144
  S      0.621273   -1.363473    0.000039
  B      1.701820    0.073536   -0.000010
  S      3.488617   -0.175835   -0.000021
  S      1.026506    1.742582   -0.000048
  H      3.486921   -1.516509    0.000034
  H      2.200536    2.390338   -0.000088

 Multiplicity           Mult            ....    1
 Number of Electrons    NEL             ....   96
 Basis Dimension        Dim             .... 1134

ORBITAL ENERGIES
----------------

  NO   OCC          E(Eh)            E(eV)
   0   2.0000     -91.959328     -2502.3405
   1   2.0000     -91.958577     -2502.3201
   2   2.0000     -91.958276     -2502.3119
   3   2.0000     -11.271817      -306.7217
   4   2.0000     -11.246221      -306.0252
   5   2.0000     -11.246183      -306.0242
   6   2.0000     -11.244544      -305.9796
   7   2.0000     -11.242193      -305.9156
   8   2.0000     -11.241848      -305.9062
   9   2.0000      -8.964290      -243.9307
  10   2.0000      -8.963438      -243.9075
  11   2.0000      -8.962819      -243.8907
  12   2.0000      -7.674814      -208.8423
  13   2.0000      -6.645858      -180.8430
  14   2.0000      -6.644937      -180.8179
  15   2.0000      -6.644933      -180.8178
  16   2.0000      -6.644383      -180.8029
  17   2.0000      -6.644374      -180.8026
  18   2.0000      -6.643982      -180.7919
  19   2.0000      -6.643438      -180.7771
  20   2.0000      -6.643430      -180.7769
  21   2.0000      -6.643108      -180.7682
  22   2.0000      -1.175890       -31.9976
  23   2.0000      -1.069025       -29.0897
  24   2.0000      -1.031503       -28.0686
  25   2.0000      -1.017481       -27.6871
  26   2.0000      -0.966109       -26.2892
  27   2.0000      -0.947162       -25.7736
  28   2.0000      -0.842901       -22.9365
  29   2.0000      -0.815810       -22.1993
  30   2.0000      -0.713674       -19.4201
  31   2.0000      -0.656685       -17.8693
  32   2.0000      -0.644636       -17.5414
  33   2.0000      -0.633943       -17.2505
  34   2.0000      -0.601550       -16.3690
  35   2.0000      -0.595960       -16.2169
  36   2.0000      -0.583084       -15.8665
  37   2.0000      -0.527537       -14.3550
  38   2.0000      -0.520871       -14.1736
  39   2.0000      -0.510244       -13.8844
  40   2.0000      -0.475525       -12.9397
  41   2.0000      -0.458794       -12.4844
  42   2.0000      -0.454993       -12.3810
  43   2.0000      -0.445528       -12.1234
  44   2.0000      -0.375040       -10.2054
  45   2.0000      -0.367769       -10.0075
  46   2.0000      -0.349187        -9.5019
  47   2.0000      -0.344890        -9.3849
  48   0.0000       0.022522         0.6128
  49   0.0000       0.028459         0.7744
  50   0.0000       0.029390         0.7997
  51   0.0000       0.034554         0.9403
  52   0.0000       0.039642         1.0787

MULLIKEN ATOMIC CHARGES
-----------------------
   0 C :   -0.303469
   1 C :   -0.188563
   2 C :   -0.426515
   3 C :   -0.188559
   4 C :   -0.426514
   5 C :    0.050926
   6 H :    0.333266
   7 H :    0.266592
   8 H :    0.393933
   9 H :    0.266594
  10 H :    0.393930
  11 S :   -0.052783
  12 B :   -0.042277
  13 S :   -0.098443
  14 S :    0.075712
  15 H :    0.030671
  16 H :   -0.084502
Sum of atomic charges:    0.0000000

LOEWDIN ATOMIC CHARGES
----------------------
   0 C :    0.337701
   1 C :    0.337484
   2 C :    0.220953
   3 C :    0.337485
   4 C :    0.220951
   5 C :   -0.592593
   6 H :   -0.318115
   7 H :   -0.318403
   8 H :   -0.337792
   9 H :   -0.318404
  10 H :   -0.337791
  11 S :    1.322315
  12 B :   -2.153192
  13 S :    1.581228
  14 S :    1.638452
  15 H :   -0.814480
  16 H :   -0.805800

  Mayer bond orders larger than 0.100000
B(  0-C ,  1-C ) :   1.0855 B(  0-C ,  3-C ) :   1.0855 B(  0-C ,  6-H ) :   0.9841
B(  0-C ,  7-H ) :  -0.1152 B(  0-C ,  9-H ) :  -0.1152 B(  1-C ,  2-C ) :   1.3404
B(  1-C ,  3-C ) :  -0.1722 B(  1-C ,  4-C ) :   0.1558 B(  1-C ,  5-C ) :  -0.2161
B(  1-C ,  7-H ) :   1.0918 B(  2-C ,  3-C ) :   0.1558 B(  2-C ,  5-C ) :   1.1700
B(  2-C ,  7-H ) :  -0.1145 B(  2-C ,  8-H ) :   0.8645 B(  2-C , 11-S ) :  -0.1272
B(  3-C ,  4-C ) :   1.3404 B(  3-C ,  5-C ) :  -0.2161 B(  3-C ,  9-H ) :   1.0918
B(  4-C ,  5-C ) :   1.1700 B(  4-C ,  9-H ) :  -0.1145 B(  4-C , 10-H ) :   0.8645
B(  4-C , 11-S ) :  -0.1272 B(  5-C , 11-S ) :   0.7560 B( 11-S , 12-B ) :   1.3299
B( 12-B , 13-S ) :   1.1040 B( 12-B , 14-S ) :   1.2002 B( 13-S , 15-H ) :   1.0712
B( 14-S , 16-H ) :   1.1206

MP2 TOTAL ENERGY:    -1450.508878466 Eh
FINAL SINGLE POINT ENERGY     -1450.508878466267

DIPOLE MOMENT
-------------
                                X             Y             Z
Electronic contribution:      8.75862      -0.91461      -0.00001
Nuclear contribution   :     -9.28184       1.04944       0.00001
                        -----------------------------------------
Total Dipole Moment    :     -0.52322       0.13483      -0.00000
                        -----------------------------------------
Magnitude (a.u.)       :      0.54032
Magnitude (Debye)      :      1.37337

Rotational constants in cm-1:     0.063237     0.015930     0.014664
Rotational constants in MHz :  1895.791710   477.574981   439.607324

                             ****ORCA TERMINATED NORMALLY****
TOTAL RUN TIME: 0 days 0 hours 47 minutes 45 seconds 711 msec
