                         Program Version 5.0.4 -  RELEASE  -
|  1> ! ri-mp2 aug-cc-pvdz aug-cc-pvdz/c tightscf
|  2> %pal nprocs 16 end
|  3> %maxcore 3800
|  4> %base "DZ_P-S_9_AB"
|  5> %scf
|  6> STABPerform true
|  7> STABRestartUHFifUnstable true
|  8> end
|  9>
| 10> *xyz 0 1
| 11> S        -0.263693   -1.281263   -0.485986
| 12> P        -1.498628    0.282860    0.035632
| 13> O        -1.312918    1.512901   -0.732871
| 14> C         1.216419   -0.328296   -0.967497
| 15> C         2.025308    0.262156    0.180899
| 16> C         2.571534   -0.807556    1.114067
| 17> H         1.771548   -1.405555    1.548465
| 18> H         3.135031   -0.355165    1.930479
| 19> H         3.245595   -1.480295    0.577470
| 20> C         3.146617    1.117573   -0.397532
| 21> H         1.363237    0.916846    0.753302
| 22> H         3.829507    0.510979   -0.997347
| 23> H         3.729202    1.581147    0.399081
| 24> H         2.753045    1.911508   -1.033134
| 25> H         0.886791    0.450181   -1.651602
| 26> H         1.819391   -1.043803   -1.529670
| 27> O        -1.318496    0.444327    1.605651
| 28> H        -1.610076    1.311359    1.915298
| 29> O        -2.952007   -0.363704   -0.037788
| 30> H        -3.316671   -0.351337   -0.930587
| 31> *
| 32>
| 33> $new_job
| 34> ! ri-mp2 aug-cc-pvtz aug-cc-pvtz/c tightscf
| 35> %pal nprocs 16 end
| 36> %maxcore 3800
| 37> %base "TZ_P-S_9_AB"
| 38>
| 39> *xyz 0 1
| 40> S        -0.263693   -1.281263   -0.485986
| 41> P        -1.498628    0.282860    0.035632
| 42> O        -1.312918    1.512901   -0.732871
| 43> C         1.216419   -0.328296   -0.967497
| 44> C         2.025308    0.262156    0.180899
| 45> C         2.571534   -0.807556    1.114067
| 46> H         1.771548   -1.405555    1.548465
| 47> H         3.135031   -0.355165    1.930479
| 48> H         3.245595   -1.480295    0.577470
| 49> C         3.146617    1.117573   -0.397532
| 50> H         1.363237    0.916846    0.753302
| 51> H         3.829507    0.510979   -0.997347
| 52> H         3.729202    1.581147    0.399081
| 53> H         2.753045    1.911508   -1.033134
| 54> H         0.886791    0.450181   -1.651602
| 55> H         1.819391   -1.043803   -1.529670
| 56> O        -1.318496    0.444327    1.605651
| 57> H        -1.610076    1.311359    1.915298
| 58> O        -2.952007   -0.363704   -0.037788
| 59> H        -3.316671   -0.351337   -0.930587
| 60> *
| 61>
| 62> $new_job
| 63> ! ri-mp2 aug-cc-pvqz aug-cc-pvqz/c tightscf
| 64> %pal nprocs 16 end
| 65> %maxcore 3800
| 66> %base "QZ_P-S_9_AB"
| 67>
| 68> *xyz 0 1
| 69> S        -0.263693   -1.281263   -0.485986
| 70> P        -1.498628    0.282860    0.035632
| 71> O        -1.312918    1.512901   -0.732871
| 72> C         1.216419   -0.328296   -0.967497
| 73> C         2.025308    0.262156    0.180899
| 74> C         2.571534   -0.807556    1.114067
| 75> H         1.771548   -1.405555    1.548465
| 76> H         3.135031   -0.355165    1.930479
| 77> H         3.245595   -1.480295    0.577470
| 78> C         3.146617    1.117573   -0.397532
| 79> H         1.363237    0.916846    0.753302
| 80> H         3.829507    0.510979   -0.997347
| 81> H         3.729202    1.581147    0.399081
| 82> H         2.753045    1.911508   -1.033134
| 83> H         0.886791    0.450181   -1.651602
| 84> H         1.819391   -1.043803   -1.529670
| 85> O        -1.318496    0.444327    1.605651
| 86> H        -1.610076    1.311359    1.915298
| 87> O        -2.952007   -0.363704   -0.037788
| 88> H        -3.316671   -0.351337   -0.930587
| 89> *
| 90>
| 91>
| 92>
| 93>
| 94>                          ****END OF INPUT****
 Total Charge           Charge          ....    0
 Multiplicity           Mult            ....    1
 Number of Electrons    NEL             ....   90
MP2 TOTAL ENERGY:    -1122.351791399 Eh
FINAL SINGLE POINT ENERGY     -1122.351791399100
MP2 TOTAL ENERGY:    -1122.825188770 Eh
FINAL SINGLE POINT ENERGY     -1122.825188770298

CARTESIAN COORDINATES (ANGSTROEM)
---------------------------------
  S     -0.263693   -1.281263   -0.485986
  P     -1.498628    0.282860    0.035632
  O     -1.312918    1.512901   -0.732871
  C      1.216419   -0.328296   -0.967497
  C      2.025308    0.262156    0.180899
  C      2.571534   -0.807556    1.114067
  H      1.771548   -1.405555    1.548465
  H      3.135031   -0.355165    1.930479
  H      3.245595   -1.480295    0.577470
  C      3.146617    1.117573   -0.397532
  H      1.363237    0.916846    0.753302
  H      3.829507    0.510979   -0.997347
  H      3.729202    1.581147    0.399081
  H      2.753045    1.911508   -1.033134
  H      0.886791    0.450181   -1.651602
  H      1.819391   -1.043803   -1.529670
  O     -1.318496    0.444327    1.605651
  H     -1.610076    1.311359    1.915298
  O     -2.952007   -0.363704   -0.037788
  H     -3.316671   -0.351337   -0.930587

 Multiplicity           Mult            ....    1
 Number of Electrons    NEL             ....   90
 Basis Dimension        Dim             .... 1234

ORBITAL ENERGIES
----------------

  NO   OCC          E(Eh)            E(eV)
   0   2.0000     -91.962933     -2502.4386
   1   2.0000     -80.088285     -2179.3130
   2   2.0000     -20.605807      -560.7125
   3   2.0000     -20.603999      -560.6633
   4   2.0000     -20.513082      -558.1893
   5   2.0000     -11.264891      -306.5333
   6   2.0000     -11.235225      -305.7260
   7   2.0000     -11.216354      -305.2125
   8   2.0000     -11.212296      -305.1021
   9   2.0000      -8.967178      -244.0093
  10   2.0000      -7.608713      -207.0436
  11   2.0000      -6.648586      -180.9172
  12   2.0000      -6.647676      -180.8925
  13   2.0000      -6.646942      -180.8725
  14   2.0000      -5.506934      -149.8513
  15   2.0000      -5.506639      -149.8433
  16   2.0000      -5.505654      -149.8164
  17   2.0000      -1.444900       -39.3177
  18   2.0000      -1.390847       -37.8469
  19   2.0000      -1.307136       -35.5690
  20   2.0000      -1.113660       -30.3042
  21   2.0000      -1.024272       -27.8718
  22   2.0000      -0.937308       -25.5054
  23   2.0000      -0.906672       -24.6718
  24   2.0000      -0.832958       -22.6659
  25   2.0000      -0.779778       -21.2188
  26   2.0000      -0.746755       -20.3202
  27   2.0000      -0.680186       -18.5088
  28   2.0000      -0.657674       -17.8962
  29   2.0000      -0.651048       -17.7159
  30   2.0000      -0.621895       -16.9226
  31   2.0000      -0.610217       -16.6048
  32   2.0000      -0.586390       -15.9565
  33   2.0000      -0.580940       -15.8082
  34   2.0000      -0.559223       -15.2172
  35   2.0000      -0.556862       -15.1530
  36   2.0000      -0.540918       -14.7191
  37   2.0000      -0.512606       -13.9487
  38   2.0000      -0.503631       -13.7045
  39   2.0000      -0.492459       -13.4005
  40   2.0000      -0.476571       -12.9682
  41   2.0000      -0.473082       -12.8732
  42   2.0000      -0.466368       -12.6905
  43   2.0000      -0.433491       -11.7959
  44   2.0000      -0.378358       -10.2956
  45   0.0000       0.024222         0.6591
  46   0.0000       0.029503         0.8028
  47   0.0000       0.030472         0.8292
  48   0.0000       0.035090         0.9548
  49   0.0000       0.040848         1.1115

MULLIKEN ATOMIC CHARGES
-----------------------
   0 S :   -0.288153
   1 P :    2.437064
   2 O :   -1.197329
   3 C :   -0.485694
   4 C :    0.362837
   5 C :   -0.971736
   6 H :    0.297586
   7 H :    0.274649
   8 H :    0.205493
   9 C :   -0.964045
  10 H :    0.303280
  11 H :    0.187755
  12 H :    0.263718
  13 H :    0.269958
  14 H :    0.302903
  15 H :    0.264261
  16 O :   -0.950838
  17 H :    0.415328
  18 O :   -1.108053
  19 H :    0.381016
Sum of atomic charges:   -0.0000000

LOEWDIN ATOMIC CHARGES
----------------------
   0 S :    1.246371
   1 P :   -1.092336
   2 O :    0.291154
   3 C :    0.100857
   4 C :    0.003848
   5 C :    0.892410
   6 H :   -0.308887
   7 H :   -0.273510
   8 H :   -0.275714
   9 C :    0.920188
  10 H :   -0.313369
  11 H :   -0.273519
  12 H :   -0.272724
  13 H :   -0.271680
  14 H :   -0.390063
  15 H :   -0.361181
  16 O :    1.057565
  17 H :   -0.855093
  18 O :    1.047577
  19 H :   -0.871894

  Mayer bond orders larger than 0.100000
B(  0-S ,  1-P ) :   1.0836 B(  0-S ,  3-C ) :   0.8125 B(  1-P ,  2-O ) :   1.3423
B(  1-P , 16-O ) :   0.6008 B(  1-P , 18-O ) :   0.3638 B(  2-O ,  3-C ) :  -0.1661
B(  3-C ,  4-C ) :   0.6806 B(  3-C , 14-H ) :   0.9079 B(  3-C , 15-H ) :   0.9119
B(  4-C ,  5-C ) :   0.6418 B(  4-C ,  9-C ) :   0.5786 B(  4-C , 10-H ) :   0.8897
B(  5-C ,  6-H ) :   0.9816 B(  5-C ,  7-H ) :   1.0013 B(  5-C ,  8-H ) :   0.9901
B(  5-C ,  9-C ) :   0.1272 B(  9-C , 11-H ) :   1.0262 B(  9-C , 12-H ) :   1.0179
B(  9-C , 13-H ) :   0.9827 B( 16-O , 17-H ) :   0.8924 B( 18-O , 19-H ) :   0.9075

MP2 TOTAL ENERGY:    -1122.975594971 Eh
FINAL SINGLE POINT ENERGY     -1122.975594971223

DIPOLE MOMENT
-------------
                                X             Y             Z
Electronic contribution:    -18.58443      -1.96510      -0.88309
Nuclear contribution   :     18.82739       1.82884       0.96946
                        -----------------------------------------
Total Dipole Moment    :      0.24296      -0.13626       0.08637
                        -----------------------------------------
Magnitude (a.u.)       :      0.29165
Magnitude (Debye)      :      0.74131

Rotational constants in cm-1:     0.069774     0.023589     0.022581
Rotational constants in MHz :  2091.773886   707.176615   676.963965

                             ****ORCA TERMINATED NORMALLY****
TOTAL RUN TIME: 0 days 4 hours 18 minutes 23 seconds 780 msec
