                         Program Version 5.0.4 -  RELEASE  -
|  1> ! ri-mp2 aug-cc-pvdz aug-cc-pvdz/c tightscf
|  2> %pal nprocs 16 end
|  3> %maxcore 3800
|  4> %base "DZ_P-C_48_AB"
|  5>
|  6> *xyz 0 1
|  7> P         0.703501   -0.749365   -0.269712
|  8> C         1.845990    0.571109    0.252930
|  9> H         2.833225    0.117463    0.361254
| 10> H         1.559285    1.041402    1.189731
| 11> H         1.901971    1.325619   -0.528245
| 12> N        -0.895547    0.121714   -0.005842
| 13> O        -0.933028    1.320208   -0.181324
| 14> O        -1.847488   -0.580070    0.255769
| 15> H         0.590022   -1.443774    0.950697
| 16> *
| 17>
| 18> $new_job
| 19> ! ri-mp2 aug-cc-pvtz aug-cc-pvtz/c tightscf
| 20> %pal nprocs 16 end
| 21> %maxcore 3800
| 22> %base "TZ_P-C_48_AB"
| 23>
| 24> *xyz 0 1
| 25> P         0.703501   -0.749365   -0.269712
| 26> C         1.845990    0.571109    0.252930
| 27> H         2.833225    0.117463    0.361254
| 28> H         1.559285    1.041402    1.189731
| 29> H         1.901971    1.325619   -0.528245
| 30> N        -0.895547    0.121714   -0.005842
| 31> O        -0.933028    1.320208   -0.181324
| 32> O        -1.847488   -0.580070    0.255769
| 33> H         0.590022   -1.443774    0.950697
| 34> *
| 35>
| 36> $new_job
| 37> ! ri-mp2 aug-cc-pvqz aug-cc-pvqz/c tightscf
| 38> %pal nprocs 16 end
| 39> %maxcore 3800
| 40> %base "QZ_P-C_48_AB"
| 41>
| 42> *xyz 0 1
| 43> P         0.703501   -0.749365   -0.269712
| 44> C         1.845990    0.571109    0.252930
| 45> H         2.833225    0.117463    0.361254
| 46> H         1.559285    1.041402    1.189731
| 47> H         1.901971    1.325619   -0.528245
| 48> N        -0.895547    0.121714   -0.005842
| 49> O        -0.933028    1.320208   -0.181324
| 50> O        -1.847488   -0.580070    0.255769
| 51> H         0.590022   -1.443774    0.950697
| 52> *
| 53>
| 54>
| 55>
| 56>
| 57>                          ****END OF INPUT****
 Total Charge           Charge          ....    0
 Multiplicity           Mult            ....    1
 Number of Electrons    NEL             ....   48
MP2 TOTAL ENERGY:     -585.883288496 Eh
FINAL SINGLE POINT ENERGY      -585.883288496089
MP2 TOTAL ENERGY:     -586.134160695 Eh
FINAL SINGLE POINT ENERGY      -586.134160695323

CARTESIAN COORDINATES (ANGSTROEM)
---------------------------------
  P      0.703501   -0.749365   -0.269712
  C      1.845990    0.571109    0.252930
  H      2.833225    0.117463    0.361254
  H      1.559285    1.041402    1.189731
  H      1.901971    1.325619   -0.528245
  N     -0.895547    0.121714   -0.005842
  O     -0.933028    1.320208   -0.181324
  O     -1.847488   -0.580070    0.255769
  H      0.590022   -1.443774    0.950697

 Multiplicity           Mult            ....    1
 Number of Electrons    NEL             ....   48
 Basis Dimension        Dim             ....  588

ORBITAL ENERGIES
----------------

  NO   OCC          E(Eh)            E(eV)
   0   2.0000     -80.013189     -2177.2696
   1   2.0000     -20.602607      -560.6254
   2   2.0000     -20.600974      -560.5810
   3   2.0000     -15.832634      -430.8279
   4   2.0000     -11.259124      -306.3763
   5   2.0000      -7.553131      -205.5311
   6   2.0000      -5.446977      -148.2198
   7   2.0000      -5.445939      -148.1915
   8   2.0000      -5.444957      -148.1648
   9   2.0000      -1.607924       -43.7538
  10   2.0000      -1.405529       -38.2464
  11   2.0000      -1.045667       -28.4541
  12   2.0000      -0.957327       -26.0502
  13   2.0000      -0.817184       -22.2367
  14   2.0000      -0.728951       -19.8358
  15   2.0000      -0.723535       -19.6884
  16   2.0000      -0.714597       -19.4452
  17   2.0000      -0.614973       -16.7343
  18   2.0000      -0.599551       -16.3146
  19   2.0000      -0.542587       -14.7645
  20   2.0000      -0.495131       -13.4732
  21   2.0000      -0.473241       -12.8776
  22   2.0000      -0.457415       -12.4469
  23   2.0000      -0.411779       -11.2051
  24   0.0000       0.018086         0.4921
  25   0.0000       0.034100         0.9279
  26   0.0000       0.036989         1.0065
  27   0.0000       0.041133         1.1193
  28   0.0000       0.059971         1.6319

MULLIKEN ATOMIC CHARGES
-----------------------
   0 P :    0.712185
   1 C :   -1.041080
   2 H :    0.349747
   3 H :    0.284472
   4 H :    0.283942
   5 N :    0.599108
   6 O :   -0.576365
   7 O :   -0.567006
   8 H :   -0.045003
Sum of atomic charges:   -0.0000000

LOEWDIN ATOMIC CHARGES
----------------------
   0 P :    1.090981
   1 C :    0.712869
   2 H :   -0.370344
   3 H :   -0.356462
   4 H :   -0.374411
   5 N :   -1.104681
   6 O :    0.430559
   7 O :    0.413434
   8 H :   -0.441945

  Mayer bond orders larger than 0.100000
B(  0-P ,  1-C ) :   0.9454 B(  0-P ,  5-N ) :   0.6188 B(  0-P ,  8-H ) :   0.9327
B(  1-C ,  2-H ) :   0.8739 B(  1-C ,  3-H ) :   0.9078 B(  1-C ,  4-H ) :   0.9125
B(  5-N ,  6-O ) :   1.3435 B(  5-N ,  7-O ) :   1.3532 B(  6-O ,  7-O ) :   0.1532

MP2 TOTAL ENERGY:     -586.216952385 Eh
FINAL SINGLE POINT ENERGY      -586.216952384874

DIPOLE MOMENT
-------------
                                X             Y             Z
Electronic contribution:     -4.18716      -2.06149      -1.91941
Nuclear contribution   :      5.97490       1.71217       2.16249
                        -----------------------------------------
Total Dipole Moment    :      1.78774      -0.34932       0.24308
                        -----------------------------------------
Magnitude (a.u.)       :      1.83770
Magnitude (Debye)      :      4.67106

Rotational constants in cm-1:     0.252450     0.106937     0.080288
Rotational constants in MHz :  7568.271482  3205.901621  2406.971395

                             ****ORCA TERMINATED NORMALLY****
TOTAL RUN TIME: 0 days 0 hours 4 minutes 37 seconds 732 msec
