                         Program Version 5.0.4 -  RELEASE  -
|  1> ! ri-mp2 aug-cc-pvdz aug-cc-pvdz/c tightscf
|  2> %pal nprocs 16 end
|  3> %maxcore 3800
|  4> %base "DZ_Si-Cl_14_A"
|  5> %scf
|  6> STABPerform true
|  7> STABRestartUHFifUnstable true
|  8> end
|  9>
| 10> *xyz 0 2
| 11> Si        -2.608350   -0.492518    0.198268
| 12> C        -0.864543   -0.909378   -0.369061
| 13> C         0.217418    0.002097    0.216930
| 14> H        -0.831335   -0.866409   -1.461720
| 15> H        -0.654421   -1.949017   -0.103016
| 16> C        -3.098576    1.256924   -0.269921
| 17> H        -2.439391    1.985379    0.208738
| 18> H        -4.119280    1.475636    0.043352
| 19> H        -3.038020    1.406041   -1.348509
| 20> C         1.623129   -0.370269   -0.233525
| 21> H         0.172028   -0.028487    1.309801
| 22> H         0.018564    1.040496   -0.064139
| 23> C         2.701628    0.534581    0.342537
| 24> H         1.670060   -0.341013   -1.327045
| 25> H         1.828817   -1.407344    0.050717
| 26> C         4.101921    0.154586   -0.112471
| 27> H         2.650084    0.504424    1.434810
| 28> H         2.491952    1.569846    0.057843
| 29> H         4.348478   -0.865626    0.187736
| 30> H         4.855606    0.817408    0.313726
| 31> H         4.189084    0.207483   -1.199400
| 32> H        -2.711193   -0.664817    1.674414
| 33> *
| 34>
| 35> $new_job
| 36> ! ri-mp2 aug-cc-pvtz aug-cc-pvtz/c tightscf
| 37> %pal nprocs 16 end
| 38> %maxcore 3800
| 39> %base "TZ_Si-Cl_14_A"
| 40>
| 41> *xyz 0 2
| 42> Si        -2.608350   -0.492518    0.198268
| 43> C        -0.864543   -0.909378   -0.369061
| 44> C         0.217418    0.002097    0.216930
| 45> H        -0.831335   -0.866409   -1.461720
| 46> H        -0.654421   -1.949017   -0.103016
| 47> C        -3.098576    1.256924   -0.269921
| 48> H        -2.439391    1.985379    0.208738
| 49> H        -4.119280    1.475636    0.043352
| 50> H        -3.038020    1.406041   -1.348509
| 51> C         1.623129   -0.370269   -0.233525
| 52> H         0.172028   -0.028487    1.309801
| 53> H         0.018564    1.040496   -0.064139
| 54> C         2.701628    0.534581    0.342537
| 55> H         1.670060   -0.341013   -1.327045
| 56> H         1.828817   -1.407344    0.050717
| 57> C         4.101921    0.154586   -0.112471
| 58> H         2.650084    0.504424    1.434810
| 59> H         2.491952    1.569846    0.057843
| 60> H         4.348478   -0.865626    0.187736
| 61> H         4.855606    0.817408    0.313726
| 62> H         4.189084    0.207483   -1.199400
| 63> H        -2.711193   -0.664817    1.674414
| 64> *
| 65>
| 66> $new_job
| 67> ! ri-mp2 aug-cc-pvqz aug-cc-pvqz/c tightscf
| 68> %pal nprocs 16 end
| 69> %maxcore 3800
| 70> %base "QZ_Si-Cl_14_A"
| 71>
| 72> *xyz 0 2
| 73> Si        -2.608350   -0.492518    0.198268
| 74> C        -0.864543   -0.909378   -0.369061
| 75> C         0.217418    0.002097    0.216930
| 76> H        -0.831335   -0.866409   -1.461720
| 77> H        -0.654421   -1.949017   -0.103016
| 78> C        -3.098576    1.256924   -0.269921
| 79> H        -2.439391    1.985379    0.208738
| 80> H        -4.119280    1.475636    0.043352
| 81> H        -3.038020    1.406041   -1.348509
| 82> C         1.623129   -0.370269   -0.233525
| 83> H         0.172028   -0.028487    1.309801
| 84> H         0.018564    1.040496   -0.064139
| 85> C         2.701628    0.534581    0.342537
| 86> H         1.670060   -0.341013   -1.327045
| 87> H         1.828817   -1.407344    0.050717
| 88> C         4.101921    0.154586   -0.112471
| 89> H         2.650084    0.504424    1.434810
| 90> H         2.491952    1.569846    0.057843
| 91> H         4.348478   -0.865626    0.187736
| 92> H         4.855606    0.817408    0.313726
| 93> H         4.189084    0.207483   -1.199400
| 94> H        -2.711193   -0.664817    1.674414
| 95> *
| 96>
| 97>
| 98>
| 99>
|100>                          ****END OF INPUT****
 Total Charge           Charge          ....    0
 Multiplicity           Mult            ....    2
 Number of Electrons    NEL             ....   65
MP2 TOTAL ENERGY:     -525.867259224 Eh
FINAL SINGLE POINT ENERGY      -525.867259224273
MP2 TOTAL ENERGY:     -526.134472788 Eh
FINAL SINGLE POINT ENERGY      -526.134472787914

CARTESIAN COORDINATES (ANGSTROEM)
---------------------------------
  Si    -2.608350   -0.492518    0.198268
  C     -0.864543   -0.909378   -0.369061
  C      0.217418    0.002097    0.216930
  H     -0.831335   -0.866409   -1.461720
  H     -0.654421   -1.949017   -0.103016
  C     -3.098576    1.256924   -0.269921
  H     -2.439391    1.985379    0.208738
  H     -4.119280    1.475636    0.043352
  H     -3.038020    1.406041   -1.348509
  C      1.623129   -0.370269   -0.233525
  H      0.172028   -0.028487    1.309801
  H      0.018564    1.040496   -0.064139
  C      2.701628    0.534581    0.342537
  H      1.670060   -0.341013   -1.327045
  H      1.828817   -1.407344    0.050717
  C      4.101921    0.154586   -0.112471
  H      2.650084    0.504424    1.434810
  H      2.491952    1.569846    0.057843
  H      4.348478   -0.865626    0.187736
  H      4.855606    0.817408    0.313726
  H      4.189084    0.207483   -1.199400
  H     -2.711193   -0.664817    1.674414

 Multiplicity           Mult            ....    2
 Number of Electrons    NEL             ....   65
 Basis Dimension        Dim             .... 1254

ORBITAL ENERGIES
----------------
                 SPIN UP ORBITALS
  NO   OCC          E(Eh)            E(eV)
   0   1.0000     -68.759565     -1871.0429
   1   1.0000     -11.220828      -305.3342
   2   1.0000     -11.214367      -305.1584
   3   1.0000     -11.212710      -305.1134
   4   1.0000     -11.208672      -305.0035
   5   1.0000     -11.205519      -304.9177
   6   1.0000     -11.203576      -304.8648
   7   1.0000      -6.110000      -166.2615
   8   1.0000      -4.222731      -114.9063
   9   1.0000      -4.213004      -114.6417
  10   1.0000      -4.212688      -114.6331
  11   1.0000      -1.085186       -29.5294
  12   1.0000      -1.019490       -27.7417
  13   1.0000      -0.948274       -25.8039
  14   1.0000      -0.917798       -24.9745
  15   1.0000      -0.823567       -22.4104
  16   1.0000      -0.789482       -21.4829
  17   1.0000      -0.664067       -18.0702
  18   1.0000      -0.651283       -17.7223
  19   1.0000      -0.600079       -16.3290
  20   1.0000      -0.587867       -15.9967
  21   1.0000      -0.566121       -15.4049
  22   1.0000      -0.558300       -15.1921
  23   1.0000      -0.555050       -15.1037
  24   1.0000      -0.531205       -14.4548
  25   1.0000      -0.510458       -13.8903
  26   1.0000      -0.487012       -13.2523
  27   1.0000      -0.481905       -13.1133
  28   1.0000      -0.464530       -12.6405
  29   1.0000      -0.462314       -12.5802
  30   1.0000      -0.449633       -12.2351
  31   1.0000      -0.417485       -11.3604
  32   1.0000      -0.305275        -8.3070
  33   0.0000       0.022804         0.6205
  34   0.0000       0.028734         0.7819
  35   0.0000       0.031076         0.8456
  36   0.0000       0.032326         0.8796
  37   0.0000       0.040857         1.1118

                 SPIN DOWN ORBITALS
  NO   OCC          E(Eh)            E(eV)
   0   1.0000     -68.754055     -1870.8929
   1   1.0000     -11.219929      -305.3098
   2   1.0000     -11.214317      -305.1571
   3   1.0000     -11.212475      -305.1069
   4   1.0000     -11.208650      -305.0029
   5   1.0000     -11.204844      -304.8993
   6   1.0000     -11.202950      -304.8478
   7   1.0000      -6.101531      -166.0311
   8   1.0000      -4.209390      -114.5433
   9   1.0000      -4.209031      -114.5336
  10   1.0000      -4.200897      -114.3122
  11   1.0000      -1.083784       -29.4913
  12   1.0000      -1.017130       -27.6775
  13   1.0000      -0.942541       -25.6479
  14   1.0000      -0.915894       -24.9227
  15   1.0000      -0.821037       -22.3416
  16   1.0000      -0.788944       -21.4683
  17   1.0000      -0.651703       -17.7337
  18   1.0000      -0.631398       -17.1812
  19   1.0000      -0.599326       -16.3085
  20   1.0000      -0.582494       -15.8505
  21   1.0000      -0.559892       -15.2354
  22   1.0000      -0.556704       -15.1487
  23   1.0000      -0.548488       -14.9251
  24   1.0000      -0.530513       -14.4360
  25   1.0000      -0.507954       -13.8221
  26   1.0000      -0.483463       -13.1557
  27   1.0000      -0.481137       -13.0924
  28   1.0000      -0.463017       -12.5993
  29   1.0000      -0.462153       -12.5758
  30   1.0000      -0.441802       -12.0220
  31   1.0000      -0.409484       -11.1426
  32   0.0000       0.022078         0.6008
  33   0.0000       0.027557         0.7499
  34   0.0000       0.030970         0.8427
  35   0.0000       0.032449         0.8830
  36   0.0000       0.040440         1.1004

MULLIKEN ATOMIC CHARGES AND SPIN POPULATIONS
--------------------------------------------
   0 Si:    0.614428    1.020570
   1 C :   -0.741053   -0.066003
   2 C :   -0.327959    0.028249
   3 H :    0.215718    0.007729
   4 H :    0.259283   -0.003550
   5 C :   -1.129905   -0.007353
   6 H :    0.256350    0.023697
   7 H :    0.326879   -0.009467
   8 H :    0.237847   -0.001497
   9 C :   -0.260055    0.001356
  10 H :    0.255590   -0.000355
  11 H :    0.225158    0.001159
  12 C :   -0.456913    0.000302
  13 H :    0.220709   -0.001500
  14 H :    0.273568   -0.000829
  15 C :   -0.895650    0.000651
  16 H :    0.230357   -0.000261
  17 H :    0.224976   -0.000186
  18 H :    0.226225    0.000071
  19 H :    0.267200    0.000264
  20 H :    0.224057    0.000073
  21 H :   -0.246809    0.006882
Sum of atomic charges         :    0.0000000

LOEWDIN ATOMIC CHARGES AND SPIN POPULATIONS
-------------------------------------------
   0 Si:    0.852831    0.516032
   1 C :    0.479629    0.126550
   2 C :    0.435668    0.018152
   3 H :   -0.346466    0.013914
   4 H :   -0.353175    0.015045
   5 C :    0.873163    0.130990
   6 H :   -0.363659    0.016872
   7 H :   -0.377577    0.014589
   8 H :   -0.367904    0.012847
   9 C :    0.502451    0.004028
  10 H :   -0.279300    0.005817
  11 H :   -0.286838    0.003457
  12 C :    0.504437    0.000966
  13 H :   -0.266945    0.000330
  14 H :   -0.267413    0.000295
  15 C :    0.925385    0.000338
  16 H :   -0.270724    0.000067
  17 H :   -0.270873    0.000098
  18 H :   -0.284307    0.000053
  19 H :   -0.283328    0.000139
  20 H :   -0.284363    0.000062
  21 H :   -0.270692    0.119359

  Mayer bond orders larger than 0.100000
B(  0-Si,  1-C ) :   0.8800 B(  0-Si,  2-C ) :  -0.1268 B(  0-Si,  5-C ) :   0.7851
B(  0-Si, 21-H ) :   0.8753 B(  1-C ,  2-C ) :   0.8942 B(  1-C ,  3-H ) :   0.9155
B(  1-C ,  4-H ) :   0.9310 B(  2-C ,  9-C ) :   1.0186 B(  2-C , 10-H ) :   0.8291
B(  2-C , 11-H ) :   0.8822 B(  5-C ,  6-H ) :   0.9199 B(  5-C ,  7-H ) :   0.9438
B(  5-C ,  8-H ) :   0.9533 B(  9-C , 12-C ) :   0.9212 B(  9-C , 13-H ) :   0.8670
B(  9-C , 14-H ) :   0.8372 B(  9-C , 15-C ) :  -0.1011 B( 12-C , 15-C ) :   1.0209
B( 12-C , 16-H ) :   0.8737 B( 12-C , 17-H ) :   0.8800 B( 12-C , 19-H ) :  -0.1071
B( 15-C , 18-H ) :   0.9568 B( 15-C , 19-H ) :   1.0274 B( 15-C , 20-H ) :   0.9518

MP2 TOTAL ENERGY:     -526.214244360 Eh
FINAL SINGLE POINT ENERGY      -526.214244360084

DIPOLE MOMENT
-------------
                                X             Y             Z
Electronic contribution:     -8.84187      -2.87142       0.11172
Nuclear contribution   :      9.09628       3.08586      -0.24858
                        -----------------------------------------
Total Dipole Moment    :      0.25441       0.21444      -0.13686
                        -----------------------------------------
Magnitude (a.u.)       :      0.35978
Magnitude (Debye)      :      0.91448

Rotational constants in cm-1:     0.205649     0.021661     0.020574
Rotational constants in MHz :  6165.193707   649.370270   616.801369

                             ****ORCA TERMINATED NORMALLY****
TOTAL RUN TIME: 0 days 7 hours 13 minutes 35 seconds 157 msec
