                         Program Version 5.0.4 -  RELEASE  -
|  1> ! ri-mp2 aug-cc-pvdz aug-cc-pvdz/c tightscf
|  2> %pal nprocs 16 end
|  3> %maxcore 3800
|  4> %base "DZ_P-Si_30_AB"
|  5>
|  6> *xyz 0 1
|  7> P        -0.125345    0.541485   -0.746912
|  8> Si        -1.840257   -0.542105    0.257757
|  9> N         1.180885   -0.520640   -0.013699
| 10> O         1.005711   -1.720673   -0.114792
| 11> O         2.161454   -0.000421    0.467594
| 12> C         0.064713    2.013803    0.324358
| 13> H        -0.755682    2.693074    0.087032
| 14> H         1.000834    2.510798    0.080549
| 15> H         0.047994    1.785747    1.387893
| 16> H        -2.163652   -1.764350   -0.494317
| 17> H        -2.972764    0.408640    0.196467
| 18> H        -1.504755   -0.836312    1.664789
| 19> *
| 20>
| 21> $new_job
| 22> ! ri-mp2 aug-cc-pvtz aug-cc-pvtz/c tightscf
| 23> %pal nprocs 16 end
| 24> %maxcore 3800
| 25> %base "TZ_P-Si_30_AB"
| 26>
| 27> *xyz 0 1
| 28> P        -0.125345    0.541485   -0.746912
| 29> Si        -1.840257   -0.542105    0.257757
| 30> N         1.180885   -0.520640   -0.013699
| 31> O         1.005711   -1.720673   -0.114792
| 32> O         2.161454   -0.000421    0.467594
| 33> C         0.064713    2.013803    0.324358
| 34> H        -0.755682    2.693074    0.087032
| 35> H         1.000834    2.510798    0.080549
| 36> H         0.047994    1.785747    1.387893
| 37> H        -2.163652   -1.764350   -0.494317
| 38> H        -2.972764    0.408640    0.196467
| 39> H        -1.504755   -0.836312    1.664789
| 40> *
| 41>
| 42> $new_job
| 43> ! ri-mp2 aug-cc-pvqz aug-cc-pvqz/c tightscf
| 44> %pal nprocs 16 end
| 45> %maxcore 3800
| 46> %base "QZ_P-Si_30_AB"
| 47>
| 48> *xyz 0 1
| 49> P        -0.125345    0.541485   -0.746912
| 50> Si        -1.840257   -0.542105    0.257757
| 51> N         1.180885   -0.520640   -0.013699
| 52> O         1.005711   -1.720673   -0.114792
| 53> O         2.161454   -0.000421    0.467594
| 54> C         0.064713    2.013803    0.324358
| 55> H        -0.755682    2.693074    0.087032
| 56> H         1.000834    2.510798    0.080549
| 57> H         0.047994    1.785747    1.387893
| 58> H        -2.163652   -1.764350   -0.494317
| 59> H        -2.972764    0.408640    0.196467
| 60> H        -1.504755   -0.836312    1.664789
| 61> *
| 62>
| 63>
| 64>
| 65>
| 66>                          ****END OF INPUT****
 Total Charge           Charge          ....    0
 Multiplicity           Mult            ....    1
 Number of Electrons    NEL             ....   64
MP2 TOTAL ENERGY:     -876.092000667 Eh
FINAL SINGLE POINT ENERGY      -876.092000666690
MP2 TOTAL ENERGY:     -876.377793190 Eh
FINAL SINGLE POINT ENERGY      -876.377793189581

CARTESIAN COORDINATES (ANGSTROEM)
---------------------------------
  P     -0.125345    0.541485   -0.746912
  Si    -1.840257   -0.542105    0.257757
  N      1.180885   -0.520640   -0.013699
  O      1.005711   -1.720673   -0.114792
  O      2.161454   -0.000421    0.467594
  C      0.064713    2.013803    0.324358
  H     -0.755682    2.693074    0.087032
  H      1.000834    2.510798    0.080549
  H      0.047994    1.785747    1.387893
  H     -2.163652   -1.764350   -0.494317
  H     -2.972764    0.408640    0.196467
  H     -1.504755   -0.836312    1.664789

 Multiplicity           Mult            ....    1
 Number of Electrons    NEL             ....   64
 Basis Dimension        Dim             ....  764

ORBITAL ENERGIES
----------------

  NO   OCC          E(Eh)            E(eV)
   0   2.0000     -79.996837     -2176.8246
   1   2.0000     -68.801653     -1872.1882
   2   2.0000     -20.602938      -560.6344
   3   2.0000     -20.597990      -560.4998
   4   2.0000     -15.832216      -430.8165
   5   2.0000     -11.258121      -306.3491
   6   2.0000      -7.538078      -205.1215
   7   2.0000      -6.151460      -167.3897
   8   2.0000      -5.432053      -147.8137
   9   2.0000      -5.430751      -147.7783
  10   2.0000      -5.430109      -147.7608
  11   2.0000      -4.257841      -115.8618
  12   2.0000      -4.257412      -115.8501
  13   2.0000      -4.257173      -115.8436
  14   2.0000      -1.606010       -43.7018
  15   2.0000      -1.403295       -38.1856
  16   2.0000      -1.040021       -28.3004
  17   2.0000      -0.955595       -26.0031
  18   2.0000      -0.819110       -22.2891
  19   2.0000      -0.755742       -20.5648
  20   2.0000      -0.725401       -19.7392
  21   2.0000      -0.714794       -19.4505
  22   2.0000      -0.673632       -18.3305
  23   2.0000      -0.605353       -16.4725
  24   2.0000      -0.596804       -16.2399
  25   2.0000      -0.526058       -14.3148
  26   2.0000      -0.515470       -14.0267
  27   2.0000      -0.499646       -13.5961
  28   2.0000      -0.476680       -12.9711
  29   2.0000      -0.458706       -12.4820
  30   2.0000      -0.454154       -12.3581
  31   2.0000      -0.385361       -10.4862
  32   0.0000       0.018911         0.5146
  33   0.0000       0.028856         0.7852
  34   0.0000       0.031513         0.8575
  35   0.0000       0.038833         1.0567
  36   0.0000       0.047484         1.2921

MULLIKEN ATOMIC CHARGES
-----------------------
   0 P :    0.601701
   1 Si:    0.554630
   2 N :    0.649739
   3 O :   -0.619485
   4 O :   -0.597763
   5 C :   -1.143603
   6 H :    0.350548
   7 H :    0.374188
   8 H :    0.306595
   9 H :   -0.147596
  10 H :   -0.199625
  11 H :   -0.129329
Sum of atomic charges:    0.0000000

LOEWDIN ATOMIC CHARGES
----------------------
   0 P :    0.676422
   1 Si:    0.880150
   2 N :   -1.124665
   3 O :    0.417755
   4 O :    0.445895
   5 C :    0.678759
   6 H :   -0.369836
   7 H :   -0.370798
   8 H :   -0.358247
   9 H :   -0.298728
  10 H :   -0.299516
  11 H :   -0.277191

  Mayer bond orders larger than 0.100000
B(  0-P ,  1-Si) :   0.7709 B(  0-P ,  2-N ) :   0.6186 B(  0-P ,  5-C ) :   0.9086
B(  1-Si,  9-H ) :   0.7533 B(  1-Si, 10-H ) :   0.7495 B(  1-Si, 11-H ) :   0.7498
B(  2-N ,  3-O ) :   1.2728 B(  2-N ,  4-O ) :   1.2938 B(  3-O ,  4-O ) :   0.1302
B(  5-C ,  6-H ) :   0.8841 B(  5-C ,  7-H ) :   0.8477 B(  5-C ,  8-H ) :   0.9039

MP2 TOTAL ENERGY:     -876.472232506 Eh
FINAL SINGLE POINT ENERGY      -876.472232506271

DIPOLE MOMENT
-------------
                                X             Y             Z
Electronic contribution:      4.53541      -3.03058      -3.50810
Nuclear contribution   :     -5.91599       4.18276       3.53743
                        -----------------------------------------
Total Dipole Moment    :     -1.38058       1.15218       0.02933
                        -----------------------------------------
Magnitude (a.u.)       :      1.79844
Magnitude (Debye)      :      4.57128

Rotational constants in cm-1:     0.101080     0.066765     0.046649
Rotational constants in MHz :  3030.312648  2001.573059  1398.507078

                             ****ORCA TERMINATED NORMALLY****
TOTAL RUN TIME: 0 days 0 hours 11 minutes 16 seconds 709 msec
