                         Program Version 5.0.4 -  RELEASE  -
|  1> ! ri-mp2 aug-cc-pvdz aug-cc-pvdz/c tightscf
|  2> %pal nprocs 16 end
|  3> %maxcore 3800
|  4> %base "DZ_B-P_22_A"
|  5> %scf
|  6> STABPerform true
|  7> STABRestartUHFifUnstable true
|  8> end
|  9>
| 10> *xyz 0 2
| 11> B         0.086207   -0.550062    0.000001
| 12> N         1.299455    0.102715   -0.000002
| 13> C        -1.331543    0.093234    0.000001
| 14> H        -1.302371    1.189609   -0.000013
| 15> H        -1.902417   -0.228957    0.873014
| 16> H        -1.902432   -0.228979   -0.872993
| 17> H         2.186057   -0.371319   -0.000001
| 18> H         1.383199    1.111550   -0.000006
| 19> *
| 20>
| 21> $new_job
| 22> ! ri-mp2 aug-cc-pvtz aug-cc-pvtz/c tightscf
| 23> %pal nprocs 16 end
| 24> %maxcore 3800
| 25> %base "TZ_B-P_22_A"
| 26>
| 27> *xyz 0 2
| 28> B         0.086207   -0.550062    0.000001
| 29> N         1.299455    0.102715   -0.000002
| 30> C        -1.331543    0.093234    0.000001
| 31> H        -1.302371    1.189609   -0.000013
| 32> H        -1.902417   -0.228957    0.873014
| 33> H        -1.902432   -0.228979   -0.872993
| 34> H         2.186057   -0.371319   -0.000001
| 35> H         1.383199    1.111550   -0.000006
| 36> *
| 37>
| 38> $new_job
| 39> ! ri-mp2 aug-cc-pvqz aug-cc-pvqz/c tightscf
| 40> %pal nprocs 16 end
| 41> %maxcore 3800
| 42> %base "QZ_B-P_22_A"
| 43>
| 44> *xyz 0 2
| 45> B         0.086207   -0.550062    0.000001
| 46> N         1.299455    0.102715   -0.000002
| 47> C        -1.331543    0.093234    0.000001
| 48> H        -1.302371    1.189609   -0.000013
| 49> H        -1.902417   -0.228957    0.873014
| 50> H        -1.902432   -0.228979   -0.872993
| 51> H         2.186057   -0.371319   -0.000001
| 52> H         1.383199    1.111550   -0.000006
| 53> *
| 54>
| 55>
| 56>
| 57>
| 58>                          ****END OF INPUT****
 Total Charge           Charge          ....    0
 Multiplicity           Mult            ....    2
 Number of Electrons    NEL             ....   23
MP2 TOTAL ENERGY:     -120.318346712 Eh
FINAL SINGLE POINT ENERGY      -120.318346712045
MP2 TOTAL ENERGY:     -120.429629650 Eh
FINAL SINGLE POINT ENERGY      -120.429629649761

CARTESIAN COORDINATES (ANGSTROEM)
---------------------------------
  B      0.086207   -0.550062    0.000001
  N      1.299455    0.102715   -0.000002
  C     -1.331543    0.093234    0.000001
  H     -1.302371    1.189609   -0.000013
  H     -1.902417   -0.228957    0.873014
  H     -1.902432   -0.228979   -0.872993
  H      2.186057   -0.371319   -0.000001
  H      1.383199    1.111550   -0.000006

 Multiplicity           Mult            ....    2
 Number of Electrons    NEL             ....   23
 Basis Dimension        Dim             ....  470

ORBITAL ENERGIES
----------------
                 SPIN UP ORBITALS
  NO   OCC          E(Eh)            E(eV)
   0   1.0000     -15.553825      -423.2411
   1   1.0000     -11.192034      -304.5507
   2   1.0000      -7.598564      -206.7674
   3   1.0000      -1.164047       -31.6753
   4   1.0000      -0.944343       -25.6969
   5   1.0000      -0.701928       -19.1004
   6   1.0000      -0.683937       -18.6109
   7   1.0000      -0.556956       -15.1555
   8   1.0000      -0.547006       -14.8848
   9   1.0000      -0.511937       -13.9305
  10   1.0000      -0.433805       -11.8044
  11   1.0000      -0.304676        -8.2906
  12   0.0000       0.023222         0.6319
  13   0.0000       0.035453         0.9647
  14   0.0000       0.036869         1.0033
  15   0.0000       0.038539         1.0487
  16   0.0000       0.053824         1.4646

                 SPIN DOWN ORBITALS
  NO   OCC          E(Eh)            E(eV)
   0   1.0000     -15.555345      -423.2824
   1   1.0000     -11.191093      -304.5251
   2   1.0000      -7.580665      -206.2804
   3   1.0000      -1.161749       -31.6128
   4   1.0000      -0.937089       -25.4995
   5   1.0000      -0.684016       -18.6130
   6   1.0000      -0.669902       -18.2289
   7   1.0000      -0.544739       -14.8231
   8   1.0000      -0.540213       -14.7000
   9   1.0000      -0.496610       -13.5134
  10   1.0000      -0.442105       -12.0303
  11   0.0000       0.020783         0.5655
  12   0.0000       0.035919         0.9774
  13   0.0000       0.036715         0.9991
  14   0.0000       0.038839         1.0569
  15   0.0000       0.053936         1.4677

MULLIKEN ATOMIC CHARGES AND SPIN POPULATIONS
--------------------------------------------
   0 B :    0.336478    1.035013
   1 N :   -0.689389   -0.046331
   2 C :   -0.964048   -0.061649
   3 H :    0.271984    0.044995
   4 H :    0.273023   -0.013824
   5 H :    0.273024   -0.013824
   6 H :    0.240316    0.005138
   7 H :    0.258611    0.050481
Sum of atomic charges         :    0.0000000

LOEWDIN ATOMIC CHARGES AND SPIN POPULATIONS
-------------------------------------------
   0 B :   -0.177495    0.535480
   1 N :    1.294700    0.160756
   2 C :    0.970991    0.164770
   3 H :   -0.330756    0.024247
   4 H :   -0.345496    0.024810
   5 H :   -0.345497    0.024810
   6 H :   -0.546378    0.043022
   7 H :   -0.520069    0.022105

  Mayer bond orders larger than 0.100000
B(  0-B ,  1-N ) :   1.3200 B(  0-B ,  2-C ) :   0.9021 B(  1-N ,  6-H ) :   0.9723
B(  1-N ,  7-H ) :   0.9445 B(  2-C ,  3-H ) :   0.9019 B(  2-C ,  4-H ) :   0.9320
B(  2-C ,  5-H ) :   0.9320

MP2 TOTAL ENERGY:     -120.464365496 Eh
FINAL SINGLE POINT ENERGY      -120.464365495829

DIPOLE MOMENT
-------------
                                X             Y             Z
Electronic contribution:      2.04998      -1.45179      -0.00000
Nuclear contribution   :     -1.65053       1.97650       0.00000
                        -----------------------------------------
Total Dipole Moment    :      0.39944       0.52471      -0.00000
                        -----------------------------------------
Magnitude (a.u.)       :      0.65945
Magnitude (Debye)      :      1.67619

Rotational constants in cm-1:     2.136741     0.270781     0.251336
Rotational constants in MHz : 64057.879011  8117.802113  7534.858328

                             ****ORCA TERMINATED NORMALLY****
TOTAL RUN TIME: 0 days 0 hours 16 minutes 6 seconds 99 msec
