                         Program Version 5.0.4 -  RELEASE  -
|  1> ! ri-mp2 aug-cc-pvdz aug-cc-pvdz/c tightscf
|  2> %pal nprocs 16 end
|  3> %maxcore 3800
|  4> %base "DZ_P-O_3_AB"
|  5> %scf
|  6> STABPerform true
|  7> STABRestartUHFifUnstable true
|  8> end
|  9>
| 10> *xyz 0 1
| 11> Cl         2.044297    0.000001   -0.005056
| 12> O         0.610708    0.000030   -0.886554
| 13> P        -0.780924    0.000001   -0.065410
| 14> O        -0.684546   -1.198336    0.950415
| 15> O        -1.866513    0.000039   -1.028087
| 16> O        -0.684548    1.198266    0.950499
| 17> H        -1.019996    2.026448    0.588530
| 18> H        -1.019994   -2.026492    0.588389
| 19> *
| 20>
| 21> $new_job
| 22> ! ri-mp2 aug-cc-pvtz aug-cc-pvtz/c tightscf
| 23> %pal nprocs 16 end
| 24> %maxcore 3800
| 25> %base "TZ_P-O_3_AB"
| 26>
| 27> *xyz 0 1
| 28> Cl         2.044297    0.000001   -0.005056
| 29> O         0.610708    0.000030   -0.886554
| 30> P        -0.780924    0.000001   -0.065410
| 31> O        -0.684546   -1.198336    0.950415
| 32> O        -1.866513    0.000039   -1.028087
| 33> O        -0.684548    1.198266    0.950499
| 34> H        -1.019996    2.026448    0.588530
| 35> H        -1.019994   -2.026492    0.588389
| 36> *
| 37>
| 38> $new_job
| 39> ! ri-mp2 aug-cc-pvqz aug-cc-pvqz/c tightscf
| 40> %pal nprocs 16 end
| 41> %maxcore 3800
| 42> %base "QZ_P-O_3_AB"
| 43>
| 44> *xyz 0 1
| 45> Cl         2.044297    0.000001   -0.005056
| 46> O         0.610708    0.000030   -0.886554
| 47> P        -0.780924    0.000001   -0.065410
| 48> O        -0.684546   -1.198336    0.950415
| 49> O        -1.866513    0.000039   -1.028087
| 50> O        -0.684548    1.198266    0.950499
| 51> H        -1.019996    2.026448    0.588530
| 52> H        -1.019994   -2.026492    0.588389
| 53> *
| 54>
| 55>
| 56>
| 57>
| 58>                          ****END OF INPUT****
 Total Charge           Charge          ....    0
 Multiplicity           Mult            ....    1
 Number of Electrons    NEL             ....   66
MP2 TOTAL ENERGY:    -1101.988471451 Eh
FINAL SINGLE POINT ENERGY     -1101.988471451378
MP2 TOTAL ENERGY:    -1102.390574945 Eh
FINAL SINGLE POINT ENERGY     -1102.390574944707

CARTESIAN COORDINATES (ANGSTROEM)
---------------------------------
  Cl     2.044297    0.000001   -0.005056
  O      0.610708    0.000030   -0.886554
  P     -0.780924    0.000001   -0.065410
  O     -0.684546   -1.198336    0.950415
  O     -1.866513    0.000039   -1.028087
  O     -0.684548    1.198266    0.950499
  H     -1.019996    2.026448    0.588530
  H     -1.019994   -2.026492    0.588389

 Multiplicity           Mult            ....    1
 Number of Electrons    NEL             ....   66
 Basis Dimension        Dim             ....  580

ORBITAL ENERGIES
----------------

  NO   OCC          E(Eh)            E(eV)
   0   2.0000    -104.914729     -2854.8749
   1   2.0000     -80.116516     -2180.0812
   2   2.0000     -20.656125      -562.0817
   3   2.0000     -20.624368      -561.2176
   4   2.0000     -20.624353      -561.2172
   5   2.0000     -20.527366      -558.5780
   6   2.0000     -10.634531      -289.3803
   7   2.0000      -8.101905      -220.4641
   8   2.0000      -8.098749      -220.3782
   9   2.0000      -8.098641      -220.3752
  10   2.0000      -7.634930      -207.7570
  11   2.0000      -5.533637      -150.5779
  12   2.0000      -5.533567      -150.5760
  13   2.0000      -5.532426      -150.5450
  14   2.0000      -1.489966       -40.5440
  15   2.0000      -1.423976       -38.7484
  16   2.0000      -1.413598       -38.4660
  17   2.0000      -1.323448       -36.0129
  18   2.0000      -1.091306       -29.6960
  19   2.0000      -0.886117       -24.1125
  20   2.0000      -0.756820       -20.5941
  21   2.0000      -0.753033       -20.4911
  22   2.0000      -0.691426       -18.8147
  23   2.0000      -0.676095       -18.3975
  24   2.0000      -0.654589       -17.8123
  25   2.0000      -0.640504       -17.4290
  26   2.0000      -0.595825       -16.2132
  27   2.0000      -0.575740       -15.6667
  28   2.0000      -0.567904       -15.4535
  29   2.0000      -0.493789       -13.4367
  30   2.0000      -0.493704       -13.4344
  31   2.0000      -0.479914       -13.0591
  32   2.0000      -0.466683       -12.6991
  33   0.0000       0.023107         0.6288
  34   0.0000       0.031080         0.8457
  35   0.0000       0.042161         1.1473
  36   0.0000       0.056049         1.5252
  37   0.0000       0.071552         1.9470

MULLIKEN ATOMIC CHARGES
-----------------------
   0 Cl:    0.202679
   1 O :   -0.732626
   2 P :    2.507511
   3 O :   -0.815780
   4 O :   -1.097719
   5 O :   -0.815781
   6 H :    0.375858
   7 H :    0.375858
Sum of atomic charges:    0.0000000

LOEWDIN ATOMIC CHARGES
----------------------
   0 Cl:    0.680932
   1 O :   -0.159812
   2 P :   -1.229734
   3 O :    1.068567
   4 O :    0.276128
   5 O :    1.068565
   6 H :   -0.852323
   7 H :   -0.852324

  Mayer bond orders larger than 0.100000
B(  0-Cl,  1-O ) :   0.9104 B(  1-O ,  2-P ) :   0.6648 B(  2-P ,  3-O ) :   0.7355
B(  2-P ,  4-O ) :   1.3963 B(  2-P ,  5-O ) :   0.7355 B(  3-O ,  7-H ) :   0.8962
B(  5-O ,  6-H ) :   0.8962

MP2 TOTAL ENERGY:    -1102.521779800 Eh
FINAL SINGLE POINT ENERGY     -1102.521779800049

DIPOLE MOMENT
-------------
                                X             Y             Z
Electronic contribution:      4.45411       0.00002      -0.51856
Nuclear contribution   :     -3.98921      -0.00004       1.16638
                        -----------------------------------------
Total Dipole Moment    :      0.46490      -0.00003       0.64782
                        -----------------------------------------
Magnitude (a.u.)       :      0.79737
Magnitude (Debye)      :      2.02675

Rotational constants in cm-1:     0.148620     0.056202     0.055284
Rotational constants in MHz :  4455.502228  1684.886361  1657.385819

                             ****ORCA TERMINATED NORMALLY****
TOTAL RUN TIME: 0 days 0 hours 18 minutes 10 seconds 649 msec
