                         Program Version 5.0.4 -  RELEASE  -
|  1> ! ri-mp2 aug-cc-pvdz aug-cc-pvdz/c tightscf
|  2> %pal nprocs 16 end
|  3> %maxcore 3800
|  4> %base "DZ_P-Si_45_A"
|  5> %scf
|  6> STABPerform true
|  7> STABRestartUHFifUnstable true
|  8> end
|  9>
| 10> *xyz 0 2
| 11> Si        -0.063046   -0.012101   -0.396564
| 12> O        -0.559204    1.442363    0.185606
| 13> C         1.708351   -0.187306    0.160795
| 14> H         2.134845   -1.133997   -0.169496
| 15> H         1.740170   -0.148291    1.251993
| 16> H         2.317255    0.624600   -0.235723
| 17> H        -1.501543    1.623581    0.201667
| 18> O        -1.051134   -1.153690    0.280056
| 19> H        -1.175486   -1.982022   -0.186620
| 20> *
| 21>
| 22> $new_job
| 23> ! ri-mp2 aug-cc-pvtz aug-cc-pvtz/c tightscf
| 24> %pal nprocs 16 end
| 25> %maxcore 3800
| 26> %base "TZ_P-Si_45_A"
| 27>
| 28> *xyz 0 2
| 29> Si        -0.063046   -0.012101   -0.396564
| 30> O        -0.559204    1.442363    0.185606
| 31> C         1.708351   -0.187306    0.160795
| 32> H         2.134845   -1.133997   -0.169496
| 33> H         1.740170   -0.148291    1.251993
| 34> H         2.317255    0.624600   -0.235723
| 35> H        -1.501543    1.623581    0.201667
| 36> O        -1.051134   -1.153690    0.280056
| 37> H        -1.175486   -1.982022   -0.186620
| 38> *
| 39>
| 40> $new_job
| 41> ! ri-mp2 aug-cc-pvqz aug-cc-pvqz/c tightscf
| 42> %pal nprocs 16 end
| 43> %maxcore 3800
| 44> %base "QZ_P-Si_45_A"
| 45>
| 46> *xyz 0 2
| 47> Si        -0.063046   -0.012101   -0.396564
| 48> O        -0.559204    1.442363    0.185606
| 49> C         1.708351   -0.187306    0.160795
| 50> H         2.134845   -1.133997   -0.169496
| 51> H         1.740170   -0.148291    1.251993
| 52> H         2.317255    0.624600   -0.235723
| 53> H        -1.501543    1.623581    0.201667
| 54> O        -1.051134   -1.153690    0.280056
| 55> H        -1.175486   -1.982022   -0.186620
| 56> *
| 57>
| 58>
| 59>
| 60>
| 61>                          ****END OF INPUT****
 Total Charge           Charge          ....    0
 Multiplicity           Mult            ....    2
 Number of Electrons    NEL             ....   41
MP2 TOTAL ENERGY:     -480.167199377 Eh
FINAL SINGLE POINT ENERGY      -480.167199376599
MP2 TOTAL ENERGY:     -480.383821100 Eh
FINAL SINGLE POINT ENERGY      -480.383821099855

CARTESIAN COORDINATES (ANGSTROEM)
---------------------------------
  Si    -0.063046   -0.012101   -0.396564
  O     -0.559204    1.442363    0.185606
  C      1.708351   -0.187306    0.160795
  H      2.134845   -1.133997   -0.169496
  H      1.740170   -0.148291    1.251993
  H      2.317255    0.624600   -0.235723
  H     -1.501543    1.623581    0.201667
  O     -1.051134   -1.153690    0.280056
  H     -1.175486   -1.982022   -0.186620

 Multiplicity           Mult            ....    2
 Number of Electrons    NEL             ....   41
 Basis Dimension        Dim             ....  554

ORBITAL ENERGIES
----------------
                 SPIN UP ORBITALS
  NO   OCC          E(Eh)            E(eV)
   0   1.0000     -68.804951     -1872.2779
   1   1.0000     -20.559781      -559.4601
   2   1.0000     -20.555051      -559.3314
   3   1.0000     -11.205841      -304.9264
   4   1.0000      -6.147320      -167.2771
   5   1.0000      -4.259020      -115.8938
   6   1.0000      -4.251595      -115.6918
   7   1.0000      -4.250567      -115.6638
   8   1.0000      -1.357540       -36.9405
   9   1.0000      -1.333580       -36.2886
  10   1.0000      -0.952246       -25.9119
  11   1.0000      -0.756569       -20.5873
  12   1.0000      -0.702875       -19.1262
  13   1.0000      -0.610660       -16.6169
  14   1.0000      -0.576436       -15.6856
  15   1.0000      -0.558087       -15.1863
  16   1.0000      -0.555319       -15.1110
  17   1.0000      -0.534394       -14.5416
  18   1.0000      -0.525702       -14.3051
  19   1.0000      -0.485924       -13.2227
  20   1.0000      -0.317620        -8.6429
  21   0.0000       0.023761         0.6466
  22   0.0000       0.034340         0.9344
  23   0.0000       0.037083         1.0091
  24   0.0000       0.041620         1.1325
  25   0.0000       0.052661         1.4330

                 SPIN DOWN ORBITALS
  NO   OCC          E(Eh)            E(eV)
   0   1.0000     -68.799948     -1872.1418
   1   1.0000     -20.556057      -559.3587
   2   1.0000     -20.551698      -559.2401
   3   1.0000     -11.202404      -304.8329
   4   1.0000      -6.139083      -167.0529
   5   1.0000      -4.248557      -115.6091
   6   1.0000      -4.247838      -115.5895
   7   1.0000      -4.240479      -115.3893
   8   1.0000      -1.346911       -36.6513
   9   1.0000      -1.323319       -36.0093
  10   1.0000      -0.941601       -25.6223
  11   1.0000      -0.746649       -20.3173
  12   1.0000      -0.698903       -19.0181
  13   1.0000      -0.578787       -15.7496
  14   1.0000      -0.567801       -15.4507
  15   1.0000      -0.552675       -15.0390
  16   1.0000      -0.548463       -14.9244
  17   1.0000      -0.516945       -14.0668
  18   1.0000      -0.511294       -13.9130
  19   1.0000      -0.463209       -12.6046
  20   0.0000       0.018089         0.4922
  21   0.0000       0.034993         0.9522
  22   0.0000       0.037440         1.0188
  23   0.0000       0.041556         1.1308
  24   0.0000       0.052647         1.4326

MULLIKEN ATOMIC CHARGES AND SPIN POPULATIONS
--------------------------------------------
   0 Si:    1.436886    0.877722
   1 O :   -0.950325    0.057039
   2 C :   -0.971085    0.082716
   3 H :    0.261089   -0.021355
   4 H :    0.224680    0.017314
   5 H :    0.232691   -0.011590
   6 H :    0.344536   -0.019539
   7 O :   -0.924351    0.045420
   8 H :    0.345879   -0.027726
Sum of atomic charges         :   -0.0000000

LOEWDIN ATOMIC CHARGES AND SPIN POPULATIONS
-------------------------------------------
   0 Si:   -0.037714    0.521235
   1 O :    1.050010    0.110351
   2 C :    0.900998    0.131827
   3 H :   -0.382044    0.019915
   4 H :   -0.364288    0.022007
   5 H :   -0.379095    0.019086
   6 H :   -0.914029    0.020477
   7 O :    1.053110    0.118699
   8 H :   -0.926948    0.036403

  Mayer bond orders larger than 0.100000
B(  0-Si,  1-O ) :   0.6516 B(  0-Si,  2-C ) :   0.8337 B(  0-Si,  7-O ) :   0.6424
B(  1-O ,  6-H ) :   0.9228 B(  2-C ,  3-H ) :   0.9623 B(  2-C ,  4-H ) :   0.9571
B(  2-C ,  5-H ) :   0.9687 B(  7-O ,  8-H ) :   0.9159

MP2 TOTAL ENERGY:     -480.452691307 Eh
FINAL SINGLE POINT ENERGY      -480.452691307185

DIPOLE MOMENT
-------------
                                X             Y             Z
Electronic contribution:     -3.63579       0.52462      -1.25936
Nuclear contribution   :      3.48761      -1.00909       0.89169
                        -----------------------------------------
Total Dipole Moment    :     -0.14818      -0.48447      -0.36768
                        -----------------------------------------
Magnitude (a.u.)       :      0.62598
Magnitude (Debye)      :      1.59112

Rotational constants in cm-1:     0.236123     0.203492     0.122369
Rotational constants in MHz :  7078.791677  6100.530250  3668.528437

                             ****ORCA TERMINATED NORMALLY****
TOTAL RUN TIME: 0 days 0 hours 19 minutes 14 seconds 31 msec
