                         Program Version 5.0.4 -  RELEASE  -
|  1> ! ri-mp2 aug-cc-pvdz aug-cc-pvdz/c tightscf
|  2> %pal nprocs 16 end
|  3> %maxcore 3800
|  4> %base "DZ_Si-Si_33_AB"
|  5> %scf
|  6> STABPerform true
|  7> STABRestartUHFifUnstable true
|  8> end
|  9>
| 10> *xyz 0 1
| 11> Si         1.164301   -0.101200    0.419936
| 12> Si        -1.164302    0.101201    0.419934
| 13> O        -1.834249   -1.283518   -0.154431
| 14> H        -1.286810   -1.804619   -0.749072
| 15> O         1.834249    1.283518   -0.154429
| 16> H         1.286812    1.804618   -0.749072
| 17> O        -1.346086    1.391092   -0.598254
| 18> H        -1.880563    0.367714    1.684269
| 19> H        -2.225121    1.723591   -0.792827
| 20> O         1.346087   -1.391093   -0.598251
| 21> H         1.880560   -0.367712    1.684272
| 22> H         2.225122   -1.723592   -0.792822
| 23> *
| 24>
| 25> $new_job
| 26> ! ri-mp2 aug-cc-pvtz aug-cc-pvtz/c tightscf
| 27> %pal nprocs 16 end
| 28> %maxcore 3800
| 29> %base "TZ_Si-Si_33_AB"
| 30>
| 31> *xyz 0 1
| 32> Si         1.164301   -0.101200    0.419936
| 33> Si        -1.164302    0.101201    0.419934
| 34> O        -1.834249   -1.283518   -0.154431
| 35> H        -1.286810   -1.804619   -0.749072
| 36> O         1.834249    1.283518   -0.154429
| 37> H         1.286812    1.804618   -0.749072
| 38> O        -1.346086    1.391092   -0.598254
| 39> H        -1.880563    0.367714    1.684269
| 40> H        -2.225121    1.723591   -0.792827
| 41> O         1.346087   -1.391093   -0.598251
| 42> H         1.880560   -0.367712    1.684272
| 43> H         2.225122   -1.723592   -0.792822
| 44> *
| 45>
| 46> $new_job
| 47> ! ri-mp2 aug-cc-pvqz aug-cc-pvqz/c tightscf
| 48> %pal nprocs 16 end
| 49> %maxcore 3800
| 50> %base "QZ_Si-Si_33_AB"
| 51>
| 52> *xyz 0 1
| 53> Si         1.164301   -0.101200    0.419936
| 54> Si        -1.164302    0.101201    0.419934
| 55> O        -1.834249   -1.283518   -0.154431
| 56> H        -1.286810   -1.804619   -0.749072
| 57> O         1.834249    1.283518   -0.154429
| 58> H         1.286812    1.804618   -0.749072
| 59> O        -1.346086    1.391092   -0.598254
| 60> H        -1.880563    0.367714    1.684269
| 61> H        -2.225121    1.723591   -0.792827
| 62> O         1.346087   -1.391093   -0.598251
| 63> H         1.880560   -0.367712    1.684272
| 64> H         2.225122   -1.723592   -0.792822
| 65> *
| 66>
| 67>
| 68>
| 69>
| 70>                          ****END OF INPUT****
 Total Charge           Charge          ....    0
 Multiplicity           Mult            ....    1
 Number of Electrons    NEL             ....   66
MP2 TOTAL ENERGY:     -882.049283955 Eh
FINAL SINGLE POINT ENERGY      -882.049283955151
MP2 TOTAL ENERGY:     -882.407557386 Eh
FINAL SINGLE POINT ENERGY      -882.407557385693

CARTESIAN COORDINATES (ANGSTROEM)
---------------------------------
  Si     1.164301   -0.101200    0.419936
  Si    -1.164302    0.101201    0.419934
  O     -1.834249   -1.283518   -0.154431
  H     -1.286810   -1.804619   -0.749072
  O      1.834249    1.283518   -0.154429
  H      1.286812    1.804618   -0.749072
  O     -1.346086    1.391092   -0.598254
  H     -1.880563    0.367714    1.684269
  H     -2.225121    1.723591   -0.792827
  O      1.346087   -1.391093   -0.598251
  H      1.880560   -0.367712    1.684272
  H      2.225122   -1.723592   -0.792822

 Multiplicity           Mult            ....    1
 Number of Electrons    NEL             ....   66
 Basis Dimension        Dim             ....  764

ORBITAL ENERGIES
----------------

  NO   OCC          E(Eh)            E(eV)
   0   2.0000     -68.800388     -1872.1537
   1   2.0000     -68.800386     -1872.1537
   2   2.0000     -20.562811      -559.5425
   3   2.0000     -20.562811      -559.5425
   4   2.0000     -20.554133      -559.3064
   5   2.0000     -20.554133      -559.3064
   6   2.0000      -6.142933      -167.1577
   7   2.0000      -6.142786      -167.1537
   8   2.0000      -4.250181      -115.6533
   9   2.0000      -4.250131      -115.6519
  10   2.0000      -4.250064      -115.6501
  11   2.0000      -4.249776      -115.6423
  12   2.0000      -4.249722      -115.6408
  13   2.0000      -4.249276      -115.6287
  14   2.0000      -1.357738       -36.9459
  15   2.0000      -1.352092       -36.7923
  16   2.0000      -1.335390       -36.3378
  17   2.0000      -1.331584       -36.2342
  18   2.0000      -0.786388       -21.3987
  19   2.0000      -0.754874       -20.5412
  20   2.0000      -0.716290       -19.4912
  21   2.0000      -0.705891       -19.2083
  22   2.0000      -0.605011       -16.4632
  23   2.0000      -0.601490       -16.3674
  24   2.0000      -0.583613       -15.8809
  25   2.0000      -0.575757       -15.6672
  26   2.0000      -0.574933       -15.6447
  27   2.0000      -0.553382       -15.0583
  28   2.0000      -0.507605       -13.8126
  29   2.0000      -0.506081       -13.7712
  30   2.0000      -0.496932       -13.5222
  31   2.0000      -0.487259       -13.2590
  32   2.0000      -0.396105       -10.7786
  33   0.0000       0.023292         0.6338
  34   0.0000       0.028489         0.7752
  35   0.0000       0.038138         1.0378
  36   0.0000       0.040411         1.0996
  37   0.0000       0.048929         1.3314

MULLIKEN ATOMIC CHARGES
-----------------------
   0 Si:    1.407268
   1 Si:    1.407268
   2 O :   -0.994986
   3 H :    0.392071
   4 O :   -0.994986
   5 H :    0.392071
   6 O :   -0.879658
   7 H :   -0.254523
   8 H :    0.329828
   9 O :   -0.879658
  10 H :   -0.254523
  11 H :    0.329828
Sum of atomic charges:    0.0000000

LOEWDIN ATOMIC CHARGES
----------------------
   0 Si:   -0.067098
   1 Si:   -0.067099
   2 O :    1.067993
   3 H :   -0.922962
   4 O :    1.067994
   5 H :   -0.922963
   6 O :    1.060916
   7 H :   -0.256080
   8 H :   -0.882768
   9 O :    1.060916
  10 H :   -0.256080
  11 H :   -0.882769

  Mayer bond orders larger than 0.100000
B(  0-Si,  1-Si) :   1.0144 B(  0-Si,  4-O ) :   0.5968 B(  0-Si,  9-O ) :   0.5373
B(  0-Si, 10-H ) :   0.9058 B(  1-Si,  2-O ) :   0.5968 B(  1-Si,  6-O ) :   0.5373
B(  1-Si,  7-H ) :   0.9058 B(  2-O ,  3-H ) :   0.8768 B(  4-O ,  5-H ) :   0.8768
B(  6-O ,  8-H ) :   0.9217 B(  9-O , 11-H ) :   0.9217

MP2 TOTAL ENERGY:     -882.524456392 Eh
FINAL SINGLE POINT ENERGY      -882.524456391812

DIPOLE MOMENT
-------------
                                X             Y             Z
Electronic contribution:     -0.00000       0.00000      -0.55076
Nuclear contribution   :      0.00000      -0.00000       0.20626
                        -----------------------------------------
Total Dipole Moment    :     -0.00000       0.00000      -0.34449
                        -----------------------------------------
Magnitude (a.u.)       :      0.34449
Magnitude (Debye)      :      0.87563

Rotational constants in cm-1:     0.106604     0.057611     0.043195
Rotational constants in MHz :  3195.893652  1727.142683  1294.954631

                             ****ORCA TERMINATED NORMALLY****
TOTAL RUN TIME: 0 days 0 hours 52 minutes 17 seconds 127 msec
