                         Program Version 5.0.4 -  RELEASE  -
|  1> ! ri-mp2 aug-cc-pvdz aug-cc-pvdz/c tightscf
|  2> %pal nprocs 16 end
|  3> %maxcore 3800
|  4> %base "DZ_B-F_30_A"
|  5> %scf
|  6> STABPerform true
|  7> STABRestartUHFifUnstable true
|  8> end
|  9>
| 10> *xyz 0 2
| 11> F        -1.739062   -0.236222    0.000007
| 12> B        -0.681273    0.526823    0.000018
| 13> C         0.746736    0.084030   -0.000031
| 14> C         1.932901   -0.117389    0.000001
| 15> H         2.980095   -0.307969    0.000021
| 16> *
| 17>
| 18> $new_job
| 19> ! ri-mp2 aug-cc-pvtz aug-cc-pvtz/c tightscf
| 20> %pal nprocs 16 end
| 21> %maxcore 3800
| 22> %base "TZ_B-F_30_A"
| 23>
| 24> *xyz 0 2
| 25> F        -1.739062   -0.236222    0.000007
| 26> B        -0.681273    0.526823    0.000018
| 27> C         0.746736    0.084030   -0.000031
| 28> C         1.932901   -0.117389    0.000001
| 29> H         2.980095   -0.307969    0.000021
| 30> *
| 31>
| 32> $new_job
| 33> ! ri-mp2 aug-cc-pvqz aug-cc-pvqz/c tightscf
| 34> %pal nprocs 16 end
| 35> %maxcore 3800
| 36> %base "QZ_B-F_30_A"
| 37>
| 38> *xyz 0 2
| 39> F        -1.739062   -0.236222    0.000007
| 40> B        -0.681273    0.526823    0.000018
| 41> C         0.746736    0.084030   -0.000031
| 42> C         1.932901   -0.117389    0.000001
| 43> H         2.980095   -0.307969    0.000021
| 44> *
| 45>
| 46>
| 47>
| 48>
| 49>                          ****END OF INPUT****
 Total Charge           Charge          ....    0
 Multiplicity           Mult            ....    2
 Number of Electrons    NEL             ....   27
MP2 TOTAL ENERGY:     -200.902890347 Eh
FINAL SINGLE POINT ENERGY      -200.902890347464
MP2 TOTAL ENERGY:     -201.076141883 Eh
FINAL SINGLE POINT ENERGY      -201.076141882692

CARTESIAN COORDINATES (ANGSTROEM)
---------------------------------
  F     -1.739062   -0.236222    0.000007
  B     -0.681273    0.526823    0.000018
  C      0.746736    0.084030   -0.000031
  C      1.932901   -0.117389    0.000001
  H      2.980095   -0.307969    0.000021

 Multiplicity           Mult            ....    2
 Number of Electrons    NEL             ....   27
 Basis Dimension        Dim             ....  366

ORBITAL ENERGIES
----------------
                 SPIN UP ORBITALS
  NO   OCC          E(Eh)            E(eV)
   0   1.0000     -26.325666      -716.3578
   1   1.0000     -11.270553      -306.6873
   2   1.0000     -11.232094      -305.6408
   3   1.0000      -7.703121      -209.6126
   4   1.0000      -1.643488       -44.7216
   5   1.0000      -1.055199       -28.7134
   6   1.0000      -0.831229       -22.6189
   7   1.0000      -0.773246       -21.0411
   8   1.0000      -0.728253       -19.8168
   9   1.0000      -0.694682       -18.9033
  10   1.0000      -0.677839       -18.4449
  11   1.0000      -0.455311       -12.3896
  12   1.0000      -0.434283       -11.8175
  13   1.0000      -0.356130        -9.6908
  14   0.0000       0.021310         0.5799
  15   0.0000       0.034205         0.9308
  16   0.0000       0.038408         1.0451
  17   0.0000       0.039772         1.0823
  18   0.0000       0.048832         1.3288

                 SPIN DOWN ORBITALS
  NO   OCC          E(Eh)            E(eV)
   0   1.0000     -26.322600      -716.2744
   1   1.0000     -11.261773      -306.4484
   2   1.0000     -11.236601      -305.7635
   3   1.0000      -7.682498      -209.0514
   4   1.0000      -1.635063       -44.4923
   5   1.0000      -1.048653       -28.5353
   6   1.0000      -0.812771       -22.1166
   7   1.0000      -0.762771       -20.7561
   8   1.0000      -0.705658       -19.2019
   9   1.0000      -0.696252       -18.9460
  10   1.0000      -0.653707       -17.7883
  11   1.0000      -0.433412       -11.7937
  12   1.0000      -0.429247       -11.6804
  13   0.0000       0.020834         0.5669
  14   0.0000       0.034170         0.9298
  15   0.0000       0.036804         1.0015
  16   0.0000       0.039761         1.0820
  17   0.0000       0.050141         1.3644

MULLIKEN ATOMIC CHARGES AND SPIN POPULATIONS
--------------------------------------------
   0 F :   -0.666494   -0.021165
   1 B :    0.865997    0.956479
   2 C :   -0.118348   -0.344818
   3 C :   -0.554540    0.431370
   4 H :    0.473384   -0.021866
Sum of atomic charges         :    0.0000000

LOEWDIN ATOMIC CHARGES AND SPIN POPULATIONS
-------------------------------------------
   0 F :    0.696515    0.146932
   1 B :   -0.823886    0.532497
   2 C :    0.068415    0.125650
   3 C :    0.498575    0.131146
   4 H :   -0.439619    0.063775

  Mayer bond orders larger than 0.100000
B(  0-F ,  1-B ) :   0.5208 B(  1-B ,  2-C ) :   1.0848 B(  2-C ,  3-C ) :   2.2256
B(  3-C ,  4-H ) :   0.8265

MP2 TOTAL ENERGY:     -201.130556218 Eh
FINAL SINGLE POINT ENERGY      -201.130556218065

DIPOLE MOMENT
-------------
                                X             Y             Z
Electronic contribution:     -4.09995       0.42182       0.00001
Nuclear contribution   :      4.85141      -0.46160      -0.00000
                        -----------------------------------------
Total Dipole Moment    :      0.75146      -0.03978       0.00001
                        -----------------------------------------
Magnitude (a.u.)       :      0.75251
Magnitude (Debye)      :      1.91274

Rotational constants in cm-1:     3.838268     0.137600     0.132838
Rotational constants in MHz : 115068.385538  4125.158869  3982.391611

                             ****ORCA TERMINATED NORMALLY****
TOTAL RUN TIME: 0 days 0 hours 9 minutes 29 seconds 322 msec
