                         Program Version 5.0.4 -  RELEASE  -
|  1> ! ri-mp2 aug-cc-pvdz aug-cc-pvdz/c tightscf
|  2> %pal nprocs 16 end
|  3> %maxcore 3800
|  4> %base "DZ_S-F_33_AB"
|  5> %scf
|  6> STABPerform true
|  7> STABRestartUHFifUnstable true
|  8> end
|  9>
| 10> *xyz 0 1
| 11> F        -2.374742    0.837555    0.121459
| 12> S        -1.734111   -0.620985   -0.060633
| 13> P         1.016302   -0.034006   -0.077469
| 14> O         1.478935   -1.049516   -1.008647
| 15> O         1.973422    0.308805    1.123563
| 16> H         2.615630   -0.387901    1.300958
| 17> O         0.668936    1.374649   -0.687581
| 18> H         0.917225    1.449720   -1.616010
| 19> O        -0.328661   -0.403183    0.741926
| 20> *
| 21>
| 22> $new_job
| 23> ! ri-mp2 aug-cc-pvtz aug-cc-pvtz/c tightscf
| 24> %pal nprocs 16 end
| 25> %maxcore 3800
| 26> %base "TZ_S-F_33_AB"
| 27>
| 28> *xyz 0 1
| 29> F        -2.374742    0.837555    0.121459
| 30> S        -1.734111   -0.620985   -0.060633
| 31> P         1.016302   -0.034006   -0.077469
| 32> O         1.478935   -1.049516   -1.008647
| 33> O         1.973422    0.308805    1.123563
| 34> H         2.615630   -0.387901    1.300958
| 35> O         0.668936    1.374649   -0.687581
| 36> H         0.917225    1.449720   -1.616010
| 37> O        -0.328661   -0.403183    0.741926
| 38> *
| 39>
| 40> $new_job
| 41> ! ri-mp2 aug-cc-pvqz aug-cc-pvqz/c tightscf
| 42> %pal nprocs 16 end
| 43> %maxcore 3800
| 44> %base "QZ_S-F_33_AB"
| 45>
| 46> *xyz 0 1
| 47> F        -2.374742    0.837555    0.121459
| 48> S        -1.734111   -0.620985   -0.060633
| 49> P         1.016302   -0.034006   -0.077469
| 50> O         1.478935   -1.049516   -1.008647
| 51> O         1.973422    0.308805    1.123563
| 52> H         2.615630   -0.387901    1.300958
| 53> O         0.668936    1.374649   -0.687581
| 54> H         0.917225    1.449720   -1.616010
| 55> O        -0.328661   -0.403183    0.741926
| 56> *
| 57>
| 58>
| 59>
| 60>
| 61>                          ****END OF INPUT****
 Total Charge           Charge          ....    0
 Multiplicity           Mult            ....    1
 Number of Electrons    NEL             ....   74
MP2 TOTAL ENERGY:    -1139.677222104 Eh
FINAL SINGLE POINT ENERGY     -1139.677222103598
MP2 TOTAL ENERGY:    -1140.157151234 Eh
FINAL SINGLE POINT ENERGY     -1140.157151233780

CARTESIAN COORDINATES (ANGSTROEM)
---------------------------------
  F     -2.374742    0.837555    0.121459
  S     -1.734111   -0.620985   -0.060633
  P      1.016302   -0.034006   -0.077469
  O      1.478935   -1.049516   -1.008647
  O      1.973422    0.308805    1.123563
  H      2.615630   -0.387901    1.300958
  O      0.668936    1.374649   -0.687581
  H      0.917225    1.449720   -1.616010
  O     -0.328661   -0.403183    0.741926

 Multiplicity           Mult            ....    1
 Number of Electrons    NEL             ....   74
 Basis Dimension        Dim             ....  660

ORBITAL ENERGIES
----------------

  NO   OCC          E(Eh)            E(eV)
   0   2.0000     -92.099560     -2506.1564
   1   2.0000     -80.119920     -2180.1739
   2   2.0000     -26.332199      -716.5356
   3   2.0000     -20.642824      -561.7198
   4   2.0000     -20.623884      -561.2044
   5   2.0000     -20.622822      -561.1755
   6   2.0000     -20.531803      -558.6988
   7   2.0000      -9.087541      -247.2846
   8   2.0000      -7.638135      -207.8442
   9   2.0000      -6.768716      -184.1861
  10   2.0000      -6.767207      -184.1451
  11   2.0000      -6.764864      -184.0813
  12   2.0000      -5.536880      -150.6662
  13   2.0000      -5.536728      -150.6620
  14   2.0000      -5.535622      -150.6319
  15   2.0000      -1.638375       -44.5825
  16   2.0000      -1.490499       -40.5585
  17   2.0000      -1.423824       -38.7442
  18   2.0000      -1.415001       -38.5041
  19   2.0000      -1.326584       -36.0982
  20   2.0000      -0.990063       -26.9410
  21   2.0000      -0.875563       -23.8253
  22   2.0000      -0.772357       -21.0169
  23   2.0000      -0.770743       -20.9730
  24   2.0000      -0.725487       -19.7415
  25   2.0000      -0.719406       -19.5760
  26   2.0000      -0.701986       -19.1020
  27   2.0000      -0.677614       -18.4388
  28   2.0000      -0.663232       -18.0475
  29   2.0000      -0.617403       -16.8004
  30   2.0000      -0.611227       -16.6323
  31   2.0000      -0.585047       -15.9199
  32   2.0000      -0.562846       -15.3158
  33   2.0000      -0.556478       -15.1425
  34   2.0000      -0.495507       -13.4834
  35   2.0000      -0.494577       -13.4581
  36   2.0000      -0.391168       -10.6442
  37   0.0000       0.022689         0.6174
  38   0.0000       0.032109         0.8737
  39   0.0000       0.045548         1.2394
  40   0.0000       0.056781         1.5451
  41   0.0000       0.062729         1.7069

MULLIKEN ATOMIC CHARGES
-----------------------
   0 F :   -0.569672
   1 S :    0.882472
   2 P :    2.538355
   3 O :   -1.059768
   4 O :   -0.850254
   5 H :    0.369405
   6 O :   -0.838216
   7 H :    0.375101
   8 O :   -0.847424
Sum of atomic charges:   -0.0000000

LOEWDIN ATOMIC CHARGES
----------------------
   0 F :    0.068338
   1 S :    0.306301
   2 P :   -1.171764
   3 O :    0.289757
   4 O :    1.083965
   5 H :   -0.858221
   6 O :    1.083526
   7 H :   -0.855935
   8 O :    0.054033

  Mayer bond orders larger than 0.100000
B(  0-F ,  1-S ) :   0.6565 B(  1-S ,  8-O ) :   0.8479 B(  2-P ,  3-O ) :   1.4841
B(  2-P ,  4-O ) :   0.6594 B(  2-P ,  6-O ) :   0.7034 B(  2-P ,  8-O ) :   0.6507
B(  4-O ,  5-H ) :   0.9084 B(  6-O ,  7-H ) :   0.9074

MP2 TOTAL ENERGY:    -1140.314188789 Eh
FINAL SINGLE POINT ENERGY     -1140.314188789385

DIPOLE MOMENT
-------------
                                X             Y             Z
Electronic contribution:     -4.32195      -0.16250       0.33049
Nuclear contribution   :      4.71587       0.27209      -0.33484
                        -----------------------------------------
Total Dipole Moment    :      0.39392       0.10959      -0.00435
                        -----------------------------------------
Magnitude (a.u.)       :      0.40890
Magnitude (Debye)      :      1.03934

Rotational constants in cm-1:     0.122417     0.041449     0.039234
Rotational constants in MHz :  3669.981091  1242.599248  1176.197213

                             ****ORCA TERMINATED NORMALLY****
TOTAL RUN TIME: 0 days 0 hours 26 minutes 40 seconds 112 msec
