                         Program Version 5.0.4 -  RELEASE  -
|  1> ! ri-mp2 aug-cc-pvdz aug-cc-pvdz/c tightscf
|  2> %pal nprocs 16 end
|  3> %maxcore 3800
|  4> %base "DZ_B-F_1_AB"
|  5>
|  6> *xyz 0 1
|  7> F        -1.112816    1.147753    0.000000
|  8> F        -1.168636   -1.111937   -0.000000
|  9> S         1.332684   -0.097097    0.000001
| 10> B        -0.462632    0.000502   -0.000003
| 11> H         1.523283    1.228689   -0.000001
| 12> *
| 13>
| 14> $new_job
| 15> ! ri-mp2 aug-cc-pvtz aug-cc-pvtz/c tightscf
| 16> %pal nprocs 16 end
| 17> %maxcore 3800
| 18> %base "TZ_B-F_1_AB"
| 19>
| 20> *xyz 0 1
| 21> F        -1.112816    1.147753    0.000000
| 22> F        -1.168636   -1.111937   -0.000000
| 23> S         1.332684   -0.097097    0.000001
| 24> B        -0.462632    0.000502   -0.000003
| 25> H         1.523283    1.228689   -0.000001
| 26> *
| 27>
| 28> $new_job
| 29> ! ri-mp2 aug-cc-pvqz aug-cc-pvqz/c tightscf
| 30> %pal nprocs 16 end
| 31> %maxcore 3800
| 32> %base "QZ_B-F_1_AB"
| 33>
| 34> *xyz 0 1
| 35> F        -1.112816    1.147753    0.000000
| 36> F        -1.168636   -1.111937   -0.000000
| 37> S         1.332684   -0.097097    0.000001
| 38> B        -0.462632    0.000502   -0.000003
| 39> H         1.523283    1.228689   -0.000001
| 40> *
| 41>
| 42>
| 43>
| 44>
| 45>                          ****END OF INPUT****
 Total Charge           Charge          ....    0
 Multiplicity           Mult            ....    1
 Number of Electrons    NEL             ....   40
MP2 TOTAL ENERGY:     -622.481551697 Eh
FINAL SINGLE POINT ENERGY      -622.481551696580
MP2 TOTAL ENERGY:     -622.728785559 Eh
FINAL SINGLE POINT ENERGY      -622.728785559032

CARTESIAN COORDINATES (ANGSTROEM)
---------------------------------
  F     -1.112816    1.147753    0.000000
  F     -1.168636   -1.111937   -0.000000
  S      1.332684   -0.097097    0.000001
  B     -0.462632    0.000502   -0.000003
  H      1.523283    1.228689   -0.000001

 Multiplicity           Mult            ....    1
 Number of Electrons    NEL             ....   40
 Basis Dimension        Dim             ....  370

ORBITAL ENERGIES
----------------

  NO   OCC          E(Eh)            E(eV)
   0   2.0000     -91.977481     -2502.8345
   1   2.0000     -26.325354      -716.3493
   2   2.0000     -26.323322      -716.2940
   3   2.0000      -8.982768      -244.4335
   4   2.0000      -7.745288      -210.7600
   5   2.0000      -6.664298      -181.3448
   6   2.0000      -6.663461      -181.3220
   7   2.0000      -6.662818      -181.3045
   8   2.0000      -1.658365       -45.1264
   9   2.0000      -1.627282       -44.2806
  10   2.0000      -1.013157       -27.5694
  11   2.0000      -0.828910       -22.5558
  12   2.0000      -0.777210       -21.1489
  13   2.0000      -0.733901       -19.9705
  14   2.0000      -0.728267       -19.8172
  15   2.0000      -0.673641       -18.3307
  16   2.0000      -0.667662       -18.1680
  17   2.0000      -0.582332       -15.8460
  18   2.0000      -0.499587       -13.5945
  19   2.0000      -0.417068       -11.3490
  20   0.0000       0.025252         0.6871
  21   0.0000       0.039707         1.0805
  22   0.0000       0.041952         1.1416
  23   0.0000       0.042963         1.1691
  24   0.0000       0.068592         1.8665

MULLIKEN ATOMIC CHARGES
-----------------------
   0 F :   -0.715983
   1 F :   -0.719676
   2 S :   -0.146133
   3 B :    1.477933
   4 H :    0.103859
Sum of atomic charges:    0.0000000

LOEWDIN ATOMIC CHARGES
----------------------
   0 F :    0.748342
   1 F :    0.727977
   2 S :    1.642766
   3 B :   -2.289744
   4 H :   -0.829341

  Mayer bond orders larger than 0.100000
B(  0-F ,  3-B ) :   0.4583 B(  1-F ,  3-B ) :   0.4545 B(  2-S ,  3-B ) :   1.2038
B(  2-S ,  4-H ) :   1.0101

MP2 TOTAL ENERGY:     -622.808496672 Eh
FINAL SINGLE POINT ENERGY      -622.808496671963

DIPOLE MOMENT
-------------
                                X             Y             Z
Electronic contribution:     -3.35832      -0.76036      -0.00001
Nuclear contribution   :      3.76935       1.09730       0.00000
                        -----------------------------------------
Total Dipole Moment    :      0.41103       0.33694      -0.00000
                        -----------------------------------------
Magnitude (a.u.)       :      0.53148
Magnitude (Debye)      :      1.35093

Rotational constants in cm-1:     0.335388     0.151979     0.104586
Rotational constants in MHz : 10054.692756  4556.216780  3135.421497

                             ****ORCA TERMINATED NORMALLY****
TOTAL RUN TIME: 0 days 0 hours 1 minutes 14 seconds 654 msec
