                         Program Version 5.0.4 -  RELEASE  -
|  1> ! ri-mp2 aug-cc-pvdz aug-cc-pvdz/c tightscf
|  2> %pal nprocs 16 end
|  3> %maxcore 3800
|  4> %base "DZ_B-Si_48_AB"
|  5>
|  6> *xyz 0 1
|  7> C        -0.665003   -0.388776    0.217855
|  8> B         2.468202    0.249309   -0.167987
|  9> F         2.271171    1.556001   -0.222046
| 10> F         3.647620   -0.168031   -0.589841
| 11> C        -1.010797    0.937804    0.474986
| 12> C        -1.645279   -1.237283   -0.292274
| 13> C        -2.293359    1.398104    0.236640
| 14> C        -3.255835    0.538653   -0.267653
| 15> C        -2.930247   -0.779918   -0.533036
| 16> H        -3.677561   -1.454460   -0.929731
| 17> H        -1.404744   -2.271317   -0.507261
| 18> H        -2.542328    2.430965    0.441548
| 19> H        -4.258762    0.898449   -0.456084
| 20> H        -0.269250    1.627387    0.859950
| 21> Si         1.058282   -1.019938    0.554444
| 22> H         1.223149   -2.357763   -0.054882
| 23> H         1.306524   -1.143912    2.012050
| 24> *
| 25>
| 26> $new_job
| 27> ! ri-mp2 aug-cc-pvtz aug-cc-pvtz/c tightscf
| 28> %pal nprocs 16 end
| 29> %maxcore 3800
| 30> %base "TZ_B-Si_48_AB"
| 31>
| 32> *xyz 0 1
| 33> C        -0.665003   -0.388776    0.217855
| 34> B         2.468202    0.249309   -0.167987
| 35> F         2.271171    1.556001   -0.222046
| 36> F         3.647620   -0.168031   -0.589841
| 37> C        -1.010797    0.937804    0.474986
| 38> C        -1.645279   -1.237283   -0.292274
| 39> C        -2.293359    1.398104    0.236640
| 40> C        -3.255835    0.538653   -0.267653
| 41> C        -2.930247   -0.779918   -0.533036
| 42> H        -3.677561   -1.454460   -0.929731
| 43> H        -1.404744   -2.271317   -0.507261
| 44> H        -2.542328    2.430965    0.441548
| 45> H        -4.258762    0.898449   -0.456084
| 46> H        -0.269250    1.627387    0.859950
| 47> Si         1.058282   -1.019938    0.554444
| 48> H         1.223149   -2.357763   -0.054882
| 49> H         1.306524   -1.143912    2.012050
| 50> *
| 51>
| 52> $new_job
| 53> ! ri-mp2 aug-cc-pvqz aug-cc-pvqz/c tightscf
| 54> %pal nprocs 16 end
| 55> %maxcore 3800
| 56> %base "QZ_B-Si_48_AB"
| 57>
| 58> *xyz 0 1
| 59> C        -0.665003   -0.388776    0.217855
| 60> B         2.468202    0.249309   -0.167987
| 61> F         2.271171    1.556001   -0.222046
| 62> F         3.647620   -0.168031   -0.589841
| 63> C        -1.010797    0.937804    0.474986
| 64> C        -1.645279   -1.237283   -0.292274
| 65> C        -2.293359    1.398104    0.236640
| 66> C        -3.255835    0.538653   -0.267653
| 67> C        -2.930247   -0.779918   -0.533036
| 68> H        -3.677561   -1.454460   -0.929731
| 69> H        -1.404744   -2.271317   -0.507261
| 70> H        -2.542328    2.430965    0.441548
| 71> H        -4.258762    0.898449   -0.456084
| 72> H        -0.269250    1.627387    0.859950
| 73> Si         1.058282   -1.019938    0.554444
| 74> H         1.223149   -2.357763   -0.054882
| 75> H         1.306524   -1.143912    2.012050
| 76> *
| 77>
| 78>
| 79>
| 80>
| 81>                          ****END OF INPUT****
 Total Charge           Charge          ....    0
 Multiplicity           Mult            ....    1
 Number of Electrons    NEL             ....   80
MP2 TOTAL ENERGY:     -745.334469743 Eh
FINAL SINGLE POINT ENERGY      -745.334469742573
MP2 TOTAL ENERGY:     -745.768102150 Eh
FINAL SINGLE POINT ENERGY      -745.768102149563

CARTESIAN COORDINATES (ANGSTROEM)
---------------------------------
  C     -0.665003   -0.388776    0.217855
  B      2.468202    0.249309   -0.167987
  F      2.271171    1.556001   -0.222046
  F      3.647620   -0.168031   -0.589841
  C     -1.010797    0.937804    0.474986
  C     -1.645279   -1.237283   -0.292274
  C     -2.293359    1.398104    0.236640
  C     -3.255835    0.538653   -0.267653
  C     -2.930247   -0.779918   -0.533036
  H     -3.677561   -1.454460   -0.929731
  H     -1.404744   -2.271317   -0.507261
  H     -2.542328    2.430965    0.441548
  H     -4.258762    0.898449   -0.456084
  H     -0.269250    1.627387    0.859950
  Si     1.058282   -1.019938    0.554444
  H      1.223149   -2.357763   -0.054882
  H      1.306524   -1.143912    2.012050

 Multiplicity           Mult            ....    1
 Number of Electrons    NEL             ....   80
 Basis Dimension        Dim             .... 1126

ORBITAL ENERGIES
----------------

  NO   OCC          E(Eh)            E(eV)
   0   2.0000     -68.770673     -1871.3452
   1   2.0000     -26.312675      -716.0043
   2   2.0000     -26.311874      -715.9825
   3   2.0000     -11.243854      -305.9608
   4   2.0000     -11.243250      -305.9444
   5   2.0000     -11.242531      -305.9248
   6   2.0000     -11.238314      -305.8101
   7   2.0000     -11.238106      -305.8044
   8   2.0000     -11.229900      -305.5811
   9   2.0000      -7.708016      -209.7458
  10   2.0000      -6.121977      -166.5875
  11   2.0000      -4.228417      -115.0611
  12   2.0000      -4.228217      -115.0556
  13   2.0000      -4.227915      -115.0474
  14   2.0000      -1.646266       -44.7972
  15   2.0000      -1.612502       -43.8784
  16   2.0000      -1.162529       -31.6340
  17   2.0000      -1.025578       -27.9074
  18   2.0000      -1.024492       -27.8778
  19   2.0000      -0.837692       -22.7948
  20   2.0000      -0.834316       -22.7029
  21   2.0000      -0.822225       -22.3739
  22   2.0000      -0.760028       -20.6814
  23   2.0000      -0.758693       -20.6451
  24   2.0000      -0.716485       -19.4966
  25   2.0000      -0.712933       -19.3999
  26   2.0000      -0.679242       -18.4831
  27   2.0000      -0.658695       -17.9240
  28   2.0000      -0.651851       -17.7378
  29   2.0000      -0.634362       -17.2619
  30   2.0000      -0.631414       -17.1817
  31   2.0000      -0.595663       -16.2088
  32   2.0000      -0.558166       -15.1885
  33   2.0000      -0.521084       -14.1794
  34   2.0000      -0.501572       -13.6485
  35   2.0000      -0.486574       -13.2404
  36   2.0000      -0.463404       -12.6099
  37   2.0000      -0.446919       -12.1613
  38   2.0000      -0.346926        -9.4403
  39   2.0000      -0.345464        -9.4005
  40   0.0000       0.020894         0.5686
  41   0.0000       0.027879         0.7586
  42   0.0000       0.028665         0.7800
  43   0.0000       0.034831         0.9478
  44   0.0000       0.039497         1.0748

MULLIKEN ATOMIC CHARGES
-----------------------
   0 C :    0.067334
   1 B :    1.546407
   2 F :   -0.806641
   3 F :   -0.842580
   4 C :   -0.366941
   5 C :   -0.561832
   6 C :   -0.225356
   7 C :   -0.374619
   8 C :   -0.290366
   9 H :    0.258781
  10 H :    0.301828
  11 H :    0.255933
  12 H :    0.349186
  13 H :    0.386113
  14 Si:    0.752639
  15 H :   -0.269264
  16 H :   -0.180622
Sum of atomic charges:   -0.0000000

LOEWDIN ATOMIC CHARGES
----------------------
   0 C :   -0.123839
   1 B :   -1.672085
   2 F :    0.755887
   3 F :    0.743211
   4 C :    0.253121
   5 C :    0.251407
   6 C :    0.343776
   7 C :    0.337692
   8 C :    0.339892
   9 H :   -0.319604
  10 H :   -0.343685
  11 H :   -0.318048
  12 H :   -0.318106
  13 H :   -0.340919
  14 Si:    0.874594
  15 H :   -0.229456
  16 H :   -0.233838

  Mayer bond orders larger than 0.100000
B(  0-C ,  4-C ) :   0.9064 B(  0-C ,  5-C ) :   0.8672 B(  0-C ,  6-C ) :  -0.2792
B(  0-C ,  8-C ) :  -0.2981 B(  0-C , 10-H ) :  -0.1482 B(  0-C , 13-H ) :  -0.1634
B(  0-C , 14-Si) :   0.9912 B(  0-C , 15-H ) :  -0.1362 B(  1-B ,  2-F ) :   0.1892
B(  1-B ,  3-F ) :   0.1914 B(  1-B , 14-Si) :   0.8659 B(  4-C ,  6-C ) :   1.2383
B(  4-C ,  8-C ) :   0.1231 B(  4-C , 11-H ) :  -0.1420 B(  4-C , 13-H ) :   0.8847
B(  4-C , 14-Si) :  -0.1599 B(  5-C ,  6-C ) :   0.1388 B(  5-C ,  7-C ) :   0.1354
B(  5-C ,  8-C ) :   1.3490 B(  5-C ,  9-H ) :  -0.1495 B(  5-C , 10-H ) :   0.9490
B(  5-C , 14-Si) :  -0.1127 B(  6-C ,  7-C ) :   1.1696 B(  6-C ,  8-C ) :  -0.1076
B(  6-C , 11-H ) :   1.1043 B(  7-C ,  8-C ) :   1.1426 B(  7-C ,  9-H ) :  -0.1029
B(  7-C , 12-H ) :   0.9727 B(  8-C ,  9-H ) :   1.1129 B( 14-Si, 15-H ) :   0.6734
B( 14-Si, 16-H ) :   0.7622

MP2 TOTAL ENERGY:     -745.906440198 Eh
FINAL SINGLE POINT ENERGY      -745.906440198131

DIPOLE MOMENT
-------------
                                X             Y             Z
Electronic contribution:     16.12575       3.48860      -2.10466
Nuclear contribution   :    -16.87363      -3.64060       2.18521
                        -----------------------------------------
Total Dipole Moment    :     -0.74788      -0.15200       0.08055
                        -----------------------------------------
Magnitude (a.u.)       :      0.76741
Magnitude (Debye)      :      1.95060

Rotational constants in cm-1:     0.085622     0.019472     0.016878
Rotational constants in MHz :  2566.878518   583.765994   505.983359

                             ****ORCA TERMINATED NORMALLY****
TOTAL RUN TIME: 0 days 0 hours 35 minutes 15 seconds 26 msec
