                         Program Version 5.0.4 -  RELEASE  -
|  1> ! ri-mp2 aug-cc-pvdz aug-cc-pvdz/c tightscf
|  2> %pal nprocs 16 end
|  3> %maxcore 3800
|  4> %base "DZ_Si-Si_119_A"
|  5> %scf
|  6> STABPerform true
|  7> STABRestartUHFifUnstable true
|  8> end
|  9>
| 10> *xyz 0 2
| 11> Si         1.767547   -0.058203   -0.123934
| 12> S        -0.426772    0.134083    0.064413
| 13> H         2.313244    1.100382    0.610432
| 14> H         2.134686   -1.358411    0.475932
| 15> O        -0.844838   -0.156026    1.407672
| 16> O        -0.942443   -1.092623   -0.836319
| 17> O        -0.839142    1.333207   -0.587235
| 18> H        -1.353840   -1.748922   -0.254837
| 19> *
| 20>
| 21> $new_job
| 22> ! ri-mp2 aug-cc-pvtz aug-cc-pvtz/c tightscf
| 23> %pal nprocs 16 end
| 24> %maxcore 3800
| 25> %base "TZ_Si-Si_119_A"
| 26>
| 27> *xyz 0 2
| 28> Si         1.767547   -0.058203   -0.123934
| 29> S        -0.426772    0.134083    0.064413
| 30> H         2.313244    1.100382    0.610432
| 31> H         2.134686   -1.358411    0.475932
| 32> O        -0.844838   -0.156026    1.407672
| 33> O        -0.942443   -1.092623   -0.836319
| 34> O        -0.839142    1.333207   -0.587235
| 35> H        -1.353840   -1.748922   -0.254837
| 36> *
| 37>
| 38> $new_job
| 39> ! ri-mp2 aug-cc-pvqz aug-cc-pvqz/c tightscf
| 40> %pal nprocs 16 end
| 41> %maxcore 3800
| 42> %base "QZ_Si-Si_119_A"
| 43>
| 44> *xyz 0 2
| 45> Si         1.767547   -0.058203   -0.123934
| 46> S        -0.426772    0.134083    0.064413
| 47> H         2.313244    1.100382    0.610432
| 48> H         2.134686   -1.358411    0.475932
| 49> O        -0.844838   -0.156026    1.407672
| 50> O        -0.942443   -1.092623   -0.836319
| 51> O        -0.839142    1.333207   -0.587235
| 52> H        -1.353840   -1.748922   -0.254837
| 53> *
| 54>
| 55>
| 56>
| 57>
| 58>                          ****END OF INPUT****
 Total Charge           Charge          ....    0
 Multiplicity           Mult            ....    2
 Number of Electrons    NEL             ....   57
MP2 TOTAL ENERGY:     -913.541459420 Eh
FINAL SINGLE POINT ENERGY      -913.541459420255
MP2 TOTAL ENERGY:     -913.861625721 Eh
FINAL SINGLE POINT ENERGY      -913.861625721498

CARTESIAN COORDINATES (ANGSTROEM)
---------------------------------
  Si     1.767547   -0.058203   -0.123934
  S     -0.426772    0.134083    0.064413
  H      2.313244    1.100382    0.610432
  H      2.134686   -1.358411    0.475932
  O     -0.844838   -0.156026    1.407672
  O     -0.942443   -1.092623   -0.836319
  O     -0.839142    1.333207   -0.587235
  H     -1.353840   -1.748922   -0.254837

 Multiplicity           Mult            ....    2
 Number of Electrons    NEL             ....   57
 Basis Dimension        Dim             ....  546

ORBITAL ENERGIES
----------------
                 SPIN UP ORBITALS
  NO   OCC          E(Eh)            E(eV)
   0   1.0000     -92.201637     -2508.9341
   1   1.0000     -68.845596     -1873.3839
   2   1.0000     -20.633017      -561.4529
   3   1.0000     -20.564500      -559.5885
   4   1.0000     -20.560163      -559.4705
   5   1.0000      -9.168795      -249.4956
   6   1.0000      -6.854822      -186.5292
   7   1.0000      -6.853031      -186.4805
   8   1.0000      -6.852995      -186.4795
   9   1.0000      -6.195091      -168.5770
  10   1.0000      -4.307131      -117.2030
  11   1.0000      -4.297692      -116.9461
  12   1.0000      -4.296820      -116.9224
  13   1.0000      -1.513536       -41.1854
  14   1.0000      -1.397459       -38.0268
  15   1.0000      -1.366733       -37.1907
  16   1.0000      -0.922284       -25.0966
  17   1.0000      -0.797748       -21.7078
  18   1.0000      -0.740690       -20.1552
  19   1.0000      -0.693516       -18.8715
  20   1.0000      -0.676761       -18.4156
  21   1.0000      -0.638486       -17.3741
  22   1.0000      -0.580991       -15.8096
  23   1.0000      -0.549271       -14.9464
  24   1.0000      -0.530341       -14.4313
  25   1.0000      -0.518392       -14.1062
  26   1.0000      -0.494906       -13.4671
  27   1.0000      -0.460748       -12.5376
  28   1.0000      -0.388741       -10.5782
  29   0.0000       0.017548         0.4775
  30   0.0000       0.029173         0.7938
  31   0.0000       0.040726         1.1082
  32   0.0000       0.040994         1.1155
  33   0.0000       0.049958         1.3594

                 SPIN DOWN ORBITALS
  NO   OCC          E(Eh)            E(eV)
   0   1.0000     -92.201509     -2508.9306
   1   1.0000     -68.839364     -1873.2143
   2   1.0000     -20.633208      -561.4581
   3   1.0000     -20.562352      -559.5301
   4   1.0000     -20.560196      -559.4714
   5   1.0000      -9.168606      -249.4905
   6   1.0000      -6.854704      -186.5260
   7   1.0000      -6.853134      -186.4833
   8   1.0000      -6.852559      -186.4676
   9   1.0000      -6.185296      -168.3105
  10   1.0000      -4.293478      -116.8315
  11   1.0000      -4.292726      -116.8110
  12   1.0000      -4.283779      -116.5676
  13   1.0000      -1.512513       -41.1576
  14   1.0000      -1.397096       -38.0169
  15   1.0000      -1.363478       -37.1021
  16   1.0000      -0.915947       -24.9242
  17   1.0000      -0.779973       -21.2241
  18   1.0000      -0.734397       -19.9840
  19   1.0000      -0.691539       -18.8177
  20   1.0000      -0.656271       -17.8580
  21   1.0000      -0.636626       -17.3235
  22   1.0000      -0.577903       -15.7255
  23   1.0000      -0.541782       -14.7426
  24   1.0000      -0.525242       -14.2926
  25   1.0000      -0.511311       -13.9135
  26   1.0000      -0.490792       -13.3551
  27   1.0000      -0.449235       -12.2243
  28   0.0000      -0.006481        -0.1764
  29   0.0000       0.019509         0.5309
  30   0.0000       0.030017         0.8168
  31   0.0000       0.041301         1.1238
  32   0.0000       0.048350         1.3157

MULLIKEN ATOMIC CHARGES AND SPIN POPULATIONS
--------------------------------------------
   0 Si:    0.828500    0.940232
   1 S :    2.175180   -0.019694
   2 H :   -0.168302    0.023912
   3 H :   -0.169946    0.030434
   4 O :   -1.118132    0.035033
   5 O :   -0.773153   -0.006684
   6 O :   -1.132210   -0.003996
   7 H :    0.358063    0.000762
Sum of atomic charges         :    0.0000000

LOEWDIN ATOMIC CHARGES AND SPIN POPULATIONS
-------------------------------------------
   0 Si:    0.967976    0.568194
   1 S :   -0.708542    0.123228
   2 H :   -0.368588    0.129080
   3 H :   -0.368450    0.131741
   4 O :    0.220557    0.036611
   5 O :    0.970868    0.005545
   6 O :    0.196150    0.006144
   7 H :   -0.909972   -0.000544

  Mayer bond orders larger than 0.100000
B(  0-Si,  1-S ) :   0.6510 B(  0-Si,  2-H ) :   0.9058 B(  0-Si,  3-H ) :   0.9047
B(  1-S ,  4-O ) :   1.2123 B(  1-S ,  5-O ) :   0.7033 B(  1-S ,  6-O ) :   1.2497
B(  5-O ,  7-H ) :   0.8945

MP2 TOTAL ENERGY:     -913.967753586 Eh
FINAL SINGLE POINT ENERGY      -913.967753585962

DIPOLE MOMENT
-------------
                                X             Y             Z
Electronic contribution:     -1.51475       0.81709      -0.98801
Nuclear contribution   :      2.84899      -1.93193       0.80582
                        -----------------------------------------
Total Dipole Moment    :      1.33424      -1.11484      -0.18219
                        -----------------------------------------
Magnitude (a.u.)       :      1.74822
Magnitude (Debye)      :      4.44361

Rotational constants in cm-1:     0.161725     0.087860     0.085529
Rotational constants in MHz :  4848.385815  2633.980375  2564.086525

                             ****ORCA TERMINATED NORMALLY****
TOTAL RUN TIME: 0 days 0 hours 51 minutes 0 seconds 339 msec
