                         Program Version 5.0.4 -  RELEASE  -
|  1> ! ri-mp2 aug-cc-pvdz aug-cc-pvdz/c tightscf
|  2> %pal nprocs 16 end
|  3> %maxcore 3800
|  4> %base "DZ_S-F_43_AB"
|  5> %scf
|  6> STABPerform true
|  7> STABRestartUHFifUnstable true
|  8> end
|  9>
| 10> *xyz 0 1
| 11> F        -1.680591   -1.223214   -0.000004
| 12> S        -1.460373    0.394579   -0.000002
| 13> C         0.309772    0.518247    0.000000
| 14> O         0.737144    1.648862   -0.000003
| 15> N         1.006296   -0.624231    0.000004
| 16> C         2.454225   -0.640806    0.000006
| 17> H         0.493229   -1.489757    0.000007
| 18> H         2.835072   -1.144209    0.888552
| 19> H         2.802696    0.387950   -0.000009
| 20> H         2.835073   -1.144237   -0.888524
| 21> *
| 22>
| 23> $new_job
| 24> ! ri-mp2 aug-cc-pvtz aug-cc-pvtz/c tightscf
| 25> %pal nprocs 16 end
| 26> %maxcore 3800
| 27> %base "TZ_S-F_43_AB"
| 28>
| 29> *xyz 0 1
| 30> F        -1.680591   -1.223214   -0.000004
| 31> S        -1.460373    0.394579   -0.000002
| 32> C         0.309772    0.518247    0.000000
| 33> O         0.737144    1.648862   -0.000003
| 34> N         1.006296   -0.624231    0.000004
| 35> C         2.454225   -0.640806    0.000006
| 36> H         0.493229   -1.489757    0.000007
| 37> H         2.835072   -1.144209    0.888552
| 38> H         2.802696    0.387950   -0.000009
| 39> H         2.835073   -1.144237   -0.888524
| 40> *
| 41>
| 42> $new_job
| 43> ! ri-mp2 aug-cc-pvqz aug-cc-pvqz/c tightscf
| 44> %pal nprocs 16 end
| 45> %maxcore 3800
| 46> %base "QZ_S-F_43_AB"
| 47>
| 48> *xyz 0 1
| 49> F        -1.680591   -1.223214   -0.000004
| 50> S        -1.460373    0.394579   -0.000002
| 51> C         0.309772    0.518247    0.000000
| 52> O         0.737144    1.648862   -0.000003
| 53> N         1.006296   -0.624231    0.000004
| 54> C         2.454225   -0.640806    0.000006
| 55> H         0.493229   -1.489757    0.000007
| 56> H         2.835072   -1.144209    0.888552
| 57> H         2.802696    0.387950   -0.000009
| 58> H         2.835073   -1.144237   -0.888524
| 59> *
| 60>
| 61>
| 62>
| 63>
| 64>                          ****END OF INPUT****
 Total Charge           Charge          ....    0
 Multiplicity           Mult            ....    1
 Number of Electrons    NEL             ....   56
MP2 TOTAL ENERGY:     -705.364144398 Eh
FINAL SINGLE POINT ENERGY      -705.364144398205
MP2 TOTAL ENERGY:     -705.680840155 Eh
FINAL SINGLE POINT ENERGY      -705.680840155496

CARTESIAN COORDINATES (ANGSTROEM)
---------------------------------
  F     -1.680591   -1.223214   -0.000004
  S     -1.460373    0.394579   -0.000002
  C      0.309772    0.518247    0.000000
  O      0.737144    1.648862   -0.000003
  N      1.006296   -0.624231    0.000004
  C      2.454225   -0.640806    0.000006
  H      0.493229   -1.489757    0.000007
  H      2.835072   -1.144209    0.888552
  H      2.802696    0.387950   -0.000009
  H      2.835073   -1.144237   -0.888524

 Multiplicity           Mult            ....    1
 Number of Electrons    NEL             ....   56
 Basis Dimension        Dim             ....  668

ORBITAL ENERGIES
----------------

  NO   OCC          E(Eh)            E(eV)
   0   2.0000     -92.054027     -2504.9174
   1   2.0000     -26.330112      -716.4788
   2   2.0000     -20.545072      -559.0598
   3   2.0000     -15.611037      -424.7979
   4   2.0000     -11.396390      -310.1115
   5   2.0000     -11.276752      -306.8560
   6   2.0000      -9.049045      -246.2370
   7   2.0000      -6.730450      -183.1448
   8   2.0000      -6.728279      -183.0858
   9   2.0000      -6.727005      -183.0511
  10   2.0000      -1.628043       -44.3013
  11   2.0000      -1.418594       -38.6019
  12   2.0000      -1.265547       -34.4373
  13   2.0000      -1.035149       -28.1678
  14   2.0000      -0.957574       -26.0569
  15   2.0000      -0.816605       -22.2210
  16   2.0000      -0.765686       -20.8354
  17   2.0000      -0.712030       -19.3753
  18   2.0000      -0.707017       -19.2389
  19   2.0000      -0.663063       -18.0429
  20   2.0000      -0.650587       -17.7034
  21   2.0000      -0.644477       -17.5371
  22   2.0000      -0.575666       -15.6647
  23   2.0000      -0.571158       -15.5420
  24   2.0000      -0.557115       -15.1599
  25   2.0000      -0.443027       -12.0554
  26   2.0000      -0.422214       -11.4890
  27   2.0000      -0.397792       -10.8245
  28   0.0000       0.021210         0.5772
  29   0.0000       0.036896         1.0040
  30   0.0000       0.037332         1.0158
  31   0.0000       0.045933         1.2499
  32   0.0000       0.059150         1.6095

MULLIKEN ATOMIC CHARGES
-----------------------
   0 F :   -0.644825
   1 S :    0.690110
   2 C :    0.524999
   3 O :   -0.715672
   4 N :   -0.344315
   5 C :   -0.686871
   6 H :    0.330000
   7 H :    0.274094
   8 H :    0.298385
   9 H :    0.274094
Sum of atomic charges:   -0.0000000

LOEWDIN ATOMIC CHARGES
----------------------
   0 F :    0.107683
   1 S :    0.699514
   2 C :   -1.370999
   3 O :    0.573825
   4 N :    0.715731
   5 C :    0.788738
   6 H :   -0.601860
   7 H :   -0.282933
   8 H :   -0.346765
   9 H :   -0.282933

  Mayer bond orders larger than 0.100000
B(  0-F ,  1-S ) :   0.5891 B(  1-S ,  2-C ) :   1.0260 B(  1-S ,  4-N ) :  -0.1280
B(  2-C ,  3-O ) :   1.5063 B(  2-C ,  4-N ) :   1.1490 B(  3-O ,  4-N ) :   0.1547
B(  4-N ,  5-C ) :   0.7864 B(  4-N ,  6-H ) :   0.9429 B(  5-C ,  7-H ) :   0.9533
B(  5-C ,  8-H ) :   0.9200 B(  5-C ,  9-H ) :   0.9533

MP2 TOTAL ENERGY:     -705.785607525 Eh
FINAL SINGLE POINT ENERGY      -705.785607524644

DIPOLE MOMENT
-------------
                                X             Y             Z
Electronic contribution:     -9.80719       0.94199      -0.00002
Nuclear contribution   :     10.30188      -2.09352       0.00003
                        -----------------------------------------
Total Dipole Moment    :      0.49469      -1.15153       0.00001
                        -----------------------------------------
Magnitude (a.u.)       :      1.25329
Magnitude (Debye)      :      3.18562

Rotational constants in cm-1:     0.174439     0.069145     0.049985
Rotational constants in MHz :  5229.558999  2072.926556  1498.505135

                             ****ORCA TERMINATED NORMALLY****
TOTAL RUN TIME: 0 days 0 hours 29 minutes 16 seconds 74 msec
