                         Program Version 5.0.4 -  RELEASE  -
|  1> ! ri-mp2 aug-cc-pvdz aug-cc-pvdz/c tightscf
|  2> %pal nprocs 16 end
|  3> %maxcore 3800
|  4> %base "DZ_B-P_78_A"
|  5> %scf
|  6> STABPerform true
|  7> STABRestartUHFifUnstable true
|  8> end
|  9>
| 10> *xyz 0 2
| 11> C        -1.905791    0.153921    0.000005
| 12> N        -0.627730   -0.378940    0.000007
| 13> C         0.527690    0.385372    0.000010
| 14> O        -2.885044   -0.537859   -0.000004
| 15> H        -1.914039    1.249537    0.000004
| 16> O         0.503249    1.592256    0.000000
| 17> H        -0.569182   -1.385592    0.000003
| 18> P         2.169702   -0.472351   -0.000008
| 19> H         1.654766   -1.797039    0.000008
| 20> *
| 21>
| 22> $new_job
| 23> ! ri-mp2 aug-cc-pvtz aug-cc-pvtz/c tightscf
| 24> %pal nprocs 16 end
| 25> %maxcore 3800
| 26> %base "TZ_B-P_78_A"
| 27>
| 28> *xyz 0 2
| 29> C        -1.905791    0.153921    0.000005
| 30> N        -0.627730   -0.378940    0.000007
| 31> C         0.527690    0.385372    0.000010
| 32> O        -2.885044   -0.537859   -0.000004
| 33> H        -1.914039    1.249537    0.000004
| 34> O         0.503249    1.592256    0.000000
| 35> H        -0.569182   -1.385592    0.000003
| 36> P         2.169702   -0.472351   -0.000008
| 37> H         1.654766   -1.797039    0.000008
| 38> *
| 39>
| 40> $new_job
| 41> ! ri-mp2 aug-cc-pvqz aug-cc-pvqz/c tightscf
| 42> %pal nprocs 16 end
| 43> %maxcore 3800
| 44> %base "QZ_B-P_78_A"
| 45>
| 46> *xyz 0 2
| 47> C        -1.905791    0.153921    0.000005
| 48> N        -0.627730   -0.378940    0.000007
| 49> C         0.527690    0.385372    0.000010
| 50> O        -2.885044   -0.537859   -0.000004
| 51> H        -1.914039    1.249537    0.000004
| 52> O         0.503249    1.592256    0.000000
| 53> H        -0.569182   -1.385592    0.000003
| 54> P         2.169702   -0.472351   -0.000008
| 55> H         1.654766   -1.797039    0.000008
| 56> *
| 57>
| 58>
| 59>
| 60>
| 61>                          ****END OF INPUT****
 Total Charge           Charge          ....    0
 Multiplicity           Mult            ....    2
 Number of Electrons    NEL             ....   53
MP2 TOTAL ENERGY:     -623.348398538 Eh
FINAL SINGLE POINT ENERGY      -623.348398538494
MP2 TOTAL ENERGY:     -623.620684750 Eh
FINAL SINGLE POINT ENERGY      -623.620684750112

CARTESIAN COORDINATES (ANGSTROEM)
---------------------------------
  C     -1.905791    0.153921    0.000005
  N     -0.627730   -0.378940    0.000007
  C      0.527690    0.385372    0.000010
  O     -2.885044   -0.537859   -0.000004
  H     -1.914039    1.249537    0.000004
  O      0.503249    1.592256    0.000000
  H     -0.569182   -1.385592    0.000003
  P      2.169702   -0.472351   -0.000008
  H      1.654766   -1.797039    0.000008

 Multiplicity           Mult            ....    2
 Number of Electrons    NEL             ....   53
 Basis Dimension        Dim             ....  622

ORBITAL ENERGIES
----------------
                 SPIN UP ORBITALS
  NO   OCC          E(Eh)            E(eV)
   0   1.0000     -79.997322     -2176.8378
   1   1.0000     -20.576257      -559.9084
   2   1.0000     -20.560957      -559.4921
   3   1.0000     -15.631268      -425.3484
   4   1.0000     -11.391111      -309.9679
   5   1.0000     -11.375666      -309.5476
   6   1.0000      -7.540301      -205.1820
   7   1.0000      -5.444457      -148.1512
   8   1.0000      -5.430851      -147.7810
   9   1.0000      -5.429056      -147.7321
  10   1.0000      -1.445827       -39.3430
  11   1.0000      -1.419496       -38.6265
  12   1.0000      -1.268126       -34.5075
  13   1.0000      -0.968591       -26.3567
  14   1.0000      -0.866521       -23.5792
  15   1.0000      -0.838698       -22.8221
  16   1.0000      -0.721855       -19.6427
  17   1.0000      -0.700447       -19.0601
  18   1.0000      -0.646690       -17.5973
  19   1.0000      -0.645689       -17.5701
  20   1.0000      -0.619879       -16.8678
  21   1.0000      -0.570065       -15.5123
  22   1.0000      -0.489537       -13.3210
  23   1.0000      -0.480510       -13.0753
  24   1.0000      -0.454588       -12.3700
  25   1.0000      -0.426167       -11.5966
  26   1.0000      -0.407748       -11.0954
  27   0.0000       0.019414         0.5283
  28   0.0000       0.036971         1.0060
  29   0.0000       0.040846         1.1115
  30   0.0000       0.050499         1.3742
  31   0.0000       0.057226         1.5572

                 SPIN DOWN ORBITALS
  NO   OCC          E(Eh)            E(eV)
   0   1.0000     -79.990389     -2176.6491
   1   1.0000     -20.569105      -559.7138
   2   1.0000     -20.561110      -559.4963
   3   1.0000     -15.631497      -425.3547
   4   1.0000     -11.395079      -310.0759
   5   1.0000     -11.375657      -309.5474
   6   1.0000      -7.531790      -204.9504
   7   1.0000      -5.425981      -147.6484
   8   1.0000      -5.425676      -147.6401
   9   1.0000      -5.411871      -147.2645
  10   1.0000      -1.437475       -39.1157
  11   1.0000      -1.415711       -38.5234
  12   1.0000      -1.266279       -34.4572
  13   1.0000      -0.948004       -25.7965
  14   1.0000      -0.849967       -23.1288
  15   1.0000      -0.819176       -22.2909
  16   1.0000      -0.719060       -19.5666
  17   1.0000      -0.691552       -18.8181
  18   1.0000      -0.646156       -17.5828
  19   1.0000      -0.636446       -17.3186
  20   1.0000      -0.614174       -16.7125
  21   1.0000      -0.551182       -14.9984
  22   1.0000      -0.486806       -13.2467
  23   1.0000      -0.463021       -12.5994
  24   1.0000      -0.434801       -11.8315
  25   1.0000      -0.419541       -11.4163
  26   0.0000      -0.012460        -0.3391
  27   0.0000       0.020291         0.5521
  28   0.0000       0.037161         1.0112
  29   0.0000       0.041170         1.1203
  30   0.0000       0.055305         1.5049

MULLIKEN ATOMIC CHARGES AND SPIN POPULATIONS
--------------------------------------------
   0 C :    0.413434    0.003457
   1 N :   -0.575240   -0.000879
   2 C :    0.544916   -0.188085
   3 O :   -0.731265   -0.003164
   4 H :    0.457011   -0.001005
   5 O :   -0.684996    0.158339
   6 H :    0.259156   -0.001074
   7 P :    0.417762    1.091266
   8 H :   -0.100779   -0.058856
Sum of atomic charges         :   -0.0000000

LOEWDIN ATOMIC CHARGES AND SPIN POPULATIONS
-------------------------------------------
   0 C :   -0.437237   -0.001848
   1 N :    0.660992   -0.003022
   2 C :   -1.197087    0.152249
   3 O :    0.688266   -0.002355
   4 H :   -0.387920    0.000089
   5 O :    0.584423    0.108004
   6 H :   -0.591302    0.002183
   7 P :    1.291729    0.568104
   8 H :   -0.611865    0.176596

  Mayer bond orders larger than 0.100000
B(  0-C ,  1-N ) :   1.1061 B(  0-C ,  3-O ) :   1.6125 B(  0-C ,  4-H ) :   0.8029
B(  1-N ,  2-C ) :   1.0007 B(  1-N ,  5-O ) :   0.1595 B(  1-N ,  6-H ) :   0.9545
B(  2-C ,  5-O ) :   1.4940 B(  2-C ,  7-P ) :   0.8889 B(  7-P ,  8-H ) :   0.9329

MP2 TOTAL ENERGY:     -623.711507050 Eh
FINAL SINGLE POINT ENERGY      -623.711507049789

DIPOLE MOMENT
-------------
                                X             Y             Z
Electronic contribution:      3.75091       0.56518      -0.00001
Nuclear contribution   :     -2.80940      -1.40548       0.00002
                        -----------------------------------------
Total Dipole Moment    :      0.94151      -0.84030       0.00001
                        -----------------------------------------
Magnitude (a.u.)       :      1.26196
Magnitude (Debye)      :      3.20765

Rotational constants in cm-1:     0.268089     0.049254     0.041609
Rotational constants in MHz :  8037.116469  1476.584173  1247.409333

                             ****ORCA TERMINATED NORMALLY****
TOTAL RUN TIME: 0 days 1 hours 14 minutes 43 seconds 919 msec
