                         Program Version 5.0.4 -  RELEASE  -
|  1> ! ri-mp2 aug-cc-pvdz aug-cc-pvdz/c tightscf
|  2> %pal nprocs 16 end
|  3> %maxcore 3800
|  4> %base "DZ_B-Cl_65_AB"
|  5>
|  6> *xyz 0 1
|  7> Cl         2.732002   -1.100192   -0.000000
|  8> Cl         1.990321    1.794626   -0.000004
|  9> B         1.469228    0.118455    0.000003
| 10> C        -0.021672   -0.264139    0.000002
| 11> C        -1.015909    0.719905    0.000001
| 12> C        -2.363382    0.404494   -0.000000
| 13> C        -2.721518   -0.940027   -0.000001
| 14> C        -0.419823   -1.601926    0.000002
| 15> H         0.327551   -2.382930    0.000003
| 16> C        -1.761143   -1.935065    0.000001
| 17> H        -2.061142   -2.974513    0.000000
| 18> C        -3.415700    1.474985    0.000002
| 19> H        -3.771281   -1.209413   -0.000002
| 20> H        -4.057294    1.395358   -0.878906
| 21> H        -2.968170    2.467372   -0.000033
| 22> H        -4.057247    1.395400    0.878948
| 23> H        -0.723159    1.761722    0.000000
| 24> *
| 25>
| 26> $new_job
| 27> ! ri-mp2 aug-cc-pvtz aug-cc-pvtz/c tightscf
| 28> %pal nprocs 16 end
| 29> %maxcore 3800
| 30> %base "TZ_B-Cl_65_AB"
| 31>
| 32> *xyz 0 1
| 33> Cl         2.732002   -1.100192   -0.000000
| 34> Cl         1.990321    1.794626   -0.000004
| 35> B         1.469228    0.118455    0.000003
| 36> C        -0.021672   -0.264139    0.000002
| 37> C        -1.015909    0.719905    0.000001
| 38> C        -2.363382    0.404494   -0.000000
| 39> C        -2.721518   -0.940027   -0.000001
| 40> C        -0.419823   -1.601926    0.000002
| 41> H         0.327551   -2.382930    0.000003
| 42> C        -1.761143   -1.935065    0.000001
| 43> H        -2.061142   -2.974513    0.000000
| 44> C        -3.415700    1.474985    0.000002
| 45> H        -3.771281   -1.209413   -0.000002
| 46> H        -4.057294    1.395358   -0.878906
| 47> H        -2.968170    2.467372   -0.000033
| 48> H        -4.057247    1.395400    0.878948
| 49> H        -0.723159    1.761722    0.000000
| 50> *
| 51>
| 52> $new_job
| 53> ! ri-mp2 aug-cc-pvqz aug-cc-pvqz/c tightscf
| 54> %pal nprocs 16 end
| 55> %maxcore 3800
| 56> %base "QZ_B-Cl_65_AB"
| 57>
| 58> *xyz 0 1
| 59> Cl         2.732002   -1.100192   -0.000000
| 60> Cl         1.990321    1.794626   -0.000004
| 61> B         1.469228    0.118455    0.000003
| 62> C        -0.021672   -0.264139    0.000002
| 63> C        -1.015909    0.719905    0.000001
| 64> C        -2.363382    0.404494   -0.000000
| 65> C        -2.721518   -0.940027   -0.000001
| 66> C        -0.419823   -1.601926    0.000002
| 67> H         0.327551   -2.382930    0.000003
| 68> C        -1.761143   -1.935065    0.000001
| 69> H        -2.061142   -2.974513    0.000000
| 70> C        -3.415700    1.474985    0.000002
| 71> H        -3.771281   -1.209413   -0.000002
| 72> H        -4.057294    1.395358   -0.878906
| 73> H        -2.968170    2.467372   -0.000033
| 74> H        -4.057247    1.395400    0.878948
| 75> H        -0.723159    1.761722    0.000000
| 76> *
| 77>
| 78>
| 79>
| 80>
| 81>                          ****END OF INPUT****
 Total Charge           Charge          ....    0
 Multiplicity           Mult            ....    1
 Number of Electrons    NEL             ....   88
MP2 TOTAL ENERGY:    -1214.317322578 Eh
FINAL SINGLE POINT ENERGY     -1214.317322577919
MP2 TOTAL ENERGY:    -1214.695171743 Eh
FINAL SINGLE POINT ENERGY     -1214.695171743336

CARTESIAN COORDINATES (ANGSTROEM)
---------------------------------
  Cl     2.732002   -1.100192   -0.000000
  Cl     1.990321    1.794626   -0.000004
  B      1.469228    0.118455    0.000003
  C     -0.021672   -0.264139    0.000002
  C     -1.015909    0.719905    0.000001
  C     -2.363382    0.404494   -0.000000
  C     -2.721518   -0.940027   -0.000001
  C     -0.419823   -1.601926    0.000002
  H      0.327551   -2.382930    0.000003
  C     -1.761143   -1.935065    0.000001
  H     -2.061142   -2.974513    0.000000
  C     -3.415700    1.474985    0.000002
  H     -3.771281   -1.209413   -0.000002
  H     -4.057294    1.395358   -0.878906
  H     -2.968170    2.467372   -0.000033
  H     -4.057247    1.395400    0.878948
  H     -0.723159    1.761722    0.000000

 Multiplicity           Mult            ....    1
 Number of Electrons    NEL             ....   88
 Basis Dimension        Dim             .... 1130

ORBITAL ENERGIES
----------------

  NO   OCC          E(Eh)            E(eV)
   0   2.0000    -104.834630     -2852.6953
   1   2.0000    -104.834398     -2852.6890
   2   2.0000     -11.248619      -306.0905
   3   2.0000     -11.247217      -306.0523
   4   2.0000     -11.246686      -306.0379
   5   2.0000     -11.244677      -305.9832
   6   2.0000     -11.240135      -305.8596
   7   2.0000     -11.230116      -305.5870
   8   2.0000     -11.228885      -305.5535
   9   2.0000     -10.562604      -287.4231
  10   2.0000     -10.562369      -287.4167
  11   2.0000      -8.029436      -218.4921
  12   2.0000      -8.029203      -218.4857
  13   2.0000      -8.028388      -218.4635
  14   2.0000      -8.028165      -218.4575
  15   2.0000      -8.028151      -218.4571
  16   2.0000      -8.027929      -218.4510
  17   2.0000      -7.702534      -209.5966
  18   2.0000      -1.173930       -31.9443
  19   2.0000      -1.138162       -30.9710
  20   2.0000      -1.094357       -29.7790
  21   2.0000      -1.059331       -28.8259
  22   2.0000      -1.028304       -27.9816
  23   2.0000      -0.945730       -25.7346
  24   2.0000      -0.845618       -23.0104
  25   2.0000      -0.816061       -22.2062
  26   2.0000      -0.716389       -19.4939
  27   2.0000      -0.677443       -18.4341
  28   2.0000      -0.655346       -17.8329
  29   2.0000      -0.623791       -16.9742
  30   2.0000      -0.593062       -16.1380
  31   2.0000      -0.587611       -15.9897
  32   2.0000      -0.582049       -15.8384
  33   2.0000      -0.561333       -15.2746
  34   2.0000      -0.544512       -14.8169
  35   2.0000      -0.526402       -14.3241
  36   2.0000      -0.506129       -13.7725
  37   2.0000      -0.498224       -13.5574
  38   2.0000      -0.493772       -13.4362
  39   2.0000      -0.462606       -12.5882
  40   2.0000      -0.459176       -12.4948
  41   2.0000      -0.446579       -12.1520
  42   2.0000      -0.353812        -9.6277
  43   2.0000      -0.339817        -9.2469
  44   0.0000       0.019915         0.5419
  45   0.0000       0.026570         0.7230
  46   0.0000       0.030696         0.8353
  47   0.0000       0.035381         0.9628
  48   0.0000       0.041034         1.1166

MULLIKEN ATOMIC CHARGES
-----------------------
   0 Cl:   -0.255167
   1 Cl:   -0.271172
   2 B :    0.888223
   3 C :   -0.302948
   4 C :   -0.486395
   5 C :    0.412677
   6 C :   -0.398471
   7 C :   -0.334243
   8 H :    0.337847
   9 C :   -0.279668
  10 H :    0.195189
  11 C :   -0.815186
  12 H :    0.336360
  13 H :    0.231135
  14 H :    0.221198
  15 H :    0.231146
  16 H :    0.289475
Sum of atomic charges:    0.0000000

LOEWDIN ATOMIC CHARGES
----------------------
   0 Cl:    1.297990
   1 Cl:    1.299894
   2 B :   -2.307775
   3 C :   -0.151760
   4 C :    0.270659
   5 C :   -0.059352
   6 C :    0.353859
   7 C :    0.266375
   8 H :   -0.377040
   9 C :    0.367332
  10 H :   -0.317009
  11 C :    0.912635
  12 H :   -0.304632
  13 H :   -0.281621
  14 H :   -0.306095
  15 H :   -0.281620
  16 H :   -0.381841

  Mayer bond orders larger than 0.100000
B(  0-Cl,  2-B ) :   0.8812 B(  0-Cl,  3-C ) :   0.3214 B(  0-Cl,  8-H ) :  -0.1417
B(  1-Cl,  2-B ) :   0.8659 B(  1-Cl,  3-C ) :   0.1645 B(  1-Cl,  4-C ) :   0.1122
B(  1-Cl, 16-H ) :  -0.1191 B(  2-B ,  3-C ) :   1.2740 B(  3-C ,  4-C ) :   1.2258
B(  3-C ,  5-C ) :  -0.4676 B(  3-C ,  6-C ) :  -0.1265 B(  3-C ,  7-C ) :   1.0023
B(  3-C ,  8-H ) :  -0.1083 B(  3-C ,  9-C ) :  -0.4105 B(  3-C , 16-H ) :  -0.1159
B(  4-C ,  5-C ) :   0.9847 B(  4-C ,  9-C ) :   0.1893 B(  4-C , 11-C ) :  -0.1314
B(  4-C , 16-H ) :   0.9909 B(  5-C ,  6-C ) :   0.9530 B(  5-C ,  9-C ) :  -0.1997
B(  5-C , 11-C ) :   0.7621 B(  5-C , 12-H ) :  -0.1021 B(  6-C ,  7-C ) :   0.1582
B(  6-C ,  9-C ) :   1.2297 B(  6-C , 10-H ) :  -0.1572 B(  6-C , 12-H ) :   0.9515
B(  7-C ,  8-H ) :   1.0139 B(  7-C ,  9-C ) :   1.2167 B(  7-C , 10-H ) :  -0.1730
B(  9-C , 10-H ) :   1.2256 B( 11-C , 13-H ) :   1.0152 B( 11-C , 14-H ) :   1.0629
B( 11-C , 15-H ) :   1.0152

MP2 TOTAL ENERGY:    -1214.817880369 Eh
FINAL SINGLE POINT ENERGY     -1214.817880369484

DIPOLE MOMENT
-------------
                                X             Y             Z
Electronic contribution:     22.98709       0.45529      -0.00001
Nuclear contribution   :    -24.14355      -0.60807       0.00001
                        -----------------------------------------
Total Dipole Moment    :     -1.15646      -0.15277       0.00000
                        -----------------------------------------
Magnitude (a.u.)       :      1.16650
Magnitude (Debye)      :      2.96502

Rotational constants in cm-1:     0.054475     0.020169     0.014760
Rotational constants in MHz :  1633.113015   604.662805   442.482071

                             ****ORCA TERMINATED NORMALLY****
TOTAL RUN TIME: 0 days 0 hours 46 minutes 5 seconds 698 msec
