                         Program Version 5.0.4 -  RELEASE  -
|  1> ! ri-mp2 aug-cc-pvdz aug-cc-pvdz/c tightscf
|  2> %pal nprocs 16 end
|  3> %maxcore 3800
|  4> %base "DZ_Si-Cl_43_AB"
|  5>
|  6> *xyz 0 1
|  7> C         0.560970   -1.196653    0.279445
|  8> C         1.910224   -1.208057   -0.023052
|  9> C         2.557624   -0.000007   -0.168877
| 10> C         1.910234    1.208053   -0.023104
| 11> C         0.560979    1.196673    0.279394
| 12> C        -0.137701    0.000016    0.434176
| 13> H         0.046977   -2.142722    0.397093
| 14> H         2.461663   -2.129656   -0.144331
| 15> Si        -1.947515    0.000032    0.817207
| 16> H         2.461680    2.129643   -0.144421
| 17> F         3.866291   -0.000019   -0.460239
| 18> H         0.046993    2.142751    0.397002
| 19> Cl        -3.064456   -0.000033   -0.917565
| 20> H        -2.313467    1.217404    1.563263
| 21> H        -2.313471   -1.217284    1.563354
| 22> *
| 23>
| 24> $new_job
| 25> ! ri-mp2 aug-cc-pvtz aug-cc-pvtz/c tightscf
| 26> %pal nprocs 16 end
| 27> %maxcore 3800
| 28> %base "TZ_Si-Cl_43_AB"
| 29>
| 30> *xyz 0 1
| 31> C         0.560970   -1.196653    0.279445
| 32> C         1.910224   -1.208057   -0.023052
| 33> C         2.557624   -0.000007   -0.168877
| 34> C         1.910234    1.208053   -0.023104
| 35> C         0.560979    1.196673    0.279394
| 36> C        -0.137701    0.000016    0.434176
| 37> H         0.046977   -2.142722    0.397093
| 38> H         2.461663   -2.129656   -0.144331
| 39> Si        -1.947515    0.000032    0.817207
| 40> H         2.461680    2.129643   -0.144421
| 41> F         3.866291   -0.000019   -0.460239
| 42> H         0.046993    2.142751    0.397002
| 43> Cl        -3.064456   -0.000033   -0.917565
| 44> H        -2.313467    1.217404    1.563263
| 45> H        -2.313471   -1.217284    1.563354
| 46> *
| 47>
| 48> $new_job
| 49> ! ri-mp2 aug-cc-pvqz aug-cc-pvqz/c tightscf
| 50> %pal nprocs 16 end
| 51> %maxcore 3800
| 52> %base "QZ_Si-Cl_43_AB"
| 53>
| 54> *xyz 0 1
| 55> C         0.560970   -1.196653    0.279445
| 56> C         1.910224   -1.208057   -0.023052
| 57> C         2.557624   -0.000007   -0.168877
| 58> C         1.910234    1.208053   -0.023104
| 59> C         0.560979    1.196673    0.279394
| 60> C        -0.137701    0.000016    0.434176
| 61> H         0.046977   -2.142722    0.397093
| 62> H         2.461663   -2.129656   -0.144331
| 63> Si        -1.947515    0.000032    0.817207
| 64> H         2.461680    2.129643   -0.144421
| 65> F         3.866291   -0.000019   -0.460239
| 66> H         0.046993    2.142751    0.397002
| 67> Cl        -3.064456   -0.000033   -0.917565
| 68> H        -2.313467    1.217404    1.563263
| 69> H        -2.313471   -1.217284    1.563354
| 70> *
| 71>
| 72>
| 73>
| 74>
| 75>                          ****END OF INPUT****
 Total Charge           Charge          ....    0
 Multiplicity           Mult            ....    1
 Number of Electrons    NEL             ....   82
MP2 TOTAL ENERGY:    -1079.918314875 Eh
FINAL SINGLE POINT ENERGY     -1079.918314875387
MP2 TOTAL ENERGY:    -1080.300809858 Eh
FINAL SINGLE POINT ENERGY     -1080.300809858069

CARTESIAN COORDINATES (ANGSTROEM)
---------------------------------
  C      0.560970   -1.196653    0.279445
  C      1.910224   -1.208057   -0.023052
  C      2.557624   -0.000007   -0.168877
  C      1.910234    1.208053   -0.023104
  C      0.560979    1.196673    0.279394
  C     -0.137701    0.000016    0.434176
  H      0.046977   -2.142722    0.397093
  H      2.461663   -2.129656   -0.144331
  Si    -1.947515    0.000032    0.817207
  H      2.461680    2.129643   -0.144421
  F      3.866291   -0.000019   -0.460239
  H      0.046993    2.142751    0.397002
  Cl    -3.064456   -0.000033   -0.917565
  H     -2.313467    1.217404    1.563263
  H     -2.313471   -1.217284    1.563354

 Multiplicity           Mult            ....    1
 Number of Electrons    NEL             ....   82
 Basis Dimension        Dim             .... 1004

ORBITAL ENERGIES
----------------

  NO   OCC          E(Eh)            E(eV)
   0   2.0000    -104.822743     -2852.3718
   1   2.0000     -68.815039     -1872.5524
   2   2.0000     -26.317587      -716.1379
   3   2.0000     -11.341120      -308.6076
   4   2.0000     -11.263601      -306.4982
   5   2.0000     -11.263586      -306.4978
   6   2.0000     -11.250410      -306.1392
   7   2.0000     -11.250388      -306.1386
   8   2.0000     -11.236349      -305.7566
   9   2.0000     -10.550264      -287.0873
  10   2.0000      -8.017048      -218.1550
  11   2.0000      -8.015958      -218.1253
  12   2.0000      -8.015951      -218.1251
  13   2.0000      -6.160688      -167.6408
  14   2.0000      -4.267631      -116.1282
  15   2.0000      -4.266848      -116.1068
  16   2.0000      -4.266533      -116.0983
  17   2.0000      -1.639560       -44.6147
  18   2.0000      -1.180497       -32.1230
  19   2.0000      -1.093590       -29.7581
  20   2.0000      -1.047773       -28.5113
  21   2.0000      -1.034603       -28.1530
  22   2.0000      -0.870250       -23.6807
  23   2.0000      -0.855497       -23.2793
  24   2.0000      -0.761233       -20.7142
  25   2.0000      -0.732698       -19.9377
  26   2.0000      -0.715870       -19.4798
  27   2.0000      -0.706058       -19.2128
  28   2.0000      -0.653180       -17.7739
  29   2.0000      -0.623549       -16.9676
  30   2.0000      -0.617645       -16.8070
  31   2.0000      -0.612151       -16.6575
  32   2.0000      -0.540284       -14.7019
  33   2.0000      -0.526556       -14.3283
  34   2.0000      -0.516730       -14.0609
  35   2.0000      -0.512389       -13.9428
  36   2.0000      -0.501836       -13.6556
  37   2.0000      -0.448452       -12.2030
  38   2.0000      -0.446511       -12.1502
  39   2.0000      -0.365245        -9.9388
  40   2.0000      -0.354771        -9.6538
  41   0.0000       0.021596         0.5876
  42   0.0000       0.026964         0.7337
  43   0.0000       0.031511         0.8574
  44   0.0000       0.037711         1.0262
  45   0.0000       0.041711         1.1350

MULLIKEN ATOMIC CHARGES
-----------------------
   0 C :   -0.458372
   1 C :   -0.452887
   2 C :    0.888976
   3 C :   -0.452901
   4 C :   -0.458378
   5 C :    0.019550
   6 H :    0.285408
   7 H :    0.386704
   8 Si:    1.465745
   9 H :    0.386703
  10 F :   -0.767161
  11 H :    0.285409
  12 Cl:   -0.617604
  13 H :   -0.255597
  14 H :   -0.255594
Sum of atomic charges:    0.0000000

LOEWDIN ATOMIC CHARGES
----------------------
   0 C :    0.234637
   1 C :    0.308261
   2 C :   -0.692304
   3 C :    0.308260
   4 C :    0.234638
   5 C :   -0.169615
   6 H :   -0.335296
   7 H :   -0.325916
   8 Si:   -0.034597
   9 H :   -0.325916
  10 F :    0.790946
  11 H :   -0.335296
  12 Cl:    0.889774
  13 H :   -0.273788
  14 H :   -0.273788

  Mayer bond orders larger than 0.100000
B(  0-C ,  1-C ) :   1.2992 B(  0-C ,  5-C ) :   1.0013 B(  0-C ,  6-H ) :   0.9660
B(  0-C ,  7-H ) :  -0.1104 B(  1-C ,  2-C ) :   1.3434 B(  1-C ,  5-C ) :  -0.2378
B(  1-C ,  7-H ) :   0.8743 B(  2-C ,  3-C ) :   1.3434 B(  2-C , 10-F ) :  -0.1190
B(  3-C ,  4-C ) :   1.2992 B(  3-C ,  5-C ) :  -0.2378 B(  3-C ,  9-H ) :   0.8743
B(  4-C ,  5-C ) :   1.0013 B(  4-C ,  9-H ) :  -0.1104 B(  4-C , 11-H ) :   0.9660
B(  5-C ,  6-H ) :  -0.1300 B(  5-C ,  8-Si) :   1.0291 B(  5-C , 11-H ) :  -0.1300
B(  5-C , 12-Cl) :  -0.1131 B(  8-Si, 12-Cl) :   0.3692 B(  8-Si, 13-H ) :   0.7439
B(  8-Si, 14-H ) :   0.7439

MP2 TOTAL ENERGY:    -1080.425907336 Eh
FINAL SINGLE POINT ENERGY     -1080.425907335667

DIPOLE MOMENT
-------------
                                X             Y             Z
Electronic contribution:     -0.87505      -0.00017      -4.60179
Nuclear contribution   :      1.03000       0.00019       5.12819
                        -----------------------------------------
Total Dipole Moment    :      0.15495       0.00002       0.52640
                        -----------------------------------------
Magnitude (a.u.)       :      0.54873
Magnitude (Debye)      :      1.39476

Rotational constants in cm-1:     0.110207     0.017154     0.016667
Rotational constants in MHz :  3303.918135   514.277627   499.671943

                             ****ORCA TERMINATED NORMALLY****
TOTAL RUN TIME: 0 days 0 hours 31 minutes 4 seconds 616 msec
