                         Program Version 5.0.4 -  RELEASE  -
|  1> ! ri-mp2 aug-cc-pvdz aug-cc-pvdz/c tightscf
|  2> %pal nprocs 16 end
|  3> %maxcore 3800
|  4> %base "DZ_Si-F_32_AB"
|  5> %scf
|  6> STABPerform true
|  7> STABRestartUHFifUnstable true
|  8> end
|  9>
| 10> *xyz 0 1
| 11> Si         0.000006    0.000000    0.323014
| 12> F         0.693598    1.296472   -0.233362
| 13> F         0.775988   -1.248906   -0.233360
| 14> F        -1.469599   -0.047567   -0.233263
| 15> H         0.000024    0.000001    1.777667
| 16> *
| 17>
| 18> $new_job
| 19> ! ri-mp2 aug-cc-pvtz aug-cc-pvtz/c tightscf
| 20> %pal nprocs 16 end
| 21> %maxcore 3800
| 22> %base "TZ_Si-F_32_AB"
| 23>
| 24> *xyz 0 1
| 25> Si         0.000006    0.000000    0.323014
| 26> F         0.693598    1.296472   -0.233362
| 27> F         0.775988   -1.248906   -0.233360
| 28> F        -1.469599   -0.047567   -0.233263
| 29> H         0.000024    0.000001    1.777667
| 30> *
| 31>
| 32> $new_job
| 33> ! ri-mp2 aug-cc-pvqz aug-cc-pvqz/c tightscf
| 34> %pal nprocs 16 end
| 35> %maxcore 3800
| 36> %base "QZ_Si-F_32_AB"
| 37>
| 38> *xyz 0 1
| 39> Si         0.000006    0.000000    0.323014
| 40> F         0.693598    1.296472   -0.233362
| 41> F         0.775988   -1.248906   -0.233360
| 42> F        -1.469599   -0.047567   -0.233263
| 43> H         0.000024    0.000001    1.777667
| 44> *
| 45>
| 46>
| 47>
| 48>
| 49>                          ****END OF INPUT****
 Total Charge           Charge          ....    0
 Multiplicity           Mult            ....    1
 Number of Electrons    NEL             ....   42
MP2 TOTAL ENERGY:     -588.767518532 Eh
FINAL SINGLE POINT ENERGY      -588.767518531673
MP2 TOTAL ENERGY:     -589.073842223 Eh
FINAL SINGLE POINT ENERGY      -589.073842222618

CARTESIAN COORDINATES (ANGSTROEM)
---------------------------------
  Si     0.000006    0.000000    0.323014
  F      0.693598    1.296472   -0.233362
  F      0.775988   -1.248906   -0.233360
  F     -1.469599   -0.047567   -0.233263
  H      0.000024    0.000001    1.777667

 Multiplicity           Mult            ....    1
 Number of Electrons    NEL             ....   42
 Basis Dimension        Dim             ....  370

ORBITAL ENERGIES
----------------

  NO   OCC          E(Eh)            E(eV)
   0   2.0000     -68.891450     -1874.6316
   1   2.0000     -26.318563      -716.1645
   2   2.0000     -26.318562      -716.1645
   3   2.0000     -26.318549      -716.1641
   4   2.0000      -6.226933      -169.4435
   5   2.0000      -4.335677      -117.9798
   6   2.0000      -4.335677      -117.9798
   7   2.0000      -4.334276      -117.9416
   8   2.0000      -1.644259       -44.7426
   9   2.0000      -1.616097       -43.9762
  10   2.0000      -1.616095       -43.9762
  11   2.0000      -0.834754       -22.7148
  12   2.0000      -0.754645       -20.5349
  13   2.0000      -0.754643       -20.5349
  14   2.0000      -0.736306       -20.0359
  15   2.0000      -0.703751       -19.1500
  16   2.0000      -0.703750       -19.1500
  17   2.0000      -0.677135       -18.4258
  18   2.0000      -0.677133       -18.4257
  19   2.0000      -0.660678       -17.9780
  20   2.0000      -0.564916       -15.3721
  21   0.0000       0.030738         0.8364
  22   0.0000       0.041302         1.1239
  23   0.0000       0.041302         1.1239
  24   0.0000       0.042393         1.1536
  25   0.0000       0.091450         2.4885

MULLIKEN ATOMIC CHARGES
-----------------------
   0 Si:    2.129956
   1 F :   -0.655156
   2 F :   -0.655156
   3 F :   -0.655153
   4 H :   -0.164491
Sum of atomic charges:    0.0000000

LOEWDIN ATOMIC CHARGES
----------------------
   0 Si:   -0.934121
   1 F :    0.408626
   2 F :    0.408626
   3 F :    0.408631
   4 H :   -0.291762

  Mayer bond orders larger than 0.100000
B(  0-Si,  1-F ) :   0.5202 B(  0-Si,  2-F ) :   0.5202 B(  0-Si,  3-F ) :   0.5202
B(  0-Si,  4-H ) :   1.0020

MP2 TOTAL ENERGY:     -589.176239344 Eh
FINAL SINGLE POINT ENERGY      -589.176239344175

DIPOLE MOMENT
-------------
                                X             Y             Z
Electronic contribution:     -0.00003      -0.00000      -1.64736
Nuclear contribution   :      0.00003       0.00000       2.24425
                        -----------------------------------------
Total Dipole Moment    :      0.00000       0.00000       0.59688
                        -----------------------------------------
Magnitude (a.u.)       :      0.59688
Magnitude (Debye)      :      1.51716

Rotational constants in cm-1:     0.238244     0.238238     0.136812
Rotational constants in MHz :  7142.377800  7142.208353  4101.516635

                             ****ORCA TERMINATED NORMALLY****
TOTAL RUN TIME: 0 days 0 hours 3 minutes 0 seconds 192 msec
