                         Program Version 5.0.4 -  RELEASE  -
|  1> ! ri-mp2 aug-cc-pvdz aug-cc-pvdz/c tightscf
|  2> %pal nprocs 16 end
|  3> %maxcore 3800
|  4> %base "DZ_Si-Cl_24_AB"
|  5> %scf
|  6> STABPerform true
|  7> STABRestartUHFifUnstable true
|  8> end
|  9>
| 10> *xyz 0 1
| 11> Si        -0.391940   -0.708440    0.515358
| 12> C         1.244379   -0.014814   -0.013717
| 13> C         2.113199   -0.825545   -0.606817
| 14> Cl        -1.924027    0.352237   -0.375141
| 15> C         1.550202    1.429803    0.257425
| 16> H         1.886114   -1.864781   -0.811259
| 17> H         3.094523   -0.479096   -0.916708
| 18> H         0.828465    2.079158   -0.241759
| 19> H         2.549048    1.696501   -0.088770
| 20> H         1.487157    1.652283    1.325086
| 21> H        -0.591215   -0.571954    1.971464
| 22> H        -0.505145   -2.118650    0.102977
| 23> *
| 24>
| 25> $new_job
| 26> ! ri-mp2 aug-cc-pvtz aug-cc-pvtz/c tightscf
| 27> %pal nprocs 16 end
| 28> %maxcore 3800
| 29> %base "TZ_Si-Cl_24_AB"
| 30>
| 31> *xyz 0 1
| 32> Si        -0.391940   -0.708440    0.515358
| 33> C         1.244379   -0.014814   -0.013717
| 34> C         2.113199   -0.825545   -0.606817
| 35> Cl        -1.924027    0.352237   -0.375141
| 36> C         1.550202    1.429803    0.257425
| 37> H         1.886114   -1.864781   -0.811259
| 38> H         3.094523   -0.479096   -0.916708
| 39> H         0.828465    2.079158   -0.241759
| 40> H         2.549048    1.696501   -0.088770
| 41> H         1.487157    1.652283    1.325086
| 42> H        -0.591215   -0.571954    1.971464
| 43> H        -0.505145   -2.118650    0.102977
| 44> *
| 45>
| 46> $new_job
| 47> ! ri-mp2 aug-cc-pvqz aug-cc-pvqz/c tightscf
| 48> %pal nprocs 16 end
| 49> %maxcore 3800
| 50> %base "QZ_Si-Cl_24_AB"
| 51>
| 52> *xyz 0 1
| 53> Si        -0.391940   -0.708440    0.515358
| 54> C         1.244379   -0.014814   -0.013717
| 55> C         2.113199   -0.825545   -0.606817
| 56> Cl        -1.924027    0.352237   -0.375141
| 57> C         1.550202    1.429803    0.257425
| 58> H         1.886114   -1.864781   -0.811259
| 59> H         3.094523   -0.479096   -0.916708
| 60> H         0.828465    2.079158   -0.241759
| 61> H         2.549048    1.696501   -0.088770
| 62> H         1.487157    1.652283    1.325086
| 63> H        -0.591215   -0.571954    1.971464
| 64> H        -0.505145   -2.118650    0.102977
| 65> *
| 66>
| 67>
| 68>
| 69>
| 70>                          ****END OF INPUT****
 Total Charge           Charge          ....    0
 Multiplicity           Mult            ....    1
 Number of Electrons    NEL             ....   56
MP2 TOTAL ENERGY:     -866.840858722 Eh
FINAL SINGLE POINT ENERGY      -866.840858722440
MP2 TOTAL ENERGY:     -867.052111695 Eh
FINAL SINGLE POINT ENERGY      -867.052111695062

CARTESIAN COORDINATES (ANGSTROEM)
---------------------------------
  Si    -0.391940   -0.708440    0.515358
  C      1.244379   -0.014814   -0.013717
  C      2.113199   -0.825545   -0.606817
  Cl    -1.924027    0.352237   -0.375141
  C      1.550202    1.429803    0.257425
  H      1.886114   -1.864781   -0.811259
  H      3.094523   -0.479096   -0.916708
  H      0.828465    2.079158   -0.241759
  H      2.549048    1.696501   -0.088770
  H      1.487157    1.652283    1.325086
  H     -0.591215   -0.571954    1.971464
  H     -0.505145   -2.118650    0.102977

 Multiplicity           Mult            ....    1
 Number of Electrons    NEL             ....   56
 Basis Dimension        Dim             ....  730

ORBITAL ENERGIES
----------------

  NO   OCC          E(Eh)            E(eV)
   0   2.0000    -104.820239     -2852.3037
   1   2.0000     -68.808885     -1872.3850
   2   2.0000     -11.241481      -305.8962
   3   2.0000     -11.234376      -305.7029
   4   2.0000     -11.229370      -305.5667
   5   2.0000     -10.547757      -287.0191
   6   2.0000      -8.014556      -218.0872
   7   2.0000      -8.013481      -218.0579
   8   2.0000      -8.013462      -218.0574
   9   2.0000      -6.154679      -167.4773
  10   2.0000      -4.261695      -115.9666
  11   2.0000      -4.260714      -115.9399
  12   2.0000      -4.260368      -115.9305
  13   2.0000      -1.095189       -29.8016
  14   2.0000      -1.075970       -29.2786
  15   2.0000      -0.946665       -25.7601
  16   2.0000      -0.779559       -21.2129
  17   2.0000      -0.697118       -18.9695
  18   2.0000      -0.624189       -16.9850
  19   2.0000      -0.601135       -16.3577
  20   2.0000      -0.580978       -15.8092
  21   2.0000      -0.529575       -14.4105
  22   2.0000      -0.521488       -14.1904
  23   2.0000      -0.517809       -14.0903
  24   2.0000      -0.483838       -13.1659
  25   2.0000      -0.445164       -12.1135
  26   2.0000      -0.433259       -11.7896
  27   2.0000      -0.379328       -10.3220
  28   0.0000       0.023118         0.6291
  29   0.0000       0.031206         0.8491
  30   0.0000       0.034615         0.9419
  31   0.0000       0.039165         1.0657
  32   0.0000       0.047262         1.2861

MULLIKEN ATOMIC CHARGES
-----------------------
   0 Si:    1.451641
   1 C :   -0.208568
   2 C :   -0.906597
   3 Cl:   -0.628981
   4 C :   -0.708020
   5 H :    0.342205
   6 H :    0.343238
   7 H :    0.272080
   8 H :    0.260575
   9 H :    0.268924
  10 H :   -0.208487
  11 H :   -0.278011
Sum of atomic charges:   -0.0000000

LOEWDIN ATOMIC CHARGES
----------------------
   0 Si:   -0.055524
   1 C :   -0.147047
   2 C :    0.700934
   3 Cl:    0.894116
   4 C :    0.798540
   5 H :   -0.377037
   6 H :   -0.338693
   7 H :   -0.311710
   8 H :   -0.313060
   9 H :   -0.299249
  10 H :   -0.278199
  11 H :   -0.273070

  Mayer bond orders larger than 0.100000
B(  0-Si,  1-C ) :   0.8507 B(  0-Si,  3-Cl) :   0.4021 B(  0-Si, 10-H ) :   0.8146
B(  0-Si, 11-H ) :   0.8275 B(  1-C ,  2-C ) :   1.6132 B(  1-C ,  4-C ) :   0.7472
B(  1-C ,  5-H ) :  -0.1001 B(  2-C ,  5-H ) :   0.9467 B(  2-C ,  6-H ) :   0.9420
B(  4-C ,  7-H ) :   0.9569 B(  4-C ,  8-H ) :   1.0040 B(  4-C ,  9-H ) :   0.9420

MP2 TOTAL ENERGY:     -867.119814130 Eh
FINAL SINGLE POINT ENERGY      -867.119814130334

DIPOLE MOMENT
-------------
                                X             Y             Z
Electronic contribution:    -10.60078      -0.06420      -1.66171
Nuclear contribution   :     11.36799      -0.06654       1.82123
                        -----------------------------------------
Total Dipole Moment    :      0.76721      -0.13074       0.15952
                        -----------------------------------------
Magnitude (a.u.)       :      0.79444
Magnitude (Debye)      :      2.01932

Rotational constants in cm-1:     0.178443     0.059414     0.051271
Rotational constants in MHz :  5349.572901  1781.188724  1537.074898

                             ****ORCA TERMINATED NORMALLY****
TOTAL RUN TIME: 0 days 0 hours 37 minutes 58 seconds 784 msec
