                         Program Version 5.0.4 -  RELEASE  -
|  1> ! ri-mp2 aug-cc-pvdz aug-cc-pvdz/c tightscf
|  2> %pal nprocs 16 end
|  3> %maxcore 3800
|  4> %base "DZ_B-F_14_A"
|  5> %scf
|  6> STABPerform true
|  7> STABRestartUHFifUnstable true
|  8> end
|  9>
| 10> *xyz 0 2
| 11> F        -1.826608   -0.632859   -0.000008
| 12> B        -1.371609    0.582388   -0.000001
| 13> C         0.128053    0.998689    0.000007
| 14> Cl         1.285384   -0.378467    0.000000
| 15> H         0.338833    1.612790    0.875138
| 16> H         0.338839    1.612805   -0.875111
| 17> *
| 18>
| 19> $new_job
| 20> ! ri-mp2 aug-cc-pvtz aug-cc-pvtz/c tightscf
| 21> %pal nprocs 16 end
| 22> %maxcore 3800
| 23> %base "TZ_B-F_14_A"
| 24>
| 25> *xyz 0 2
| 26> F        -1.826608   -0.632859   -0.000008
| 27> B        -1.371609    0.582388   -0.000001
| 28> C         0.128053    0.998689    0.000007
| 29> Cl         1.285384   -0.378467    0.000000
| 30> H         0.338833    1.612790    0.875138
| 31> H         0.338839    1.612805   -0.875111
| 32> *
| 33>
| 34> $new_job
| 35> ! ri-mp2 aug-cc-pvqz aug-cc-pvqz/c tightscf
| 36> %pal nprocs 16 end
| 37> %maxcore 3800
| 38> %base "QZ_B-F_14_A"
| 39>
| 40> *xyz 0 2
| 41> F        -1.826608   -0.632859   -0.000008
| 42> B        -1.371609    0.582388   -0.000001
| 43> C         0.128053    0.998689    0.000007
| 44> Cl         1.285384   -0.378467    0.000000
| 45> H         0.338833    1.612790    0.875138
| 46> H         0.338839    1.612805   -0.875111
| 47> *
| 48>
| 49>
| 50>
| 51>
| 52>                          ****END OF INPUT****
 Total Charge           Charge          ....    0
 Multiplicity           Mult            ....    2
 Number of Electrons    NEL             ....   39
MP2 TOTAL ENERGY:     -623.223418517 Eh
FINAL SINGLE POINT ENERGY      -623.223418516799
MP2 TOTAL ENERGY:     -623.428461654 Eh
FINAL SINGLE POINT ENERGY      -623.428461653615

CARTESIAN COORDINATES (ANGSTROEM)
---------------------------------
  F     -1.826608   -0.632859   -0.000008
  B     -1.371609    0.582388   -0.000001
  C      0.128053    0.998689    0.000007
  Cl     1.285384   -0.378467    0.000000
  H      0.338833    1.612790    0.875138
  H      0.338839    1.612805   -0.875111

 Multiplicity           Mult            ....    2
 Number of Electrons    NEL             ....   39
 Basis Dimension        Dim             ....  416

ORBITAL ENERGIES
----------------
                 SPIN UP ORBITALS
  NO   OCC          E(Eh)            E(eV)
   0   1.0000    -104.832571     -2852.6393
   1   1.0000     -26.331405      -716.5140
   2   1.0000     -11.293994      -307.3252
   3   1.0000     -10.557843      -287.2935
   4   1.0000      -8.026113      -218.4016
   5   1.0000      -8.022993      -218.3167
   6   1.0000      -8.022970      -218.3161
   7   1.0000      -7.698980      -209.4999
   8   1.0000      -1.651121       -44.9293
   9   1.0000      -1.137236       -30.9458
  10   1.0000      -0.942105       -25.6360
  11   1.0000      -0.809571       -22.0295
  12   1.0000      -0.734310       -19.9816
  13   1.0000      -0.703225       -19.1357
  14   1.0000      -0.627635       -17.0788
  15   1.0000      -0.615343       -16.7443
  16   1.0000      -0.569707       -15.5025
  17   1.0000      -0.450030       -12.2459
  18   1.0000      -0.445477       -12.1221
  19   1.0000      -0.362072        -9.8525
  20   0.0000       0.023469         0.6386
  21   0.0000       0.030844         0.8393
  22   0.0000       0.036884         1.0037
  23   0.0000       0.040842         1.1114
  24   0.0000       0.056500         1.5374

                 SPIN DOWN ORBITALS
  NO   OCC          E(Eh)            E(eV)
   0   1.0000    -104.831805     -2852.6184
   1   1.0000     -26.328281      -716.4289
   2   1.0000     -11.290977      -307.2431
   3   1.0000     -10.557038      -287.2716
   4   1.0000      -8.023254      -218.3238
   5   1.0000      -8.022562      -218.3050
   6   1.0000      -8.022248      -218.2965
   7   1.0000      -7.679981      -208.9829
   8   1.0000      -1.642382       -44.6915
   9   1.0000      -1.130623       -30.7658
  10   1.0000      -0.930535       -25.3211
  11   1.0000      -0.798890       -21.7389
  12   1.0000      -0.704915       -19.1817
  13   1.0000      -0.703318       -19.1383
  14   1.0000      -0.626465       -17.0470
  15   1.0000      -0.589255       -16.0344
  16   1.0000      -0.555255       -15.1093
  17   1.0000      -0.444219       -12.0878
  18   1.0000      -0.440318       -11.9817
  19   0.0000       0.017618         0.4794
  20   0.0000       0.032043         0.8719
  21   0.0000       0.037042         1.0080
  22   0.0000       0.039774         1.0823
  23   0.0000       0.058166         1.5828

MULLIKEN ATOMIC CHARGES AND SPIN POPULATIONS
--------------------------------------------
   0 F :   -0.690217   -0.016070
   1 B :    0.820512    0.984137
   2 C :   -0.498119   -0.000324
   3 Cl:   -0.248783    0.059686
   4 H :    0.308303   -0.013715
   5 H :    0.308305   -0.013715
Sum of atomic charges         :   -0.0000000

LOEWDIN ATOMIC CHARGES AND SPIN POPULATIONS
-------------------------------------------
   0 F :    0.731614    0.147747
   1 B :   -0.786010    0.572931
   2 C :   -0.105918    0.169056
   3 Cl:    1.088081    0.054230
   4 H :   -0.463883    0.028018
   5 H :   -0.463884    0.028018

  Mayer bond orders larger than 0.100000
B(  0-F ,  1-B ) :   0.4914 B(  1-B ,  2-C ) :   0.9687 B(  2-C ,  3-Cl) :   0.9296
B(  2-C ,  4-H ) :   0.8648 B(  2-C ,  5-H ) :   0.8648

MP2 TOTAL ENERGY:     -623.494106267 Eh
FINAL SINGLE POINT ENERGY      -623.494106266932

DIPOLE MOMENT
-------------
                                X             Y             Z
Electronic contribution:     -1.73893      -2.79479      -0.00003
Nuclear contribution   :      1.61469       3.62378       0.00003
                        -----------------------------------------
Total Dipole Moment    :     -0.12424       0.82899       0.00001
                        -----------------------------------------
Magnitude (a.u.)       :      0.83825
Magnitude (Debye)      :      2.13067

Rotational constants in cm-1:     0.482860     0.116863     0.095741
Rotational constants in MHz : 14475.778978  3503.472232  2870.247501

                             ****ORCA TERMINATED NORMALLY****
TOTAL RUN TIME: 0 days 0 hours 14 minutes 32 seconds 958 msec
