                         Program Version 5.0.4 -  RELEASE  -
|  1> ! ri-mp2 aug-cc-pvdz aug-cc-pvdz/c tightscf
|  2> %pal nprocs 16 end
|  3> %maxcore 3800
|  4> %base "DZ_P-Si_9_AB"
|  5> %scf
|  6> STABPerform true
|  7> STABRestartUHFifUnstable true
|  8> end
|  9>
| 10> *xyz 0 1
| 11> Si        -0.881926    1.014840   -0.012703
| 12> P         1.060789   -0.128302    0.093036
| 13> O         1.361362   -0.752643    1.388019
| 14> C        -2.216102   -0.157739    0.507281
| 15> C        -3.179999   -0.564162   -0.307982
| 16> H        -2.197692   -0.542761    1.522681
| 17> H        -3.247606   -0.217980   -1.333258
| 18> H        -3.946963   -1.260768    0.011050
| 19> O         2.126661    0.936356   -0.432442
| 20> H         3.040775    0.709444   -0.217359
| 21> O         1.016712   -1.204987   -1.100636
| 22> H         0.967385   -2.103751   -0.753211
| 23> H        -1.106903    1.478942   -1.396063
| 24> H        -0.735149    2.155236    0.913143
| 25> *
| 26>
| 27> $new_job
| 28> ! ri-mp2 aug-cc-pvtz aug-cc-pvtz/c tightscf
| 29> %pal nprocs 16 end
| 30> %maxcore 3800
| 31> %base "TZ_P-Si_9_AB"
| 32>
| 33> *xyz 0 1
| 34> Si        -0.881926    1.014840   -0.012703
| 35> P         1.060789   -0.128302    0.093036
| 36> O         1.361362   -0.752643    1.388019
| 37> C        -2.216102   -0.157739    0.507281
| 38> C        -3.179999   -0.564162   -0.307982
| 39> H        -2.197692   -0.542761    1.522681
| 40> H        -3.247606   -0.217980   -1.333258
| 41> H        -3.946963   -1.260768    0.011050
| 42> O         2.126661    0.936356   -0.432442
| 43> H         3.040775    0.709444   -0.217359
| 44> O         1.016712   -1.204987   -1.100636
| 45> H         0.967385   -2.103751   -0.753211
| 46> H        -1.106903    1.478942   -1.396063
| 47> H        -0.735149    2.155236    0.913143
| 48> *
| 49>
| 50> $new_job
| 51> ! ri-mp2 aug-cc-pvqz aug-cc-pvqz/c tightscf
| 52> %pal nprocs 16 end
| 53> %maxcore 3800
| 54> %base "QZ_P-Si_9_AB"
| 55>
| 56> *xyz 0 1
| 57> Si        -0.881926    1.014840   -0.012703
| 58> P         1.060789   -0.128302    0.093036
| 59> O         1.361362   -0.752643    1.388019
| 60> C        -2.216102   -0.157739    0.507281
| 61> C        -3.179999   -0.564162   -0.307982
| 62> H        -2.197692   -0.542761    1.522681
| 63> H        -3.247606   -0.217980   -1.333258
| 64> H        -3.946963   -1.260768    0.011050
| 65> O         2.126661    0.936356   -0.432442
| 66> H         3.040775    0.709444   -0.217359
| 67> O         1.016712   -1.204987   -1.100636
| 68> H         0.967385   -2.103751   -0.753211
| 69> H        -1.106903    1.478942   -1.396063
| 70> H        -0.735149    2.155236    0.913143
| 71> *
| 72>
| 73>
| 74>
| 75>
| 76>                          ****END OF INPUT****
 Total Charge           Charge          ....    0
 Multiplicity           Mult            ....    1
 Number of Electrons    NEL             ....   72
MP2 TOTAL ENERGY:     -935.267474428 Eh
FINAL SINGLE POINT ENERGY      -935.267474428236
MP2 TOTAL ENERGY:     -935.643106883 Eh
FINAL SINGLE POINT ENERGY      -935.643106883174

CARTESIAN COORDINATES (ANGSTROEM)
---------------------------------
  Si    -0.881926    1.014840   -0.012703
  P      1.060789   -0.128302    0.093036
  O      1.361362   -0.752643    1.388019
  C     -2.216102   -0.157739    0.507281
  C     -3.179999   -0.564162   -0.307982
  H     -2.197692   -0.542761    1.522681
  H     -3.247606   -0.217980   -1.333258
  H     -3.946963   -1.260768    0.011050
  O      2.126661    0.936356   -0.432442
  H      3.040775    0.709444   -0.217359
  O      1.016712   -1.204987   -1.100636
  H      0.967385   -2.103751   -0.753211
  H     -1.106903    1.478942   -1.396063
  H     -0.735149    2.155236    0.913143

 Multiplicity           Mult            ....    1
 Number of Electrons    NEL             ....   72
 Basis Dimension        Dim             ....  890

ORBITAL ENERGIES
----------------

  NO   OCC          E(Eh)            E(eV)
   0   2.0000     -80.056878     -2178.4584
   1   2.0000     -68.787876     -1871.8133
   2   2.0000     -20.597713      -560.4923
   3   2.0000     -20.593178      -560.3689
   4   2.0000     -20.502763      -557.9085
   5   2.0000     -11.254348      -306.2464
   6   2.0000     -11.232710      -305.6576
   7   2.0000      -7.580805      -206.2842
   8   2.0000      -6.138215      -167.0293
   9   2.0000      -5.478674      -149.0823
  10   2.0000      -5.477959      -149.0628
  11   2.0000      -5.476939      -149.0351
  12   2.0000      -4.244629      -115.5022
  13   2.0000      -4.244362      -115.4950
  14   2.0000      -4.244067      -115.4869
  15   2.0000      -1.429918       -38.9101
  16   2.0000      -1.379792       -37.5460
  17   2.0000      -1.292566       -35.1725
  18   2.0000      -1.054840       -28.7037
  19   2.0000      -0.863271       -23.4908
  20   2.0000      -0.809855       -22.0373
  21   2.0000      -0.740842       -20.1593
  22   2.0000      -0.720095       -19.5948
  23   2.0000      -0.668527       -18.1915
  24   2.0000      -0.649427       -17.6718
  25   2.0000      -0.630677       -17.1616
  26   2.0000      -0.609846       -16.5948
  27   2.0000      -0.579910       -15.7801
  28   2.0000      -0.557279       -15.1643
  29   2.0000      -0.550230       -14.9725
  30   2.0000      -0.507241       -13.8027
  31   2.0000      -0.494202       -13.4479
  32   2.0000      -0.470592       -12.8054
  33   2.0000      -0.461621       -12.5613
  34   2.0000      -0.429721       -11.6933
  35   2.0000      -0.389276       -10.5927
  36   0.0000       0.021366         0.5814
  37   0.0000       0.030215         0.8222
  38   0.0000       0.033253         0.9049
  39   0.0000       0.035419         0.9638
  40   0.0000       0.042355         1.1525

MULLIKEN ATOMIC CHARGES
-----------------------
   0 Si:    0.943620
   1 P :    2.141297
   2 O :   -1.210093
   3 C :   -0.779425
   4 C :   -0.793936
   5 H :    0.436070
   6 H :    0.392181
   7 H :    0.399861
   8 O :   -0.936562
   9 H :    0.363033
  10 O :   -0.889590
  11 H :    0.377414
  12 H :   -0.203862
  13 H :   -0.240007
Sum of atomic charges:   -0.0000000

LOEWDIN ATOMIC CHARGES
----------------------
   0 Si:    0.713536
   1 P :   -0.665740
   2 O :    0.242948
   3 C :    0.284128
   4 C :    0.696021
   5 H :   -0.408044
   6 H :   -0.371816
   7 H :   -0.344214
   8 O :    1.038553
   9 H :   -0.860370
  10 O :    1.050524
  11 H :   -0.890213
  12 H :   -0.236074
  13 H :   -0.249239

  Mayer bond orders larger than 0.100000
B(  0-Si,  1-P ) :   0.8629 B(  0-Si,  3-C ) :   0.7827 B(  0-Si,  8-O ) :  -0.1024
B(  0-Si, 12-H ) :   0.7799 B(  0-Si, 13-H ) :   0.7427 B(  1-P ,  2-O ) :   1.3568
B(  1-P ,  8-O ) :   0.5508 B(  1-P , 10-O ) :   0.6166 B(  3-C ,  4-C ) :   1.7903
B(  3-C ,  5-H ) :   0.7733 B(  4-C ,  6-H ) :   0.8334 B(  4-C ,  7-H ) :   0.8793
B(  8-O ,  9-H ) :   0.9167 B( 10-O , 11-H ) :   0.9183

MP2 TOTAL ENERGY:     -935.764741426 Eh
FINAL SINGLE POINT ENERGY      -935.764741426209

DIPOLE MOMENT
-------------
                                X             Y             Z
Electronic contribution:      7.38263      -0.31675       0.63381
Nuclear contribution   :     -7.94076       0.25730      -1.31481
                        -----------------------------------------
Total Dipole Moment    :     -0.55813      -0.05945      -0.68100
                        -----------------------------------------
Magnitude (a.u.)       :      0.88250
Magnitude (Debye)      :      2.24313

Rotational constants in cm-1:     0.106110     0.036352     0.034251
Rotational constants in MHz :  3181.097544  1089.793752  1026.833189

                             ****ORCA TERMINATED NORMALLY****
TOTAL RUN TIME: 0 days 1 hours 26 minutes 16 seconds 276 msec
