                         Program Version 5.0.4 -  RELEASE  -
|  1> ! ri-mp2 aug-cc-pvdz aug-cc-pvdz/c tightscf
|  2> %pal nprocs 16 end
|  3> %maxcore 3800
|  4> %base "DZ_S-Cl_35_AB"
|  5> %scf
|  6> STABPerform true
|  7> STABRestartUHFifUnstable true
|  8> end
|  9>
| 10> *xyz 0 1
| 11> Cl         2.244279    0.123623   -0.000007
| 12> S         0.489292   -0.858547    0.000009
| 13> C        -0.646630    0.477146    0.000005
| 14> O        -0.449523    1.633526    0.000008
| 15> Cl        -2.265026   -0.252701   -0.000007
| 16> *
| 17>
| 18> $new_job
| 19> ! ri-mp2 aug-cc-pvtz aug-cc-pvtz/c tightscf
| 20> %pal nprocs 16 end
| 21> %maxcore 3800
| 22> %base "TZ_S-Cl_35_AB"
| 23>
| 24> *xyz 0 1
| 25> Cl         2.244279    0.123623   -0.000007
| 26> S         0.489292   -0.858547    0.000009
| 27> C        -0.646630    0.477146    0.000005
| 28> O        -0.449523    1.633526    0.000008
| 29> Cl        -2.265026   -0.252701   -0.000007
| 30> *
| 31>
| 32> $new_job
| 33> ! ri-mp2 aug-cc-pvqz aug-cc-pvqz/c tightscf
| 34> %pal nprocs 16 end
| 35> %maxcore 3800
| 36> %base "QZ_S-Cl_35_AB"
| 37>
| 38> *xyz 0 1
| 39> Cl         2.244279    0.123623   -0.000007
| 40> S         0.489292   -0.858547    0.000009
| 41> C        -0.646630    0.477146    0.000005
| 42> O        -0.449523    1.633526    0.000008
| 43> Cl        -2.265026   -0.252701   -0.000007
| 44> *
| 45>
| 46>
| 47>
| 48>
| 49>                          ****END OF INPUT****
 Total Charge           Charge          ....    0
 Multiplicity           Mult            ....    1
 Number of Electrons    NEL             ....   64
MP2 TOTAL ENERGY:    -1430.030792682 Eh
FINAL SINGLE POINT ENERGY     -1430.030792681682
MP2 TOTAL ENERGY:    -1430.299882335 Eh
FINAL SINGLE POINT ENERGY     -1430.299882334734

CARTESIAN COORDINATES (ANGSTROEM)
---------------------------------
  Cl     2.244279    0.123623   -0.000007
  S      0.489292   -0.858547    0.000009
  C     -0.646630    0.477146    0.000005
  O     -0.449523    1.633526    0.000008
  Cl    -2.265026   -0.252701   -0.000007

 Multiplicity           Mult            ....    1
 Number of Electrons    NEL             ....   64
 Basis Dimension        Dim             ....  412

ORBITAL ENERGIES
----------------

  NO   OCC          E(Eh)            E(eV)
   0   2.0000    -104.883964     -2854.0378
   1   2.0000    -104.879379     -2853.9130
   2   2.0000     -92.062066     -2505.1362
   3   2.0000     -20.612836      -560.9038
   4   2.0000     -11.447694      -311.5076
   5   2.0000     -10.608170      -288.6630
   6   2.0000     -10.605137      -288.5804
   7   2.0000      -9.060324      -246.5440
   8   2.0000      -8.075199      -219.7373
   9   2.0000      -8.073077      -219.6796
  10   2.0000      -8.072892      -219.6746
  11   2.0000      -8.072031      -219.6511
  12   2.0000      -8.070190      -219.6010
  13   2.0000      -8.070182      -219.6008
  14   2.0000      -6.741290      -183.4398
  15   2.0000      -6.739779      -183.3987
  16   2.0000      -6.738598      -183.3666
  17   2.0000      -1.478124       -40.2218
  18   2.0000      -1.193899       -32.4876
  19   2.0000      -1.160613       -31.5819
  20   2.0000      -1.001696       -27.2575
  21   2.0000      -0.786706       -21.4074
  22   2.0000      -0.695852       -18.9351
  23   2.0000      -0.695013       -18.9123
  24   2.0000      -0.641773       -17.4635
  25   2.0000      -0.565929       -15.3997
  26   2.0000      -0.541115       -14.7245
  27   2.0000      -0.509311       -13.8591
  28   2.0000      -0.496387       -13.5074
  29   2.0000      -0.491954       -13.3868
  30   2.0000      -0.460305       -12.5255
  31   2.0000      -0.407245       -11.0817
  32   0.0000       0.037587         1.0228
  33   0.0000       0.040741         1.1086
  34   0.0000       0.054801         1.4912
  35   0.0000       0.073952         2.0123
  36   0.0000       0.074739         2.0338

MULLIKEN ATOMIC CHARGES
-----------------------
   0 Cl:   -0.206584
   1 S :    0.474073
   2 C :    0.268794
   3 O :   -0.496114
   4 Cl:   -0.040169
Sum of atomic charges:    0.0000000

LOEWDIN ATOMIC CHARGES
----------------------
   0 Cl:    0.499466
   1 S :    0.198284
   2 C :   -2.105152
   3 O :    0.445439
   4 Cl:    0.961962

  Mayer bond orders larger than 0.100000
B(  0-Cl,  1-S ) :   1.0225 B(  1-S ,  2-C ) :   1.0494 B(  2-C ,  3-O ) :   1.7964
B(  2-C ,  4-Cl) :   0.9709

MP2 TOTAL ENERGY:    -1430.390645637 Eh
FINAL SINGLE POINT ENERGY     -1430.390645636717

DIPOLE MOMENT
-------------
                                X             Y             Z
Electronic contribution:      0.05551      -0.92049      -0.00002
Nuclear contribution   :      0.00688       0.21741       0.00002
                        -----------------------------------------
Total Dipole Moment    :      0.06239      -0.70308       0.00000
                        -----------------------------------------
Magnitude (a.u.)       :      0.70584
Magnitude (Debye)      :      1.79411

Rotational constants in cm-1:     0.234595     0.044788     0.037608
Rotational constants in MHz :  7032.985936  1342.699696  1127.452545

                             ****ORCA TERMINATED NORMALLY****
TOTAL RUN TIME: 0 days 0 hours 7 minutes 1 seconds 404 msec
