                         Program Version 5.0.4 -  RELEASE  -
|  1> ! ri-mp2 aug-cc-pvdz aug-cc-pvdz/c tightscf
|  2> %pal nprocs 16 end
|  3> %maxcore 3800
|  4> %base "DZ_Si-Cl_18_AB"
|  5> %scf
|  6> STABPerform true
|  7> STABRestartUHFifUnstable true
|  8> end
|  9>
| 10> *xyz 0 1
| 11> C        -0.553745    2.056828   -0.547858
| 12> Si        -0.316354    0.519331    0.442780
| 13> H        -0.564634    1.836428   -1.614907
| 14> H         0.270635    2.741963   -0.345638
| 15> H        -1.489736    2.549337   -0.285401
| 16> C         1.383158   -0.254221    0.035485
| 17> Cl        -1.751707   -0.900422   -0.032992
| 18> O         2.356121    0.431746    0.177296
| 19> O         1.490969   -1.522129   -0.396322
| 20> H         0.613700   -1.925303   -0.461179
| 21> H        -0.375201    0.741534    1.895506
| 22> *
| 23>
| 24> $new_job
| 25> ! ri-mp2 aug-cc-pvtz aug-cc-pvtz/c tightscf
| 26> %pal nprocs 16 end
| 27> %maxcore 3800
| 28> %base "TZ_Si-Cl_18_AB"
| 29>
| 30> *xyz 0 1
| 31> C        -0.553745    2.056828   -0.547858
| 32> Si        -0.316354    0.519331    0.442780
| 33> H        -0.564634    1.836428   -1.614907
| 34> H         0.270635    2.741963   -0.345638
| 35> H        -1.489736    2.549337   -0.285401
| 36> C         1.383158   -0.254221    0.035485
| 37> Cl        -1.751707   -0.900422   -0.032992
| 38> O         2.356121    0.431746    0.177296
| 39> O         1.490969   -1.522129   -0.396322
| 40> H         0.613700   -1.925303   -0.461179
| 41> H        -0.375201    0.741534    1.895506
| 42> *
| 43>
| 44> $new_job
| 45> ! ri-mp2 aug-cc-pvqz aug-cc-pvqz/c tightscf
| 46> %pal nprocs 16 end
| 47> %maxcore 3800
| 48> %base "QZ_Si-Cl_18_AB"
| 49>
| 50> *xyz 0 1
| 51> C        -0.553745    2.056828   -0.547858
| 52> Si        -0.316354    0.519331    0.442780
| 53> H        -0.564634    1.836428   -1.614907
| 54> H         0.270635    2.741963   -0.345638
| 55> H        -1.489736    2.549337   -0.285401
| 56> C         1.383158   -0.254221    0.035485
| 57> Cl        -1.751707   -0.900422   -0.032992
| 58> O         2.356121    0.431746    0.177296
| 59> O         1.490969   -1.522129   -0.396322
| 60> H         0.613700   -1.925303   -0.461179
| 61> H        -0.375201    0.741534    1.895506
| 62> *
| 63>
| 64>
| 65>
| 66>
| 67>                          ****END OF INPUT****
 Total Charge           Charge          ....    0
 Multiplicity           Mult            ....    1
 Number of Electrons    NEL             ....   64
MP2 TOTAL ENERGY:     -977.839878874 Eh
FINAL SINGLE POINT ENERGY      -977.839878874356
MP2 TOTAL ENERGY:     -978.137596880 Eh
FINAL SINGLE POINT ENERGY      -978.137596880438

CARTESIAN COORDINATES (ANGSTROEM)
---------------------------------
  C     -0.553745    2.056828   -0.547858
  Si    -0.316354    0.519331    0.442780
  H     -0.564634    1.836428   -1.614907
  H      0.270635    2.741963   -0.345638
  H     -1.489736    2.549337   -0.285401
  C      1.383158   -0.254221    0.035485
  Cl    -1.751707   -0.900422   -0.032992
  O      2.356121    0.431746    0.177296
  O      1.490969   -1.522129   -0.396322
  H      0.613700   -1.925303   -0.461179
  H     -0.375201    0.741534    1.895506

 Multiplicity           Mult            ....    1
 Number of Electrons    NEL             ....   64
 Basis Dimension        Dim             ....  718

ORBITAL ENERGIES
----------------

  NO   OCC          E(Eh)            E(eV)
   0   2.0000    -104.849734     -2853.1063
   1   2.0000     -68.836800     -1873.1446
   2   2.0000     -20.617135      -561.0208
   3   2.0000     -20.558053      -559.4131
   4   2.0000     -11.375366      -309.5394
   5   2.0000     -11.234575      -305.7083
   6   2.0000     -10.577241      -287.8214
   7   2.0000      -8.044000      -218.8884
   8   2.0000      -8.042987      -218.8608
   9   2.0000      -8.042931      -218.8593
  10   2.0000      -6.182850      -168.2439
  11   2.0000      -4.290023      -116.7375
  12   2.0000      -4.288756      -116.7030
  13   2.0000      -4.288260      -116.6895
  14   2.0000      -1.467382       -39.9295
  15   2.0000      -1.374882       -37.4124
  16   2.0000      -1.120774       -30.4978
  17   2.0000      -0.981056       -26.6959
  18   2.0000      -0.852272       -23.1915
  19   2.0000      -0.788944       -21.4683
  20   2.0000      -0.672609       -18.3026
  21   2.0000      -0.665013       -18.0959
  22   2.0000      -0.634972       -17.2785
  23   2.0000      -0.598790       -16.2939
  24   2.0000      -0.594599       -16.1799
  25   2.0000      -0.563832       -15.3427
  26   2.0000      -0.534074       -14.5329
  27   2.0000      -0.524849       -14.2819
  28   2.0000      -0.500888       -13.6299
  29   2.0000      -0.491451       -13.3731
  30   2.0000      -0.464902       -12.6506
  31   2.0000      -0.425022       -11.5654
  32   0.0000       0.021230         0.5777
  33   0.0000       0.032257         0.8778
  34   0.0000       0.033570         0.9135
  35   0.0000       0.039223         1.0673
  36   0.0000       0.050583         1.3764

MULLIKEN ATOMIC CHARGES
-----------------------
   0 C :   -1.005348
   1 Si:    1.515296
   2 H :    0.224960
   3 H :    0.277607
   4 H :    0.282003
   5 C :    0.706851
   6 Cl:   -0.658040
   7 O :   -0.779891
   8 O :   -0.775709
   9 H :    0.397511
  10 H :   -0.185242
Sum of atomic charges:    0.0000000

LOEWDIN ATOMIC CHARGES
----------------------
   0 C :    0.889793
   1 Si:   -0.300692
   2 H :   -0.355983
   3 H :   -0.351667
   4 H :   -0.358069
   5 C :   -1.073965
   6 Cl:    0.979987
   7 O :    0.588940
   8 O :    1.168543
   9 H :   -0.938757
  10 H :   -0.248129

  Mayer bond orders larger than 0.100000
B(  0-C ,  1-Si) :   0.9138 B(  0-C ,  2-H ) :   0.9812 B(  0-C ,  3-H ) :   0.9131
B(  0-C ,  4-H ) :   0.9406 B(  1-Si,  5-C ) :   0.6735 B(  1-Si,  6-Cl) :   0.3788
B(  1-Si, 10-H ) :   0.8843 B(  5-C ,  7-O ) :   1.5737 B(  5-C ,  8-O ) :   0.8624
B(  8-O ,  9-H ) :   0.8340

MP2 TOTAL ENERGY:     -978.236190575 Eh
FINAL SINGLE POINT ENERGY      -978.236190574669

DIPOLE MOMENT
-------------
                                X             Y             Z
Electronic contribution:     -2.33121      -6.62265       0.71743
Nuclear contribution   :      1.00393       6.92963      -0.76667
                        -----------------------------------------
Total Dipole Moment    :     -1.32728       0.30699      -0.04924
                        -----------------------------------------
Magnitude (a.u.)       :      1.36320
Magnitude (Debye)      :      3.46499

Rotational constants in cm-1:     0.100520     0.059131     0.040601
Rotational constants in MHz :  3013.526334  1772.689729  1217.196908

                             ****ORCA TERMINATED NORMALLY****
TOTAL RUN TIME: 0 days 0 hours 44 minutes 12 seconds 0 msec
