                         Program Version 5.0.4 -  RELEASE  -
|  1> ! ri-mp2 aug-cc-pvdz aug-cc-pvdz/c tightscf
|  2> %pal nprocs 16 end
|  3> %maxcore 3800
|  4> %base "DZ_B-F_21_A"
|  5> %scf
|  6> STABPerform true
|  7> STABRestartUHFifUnstable true
|  8> end
|  9>
| 10> *xyz 0 2
| 11> F         2.170068   -0.561751    0.000001
| 12> B         1.601220    0.619522    0.000000
| 13> C         0.057225    0.829564   -0.000001
| 14> C        -0.789846   -0.445282   -0.000000
| 15> H        -0.186848    1.459230    0.863546
| 16> C        -2.282443   -0.155322   -0.000001
| 17> H        -0.532919   -1.051495    0.871454
| 18> H        -0.532919   -1.051496   -0.871452
| 19> H        -2.569788    0.422369    0.880603
| 20> H        -2.867220   -1.075821   -0.000000
| 21> H        -0.186847    1.459229   -0.863549
| 22> H        -2.569788    0.422367   -0.880606
| 23> *
| 24>
| 25> $new_job
| 26> ! ri-mp2 aug-cc-pvtz aug-cc-pvtz/c tightscf
| 27> %pal nprocs 16 end
| 28> %maxcore 3800
| 29> %base "TZ_B-F_21_A"
| 30>
| 31> *xyz 0 2
| 32> F         2.170068   -0.561751    0.000001
| 33> B         1.601220    0.619522    0.000000
| 34> C         0.057225    0.829564   -0.000001
| 35> C        -0.789846   -0.445282   -0.000000
| 36> H        -0.186848    1.459230    0.863546
| 37> C        -2.282443   -0.155322   -0.000001
| 38> H        -0.532919   -1.051495    0.871454
| 39> H        -0.532919   -1.051496   -0.871452
| 40> H        -2.569788    0.422369    0.880603
| 41> H        -2.867220   -1.075821   -0.000000
| 42> H        -0.186847    1.459229   -0.863549
| 43> H        -2.569788    0.422367   -0.880606
| 44> *
| 45>
| 46> $new_job
| 47> ! ri-mp2 aug-cc-pvqz aug-cc-pvqz/c tightscf
| 48> %pal nprocs 16 end
| 49> %maxcore 3800
| 50> %base "QZ_B-F_21_A"
| 51>
| 52> *xyz 0 2
| 53> F         2.170068   -0.561751    0.000001
| 54> B         1.601220    0.619522    0.000000
| 55> C         0.057225    0.829564   -0.000001
| 56> C        -0.789846   -0.445282   -0.000000
| 57> H        -0.186848    1.459230    0.863546
| 58> C        -2.282443   -0.155322   -0.000001
| 59> H        -0.532919   -1.051495    0.871454
| 60> H        -0.532919   -1.051496   -0.871452
| 61> H        -2.569788    0.422369    0.880603
| 62> H        -2.867220   -1.075821   -0.000000
| 63> H        -0.186847    1.459229   -0.863549
| 64> H        -2.569788    0.422367   -0.880606
| 65> *
| 66>
| 67>
| 68>
| 69>
| 70>                          ****END OF INPUT****
 Total Charge           Charge          ....    0
 Multiplicity           Mult            ....    2
 Number of Electrons    NEL             ....   39
MP2 TOTAL ENERGY:     -242.538163243 Eh
FINAL SINGLE POINT ENERGY      -242.538163242997
MP2 TOTAL ENERGY:     -242.761032740 Eh
FINAL SINGLE POINT ENERGY      -242.761032739680

CARTESIAN COORDINATES (ANGSTROEM)
---------------------------------
  F      2.170068   -0.561751    0.000001
  B      1.601220    0.619522    0.000000
  C      0.057225    0.829564   -0.000001
  C     -0.789846   -0.445282   -0.000000
  H     -0.186848    1.459230    0.863546
  C     -2.282443   -0.155322   -0.000001
  H     -0.532919   -1.051495    0.871454
  H     -0.532919   -1.051496   -0.871452
  H     -2.569788    0.422369    0.880603
  H     -2.867220   -1.075821   -0.000000
  H     -0.186847    1.459229   -0.863549
  H     -2.569788    0.422367   -0.880606

 Multiplicity           Mult            ....    2
 Number of Electrons    NEL             ....   39
 Basis Dimension        Dim             ....  722

ORBITAL ENERGIES
----------------
                 SPIN UP ORBITALS
  NO   OCC          E(Eh)            E(eV)
   0   1.0000     -26.309620      -715.9212
   1   1.0000     -11.226902      -305.4995
   2   1.0000     -11.214838      -305.1713
   3   1.0000     -11.214792      -305.1700
   4   1.0000      -7.669961      -208.7103
   5   1.0000      -1.627612       -44.2896
   6   1.0000      -1.068522       -29.0760
   7   1.0000      -0.946085       -25.7443
   8   1.0000      -0.819219       -22.2921
   9   1.0000      -0.786067       -21.3900
  10   1.0000      -0.710998       -19.3473
  11   1.0000      -0.682641       -18.5756
  12   1.0000      -0.633403       -17.2358
  13   1.0000      -0.610401       -16.6099
  14   1.0000      -0.554608       -15.0917
  15   1.0000      -0.542914       -14.7734
  16   1.0000      -0.507737       -13.8162
  17   1.0000      -0.485089       -13.2000
  18   1.0000      -0.479003       -13.0343
  19   1.0000      -0.337845        -9.1932
  20   0.0000       0.024960         0.6792
  21   0.0000       0.031987         0.8704
  22   0.0000       0.032367         0.8808
  23   0.0000       0.033438         0.9099
  24   0.0000       0.048701         1.3252

                 SPIN DOWN ORBITALS
  NO   OCC          E(Eh)            E(eV)
   0   1.0000     -26.306295      -715.8307
   1   1.0000     -11.225947      -305.4735
   2   1.0000     -11.214701      -305.1675
   3   1.0000     -11.211809      -305.0888
   4   1.0000      -7.651224      -208.2004
   5   1.0000      -1.618332       -44.0370
   6   1.0000      -1.063861       -28.9491
   7   1.0000      -0.938492       -25.5377
   8   1.0000      -0.813914       -22.1477
   9   1.0000      -0.775187       -21.0939
  10   1.0000      -0.682396       -18.5689
  11   1.0000      -0.681579       -18.5467
  12   1.0000      -0.632871       -17.2213
  13   1.0000      -0.595757       -16.2114
  14   1.0000      -0.548282       -14.9195
  15   1.0000      -0.542009       -14.7488
  16   1.0000      -0.487907       -13.2766
  17   1.0000      -0.478548       -13.0219
  18   1.0000      -0.475992       -12.9524
  19   0.0000       0.022655         0.6165
  20   0.0000       0.030804         0.8382
  21   0.0000       0.032549         0.8857
  22   0.0000       0.033465         0.9106
  23   0.0000       0.048729         1.3260

MULLIKEN ATOMIC CHARGES AND SPIN POPULATIONS
--------------------------------------------
   0 F :   -0.712475   -0.025909
   1 B :    0.710888    1.004253
   2 C :   -0.483305    0.001669
   3 C :   -0.450156    0.039356
   4 H :    0.257131   -0.007534
   5 C :   -0.815141   -0.001947
   6 H :    0.257449   -0.001966
   7 H :    0.257450   -0.001966
   8 H :    0.222010   -0.000960
   9 H :    0.277006    0.003497
  10 H :    0.257132   -0.007533
  11 H :    0.222010   -0.000960
Sum of atomic charges         :    0.0000000

LOEWDIN ATOMIC CHARGES AND SPIN POPULATIONS
-------------------------------------------
   0 F :    0.749733    0.151259
   1 B :   -0.603174    0.579087
   2 C :    0.550976    0.171211
   3 C :    0.454891    0.027039
   4 H :   -0.331873    0.028262
   5 C :    0.920988    0.005017
   6 H :   -0.278635    0.003278
   7 H :   -0.278636    0.003278
   8 H :   -0.285216    0.000721
   9 H :   -0.281966    0.001867
  10 H :   -0.331873    0.028262
  11 H :   -0.285216    0.000721

  Mayer bond orders larger than 0.100000
B(  0-F ,  1-B ) :   0.4639 B(  0-F ,  2-C ) :  -0.1299 B(  1-B ,  2-C ) :   0.9838
B(  2-C ,  3-C ) :   0.9422 B(  2-C ,  4-H ) :   0.9099 B(  2-C , 10-H ) :   0.9099
B(  3-C ,  5-C ) :   0.9551 B(  3-C ,  6-H ) :   0.8694 B(  3-C ,  7-H ) :   0.8694
B(  5-C ,  8-H ) :   0.9533 B(  5-C ,  9-H ) :   0.9756 B(  5-C , 11-H ) :   0.9533

MP2 TOTAL ENERGY:     -242.829423519 Eh
FINAL SINGLE POINT ENERGY      -242.829423519382

DIPOLE MOMENT
-------------
                                X             Y             Z
Electronic contribution:     12.36963      -0.48975       0.00000
Nuclear contribution   :    -12.94119       0.64300      -0.00000
                        -----------------------------------------
Total Dipole Moment    :     -0.57156       0.15326      -0.00000
                        -----------------------------------------
Magnitude (a.u.)       :      0.59175
Magnitude (Debye)      :      1.50412

Rotational constants in cm-1:     0.500173     0.079556     0.071309
Rotational constants in MHz : 14994.822109  2385.035382  2137.777133

                             ****ORCA TERMINATED NORMALLY****
TOTAL RUN TIME: 0 days 1 hours 4 minutes 47 seconds 43 msec
