                         Program Version 5.0.4 -  RELEASE  -
|  1> ! ri-mp2 aug-cc-pvdz aug-cc-pvdz/c tightscf
|  2> %pal nprocs 16 end
|  3> %maxcore 3800
|  4> %base "DZ_S-F_31_AB"
|  5>
|  6> *xyz 0 1
|  7> F         2.244069    0.501271   -0.000002
|  8> S         1.207758   -0.718463   -0.000003
|  9> C        -0.290105    0.223405    0.000000
| 10> O        -0.370067    1.409953    0.000001
| 11> O        -1.292804   -0.651913    0.000002
| 12> C        -2.611981   -0.088310    0.000004
| 13> H        -3.289495   -0.935334    0.000002
| 14> H        -2.757882    0.522207   -0.888485
| 15> H        -2.757881    0.522203    0.888496
| 16> *
| 17>
| 18> $new_job
| 19> ! ri-mp2 aug-cc-pvtz aug-cc-pvtz/c tightscf
| 20> %pal nprocs 16 end
| 21> %maxcore 3800
| 22> %base "TZ_S-F_31_AB"
| 23>
| 24> *xyz 0 1
| 25> F         2.244069    0.501271   -0.000002
| 26> S         1.207758   -0.718463   -0.000003
| 27> C        -0.290105    0.223405    0.000000
| 28> O        -0.370067    1.409953    0.000001
| 29> O        -1.292804   -0.651913    0.000002
| 30> C        -2.611981   -0.088310    0.000004
| 31> H        -3.289495   -0.935334    0.000002
| 32> H        -2.757882    0.522207   -0.888485
| 33> H        -2.757881    0.522203    0.888496
| 34> *
| 35>
| 36> $new_job
| 37> ! ri-mp2 aug-cc-pvqz aug-cc-pvqz/c tightscf
| 38> %pal nprocs 16 end
| 39> %maxcore 3800
| 40> %base "QZ_S-F_31_AB"
| 41>
| 42> *xyz 0 1
| 43> F         2.244069    0.501271   -0.000002
| 44> S         1.207758   -0.718463   -0.000003
| 45> C        -0.290105    0.223405    0.000000
| 46> O        -0.370067    1.409953    0.000001
| 47> O        -1.292804   -0.651913    0.000002
| 48> C        -2.611981   -0.088310    0.000004
| 49> H        -3.289495   -0.935334    0.000002
| 50> H        -2.757882    0.522207   -0.888485
| 51> H        -2.757881    0.522203    0.888496
| 52> *
| 53>
| 54>
| 55>
| 56>
| 57>                          ****END OF INPUT****
 Total Charge           Charge          ....    0
 Multiplicity           Mult            ....    1
 Number of Electrons    NEL             ....   56
MP2 TOTAL ENERGY:     -725.199553406 Eh
FINAL SINGLE POINT ENERGY      -725.199553406135
MP2 TOTAL ENERGY:     -725.532323715 Eh
FINAL SINGLE POINT ENERGY      -725.532323715042

CARTESIAN COORDINATES (ANGSTROEM)
---------------------------------
  F      2.244069    0.501271   -0.000002
  S      1.207758   -0.718463   -0.000003
  C     -0.290105    0.223405    0.000000
  O     -0.370067    1.409953    0.000001
  O     -1.292804   -0.651913    0.000002
  C     -2.611981   -0.088310    0.000004
  H     -3.289495   -0.935334    0.000002
  H     -2.757882    0.522207   -0.888485
  H     -2.757881    0.522203    0.888496

 Multiplicity           Mult            ....    1
 Number of Electrons    NEL             ....   56
 Basis Dimension        Dim             ....  622

ORBITAL ENERGIES
----------------

  NO   OCC          E(Eh)            E(eV)
   0   2.0000     -92.060964     -2505.1062
   1   2.0000     -26.327771      -716.4151
   2   2.0000     -20.632921      -561.4503
   3   2.0000     -20.572079      -559.7947
   4   2.0000     -11.424440      -310.8748
   5   2.0000     -11.306852      -307.6751
   6   2.0000      -9.055637      -246.4164
   7   2.0000      -6.737124      -183.3265
   8   2.0000      -6.735247      -183.2754
   9   2.0000      -6.733988      -183.2411
  10   2.0000      -1.631733       -44.4017
  11   2.0000      -1.497631       -40.7526
  12   2.0000      -1.399367       -38.0787
  13   2.0000      -1.057374       -28.7726
  14   2.0000      -0.970343       -26.4044
  15   2.0000      -0.811201       -22.0739
  16   2.0000      -0.758569       -20.6417
  17   2.0000      -0.716956       -19.5094
  18   2.0000      -0.713167       -19.4063
  19   2.0000      -0.698184       -18.9986
  20   2.0000      -0.689922       -18.7737
  21   2.0000      -0.640463       -17.4279
  22   2.0000      -0.585108       -15.9216
  23   2.0000      -0.581075       -15.8118
  24   2.0000      -0.552021       -15.0213
  25   2.0000      -0.494933       -13.4678
  26   2.0000      -0.462634       -12.5889
  27   2.0000      -0.403878       -10.9901
  28   0.0000       0.022135         0.6023
  29   0.0000       0.039280         1.0689
  30   0.0000       0.041026         1.1164
  31   0.0000       0.044465         1.2099
  32   0.0000       0.060452         1.6450

MULLIKEN ATOMIC CHARGES
-----------------------
   0 F :   -0.602059
   1 S :    0.795566
   2 C :    0.603646
   3 O :   -0.646947
   4 O :   -0.542015
   5 C :   -0.596588
   6 H :    0.425362
   7 H :    0.281518
   8 H :    0.281518
Sum of atomic charges:    0.0000000

LOEWDIN ATOMIC CHARGES
----------------------
   0 F :    0.086005
   1 S :    0.631871
   2 C :   -1.642192
   3 O :    0.598225
   4 O :    0.702815
   5 C :    0.576196
   6 H :   -0.322362
   7 H :   -0.315279
   8 H :   -0.315278

  Mayer bond orders larger than 0.100000
B(  0-F ,  1-S ) :   0.6267 B(  1-S ,  2-C ) :   1.0077 B(  2-C ,  3-O ) :   1.6672
B(  2-C ,  4-O ) :   1.0171 B(  4-O ,  5-C ) :   0.7717 B(  5-C ,  6-H ) :   0.8185
B(  5-C ,  7-H ) :   0.9261 B(  5-C ,  8-H ) :   0.9261

MP2 TOTAL ENERGY:     -725.642297709 Eh
FINAL SINGLE POINT ENERGY      -725.642297709455

DIPOLE MOMENT
-------------
                                X             Y             Z
Electronic contribution:      9.54588      -0.48156      -0.00001
Nuclear contribution   :    -10.58862      -0.33610       0.00001
                        -----------------------------------------
Total Dipole Moment    :     -1.04274      -0.81766       0.00000
                        -----------------------------------------
Magnitude (a.u.)       :      1.32509
Magnitude (Debye)      :      3.36812

Rotational constants in cm-1:     0.264893     0.059980     0.049362
Rotational constants in MHz :  7941.292809  1798.147459  1479.828649

                             ****ORCA TERMINATED NORMALLY****
TOTAL RUN TIME: 0 days 0 hours 5 minutes 0 seconds 216 msec
