                         Program Version 5.0.4 -  RELEASE  -
|  1> ! ri-mp2 aug-cc-pvdz aug-cc-pvdz/c tightscf
|  2> %pal nprocs 16 end
|  3> %maxcore 3800
|  4> %base "DZ_S-F_20_AB"
|  5>
|  6> *xyz 0 1
|  7> F         2.465447   -0.218828   -0.170260
|  8> S         1.229323   -1.124214   -0.644082
|  9> C        -0.070925   -0.060589   -0.045251
| 10> N        -1.302147   -0.932233    0.012612
| 11> O        -2.134673   -0.693854    0.831916
| 12> O        -1.292287   -1.812947   -0.818863
| 13> N         0.173927    0.503060    1.365717
| 14> O         0.560812   -0.301027    2.165224
| 15> O        -0.072569    1.664237    1.525944
| 16> N        -0.371881    1.133598   -0.960968
| 17> O        -1.520198    1.303414   -1.266409
| 18> O         0.592424    1.763856   -1.289358
| 19> *
| 20>
| 21> $new_job
| 22> ! ri-mp2 aug-cc-pvtz aug-cc-pvtz/c tightscf
| 23> %pal nprocs 16 end
| 24> %maxcore 3800
| 25> %base "TZ_S-F_20_AB"
| 26>
| 27> *xyz 0 1
| 28> F         2.465447   -0.218828   -0.170260
| 29> S         1.229323   -1.124214   -0.644082
| 30> C        -0.070925   -0.060589   -0.045251
| 31> N        -1.302147   -0.932233    0.012612
| 32> O        -2.134673   -0.693854    0.831916
| 33> O        -1.292287   -1.812947   -0.818863
| 34> N         0.173927    0.503060    1.365717
| 35> O         0.560812   -0.301027    2.165224
| 36> O        -0.072569    1.664237    1.525944
| 37> N        -0.371881    1.133598   -0.960968
| 38> O        -1.520198    1.303414   -1.266409
| 39> O         0.592424    1.763856   -1.289358
| 40> *
| 41>
| 42> $new_job
| 43> ! ri-mp2 aug-cc-pvqz aug-cc-pvqz/c tightscf
| 44> %pal nprocs 16 end
| 45> %maxcore 3800
| 46> %base "QZ_S-F_20_AB"
| 47>
| 48> *xyz 0 1
| 49> F         2.465447   -0.218828   -0.170260
| 50> S         1.229323   -1.124214   -0.644082
| 51> C        -0.070925   -0.060589   -0.045251
| 52> N        -1.302147   -0.932233    0.012612
| 53> O        -2.134673   -0.693854    0.831916
| 54> O        -1.292287   -1.812947   -0.818863
| 55> N         0.173927    0.503060    1.365717
| 56> O         0.560812   -0.301027    2.165224
| 57> O        -0.072569    1.664237    1.525944
| 58> N        -0.371881    1.133598   -0.960968
| 59> O        -1.520198    1.303414   -1.266409
| 60> O         0.592424    1.763856   -1.289358
| 61> *
| 62>
| 63>
| 64>
| 65>
| 66>                          ****END OF INPUT****
 Total Charge           Charge          ....    0
 Multiplicity           Mult            ....    1
 Number of Electrons    NEL             ....  100
MP2 TOTAL ENERGY:    -1149.238557386 Eh
FINAL SINGLE POINT ENERGY     -1149.238557385764
MP2 TOTAL ENERGY:    -1149.893301989 Eh
FINAL SINGLE POINT ENERGY     -1149.893301989382

CARTESIAN COORDINATES (ANGSTROEM)
---------------------------------
  F      2.465447   -0.218828   -0.170260
  S      1.229323   -1.124214   -0.644082
  C     -0.070925   -0.060589   -0.045251
  N     -1.302147   -0.932233    0.012612
  O     -2.134673   -0.693854    0.831916
  O     -1.292287   -1.812947   -0.818863
  N      0.173927    0.503060    1.365717
  O      0.560812   -0.301027    2.165224
  O     -0.072569    1.664237    1.525944
  N     -0.371881    1.133598   -0.960968
  O     -1.520198    1.303414   -1.266409
  O      0.592424    1.763856   -1.289358

 Multiplicity           Mult            ....    1
 Number of Electrons    NEL             ....  100
 Basis Dimension        Dim             ....  964

ORBITAL ENERGIES
----------------

  NO   OCC          E(Eh)            E(eV)
   0   2.0000     -92.122059     -2506.7687
   1   2.0000     -26.374669      -717.6912
   2   2.0000     -20.687672      -562.9402
   3   2.0000     -20.677350      -562.6593
   4   2.0000     -20.673916      -562.5658
   5   2.0000     -20.670204      -562.4648
   6   2.0000     -20.669830      -562.4547
   7   2.0000     -20.666385      -562.3609
   8   2.0000     -15.936257      -433.6476
   9   2.0000     -15.928503      -433.4366
  10   2.0000     -15.923864      -433.3104
  11   2.0000     -11.510131      -313.2066
  12   2.0000      -9.115263      -248.0389
  13   2.0000      -6.796195      -184.9339
  14   2.0000      -6.794639      -184.8915
  15   2.0000      -6.792744      -184.8399
  16   2.0000      -1.716269       -46.7020
  17   2.0000      -1.693283       -46.0766
  18   2.0000      -1.685934       -45.8766
  19   2.0000      -1.677945       -45.6592
  20   2.0000      -1.500719       -40.8366
  21   2.0000      -1.492370       -40.6095
  22   2.0000      -1.487394       -40.4741
  23   2.0000      -1.262354       -34.3504
  24   2.0000      -1.049222       -28.5508
  25   2.0000      -1.037796       -28.2399
  26   2.0000      -1.027055       -27.9476
  27   2.0000      -0.888585       -24.1796
  28   2.0000      -0.871282       -23.7088
  29   2.0000      -0.868623       -23.6364
  30   2.0000      -0.830408       -22.5966
  31   2.0000      -0.802838       -21.8463
  32   2.0000      -0.798246       -21.7214
  33   2.0000      -0.792575       -21.5671
  34   2.0000      -0.789151       -21.4739
  35   2.0000      -0.782447       -21.2915
  36   2.0000      -0.756976       -20.5984
  37   2.0000      -0.751992       -20.4627
  38   2.0000      -0.734985       -19.9999
  39   2.0000      -0.644707       -17.5434
  40   2.0000      -0.586074       -15.9479
  41   2.0000      -0.581829       -15.8324
  42   2.0000      -0.578171       -15.7328
  43   2.0000      -0.556384       -15.1400
  44   2.0000      -0.549465       -14.9517
  45   2.0000      -0.546135       -14.8611
  46   2.0000      -0.533186       -14.5087
  47   2.0000      -0.517956       -14.0943
  48   2.0000      -0.510346       -13.8872
  49   2.0000      -0.451281       -12.2800
  50   0.0000       0.006292         0.1712
  51   0.0000       0.012452         0.3388
  52   0.0000       0.025982         0.7070
  53   0.0000       0.035196         0.9577
  54   0.0000       0.046998         1.2789

MULLIKEN ATOMIC CHARGES
-----------------------
   0 F :   -0.655357
   1 S :    0.758295
   2 C :    0.498976
   3 N :    0.923299
   4 O :   -0.509121
   5 O :   -0.602579
   6 N :    0.889044
   7 O :   -0.545691
   8 O :   -0.544181
   9 N :    0.904472
  10 O :   -0.549474
  11 O :   -0.567682
Sum of atomic charges:    0.0000000

LOEWDIN ATOMIC CHARGES
----------------------
   0 F :    0.152724
   1 S :    0.707722
   2 C :   -1.361015
   3 N :   -0.987884
   4 O :    0.603438
   5 O :    0.540784
   6 N :   -0.955445
   7 O :    0.560447
   8 O :    0.578966
   9 N :   -0.971404
  10 O :    0.572435
  11 O :    0.559232

  Mayer bond orders larger than 0.100000
B(  0-F ,  1-S ) :   0.6248 B(  0-F ,  2-C ) :  -0.1378 B(  1-S ,  2-C ) :   0.7232
B(  2-C ,  3-N ) :   0.8689 B(  2-C ,  6-N ) :   0.8715 B(  2-C ,  7-O ) :   0.1006
B(  2-C ,  9-N ) :   0.8094 B(  2-C , 11-O ) :   0.1182 B(  3-N ,  4-O ) :   1.3196
B(  3-N ,  5-O ) :   1.1973 B(  4-O ,  5-O ) :   0.1480 B(  6-N ,  7-O ) :   1.2766
B(  6-N ,  8-O ) :   1.2977 B(  7-O ,  8-O ) :   0.1307 B(  9-N , 10-O ) :   1.2618
B(  9-N , 11-O ) :   1.2713 B( 10-O , 11-O ) :   0.1476

MP2 TOTAL ENERGY:    -1150.116820546 Eh
FINAL SINGLE POINT ENERGY     -1150.116820545716

DIPOLE MOMENT
-------------
                                X             Y             Z
Electronic contribution:      2.86296      -1.01190      -0.55102
Nuclear contribution   :     -2.37467       0.26643       0.19480
                        -----------------------------------------
Total Dipole Moment    :      0.48829      -0.74547      -0.35622
                        -----------------------------------------
Magnitude (a.u.)       :      0.95971
Magnitude (Debye)      :      2.43939

Rotational constants in cm-1:     0.033889     0.029233     0.028304
Rotational constants in MHz :  1015.952687   876.398005   848.529874

                             ****ORCA TERMINATED NORMALLY****
TOTAL RUN TIME: 0 days 0 hours 25 minutes 8 seconds 684 msec
