                         Program Version 5.0.4 -  RELEASE  -
|  1> ! ri-mp2 aug-cc-pvdz aug-cc-pvdz/c tightscf
|  2> %pal nprocs 16 end
|  3> %maxcore 3800
|  4> %base "DZ_B-P_46_AB"
|  5> %scf
|  6> STABPerform true
|  7> STABRestartUHFifUnstable true
|  8> end
|  9>
| 10> *xyz 0 1
| 11> B         0.845772    0.074986   -0.024861
| 12> C         1.001694    1.631259   -0.119052
| 13> H         0.817823    2.033965    0.885385
| 14> H         0.277685    2.119688   -0.772437
| 15> H         2.005338    1.951094   -0.404187
| 16> P        -0.833931   -0.738590   -0.306737
| 17> C         2.103230   -0.830085    0.203080
| 18> H         2.816056   -0.684874   -0.614993
| 19> H         1.905995   -1.897602    0.296635
| 20> H         2.627594   -0.499244    1.105777
| 21> C        -2.126920    0.428654    0.301631
| 22> H        -1.970210    0.752467    1.328477
| 23> H        -3.107055   -0.038683    0.223653
| 24> H        -2.131416    1.307195   -0.342353
| 25> H        -0.829727   -1.719048    0.705442
| 26> *
| 27>
| 28> $new_job
| 29> ! ri-mp2 aug-cc-pvtz aug-cc-pvtz/c tightscf
| 30> %pal nprocs 16 end
| 31> %maxcore 3800
| 32> %base "TZ_B-P_46_AB"
| 33>
| 34> *xyz 0 1
| 35> B         0.845772    0.074986   -0.024861
| 36> C         1.001694    1.631259   -0.119052
| 37> H         0.817823    2.033965    0.885385
| 38> H         0.277685    2.119688   -0.772437
| 39> H         2.005338    1.951094   -0.404187
| 40> P        -0.833931   -0.738590   -0.306737
| 41> C         2.103230   -0.830085    0.203080
| 42> H         2.816056   -0.684874   -0.614993
| 43> H         1.905995   -1.897602    0.296635
| 44> H         2.627594   -0.499244    1.105777
| 45> C        -2.126920    0.428654    0.301631
| 46> H        -1.970210    0.752467    1.328477
| 47> H        -3.107055   -0.038683    0.223653
| 48> H        -2.131416    1.307195   -0.342353
| 49> H        -0.829727   -1.719048    0.705442
| 50> *
| 51>
| 52> $new_job
| 53> ! ri-mp2 aug-cc-pvqz aug-cc-pvqz/c tightscf
| 54> %pal nprocs 16 end
| 55> %maxcore 3800
| 56> %base "QZ_B-P_46_AB"
| 57>
| 58> *xyz 0 1
| 59> B         0.845772    0.074986   -0.024861
| 60> C         1.001694    1.631259   -0.119052
| 61> H         0.817823    2.033965    0.885385
| 62> H         0.277685    2.119688   -0.772437
| 63> H         2.005338    1.951094   -0.404187
| 64> P        -0.833931   -0.738590   -0.306737
| 65> C         2.103230   -0.830085    0.203080
| 66> H         2.816056   -0.684874   -0.614993
| 67> H         1.905995   -1.897602    0.296635
| 68> H         2.627594   -0.499244    1.105777
| 69> C        -2.126920    0.428654    0.301631
| 70> H        -1.970210    0.752467    1.328477
| 71> H        -3.107055   -0.038683    0.223653
| 72> H        -2.131416    1.307195   -0.342353
| 73> H        -0.829727   -1.719048    0.705442
| 74> *
| 75>
| 76>
| 77>
| 78>
| 79>                          ****END OF INPUT****
 Total Charge           Charge          ....    0
 Multiplicity           Mult            ....    1
 Number of Electrons    NEL             ....   48
MP2 TOTAL ENERGY:     -485.546370694 Eh
FINAL SINGLE POINT ENERGY      -485.546370693751
MP2 TOTAL ENERGY:     -485.733506895 Eh
FINAL SINGLE POINT ENERGY      -485.733506895321

CARTESIAN COORDINATES (ANGSTROEM)
---------------------------------
  B      0.845772    0.074986   -0.024861
  C      1.001694    1.631259   -0.119052
  H      0.817823    2.033965    0.885385
  H      0.277685    2.119688   -0.772437
  H      2.005338    1.951094   -0.404187
  P     -0.833931   -0.738590   -0.306737
  C      2.103230   -0.830085    0.203080
  H      2.816056   -0.684874   -0.614993
  H      1.905995   -1.897602    0.296635
  H      2.627594   -0.499244    1.105777
  C     -2.126920    0.428654    0.301631
  H     -1.970210    0.752467    1.328477
  H     -3.107055   -0.038683    0.223653
  H     -2.131416    1.307195   -0.342353
  H     -0.829727   -1.719048    0.705442

 Multiplicity           Mult            ....    1
 Number of Electrons    NEL             ....   48
 Basis Dimension        Dim             ....  864

ORBITAL ENERGIES
----------------

  NO   OCC          E(Eh)            E(eV)
   0   2.0000     -79.909421     -2174.4459
   1   2.0000     -11.224395      -305.4313
   2   2.0000     -11.195581      -304.6472
   3   2.0000     -11.193162      -304.5814
   4   2.0000      -7.592883      -206.6129
   5   2.0000      -7.455239      -202.8674
   6   2.0000      -5.349779      -145.5749
   7   2.0000      -5.349318      -145.5623
   8   2.0000      -5.348998      -145.5536
   9   2.0000      -0.986134       -26.8341
  10   2.0000      -0.962152       -26.1815
  11   2.0000      -0.926103       -25.2005
  12   2.0000      -0.789157       -21.4741
  13   2.0000      -0.611088       -16.6286
  14   2.0000      -0.588360       -16.0101
  15   2.0000      -0.577053       -15.7024
  16   2.0000      -0.558979       -15.2106
  17   2.0000      -0.554542       -15.0899
  18   2.0000      -0.540591       -14.7102
  19   2.0000      -0.531663       -14.4673
  20   2.0000      -0.491130       -13.3643
  21   2.0000      -0.453013       -12.3271
  22   2.0000      -0.424421       -11.5491
  23   2.0000      -0.328530        -8.9398
  24   0.0000       0.022124         0.6020
  25   0.0000       0.031290         0.8514
  26   0.0000       0.033253         0.9049
  27   0.0000       0.034929         0.9505
  28   0.0000       0.046273         1.2591

MULLIKEN ATOMIC CHARGES
-----------------------
   0 B :    0.123415
   1 C :   -1.030747
   2 H :    0.282232
   3 H :    0.305020
   4 H :    0.380528
   5 P :    0.417678
   6 C :   -1.047856
   7 H :    0.283190
   8 H :    0.303833
   9 H :    0.286221
  10 C :   -1.130044
  11 H :    0.274198
  12 H :    0.402802
  13 H :    0.274179
  14 H :   -0.124647
Sum of atomic charges:    0.0000000

LOEWDIN ATOMIC CHARGES
----------------------
   0 B :   -0.724574
   1 C :    0.993679
   2 H :   -0.295806
   3 H :   -0.317991
   4 H :   -0.301435
   5 P :    1.371517
   6 C :    0.982244
   7 H :   -0.301677
   8 H :   -0.323887
   9 H :   -0.299295
  10 C :    0.731644
  11 H :   -0.345608
  12 H :   -0.367085
  13 H :   -0.372304
  14 H :   -0.429423

  Mayer bond orders larger than 0.100000
B(  0-B ,  1-C ) :   0.9710 B(  0-B ,  5-P ) :   1.0941 B(  0-B ,  6-C ) :   0.9688
B(  1-C ,  2-H ) :   0.9013 B(  1-C ,  3-H ) :   0.9106 B(  1-C ,  4-H ) :   0.8141
B(  5-P , 10-C ) :   0.9020 B(  5-P , 14-H ) :   0.9853 B(  6-C ,  7-H ) :   0.9200
B(  6-C ,  8-H ) :   0.9068 B(  6-C ,  9-H ) :   0.9124 B( 10-C , 11-H ) :   0.9083
B( 10-C , 12-H ) :   0.8536 B( 10-C , 13-H ) :   0.9150

MP2 TOTAL ENERGY:     -485.789696447 Eh
FINAL SINGLE POINT ENERGY      -485.789696446890

DIPOLE MOMENT
-------------
                                X             Y             Z
Electronic contribution:     -2.53238      -3.68215      -2.36610
Nuclear contribution   :      2.58941       4.06954       2.79329
                        -----------------------------------------
Total Dipole Moment    :      0.05704       0.38739       0.42720
                        -----------------------------------------
Magnitude (a.u.)       :      0.57950
Magnitude (Debye)      :      1.47297

Rotational constants in cm-1:     0.184172     0.083684     0.061858
Rotational constants in MHz :  5521.339105  2508.773435  1854.444940

                             ****ORCA TERMINATED NORMALLY****
TOTAL RUN TIME: 0 days 1 hours 11 minutes 3 seconds 632 msec
