                         Program Version 5.0.4 -  RELEASE  -
|  1> ! ri-mp2 aug-cc-pvdz aug-cc-pvdz/c tightscf
|  2> %pal nprocs 16 end
|  3> %maxcore 3800
|  4> %base "DZ_B-B_49_AB"
|  5> %scf
|  6> STABPerform true
|  7> STABRestartUHFifUnstable true
|  8> end
|  9>
| 10> *xyz 0 1
| 11> B        -0.750540    0.801600    0.362187
| 12> B         0.750540    0.801600   -0.362188
| 13> S         1.995008   -0.352123    0.142458
| 14> H         3.007151    0.036435   -0.647036
| 15> S        -1.995009   -0.352122   -0.142459
| 16> H        -3.007148    0.036430    0.647043
| 17> H         1.025883    1.589530   -1.211017
| 18> H        -1.025878    1.589521    1.211027
| 19> *
| 20>
| 21> $new_job
| 22> ! ri-mp2 aug-cc-pvtz aug-cc-pvtz/c tightscf
| 23> %pal nprocs 16 end
| 24> %maxcore 3800
| 25> %base "TZ_B-B_49_AB"
| 26>
| 27> *xyz 0 1
| 28> B        -0.750540    0.801600    0.362187
| 29> B         0.750540    0.801600   -0.362188
| 30> S         1.995008   -0.352123    0.142458
| 31> H         3.007151    0.036435   -0.647036
| 32> S        -1.995009   -0.352122   -0.142459
| 33> H        -3.007148    0.036430    0.647043
| 34> H         1.025883    1.589530   -1.211017
| 35> H        -1.025878    1.589521    1.211027
| 36> *
| 37>
| 38> $new_job
| 39> ! ri-mp2 aug-cc-pvqz aug-cc-pvqz/c tightscf
| 40> %pal nprocs 16 end
| 41> %maxcore 3800
| 42> %base "QZ_B-B_49_AB"
| 43>
| 44> *xyz 0 1
| 45> B        -0.750540    0.801600    0.362187
| 46> B         0.750540    0.801600   -0.362188
| 47> S         1.995008   -0.352123    0.142458
| 48> H         3.007151    0.036435   -0.647036
| 49> S        -1.995009   -0.352122   -0.142459
| 50> H        -3.007148    0.036430    0.647043
| 51> H         1.025883    1.589530   -1.211017
| 52> H        -1.025878    1.589521    1.211027
| 53> *
| 54>
| 55>
| 56>
| 57>
| 58>                          ****END OF INPUT****
 Total Charge           Charge          ....    0
 Multiplicity           Mult            ....    1
 Number of Electrons    NEL             ....   46
MP2 TOTAL ENERGY:     -847.260872887 Eh
FINAL SINGLE POINT ENERGY      -847.260872887451
MP2 TOTAL ENERGY:     -847.408966475 Eh
FINAL SINGLE POINT ENERGY      -847.408966474525

CARTESIAN COORDINATES (ANGSTROEM)
---------------------------------
  B     -0.750540    0.801600    0.362187
  B      0.750540    0.801600   -0.362188
  S      1.995008   -0.352123    0.142458
  H      3.007151    0.036435   -0.647036
  S     -1.995009   -0.352122   -0.142459
  H     -3.007148    0.036430    0.647043
  H      1.025883    1.589530   -1.211017
  H     -1.025878    1.589521    1.211027

 Multiplicity           Mult            ....    1
 Number of Electrons    NEL             ....   46
 Basis Dimension        Dim             ....  512

ORBITAL ENERGIES
----------------

  NO   OCC          E(Eh)            E(eV)
   0   2.0000     -91.961165     -2502.3905
   1   2.0000     -91.961165     -2502.3905
   2   2.0000      -8.966056      -243.9788
   3   2.0000      -8.966056      -243.9788
   4   2.0000      -7.613539      -207.1749
   5   2.0000      -7.612688      -207.1518
   6   2.0000      -6.647571      -180.8896
   7   2.0000      -6.647571      -180.8896
   8   2.0000      -6.646503      -180.8606
   9   2.0000      -6.646503      -180.8606
  10   2.0000      -6.646351      -180.8564
  11   2.0000      -6.646351      -180.8564
  12   2.0000      -0.997703       -27.1489
  13   2.0000      -0.986124       -26.8338
  14   2.0000      -0.722604       -19.6630
  15   2.0000      -0.619134       -16.8475
  16   2.0000      -0.582141       -15.8409
  17   2.0000      -0.574069       -15.6212
  18   2.0000      -0.464090       -12.6285
  19   2.0000      -0.450114       -12.2482
  20   2.0000      -0.432857       -11.7786
  21   2.0000      -0.402634       -10.9562
  22   2.0000      -0.401279       -10.9194
  23   0.0000       0.024236         0.6595
  24   0.0000       0.028028         0.7627
  25   0.0000       0.036750         1.0000
  26   0.0000       0.037058         1.0084
  27   0.0000       0.050086         1.3629

MULLIKEN ATOMIC CHARGES
-----------------------
   0 B :    0.246615
   1 B :    0.246614
   2 S :   -0.139980
   3 H :    0.055693
   4 S :   -0.139980
   5 H :    0.055693
   6 H :   -0.162327
   7 H :   -0.162328
Sum of atomic charges:    0.0000000

LOEWDIN ATOMIC CHARGES
----------------------
   0 B :   -0.671320
   1 B :   -0.671319
   2 S :    1.702240
   3 H :   -0.775181
   4 S :    1.702240
   5 H :   -0.775181
   6 H :   -0.255740
   7 H :   -0.255739

  Mayer bond orders larger than 0.100000
B(  0-B ,  1-B ) :   1.0696 B(  0-B ,  4-S ) :   1.2386 B(  0-B ,  7-H ) :   0.9194
B(  1-B ,  2-S ) :   1.2386 B(  1-B ,  6-H ) :   0.9194 B(  2-S ,  3-H ) :   1.0305
B(  4-S ,  5-H ) :   1.0305

MP2 TOTAL ENERGY:     -847.457227809 Eh
FINAL SINGLE POINT ENERGY      -847.457227808633

DIPOLE MOMENT
-------------
                                X             Y             Z
Electronic contribution:     -0.00001      -1.52946      -0.00002
Nuclear contribution   :      0.00001       1.90715       0.00002
                        -----------------------------------------
Total Dipole Moment    :      0.00000       0.37769       0.00000
                        -----------------------------------------
Magnitude (a.u.)       :      0.37769
Magnitude (Debye)      :      0.96002

Rotational constants in cm-1:     0.485694     0.057015     0.053558
Rotational constants in MHz : 14560.729448  1709.266121  1605.637725

                             ****ORCA TERMINATED NORMALLY****
TOTAL RUN TIME: 0 days 0 hours 11 minutes 55 seconds 963 msec
