                         Program Version 5.0.4 -  RELEASE  -
|  1> ! ri-mp2 aug-cc-pvdz aug-cc-pvdz/c tightscf
|  2> %pal nprocs 16 end
|  3> %maxcore 3800
|  4> %base "DZ_B-F_23_AB"
|  5> %scf
|  6> STABPerform true
|  7> STABRestartUHFifUnstable true
|  8> end
|  9>
| 10> *xyz 0 1
| 11> F        -1.888140    1.155737    0.041450
| 12> F        -1.960003   -1.096543   -0.017407
| 13> B        -1.257265    0.006429    0.003473
| 14> P         0.677989   -0.004334   -0.113375
| 15> O         1.185904    0.226327   -1.466326
| 16> O         1.189875    1.070037    0.952115
| 17> H         1.495542    1.883890    0.533343
| 18> O         1.038398   -1.383141    0.578031
| 19> H         1.940818   -1.689566    0.422966
| 20> *
| 21>
| 22> $new_job
| 23> ! ri-mp2 aug-cc-pvtz aug-cc-pvtz/c tightscf
| 24> %pal nprocs 16 end
| 25> %maxcore 3800
| 26> %base "TZ_B-F_23_AB"
| 27>
| 28> *xyz 0 1
| 29> F        -1.888140    1.155737    0.041450
| 30> F        -1.960003   -1.096543   -0.017407
| 31> B        -1.257265    0.006429    0.003473
| 32> P         0.677989   -0.004334   -0.113375
| 33> O         1.185904    0.226327   -1.466326
| 34> O         1.189875    1.070037    0.952115
| 35> H         1.495542    1.883890    0.533343
| 36> O         1.038398   -1.383141    0.578031
| 37> H         1.940818   -1.689566    0.422966
| 38> *
| 39>
| 40> $new_job
| 41> ! ri-mp2 aug-cc-pvqz aug-cc-pvqz/c tightscf
| 42> %pal nprocs 16 end
| 43> %maxcore 3800
| 44> %base "QZ_B-F_23_AB"
| 45>
| 46> *xyz 0 1
| 47> F        -1.888140    1.155737    0.041450
| 48> F        -1.960003   -1.096543   -0.017407
| 49> B        -1.257265    0.006429    0.003473
| 50> P         0.677989   -0.004334   -0.113375
| 51> O         1.185904    0.226327   -1.466326
| 52> O         1.189875    1.070037    0.952115
| 53> H         1.495542    1.883890    0.533343
| 54> O         1.038398   -1.383141    0.578031
| 55> H         1.940818   -1.689566    0.422966
| 56> *
| 57>
| 58>
| 59>
| 60>
| 61>                          ****END OF INPUT****
 Total Charge           Charge          ....    0
 Multiplicity           Mult            ....    1
 Number of Electrons    NEL             ....   64
MP2 TOTAL ENERGY:     -791.497966985 Eh
FINAL SINGLE POINT ENERGY      -791.497966985258
MP2 TOTAL ENERGY:     -791.960824967 Eh
FINAL SINGLE POINT ENERGY      -791.960824966976

CARTESIAN COORDINATES (ANGSTROEM)
---------------------------------
  F     -1.888140    1.155737    0.041450
  F     -1.960003   -1.096543   -0.017407
  B     -1.257265    0.006429    0.003473
  P      0.677989   -0.004334   -0.113375
  O      1.185904    0.226327   -1.466326
  O      1.189875    1.070037    0.952115
  H      1.495542    1.883890    0.533343
  O      1.038398   -1.383141    0.578031
  H      1.940818   -1.689566    0.422966

 Multiplicity           Mult            ....    1
 Number of Electrons    NEL             ....   64
 Basis Dimension        Dim             ....  656

ORBITAL ENERGIES
----------------

  NO   OCC          E(Eh)            E(eV)
   0   2.0000     -80.081013     -2179.1152
   1   2.0000     -26.339881      -716.7446
   2   2.0000     -26.339190      -716.7258
   3   2.0000     -20.617509      -561.0310
   4   2.0000     -20.614349      -560.9450
   5   2.0000     -20.522894      -558.4563
   6   2.0000      -7.745933      -210.7775
   7   2.0000      -7.604703      -206.9345
   8   2.0000      -5.502913      -149.7419
   9   2.0000      -5.502157      -149.7213
  10   2.0000      -5.501202      -149.6953
  11   2.0000      -1.673961       -45.5508
  12   2.0000      -1.642892       -44.7054
  13   2.0000      -1.453592       -39.5543
  14   2.0000      -1.401899       -38.1476
  15   2.0000      -1.314686       -35.7744
  16   2.0000      -0.894973       -24.3535
  17   2.0000      -0.843219       -22.9452
  18   2.0000      -0.792618       -21.5682
  19   2.0000      -0.772589       -21.0232
  20   2.0000      -0.756281       -20.5794
  21   2.0000      -0.740198       -20.1418
  22   2.0000      -0.687506       -18.7080
  23   2.0000      -0.684873       -18.6363
  24   2.0000      -0.679165       -18.4810
  25   2.0000      -0.662702       -18.0330
  26   2.0000      -0.634484       -17.2652
  27   2.0000      -0.578739       -15.7483
  28   2.0000      -0.575175       -15.6513
  29   2.0000      -0.531272       -14.4567
  30   2.0000      -0.482647       -13.1335
  31   2.0000      -0.463082       -12.6011
  32   0.0000       0.021869         0.5951
  33   0.0000       0.030212         0.8221
  34   0.0000       0.035652         0.9701
  35   0.0000       0.042125         1.1463
  36   0.0000       0.051587         1.4037

MULLIKEN ATOMIC CHARGES
-----------------------
   0 F :   -0.764429
   1 F :   -0.758447
   2 B :    1.486466
   3 P :    2.085776
   4 O :   -1.128449
   5 O :   -0.839799
   6 H :    0.378034
   7 O :   -0.816858
   8 H :    0.357705
Sum of atomic charges:    0.0000000

LOEWDIN ATOMIC CHARGES
----------------------
   0 F :    0.781610
   1 F :    0.786711
   2 B :   -1.742980
   3 P :   -0.546951
   4 O :    0.278519
   5 O :    1.076792
   6 H :   -0.868043
   7 O :    1.074166
   8 H :   -0.839824

  Mayer bond orders larger than 0.100000
B(  0-F ,  2-B ) :   0.3142 B(  1-F ,  2-B ) :   0.2991 B(  2-B ,  3-P ) :   0.9503
B(  3-P ,  4-O ) :   1.4180 B(  3-P ,  5-O ) :   0.6870 B(  3-P ,  7-O ) :   0.6600
B(  5-O ,  6-H ) :   0.9162 B(  7-O ,  8-H ) :   0.9218

MP2 TOTAL ENERGY:     -792.110749138 Eh
FINAL SINGLE POINT ENERGY      -792.110749137710

DIPOLE MOMENT
-------------
                                X             Y             Z
Electronic contribution:     -6.64296      -0.03822      -0.19234
Nuclear contribution   :      7.09178       0.12358       0.96195
                        -----------------------------------------
Total Dipole Moment    :      0.44882       0.08536       0.76961
                        -----------------------------------------
Magnitude (a.u.)       :      0.89499
Magnitude (Debye)      :      2.27489

Rotational constants in cm-1:     0.105660     0.057108     0.048936
Rotational constants in MHz :  3167.603017  1712.046233  1467.058933

                             ****ORCA TERMINATED NORMALLY****
TOTAL RUN TIME: 0 days 0 hours 25 minutes 5 seconds 302 msec
