                         Program Version 5.0.4 -  RELEASE  -
|  1> ! ri-mp2 aug-cc-pvdz aug-cc-pvdz/c tightscf
|  2> %pal nprocs 16 end
|  3> %maxcore 3800
|  4> %base "DZ_B-S_8_AB"
|  5>
|  6> *xyz 0 1
|  7> F         0.181316    1.977553   -0.493884
|  8> F         3.807292   -0.838852    0.193290
|  9> F         2.800140    1.584183   -0.406970
| 10> S        -2.726930    1.347408    0.593332
| 11> S        -2.785495   -1.508464   -0.569764
| 12> C         1.981415    0.569521   -0.149937
| 13> C        -0.283470   -0.280537    0.063869
| 14> C         0.276999   -1.527709    0.359758
| 15> H        -0.382329   -2.359042    0.565646
| 16> C         0.612399    0.749276   -0.186194
| 17> C         1.641197   -1.734820    0.415691
| 18> H         2.062459   -2.700719    0.654169
| 19> C         2.486318   -0.678753    0.156141
| 20> B        -1.834168   -0.103427    0.036348
| 21> H        -1.683350    2.101090    0.957192
| 22> H        -4.015008   -1.035136   -0.323711
| 23> *
| 24>
| 25> $new_job
| 26> ! ri-mp2 aug-cc-pvtz aug-cc-pvtz/c tightscf
| 27> %pal nprocs 16 end
| 28> %maxcore 3800
| 29> %base "TZ_B-S_8_AB"
| 30>
| 31> *xyz 0 1
| 32> F         0.181316    1.977553   -0.493884
| 33> F         3.807292   -0.838852    0.193290
| 34> F         2.800140    1.584183   -0.406970
| 35> S        -2.726930    1.347408    0.593332
| 36> S        -2.785495   -1.508464   -0.569764
| 37> C         1.981415    0.569521   -0.149937
| 38> C        -0.283470   -0.280537    0.063869
| 39> C         0.276999   -1.527709    0.359758
| 40> H        -0.382329   -2.359042    0.565646
| 41> C         0.612399    0.749276   -0.186194
| 42> C         1.641197   -1.734820    0.415691
| 43> H         2.062459   -2.700719    0.654169
| 44> C         2.486318   -0.678753    0.156141
| 45> B        -1.834168   -0.103427    0.036348
| 46> H        -1.683350    2.101090    0.957192
| 47> H        -4.015008   -1.035136   -0.323711
| 48> *
| 49>
| 50> $new_job
| 51> ! ri-mp2 aug-cc-pvqz aug-cc-pvqz/c tightscf
| 52> %pal nprocs 16 end
| 53> %maxcore 3800
| 54> %base "QZ_B-S_8_AB"
| 55>
| 56> *xyz 0 1
| 57> F         0.181316    1.977553   -0.493884
| 58> F         3.807292   -0.838852    0.193290
| 59> F         2.800140    1.584183   -0.406970
| 60> S        -2.726930    1.347408    0.593332
| 61> S        -2.785495   -1.508464   -0.569764
| 62> C         1.981415    0.569521   -0.149937
| 63> C        -0.283470   -0.280537    0.063869
| 64> C         0.276999   -1.527709    0.359758
| 65> H        -0.382329   -2.359042    0.565646
| 66> C         0.612399    0.749276   -0.186194
| 67> C         1.641197   -1.734820    0.415691
| 68> H         2.062459   -2.700719    0.654169
| 69> C         2.486318   -0.678753    0.156141
| 70> B        -1.834168   -0.103427    0.036348
| 71> H        -1.683350    2.101090    0.957192
| 72> H        -4.015008   -1.035136   -0.323711
| 73> *
| 74>
| 75>
| 76>
| 77>
| 78>                          ****END OF INPUT****
 Total Charge           Charge          ....    0
 Multiplicity           Mult            ....    1
 Number of Electrons    NEL             ....  104
MP2 TOTAL ENERGY:    -1349.479395586 Eh
FINAL SINGLE POINT ENERGY     -1349.479395586065
MP2 TOTAL ENERGY:    -1350.041517354 Eh
FINAL SINGLE POINT ENERGY     -1350.041517354110

CARTESIAN COORDINATES (ANGSTROEM)
---------------------------------
  F      0.181316    1.977553   -0.493884
  F      3.807292   -0.838852    0.193290
  F      2.800140    1.584183   -0.406970
  S     -2.726930    1.347408    0.593332
  S     -2.785495   -1.508464   -0.569764
  C      1.981415    0.569521   -0.149937
  C     -0.283470   -0.280537    0.063869
  C      0.276999   -1.527709    0.359758
  H     -0.382329   -2.359042    0.565646
  C      0.612399    0.749276   -0.186194
  C      1.641197   -1.734820    0.415691
  H      2.062459   -2.700719    0.654169
  C      2.486318   -0.678753    0.156141
  B     -1.834168   -0.103427    0.036348
  H     -1.683350    2.101090    0.957192
  H     -4.015008   -1.035136   -0.323711

 Multiplicity           Mult            ....    1
 Number of Electrons    NEL             ....  104
 Basis Dimension        Dim             .... 1152

ORBITAL ENERGIES
----------------

  NO   OCC          E(Eh)            E(eV)
   0   2.0000     -91.965872     -2502.5186
   1   2.0000     -91.963879     -2502.4644
   2   2.0000     -26.338163      -716.6979
   3   2.0000     -26.337954      -716.6922
   4   2.0000     -26.336050      -716.6404
   5   2.0000     -11.363789      -309.2244
   6   2.0000     -11.363056      -309.2045
   7   2.0000     -11.353473      -308.9437
   8   2.0000     -11.276063      -306.8373
   9   2.0000     -11.265494      -306.5497
  10   2.0000     -11.256740      -306.3115
  11   2.0000      -8.971141      -244.1172
  12   2.0000      -8.969168      -244.0635
  13   2.0000      -7.668413      -208.6681
  14   2.0000      -6.652701      -181.0292
  15   2.0000      -6.651723      -181.0026
  16   2.0000      -6.651269      -180.9902
  17   2.0000      -6.650739      -180.9758
  18   2.0000      -6.649779      -180.9497
  19   2.0000      -6.649339      -180.9377
  20   2.0000      -1.671117       -45.4734
  21   2.0000      -1.661393       -45.2088
  22   2.0000      -1.649543       -44.8864
  23   2.0000      -1.202652       -32.7258
  24   2.0000      -1.069588       -29.1050
  25   2.0000      -1.061445       -28.8834
  26   2.0000      -1.017639       -27.6914
  27   2.0000      -0.972650       -26.4671
  28   2.0000      -0.904535       -24.6136
  29   2.0000      -0.894226       -24.3331
  30   2.0000      -0.804108       -21.8809
  31   2.0000      -0.790794       -21.5186
  32   2.0000      -0.776186       -21.1211
  33   2.0000      -0.747429       -20.3386
  34   2.0000      -0.723833       -19.6965
  35   2.0000      -0.721505       -19.6332
  36   2.0000      -0.706676       -19.2296
  37   2.0000      -0.699088       -19.0231
  38   2.0000      -0.683682       -18.6039
  39   2.0000      -0.678224       -18.4554
  40   2.0000      -0.629934       -17.1414
  41   2.0000      -0.604003       -16.4358
  42   2.0000      -0.589285       -16.0353
  43   2.0000      -0.563801       -15.3418
  44   2.0000      -0.550665       -14.9843
  45   2.0000      -0.530433       -14.4338
  46   2.0000      -0.472592       -12.8599
  47   2.0000      -0.464163       -12.6305
  48   2.0000      -0.444689       -12.1006
  49   2.0000      -0.378080       -10.2881
  50   2.0000      -0.371474       -10.1083
  51   2.0000      -0.366343        -9.9687
  52   0.0000       0.020800         0.5660
  53   0.0000       0.029691         0.8079
  54   0.0000       0.033713         0.9174
  55   0.0000       0.035331         0.9614
  56   0.0000       0.044028         1.1981

MULLIKEN ATOMIC CHARGES
-----------------------
   0 F :   -0.751312
   1 F :   -0.765571
   2 F :   -0.751216
   3 S :   -0.137971
   4 S :   -0.086204
   5 C :    0.943178
   6 C :   -0.144019
   7 C :   -0.551683
   8 H :    0.163785
   9 C :    0.824476
  10 C :   -0.523334
  11 H :    0.369934
  12 C :    0.843808
  13 B :    0.553459
  14 H :    0.011354
  15 H :    0.001315
Sum of atomic charges:   -0.0000000

LOEWDIN ATOMIC CHARGES
----------------------
   0 F :    0.823188
   1 F :    0.804879
   2 F :    0.796576
   3 S :    1.709812
   4 S :    1.700529
   5 C :   -0.783182
   6 C :   -0.155684
   7 C :    0.259841
   8 H :   -0.359289
   9 C :   -0.781198
  10 C :    0.318715
  11 H :   -0.322179
  12 C :   -0.740603
  13 B :   -1.670703
  14 H :   -0.807889
  15 H :   -0.792813

  Mayer bond orders larger than 0.100000
B(  0-F ,  6-C ) :   0.2592 B(  0-F ,  9-C ) :  -0.1202 B(  1-F , 10-C ) :   0.1217
B(  2-F ,  5-C ) :  -0.1503 B(  2-F ,  9-C ) :   0.1672 B(  2-F , 12-C ) :   0.1555
B(  3-S , 13-B ) :   1.0476 B(  3-S , 14-H ) :   1.0751 B(  4-S , 13-B ) :   1.0368
B(  4-S , 15-H ) :   1.0907 B(  5-C ,  6-C ) :  -0.1967 B(  5-C ,  7-C ) :   0.1037
B(  5-C ,  9-C ) :   1.5518 B(  5-C , 12-C ) :   1.5900 B(  6-C ,  7-C ) :   1.0563
B(  6-C ,  9-C ) :   1.1666 B(  6-C , 10-C ) :  -0.2271 B(  6-C , 13-B ) :   0.9265
B(  7-C ,  8-H ) :   1.1031 B(  7-C , 10-C ) :   1.1738 B(  7-C , 11-H ) :  -0.1264
B( 10-C , 11-H ) :   0.8882 B( 10-C , 12-C ) :   1.3327

MP2 TOTAL ENERGY:    -1350.226573338 Eh
FINAL SINGLE POINT ENERGY     -1350.226573338206

DIPOLE MOMENT
-------------
                                X             Y             Z
Electronic contribution:      8.14803       5.50391      -1.97094
Nuclear contribution   :     -8.52053      -6.19190       2.36806
                        -----------------------------------------
Total Dipole Moment    :     -0.37250      -0.68799       0.39711
                        -----------------------------------------
Magnitude (a.u.)       :      0.87738
Magnitude (Debye)      :      2.23011

Rotational constants in cm-1:     0.041855     0.014428     0.011254
Rotational constants in MHz :  1254.767296   432.526583   337.371564

                             ****ORCA TERMINATED NORMALLY****
TOTAL RUN TIME: 0 days 0 hours 45 minutes 9 seconds 425 msec
