                         Program Version 5.0.4 -  RELEASE  -
|  1> ! ri-mp2 aug-cc-pvdz aug-cc-pvdz/c tightscf
|  2> %pal nprocs 16 end
|  3> %maxcore 3800
|  4> %base "DZ_Si-S_15_B"
|  5> %scf
|  6> STABPerform true
|  7> STABRestartUHFifUnstable true
|  8> end
|  9>
| 10> *xyz 0 2
| 11> S         0.203860    0.000000   -0.269358
| 12> C        -1.560948    0.000000    0.093716
| 13> O         0.733613    1.262055    0.202190
| 14> O         0.733613   -1.262055    0.202190
| 15> H        -1.992147    0.900361   -0.333192
| 16> H        -1.649590    0.000000    1.178781
| 17> H        -1.992147   -0.900361   -0.333192
| 18> *
| 19>
| 20> $new_job
| 21> ! ri-mp2 aug-cc-pvtz aug-cc-pvtz/c tightscf
| 22> %pal nprocs 16 end
| 23> %maxcore 3800
| 24> %base "TZ_Si-S_15_B"
| 25>
| 26> *xyz 0 2
| 27> S         0.203860    0.000000   -0.269358
| 28> C        -1.560948    0.000000    0.093716
| 29> O         0.733613    1.262055    0.202190
| 30> O         0.733613   -1.262055    0.202190
| 31> H        -1.992147    0.900361   -0.333192
| 32> H        -1.649590    0.000000    1.178781
| 33> H        -1.992147   -0.900361   -0.333192
| 34> *
| 35>
| 36> $new_job
| 37> ! ri-mp2 aug-cc-pvqz aug-cc-pvqz/c tightscf
| 38> %pal nprocs 16 end
| 39> %maxcore 3800
| 40> %base "QZ_Si-S_15_B"
| 41>
| 42> *xyz 0 2
| 43> S         0.203860    0.000000   -0.269358
| 44> C        -1.560948    0.000000    0.093716
| 45> O         0.733613    1.262055    0.202190
| 46> O         0.733613   -1.262055    0.202190
| 47> H        -1.992147    0.900361   -0.333192
| 48> H        -1.649590    0.000000    1.178781
| 49> H        -1.992147   -0.900361   -0.333192
| 50> *
| 51>
| 52>
| 53>
| 54>
| 55>                          ****END OF INPUT****
 Total Charge           Charge          ....    0
 Multiplicity           Mult            ....    2
 Number of Electrons    NEL             ....   41
MP2 TOTAL ENERGY:     -587.479417766 Eh
FINAL SINGLE POINT ENERGY      -587.479417765897
MP2 TOTAL ENERGY:     -587.729286774 Eh
FINAL SINGLE POINT ENERGY      -587.729286773587

CARTESIAN COORDINATES (ANGSTROEM)
---------------------------------
  S      0.203860    0.000000   -0.269358
  C     -1.560948    0.000000    0.093716
  O      0.733613    1.262055    0.202190
  O      0.733613   -1.262055    0.202190
  H     -1.992147    0.900361   -0.333192
  H     -1.649590    0.000000    1.178781
  H     -1.992147   -0.900361   -0.333192

 Multiplicity           Mult            ....    2
 Number of Electrons    NEL             ....   41
 Basis Dimension        Dim             ....  462

ORBITAL ENERGIES
----------------
                 SPIN UP ORBITALS
  NO   OCC          E(Eh)            E(eV)
   0   1.0000     -92.160691     -2507.8199
   1   1.0000     -20.587038      -560.2018
   2   1.0000     -20.587021      -560.2013
   3   1.0000     -11.297818      -307.4293
   4   1.0000      -9.138548      -248.6725
   5   1.0000      -6.829192      -185.8318
   6   1.0000      -6.819056      -185.5560
   7   1.0000      -6.818944      -185.5529
   8   1.0000      -1.480599       -40.2892
   9   1.0000      -1.381661       -37.5969
  10   1.0000      -1.063704       -28.9449
  11   1.0000      -0.863132       -23.4870
  12   1.0000      -0.708023       -19.2663
  13   1.0000      -0.685412       -18.6510
  14   1.0000      -0.684595       -18.6288
  15   1.0000      -0.631937       -17.1959
  16   1.0000      -0.615552       -16.7500
  17   1.0000      -0.560098       -15.2410
  18   1.0000      -0.523507       -14.2453
  19   1.0000      -0.512212       -13.9380
  20   1.0000      -0.419141       -11.4054
  21   0.0000       0.020283         0.5519
  22   0.0000       0.037487         1.0201
  23   0.0000       0.037914         1.0317
  24   0.0000       0.052885         1.4391
  25   0.0000       0.079390         2.1603

                 SPIN DOWN ORBITALS
  NO   OCC          E(Eh)            E(eV)
   0   1.0000     -92.156454     -2507.7046
   1   1.0000     -20.573380      -559.8301
   2   1.0000     -20.573351      -559.8293
   3   1.0000     -11.293169      -307.3028
   4   1.0000      -9.132979      -248.5210
   5   1.0000      -6.818665      -185.5453
   6   1.0000      -6.818246      -185.5339
   7   1.0000      -6.809810      -185.3044
   8   1.0000      -1.450462       -39.4691
   9   1.0000      -1.343137       -36.5486
  10   1.0000      -1.039485       -28.2858
  11   1.0000      -0.810226       -22.0474
  12   1.0000      -0.669515       -18.2184
  13   1.0000      -0.665479       -18.1086
  14   1.0000      -0.655587       -17.8394
  15   1.0000      -0.615226       -16.7412
  16   1.0000      -0.575260       -15.6536
  17   1.0000      -0.498995       -13.5784
  18   1.0000      -0.497321       -13.5328
  19   1.0000      -0.454929       -12.3793
  20   0.0000       0.000738         0.0201
  21   0.0000       0.029311         0.7976
  22   0.0000       0.037617         1.0236
  23   0.0000       0.038682         1.0526
  24   0.0000       0.055916         1.5215

MULLIKEN ATOMIC CHARGES AND SPIN POPULATIONS
--------------------------------------------
   0 S :    1.833066    0.304019
   1 C :   -0.918908    0.150859
   2 O :   -0.957347    0.279344
   3 O :   -0.957347    0.279344
   4 H :    0.353752   -0.016636
   5 H :    0.293032    0.019706
   6 H :    0.353752   -0.016636
Sum of atomic charges         :    0.0000000

LOEWDIN ATOMIC CHARGES AND SPIN POPULATIONS
-------------------------------------------
   0 S :    0.032797    0.349508
   1 C :    0.742327    0.088309
   2 O :    0.145051    0.253227
   3 O :    0.145051    0.253227
   4 H :   -0.359279    0.015074
   5 H :   -0.346669    0.025579
   6 H :   -0.359279    0.015074

  Mayer bond orders larger than 0.100000
B(  0-S ,  1-C ) :   0.9594 B(  0-S ,  2-O ) :   1.3996 B(  0-S ,  3-O ) :   1.3996
B(  1-C ,  4-H ) :   0.8713 B(  1-C ,  5-H ) :   0.8890 B(  1-C ,  6-H ) :   0.8713

MP2 TOTAL ENERGY:     -587.810163513 Eh
FINAL SINGLE POINT ENERGY      -587.810163513492

DIPOLE MOMENT
-------------
                                X             Y             Z
Electronic contribution:      3.87309       0.00000      -0.93155
Nuclear contribution   :     -5.46847       0.00000       0.51314
                        -----------------------------------------
Total Dipole Moment    :     -1.59539       0.00000      -0.41841
                        -----------------------------------------
Magnitude (a.u.)       :      1.64934
Magnitude (Debye)      :      4.19229

Rotational constants in cm-1:     0.290885     0.265353     0.152177
Rotational constants in MHz :  8720.515827  7955.076468  4562.153617

                             ****ORCA TERMINATED NORMALLY****
TOTAL RUN TIME: 0 days 0 hours 18 minutes 45 seconds 444 msec
