                         Program Version 5.0.4 -  RELEASE  -
|  1> ! ri-mp2 aug-cc-pvdz aug-cc-pvdz/c tightscf
|  2> %pal nprocs 16 end
|  3> %maxcore 3800
|  4> %base "DZ_S-S_21_AB"
|  5> %scf
|  6> STABPerform true
|  7> STABRestartUHFifUnstable true
|  8> end
|  9>
| 10> *xyz 0 1
| 11> S         0.023695    1.075548   -0.742539
| 12> S         1.229350   -0.562682   -0.889763
| 13> C         2.696262   -0.224898    0.190769
| 14> C         3.556609   -1.469680   -0.005134
| 15> H         4.482437   -1.360910    0.562077
| 16> H         3.818429   -1.611914   -1.053897
| 17> H         3.046181   -2.365992    0.348064
| 18> C         3.424746    1.012614   -0.312283
| 19> H         4.324831    1.178925    0.283783
| 20> H         2.796225    1.898485   -0.225408
| 21> H         3.717123    0.899318   -1.355514
| 22> C         2.316504   -0.061831    1.650833
| 23> H         1.659981    0.795066    1.790008
| 24> H         3.218057    0.107503    2.243530
| 25> H         1.817348   -0.949666    2.035835
| 26> C        -1.482071    0.545050    0.198354
| 27> C        -1.156607   -0.010984    1.569722
| 28> H        -0.513449   -0.885863    1.494188
| 29> H        -2.075963   -0.308574    2.073187
| 30> H        -0.656810    0.738845    2.179753
| 31> C        -2.300982    1.826452    0.300407
| 32> H        -1.777899    2.570328    0.900242
| 33> H        -3.257223    1.610707    0.775351
| 34> H        -2.499311    2.252876   -0.683652
| 35> C        -2.171192   -0.486653   -0.686212
| 36> Cl        -3.735602   -1.065867   -0.013114
| 37> H        -1.548581   -1.368400   -0.804300
| 38> H        -2.394485   -0.067259   -1.662218
| 39> *
| 40>
| 41> $new_job
| 42> ! ri-mp2 aug-cc-pvtz aug-cc-pvtz/c tightscf
| 43> %pal nprocs 16 end
| 44> %maxcore 3800
| 45> %base "TZ_S-S_21_AB"
| 46>
| 47> *xyz 0 1
| 48> S         0.023695    1.075548   -0.742539
| 49> S         1.229350   -0.562682   -0.889763
| 50> C         2.696262   -0.224898    0.190769
| 51> C         3.556609   -1.469680   -0.005134
| 52> H         4.482437   -1.360910    0.562077
| 53> H         3.818429   -1.611914   -1.053897
| 54> H         3.046181   -2.365992    0.348064
| 55> C         3.424746    1.012614   -0.312283
| 56> H         4.324831    1.178925    0.283783
| 57> H         2.796225    1.898485   -0.225408
| 58> H         3.717123    0.899318   -1.355514
| 59> C         2.316504   -0.061831    1.650833
| 60> H         1.659981    0.795066    1.790008
| 61> H         3.218057    0.107503    2.243530
| 62> H         1.817348   -0.949666    2.035835
| 63> C        -1.482071    0.545050    0.198354
| 64> C        -1.156607   -0.010984    1.569722
| 65> H        -0.513449   -0.885863    1.494188
| 66> H        -2.075963   -0.308574    2.073187
| 67> H        -0.656810    0.738845    2.179753
| 68> C        -2.300982    1.826452    0.300407
| 69> H        -1.777899    2.570328    0.900242
| 70> H        -3.257223    1.610707    0.775351
| 71> H        -2.499311    2.252876   -0.683652
| 72> C        -2.171192   -0.486653   -0.686212
| 73> Cl        -3.735602   -1.065867   -0.013114
| 74> H        -1.548581   -1.368400   -0.804300
| 75> H        -2.394485   -0.067259   -1.662218
| 76> *
| 77>
| 78> $new_job
| 79> ! ri-mp2 aug-cc-pvqz aug-cc-pvqz/c tightscf
| 80> %pal nprocs 16 end
| 81> %maxcore 3800
| 82> %base "QZ_S-S_21_AB"
| 83>
| 84> *xyz 0 1
| 85> S         0.023695    1.075548   -0.742539
| 86> S         1.229350   -0.562682   -0.889763
| 87> C         2.696262   -0.224898    0.190769
| 88> C         3.556609   -1.469680   -0.005134
| 89> H         4.482437   -1.360910    0.562077
| 90> H         3.818429   -1.611914   -1.053897
| 91> H         3.046181   -2.365992    0.348064
| 92> C         3.424746    1.012614   -0.312283
| 93> H         4.324831    1.178925    0.283783
| 94> H         2.796225    1.898485   -0.225408
| 95> H         3.717123    0.899318   -1.355514
| 96> C         2.316504   -0.061831    1.650833
| 97> H         1.659981    0.795066    1.790008
| 98> H         3.218057    0.107503    2.243530
| 99> H         1.817348   -0.949666    2.035835
|100> C        -1.482071    0.545050    0.198354
|101> C        -1.156607   -0.010984    1.569722
|102> H        -0.513449   -0.885863    1.494188
|103> H        -2.075963   -0.308574    2.073187
|104> H        -0.656810    0.738845    2.179753
|105> C        -2.300982    1.826452    0.300407
|106> H        -1.777899    2.570328    0.900242
|107> H        -3.257223    1.610707    0.775351
|108> H        -2.499311    2.252876   -0.683652
|109> C        -2.171192   -0.486653   -0.686212
|110> Cl        -3.735602   -1.065867   -0.013114
|111> H        -1.548581   -1.368400   -0.804300
|112> H        -2.394485   -0.067259   -1.662218
|113> *
|114>
|115>
|116>
|117>
|118>                          ****END OF INPUT****
 Total Charge           Charge          ....    0
 Multiplicity           Mult            ....    1
 Number of Electrons    NEL             ....  114
MP2 TOTAL ENERGY:    -1569.116292423 Eh
FINAL SINGLE POINT ENERGY     -1569.116292423447
MP2 TOTAL ENERGY:    -1569.581393129 Eh
FINAL SINGLE POINT ENERGY     -1569.581393128640

CARTESIAN COORDINATES (ANGSTROEM)
---------------------------------
  S      0.023695    1.075548   -0.742539
  S      1.229350   -0.562682   -0.889763
  C      2.696262   -0.224898    0.190769
  C      3.556609   -1.469680   -0.005134
  H      4.482437   -1.360910    0.562077
  H      3.818429   -1.611914   -1.053897
  H      3.046181   -2.365992    0.348064
  C      3.424746    1.012614   -0.312283
  H      4.324831    1.178925    0.283783
  H      2.796225    1.898485   -0.225408
  H      3.717123    0.899318   -1.355514
  C      2.316504   -0.061831    1.650833
  H      1.659981    0.795066    1.790008
  H      3.218057    0.107503    2.243530
  H      1.817348   -0.949666    2.035835
  C     -1.482071    0.545050    0.198354
  C     -1.156607   -0.010984    1.569722
  H     -0.513449   -0.885863    1.494188
  H     -2.075963   -0.308574    2.073187
  H     -0.656810    0.738845    2.179753
  C     -2.300982    1.826452    0.300407
  H     -1.777899    2.570328    0.900242
  H     -3.257223    1.610707    0.775351
  H     -2.499311    2.252876   -0.683652
  C     -2.171192   -0.486653   -0.686212
  Cl    -3.735602   -1.065867   -0.013114
  H     -1.548581   -1.368400   -0.804300
  H     -2.394485   -0.067259   -1.662218

 Multiplicity           Mult            ....    1
 Number of Electrons    NEL             ....  114
 Basis Dimension        Dim             .... 1674

ORBITAL ENERGIES
----------------

  NO   OCC          E(Eh)            E(eV)
   0   2.0000    -104.819693     -2852.2889
   1   2.0000     -91.968763     -2502.5973
   2   2.0000     -91.964904     -2502.4923
   3   2.0000     -11.290984      -307.2433
   4   2.0000     -11.284456      -307.0657
   5   2.0000     -11.276402      -306.8465
   6   2.0000     -11.227330      -305.5112
   7   2.0000     -11.227242      -305.5088
   8   2.0000     -11.222199      -305.3716
   9   2.0000     -11.221030      -305.3397
  10   2.0000     -11.220312      -305.3202
  11   2.0000     -10.545646      -286.9616
  12   2.0000      -8.969878      -244.0828
  13   2.0000      -8.966172      -243.9820
  14   2.0000      -8.012693      -218.0365
  15   2.0000      -8.011112      -217.9934
  16   2.0000      -8.011060      -217.9920
  17   2.0000      -6.651188      -180.9880
  18   2.0000      -6.649943      -180.9541
  19   2.0000      -6.649220      -180.9345
  20   2.0000      -6.647541      -180.8888
  21   2.0000      -6.646205      -180.8524
  22   2.0000      -6.645551      -180.8346
  23   2.0000      -1.162460       -31.6321
  24   2.0000      -1.129087       -30.7240
  25   2.0000      -1.087166       -29.5833
  26   2.0000      -1.005862       -27.3709
  27   2.0000      -0.954959       -25.9858
  28   2.0000      -0.950471       -25.8636
  29   2.0000      -0.945842       -25.7377
  30   2.0000      -0.924986       -25.1701
  31   2.0000      -0.863586       -23.4994
  32   2.0000      -0.759309       -20.6618
  33   2.0000      -0.721926       -19.6446
  34   2.0000      -0.650670       -17.7056
  35   2.0000      -0.644586       -17.5401
  36   2.0000      -0.624741       -17.0001
  37   2.0000      -0.619975       -16.8704
  38   2.0000      -0.617279       -16.7970
  39   2.0000      -0.603711       -16.4278
  40   2.0000      -0.572836       -15.5877
  41   2.0000      -0.556867       -15.1531
  42   2.0000      -0.551979       -15.0201
  43   2.0000      -0.549025       -14.9397
  44   2.0000      -0.542508       -14.7624
  45   2.0000      -0.527604       -14.3568
  46   2.0000      -0.515459       -14.0264
  47   2.0000      -0.503846       -13.7104
  48   2.0000      -0.493834       -13.4379
  49   2.0000      -0.490282       -13.3413
  50   2.0000      -0.467259       -12.7148
  51   2.0000      -0.457342       -12.4449
  52   2.0000      -0.438490       -11.9319
  53   2.0000      -0.435059       -11.8385
  54   2.0000      -0.430783       -11.7222
  55   2.0000      -0.364637        -9.9223
  56   2.0000      -0.338910        -9.2222
  57   0.0000       0.022876         0.6225
  58   0.0000       0.027542         0.7494
  59   0.0000       0.029924         0.8143
  60   0.0000       0.031917         0.8685
  61   0.0000       0.040275         1.0959

MULLIKEN ATOMIC CHARGES
-----------------------
   0 S :   -0.398544
   1 S :   -0.386254
   2 C :    1.470578
   3 C :   -1.227931
   4 H :    0.307895
   5 H :    0.268738
   6 H :    0.260780
   7 C :   -1.204478
   8 H :    0.289808
   9 H :    0.279425
  10 H :    0.258390
  11 C :   -1.220726
  12 H :    0.439530
  13 H :    0.221475
  14 H :    0.254484
  15 C :    1.377966
  16 C :   -1.198218
  17 H :    0.441103
  18 H :    0.232770
  19 H :    0.229207
  20 C :   -1.197039
  21 H :    0.253977
  22 H :    0.316171
  23 H :    0.263822
  24 C :   -0.449682
  25 Cl:   -0.481522
  26 H :    0.281407
  27 H :    0.316870
Sum of atomic charges:   -0.0000000

LOEWDIN ATOMIC CHARGES
----------------------
   0 S :    0.925614
   1 S :    0.929765
   2 C :   -0.692230
   3 C :    0.793600
   4 H :   -0.273741
   5 H :   -0.295359
   6 H :   -0.289866
   7 C :    0.808552
   8 H :   -0.274357
   9 H :   -0.319255
  10 H :   -0.291864
  11 C :    0.819649
  12 H :   -0.322664
  13 H :   -0.267654
  14 H :   -0.293619
  15 C :   -0.785828
  16 C :    0.785737
  17 H :   -0.327129
  18 H :   -0.313773
  19 H :   -0.297886
  20 C :    0.766420
  21 H :   -0.290584
  22 H :   -0.310880
  23 H :   -0.296821
  24 C :   -0.237942
  25 Cl:    1.209647
  26 H :   -0.442722
  27 H :   -0.414809

  Mayer bond orders larger than 0.100000
B(  0-S ,  1-S ) :   1.2754 B(  0-S , 15-C ) :   0.3177 B(  0-S , 20-C ) :   0.1377
B(  1-S ,  2-C ) :   0.4105 B(  1-S ,  3-C ) :   0.1374 B(  1-S , 15-C ) :  -0.1060
B(  2-C ,  3-C ) :   0.2481 B(  2-C ,  5-H ) :  -0.1435 B(  2-C ,  6-H ) :  -0.1551
B(  2-C ,  7-C ) :   0.4214 B(  2-C ,  9-H ) :  -0.1239 B(  2-C , 10-H ) :  -0.1244
B(  2-C , 11-C ) :   0.5957 B(  2-C , 12-H ) :  -0.1028 B(  2-C , 14-H ) :  -0.1083
B(  3-C ,  4-H ) :   0.9547 B(  3-C ,  5-H ) :   1.0320 B(  3-C ,  6-H ) :   1.0476
B(  3-C ,  7-C ) :   0.1655 B(  3-C , 11-C ) :   0.1343 B(  7-C ,  8-H ) :   0.9263
B(  7-C ,  9-H ) :   1.0141 B(  7-C , 10-H ) :   1.0498 B(  7-C , 11-C ) :   0.1116
B( 11-C , 12-H ) :   0.8412 B( 11-C , 13-H ) :   1.0349 B( 11-C , 14-H ) :   0.9869
B( 15-C , 16-C ) :   0.5521 B( 15-C , 19-H ) :  -0.1158 B( 15-C , 20-C ) :   0.2461
B( 15-C , 21-H ) :  -0.1650 B( 15-C , 23-H ) :  -0.1502 B( 15-C , 24-C ) :   0.6398
B( 16-C , 17-H ) :   0.8423 B( 16-C , 18-H ) :   1.0426 B( 16-C , 19-H ) :   1.0135
B( 16-C , 20-C ) :   0.1140 B( 20-C , 21-H ) :   1.0597 B( 20-C , 22-H ) :   0.9658
B( 20-C , 23-H ) :   1.0451 B( 24-C , 25-Cl) :   0.5418 B( 24-C , 26-H ) :   0.9300
B( 24-C , 27-H ) :   0.9385

MP2 TOTAL ENERGY:    -1569.725797775 Eh
FINAL SINGLE POINT ENERGY     -1569.725797774576

DIPOLE MOMENT
-------------
                                X             Y             Z
Electronic contribution:    -18.67619      -4.40439      -8.45726
Nuclear contribution   :     19.58179       4.67097       9.02510
                        -----------------------------------------
Total Dipole Moment    :      0.90560       0.26658       0.56784
                        -----------------------------------------
Magnitude (a.u.)       :      1.10164
Magnitude (Debye)      :      2.80015

Rotational constants in cm-1:     0.047608     0.011783     0.011301
Rotational constants in MHz :  1427.256091   353.247343   338.781913

                             ****ORCA TERMINATED NORMALLY****
TOTAL RUN TIME: 0 days 14 hours 44 minutes 20 seconds 881 msec
