                         Program Version 5.0.4 -  RELEASE  -
|  1> ! ri-mp2 aug-cc-pvdz aug-cc-pvdz/c tightscf
|  2> %pal nprocs 16 end
|  3> %maxcore 3800
|  4> %base "DZ_Si-S_54_AB"
|  5> %scf
|  6> STABPerform true
|  7> STABRestartUHFifUnstable true
|  8> end
|  9>
| 10> *xyz 0 1
| 11> S        -0.287087   -0.820502   -0.447709
| 12> C         1.049139    0.163298    0.351965
| 13> C         2.311527   -0.682240    0.333812
| 14> H         3.127599   -0.142462    0.817055
| 15> H         2.613580   -0.902791   -0.691275
| 16> H         2.165105   -1.626418    0.856043
| 17> C         1.257402    1.503126   -0.331124
| 18> H         0.745827    0.321792    1.387817
| 19> H         0.359153    2.118502   -0.305619
| 20> H         1.536831    1.360076   -1.375361
| 21> H         2.058003    2.055310    0.165862
| 22> Si        -2.027100    0.198653    0.218497
| 23> H        -3.170511   -0.628510   -0.212435
| 24> H        -2.159505    1.554687   -0.358222
| 25> H        -2.011695    0.331603    1.692611
| 26> *
| 27>
| 28> $new_job
| 29> ! ri-mp2 aug-cc-pvtz aug-cc-pvtz/c tightscf
| 30> %pal nprocs 16 end
| 31> %maxcore 3800
| 32> %base "TZ_Si-S_54_AB"
| 33>
| 34> *xyz 0 1
| 35> S        -0.287087   -0.820502   -0.447709
| 36> C         1.049139    0.163298    0.351965
| 37> C         2.311527   -0.682240    0.333812
| 38> H         3.127599   -0.142462    0.817055
| 39> H         2.613580   -0.902791   -0.691275
| 40> H         2.165105   -1.626418    0.856043
| 41> C         1.257402    1.503126   -0.331124
| 42> H         0.745827    0.321792    1.387817
| 43> H         0.359153    2.118502   -0.305619
| 44> H         1.536831    1.360076   -1.375361
| 45> H         2.058003    2.055310    0.165862
| 46> Si        -2.027100    0.198653    0.218497
| 47> H        -3.170511   -0.628510   -0.212435
| 48> H        -2.159505    1.554687   -0.358222
| 49> H        -2.011695    0.331603    1.692611
| 50> *
| 51>
| 52> $new_job
| 53> ! ri-mp2 aug-cc-pvqz aug-cc-pvqz/c tightscf
| 54> %pal nprocs 16 end
| 55> %maxcore 3800
| 56> %base "QZ_Si-S_54_AB"
| 57>
| 58> *xyz 0 1
| 59> S        -0.287087   -0.820502   -0.447709
| 60> C         1.049139    0.163298    0.351965
| 61> C         2.311527   -0.682240    0.333812
| 62> H         3.127599   -0.142462    0.817055
| 63> H         2.613580   -0.902791   -0.691275
| 64> H         2.165105   -1.626418    0.856043
| 65> C         1.257402    1.503126   -0.331124
| 66> H         0.745827    0.321792    1.387817
| 67> H         0.359153    2.118502   -0.305619
| 68> H         1.536831    1.360076   -1.375361
| 69> H         2.058003    2.055310    0.165862
| 70> Si        -2.027100    0.198653    0.218497
| 71> H        -3.170511   -0.628510   -0.212435
| 72> H        -2.159505    1.554687   -0.358222
| 73> H        -2.011695    0.331603    1.692611
| 74> *
| 75>
| 76>
| 77>
| 78>
| 79>                          ****END OF INPUT****
 Total Charge           Charge          ....    0
 Multiplicity           Mult            ....    1
 Number of Electrons    NEL             ....   58
MP2 TOTAL ENERGY:     -806.633551937 Eh
FINAL SINGLE POINT ENERGY      -806.633551937312
MP2 TOTAL ENERGY:     -806.841315227 Eh
FINAL SINGLE POINT ENERGY      -806.841315227105

CARTESIAN COORDINATES (ANGSTROEM)
---------------------------------
  S     -0.287087   -0.820502   -0.447709
  C      1.049139    0.163298    0.351965
  C      2.311527   -0.682240    0.333812
  H      3.127599   -0.142462    0.817055
  H      2.613580   -0.902791   -0.691275
  H      2.165105   -1.626418    0.856043
  C      1.257402    1.503126   -0.331124
  H      0.745827    0.321792    1.387817
  H      0.359153    2.118502   -0.305619
  H      1.536831    1.360076   -1.375361
  H      2.058003    2.055310    0.165862
  Si    -2.027100    0.198653    0.218497
  H     -3.170511   -0.628510   -0.212435
  H     -2.159505    1.554687   -0.358222
  H     -2.011695    0.331603    1.692611

 Multiplicity           Mult            ....    1
 Number of Electrons    NEL             ....   58
 Basis Dimension        Dim             ....  868

ORBITAL ENERGIES
----------------

  NO   OCC          E(Eh)            E(eV)
   0   2.0000     -91.932417     -2501.6083
   1   2.0000     -68.788077     -1871.8187
   2   2.0000     -11.270711      -306.6916
   3   2.0000     -11.223454      -305.4057
   4   2.0000     -11.223302      -305.4016
   5   2.0000      -8.937073      -243.1901
   6   2.0000      -6.618470      -180.0977
   7   2.0000      -6.617784      -180.0791
   8   2.0000      -6.617069      -180.0596
   9   2.0000      -6.135662      -166.9598
  10   2.0000      -4.242248      -115.4374
  11   2.0000      -4.241860      -115.4269
  12   2.0000      -4.241611      -115.4201
  13   2.0000      -1.099202       -29.9108
  14   2.0000      -0.945623       -25.7317
  15   2.0000      -0.939681       -25.5700
  16   2.0000      -0.786397       -21.3989
  17   2.0000      -0.707689       -19.2572
  18   2.0000      -0.633012       -17.2251
  19   2.0000      -0.604118       -16.4389
  20   2.0000      -0.579351       -15.7649
  21   2.0000      -0.548657       -14.9297
  22   2.0000      -0.514242       -13.9932
  23   2.0000      -0.504112       -13.7176
  24   2.0000      -0.495531       -13.4841
  25   2.0000      -0.485953       -13.2235
  26   2.0000      -0.450628       -12.2622
  27   2.0000      -0.416977       -11.3465
  28   2.0000      -0.354543        -9.6476
  29   0.0000       0.024162         0.6575
  30   0.0000       0.030991         0.8433
  31   0.0000       0.033826         0.9205
  32   0.0000       0.034803         0.9470
  33   0.0000       0.046835         1.2744

MULLIKEN ATOMIC CHARGES
-----------------------
   0 S :   -0.466069
   1 C :    0.210480
   2 C :   -0.924743
   3 H :    0.281522
   4 H :    0.233472
   5 H :    0.290476
   6 C :   -0.963265
   7 H :    0.281630
   8 H :    0.346194
   9 H :    0.245042
  10 H :    0.253476
  11 Si:    0.815130
  12 H :   -0.253195
  13 H :   -0.178721
  14 H :   -0.171429
Sum of atomic charges:   -0.0000000

LOEWDIN ATOMIC CHARGES
----------------------
   0 S :    1.159277
   1 C :   -0.349845
   2 C :    0.812041
   3 H :   -0.282288
   4 H :   -0.297629
   5 H :   -0.299010
   6 C :    0.819149
   7 H :   -0.375108
   8 H :   -0.325880
   9 H :   -0.292954
  10 H :   -0.277955
  11 Si:    0.615439
  12 H :   -0.321196
  13 H :   -0.294491
  14 H :   -0.289550

  Mayer bond orders larger than 0.100000
B(  0-S ,  1-C ) :   0.6449 B(  0-S , 11-Si) :   0.8032 B(  1-C ,  2-C ) :   0.7168
B(  1-C ,  6-C ) :   0.8284 B(  1-C ,  7-H ) :   0.8890 B(  2-C ,  3-H ) :   0.9642
B(  2-C ,  4-H ) :   0.9722 B(  2-C ,  5-H ) :   0.9611 B(  6-C ,  8-H ) :   0.9134
B(  6-C ,  9-H ) :   0.9643 B(  6-C , 10-H ) :   0.9432 B( 11-Si, 12-H ) :   0.8027
B( 11-Si, 13-H ) :   0.7947 B( 11-Si, 14-H ) :   0.7917

MP2 TOTAL ENERGY:     -806.905825319 Eh
FINAL SINGLE POINT ENERGY      -806.905825318601

DIPOLE MOMENT
-------------
                                X             Y             Z
Electronic contribution:     -5.16914      -4.08861      -1.67379
Nuclear contribution   :      5.53186       4.56696       2.02669
                        -----------------------------------------
Total Dipole Moment    :      0.36272       0.47834       0.35290
                        -----------------------------------------
Magnitude (a.u.)       :      0.69636
Magnitude (Debye)      :      1.77001

Rotational constants in cm-1:     0.180185     0.059655     0.050357
Rotational constants in MHz :  5401.819288  1788.413354  1509.664391

                             ****ORCA TERMINATED NORMALLY****
TOTAL RUN TIME: 0 days 1 hours 4 minutes 10 seconds 659 msec
