                         Program Version 5.0.4 -  RELEASE  -
|  1> ! ri-mp2 aug-cc-pvdz aug-cc-pvdz/c tightscf
|  2> %pal nprocs 16 end
|  3> %maxcore 3800
|  4> %base "DZ_S-S_18_AB"
|  5> %scf
|  6> STABPerform true
|  7> STABRestartUHFifUnstable true
|  8> end
|  9>
| 10> *xyz 0 1
| 11> S        -1.001285    1.689816   -0.165065
| 12> S         1.001283    1.689818    0.165066
| 13> C         1.523782    0.259829   -0.799057
| 14> C        -1.523782    0.259826    0.799059
| 15> O        -0.770995   -0.417533    1.428867
| 16> O         0.770997   -0.417533   -1.428864
| 17> C         3.267808   -1.393332   -0.103423
| 18> C        -3.267806   -1.393335    0.103420
| 19> C        -3.003360   -0.001226    0.677463
| 20> C         3.003361   -0.001221   -0.677460
| 21> H        -3.415297    0.078089    1.685718
| 22> H        -3.475756    0.766690    0.061774
| 23> H         3.475754    0.766693   -0.061765
| 24> H         3.415299    0.078100   -1.685714
| 25> C        -2.791683   -1.544254   -1.333515
| 26> H        -4.339863   -1.588581    0.166455
| 27> H        -2.773624   -2.126638    0.742102
| 28> H        -3.287036   -0.824874   -1.988621
| 29> H        -3.012396   -2.542940   -1.709997
| 30> H        -1.716300   -1.384646   -1.420710
| 31> C         2.791683   -1.544259    1.333510
| 32> H         4.339865   -1.588577   -0.166458
| 33> H         2.773629   -2.126633   -0.742109
| 34> H         3.287034   -0.824882    1.988621
| 35> H         3.012396   -2.542947    1.709988
| 36> H         1.716299   -1.384652    1.420705
| 37> *
| 38>
| 39> $new_job
| 40> ! ri-mp2 aug-cc-pvtz aug-cc-pvtz/c tightscf
| 41> %pal nprocs 16 end
| 42> %maxcore 3800
| 43> %base "TZ_S-S_18_AB"
| 44>
| 45> *xyz 0 1
| 46> S        -1.001285    1.689816   -0.165065
| 47> S         1.001283    1.689818    0.165066
| 48> C         1.523782    0.259829   -0.799057
| 49> C        -1.523782    0.259826    0.799059
| 50> O        -0.770995   -0.417533    1.428867
| 51> O         0.770997   -0.417533   -1.428864
| 52> C         3.267808   -1.393332   -0.103423
| 53> C        -3.267806   -1.393335    0.103420
| 54> C        -3.003360   -0.001226    0.677463
| 55> C         3.003361   -0.001221   -0.677460
| 56> H        -3.415297    0.078089    1.685718
| 57> H        -3.475756    0.766690    0.061774
| 58> H         3.475754    0.766693   -0.061765
| 59> H         3.415299    0.078100   -1.685714
| 60> C        -2.791683   -1.544254   -1.333515
| 61> H        -4.339863   -1.588581    0.166455
| 62> H        -2.773624   -2.126638    0.742102
| 63> H        -3.287036   -0.824874   -1.988621
| 64> H        -3.012396   -2.542940   -1.709997
| 65> H        -1.716300   -1.384646   -1.420710
| 66> C         2.791683   -1.544259    1.333510
| 67> H         4.339865   -1.588577   -0.166458
| 68> H         2.773629   -2.126633   -0.742109
| 69> H         3.287034   -0.824882    1.988621
| 70> H         3.012396   -2.542947    1.709988
| 71> H         1.716299   -1.384652    1.420705
| 72> *
| 73>
| 74> $new_job
| 75> ! ri-mp2 aug-cc-pvqz aug-cc-pvqz/c tightscf
| 76> %pal nprocs 16 end
| 77> %maxcore 3800
| 78> %base "QZ_S-S_18_AB"
| 79>
| 80> *xyz 0 1
| 81> S        -1.001285    1.689816   -0.165065
| 82> S         1.001283    1.689818    0.165066
| 83> C         1.523782    0.259829   -0.799057
| 84> C        -1.523782    0.259826    0.799059
| 85> O        -0.770995   -0.417533    1.428867
| 86> O         0.770997   -0.417533   -1.428864
| 87> C         3.267808   -1.393332   -0.103423
| 88> C        -3.267806   -1.393335    0.103420
| 89> C        -3.003360   -0.001226    0.677463
| 90> C         3.003361   -0.001221   -0.677460
| 91> H        -3.415297    0.078089    1.685718
| 92> H        -3.475756    0.766690    0.061774
| 93> H         3.475754    0.766693   -0.061765
| 94> H         3.415299    0.078100   -1.685714
| 95> C        -2.791683   -1.544254   -1.333515
| 96> H        -4.339863   -1.588581    0.166455
| 97> H        -2.773624   -2.126638    0.742102
| 98> H        -3.287036   -0.824874   -1.988621
| 99> H        -3.012396   -2.542940   -1.709997
|100> H        -1.716300   -1.384646   -1.420710
|101> C         2.791683   -1.544259    1.333510
|102> H         4.339865   -1.588577   -0.166458
|103> H         2.773629   -2.126633   -0.742109
|104> H         3.287034   -0.824882    1.988621
|105> H         3.012396   -2.542947    1.709988
|106> H         1.716299   -1.384652    1.420705
|107> *
|108>
|109>
|110>
|111>
|112>                          ****END OF INPUT****
 Total Charge           Charge          ....    0
 Multiplicity           Mult            ....    1
 Number of Electrons    NEL             ....  110
MP2 TOTAL ENERGY:    -1257.798313829 Eh
FINAL SINGLE POINT ENERGY     -1257.798313828529
MP2 TOTAL ENERGY:    -1258.316019179 Eh
FINAL SINGLE POINT ENERGY     -1258.316019179433

CARTESIAN COORDINATES (ANGSTROEM)
---------------------------------
  S     -1.001285    1.689816   -0.165065
  S      1.001283    1.689818    0.165066
  C      1.523782    0.259829   -0.799057
  C     -1.523782    0.259826    0.799059
  O     -0.770995   -0.417533    1.428867
  O      0.770997   -0.417533   -1.428864
  C      3.267808   -1.393332   -0.103423
  C     -3.267806   -1.393335    0.103420
  C     -3.003360   -0.001226    0.677463
  C      3.003361   -0.001221   -0.677460
  H     -3.415297    0.078089    1.685718
  H     -3.475756    0.766690    0.061774
  H      3.475754    0.766693   -0.061765
  H      3.415299    0.078100   -1.685714
  C     -2.791683   -1.544254   -1.333515
  H     -4.339863   -1.588581    0.166455
  H     -2.773624   -2.126638    0.742102
  H     -3.287036   -0.824874   -1.988621
  H     -3.012396   -2.542940   -1.709997
  H     -1.716300   -1.384646   -1.420710
  C      2.791683   -1.544259    1.333510
  H      4.339865   -1.588577   -0.166458
  H      2.773629   -2.126633   -0.742109
  H      3.287034   -0.824882    1.988621
  H      3.012396   -2.542947    1.709988
  H      1.716299   -1.384652    1.420705

 Multiplicity           Mult            ....    1
 Number of Electrons    NEL             ....  110
 Basis Dimension        Dim             .... 1612

ORBITAL ENERGIES
----------------

  NO   OCC          E(Eh)            E(eV)
   0   2.0000     -91.993856     -2503.2801
   1   2.0000     -91.993853     -2503.2800
   2   2.0000     -20.562206      -559.5261
   3   2.0000     -20.562205      -559.5260
   4   2.0000     -11.365639      -309.2748
   5   2.0000     -11.365638      -309.2747
   6   2.0000     -11.248017      -306.0741
   7   2.0000     -11.248017      -306.0741
   8   2.0000     -11.231233      -305.6174
   9   2.0000     -11.231233      -305.6174
  10   2.0000     -11.209014      -305.0128
  11   2.0000     -11.209013      -305.0128
  12   2.0000      -8.995669      -244.7846
  13   2.0000      -8.995454      -244.7787
  14   2.0000      -6.677005      -181.6905
  15   2.0000      -6.676613      -181.6799
  16   2.0000      -6.675462      -181.6486
  17   2.0000      -6.675353      -181.6456
  18   2.0000      -6.674780      -181.6300
  19   2.0000      -6.674768      -181.6297
  20   2.0000      -1.420829       -38.6627
  21   2.0000      -1.416619       -38.5482
  22   2.0000      -1.104801       -30.0632
  23   2.0000      -1.092666       -29.7330
  24   2.0000      -1.071790       -29.1649
  25   2.0000      -0.992303       -27.0019
  26   2.0000      -0.968354       -26.3503
  27   2.0000      -0.917405       -24.9639
  28   2.0000      -0.840356       -22.8673
  29   2.0000      -0.818391       -22.2695
  30   2.0000      -0.750061       -20.4102
  31   2.0000      -0.728842       -19.8328
  32   2.0000      -0.680797       -18.5254
  33   2.0000      -0.664183       -18.0733
  34   2.0000      -0.660567       -17.9749
  35   2.0000      -0.637076       -17.3357
  36   2.0000      -0.627347       -17.0710
  37   2.0000      -0.611720       -16.6458
  38   2.0000      -0.605330       -16.4719
  39   2.0000      -0.591981       -16.1086
  40   2.0000      -0.559583       -15.2270
  41   2.0000      -0.558906       -15.2086
  42   2.0000      -0.553099       -15.0506
  43   2.0000      -0.542505       -14.7623
  44   2.0000      -0.508200       -13.8288
  45   2.0000      -0.500422       -13.6172
  46   2.0000      -0.488396       -13.2899
  47   2.0000      -0.486397       -13.2355
  48   2.0000      -0.485815       -13.2197
  49   2.0000      -0.485299       -13.2056
  50   2.0000      -0.468132       -12.7385
  51   2.0000      -0.431097       -11.7308
  52   2.0000      -0.423633       -11.5276
  53   2.0000      -0.389094       -10.5878
  54   2.0000      -0.370999       -10.0954
  55   0.0000       0.024757         0.6737
  56   0.0000       0.024958         0.6791
  57   0.0000       0.033081         0.9002
  58   0.0000       0.033542         0.9127
  59   0.0000       0.040370         1.0985

MULLIKEN ATOMIC CHARGES
-----------------------
   0 S :   -0.041063
   1 S :   -0.041061
   2 C :    0.813161
   3 C :    0.813167
   4 O :   -1.032202
   5 O :   -1.032202
   6 C :   -0.440845
   7 C :   -0.440845
   8 C :   -0.354624
   9 C :   -0.354621
  10 H :    0.345144
  11 H :    0.285713
  12 H :    0.285709
  13 H :    0.345146
  14 C :   -0.884271
  15 H :    0.267654
  16 H :    0.259794
  17 H :    0.193811
  18 H :    0.233958
  19 H :    0.353766
  20 C :   -0.884274
  21 H :    0.267654
  22 H :    0.259795
  23 H :    0.193809
  24 H :    0.233957
  25 H :    0.353770
Sum of atomic charges:    0.0000000

LOEWDIN ATOMIC CHARGES
----------------------
   0 S :    0.790611
   1 S :    0.790612
   2 C :   -1.167165
   3 C :   -1.167164
   4 O :    0.670241
   5 O :    0.670241
   6 C :    0.490922
   7 C :    0.490923
   8 C :    0.363487
   9 C :    0.363488
  10 H :   -0.286009
  11 H :   -0.344219
  12 H :   -0.344218
  13 H :   -0.286009
  14 C :    0.916550
  15 H :   -0.269678
  16 H :   -0.285274
  17 H :   -0.278953
  18 H :   -0.275960
  19 H :   -0.324556
  20 C :    0.916550
  21 H :   -0.269678
  22 H :   -0.285275
  23 H :   -0.278953
  24 H :   -0.275959
  25 H :   -0.324555

  Mayer bond orders larger than 0.100000
B(  0-S ,  1-S ) :   1.0989 B(  0-S ,  3-C ) :   0.8799 B(  0-S ,  8-C ) :  -0.1036
B(  1-S ,  2-C ) :   0.8799 B(  1-S ,  9-C ) :  -0.1036 B(  2-C ,  5-O ) :   1.2418
B(  2-C ,  9-C ) :   0.7277 B(  3-C ,  4-O ) :   1.2417 B(  3-C ,  8-C ) :   0.7277
B(  6-C ,  9-C ) :   0.9699 B(  6-C , 20-C ) :   0.9597 B(  6-C , 21-H ) :   0.8844
B(  6-C , 22-H ) :   0.8861 B(  7-C ,  8-C ) :   0.9699 B(  7-C , 14-C ) :   0.9597
B(  7-C , 15-H ) :   0.8844 B(  7-C , 16-H ) :   0.8861 B(  8-C , 10-H ) :   0.8522
B(  8-C , 11-H ) :   0.9410 B(  9-C , 12-H ) :   0.9410 B(  9-C , 13-H ) :   0.8522
B( 14-C , 17-H ) :   0.9857 B( 14-C , 18-H ) :   1.0371 B( 14-C , 19-H ) :   0.7955
B( 20-C , 23-H ) :   0.9857 B( 20-C , 24-H ) :   1.0371 B( 20-C , 25-H ) :   0.7955

MP2 TOTAL ENERGY:    -1258.480816905 Eh
FINAL SINGLE POINT ENERGY     -1258.480816905150

DIPOLE MOMENT
-------------
                                X             Y             Z
Electronic contribution:     -0.00001      15.50939       0.00001
Nuclear contribution   :      0.00000     -15.38335      -0.00001
                        -----------------------------------------
Total Dipole Moment    :     -0.00000       0.12604      -0.00000
                        -----------------------------------------
Magnitude (a.u.)       :      0.12604
Magnitude (Debye)      :      0.32037

Rotational constants in cm-1:     0.034554     0.015213     0.013234
Rotational constants in MHz :  1035.890807   456.070389   396.758707

                             ****ORCA TERMINATED NORMALLY****
TOTAL RUN TIME: 0 days 8 hours 19 minutes 26 seconds 945 msec
