                         Program Version 5.0.4 -  RELEASE  -
|  1> ! ri-mp2 aug-cc-pvdz aug-cc-pvdz/c tightscf
|  2> %pal nprocs 16 end
|  3> %maxcore 3800
|  4> %base "DZ_S-S_13_AB"
|  5>
|  6> *xyz 0 1
|  7> C         0.922539    0.167258   -0.408743
|  8> O         0.335743    1.096358   -0.877399
|  9> S         0.050563   -1.316300    0.168635
| 10> S        -1.839378   -0.896913   -0.436629
| 11> C        -2.292117    0.337420    0.785118
| 12> O        -1.587997    0.688212    1.679864
| 13> C         2.392740    0.134235   -0.205189
| 14> C         3.085925    1.331617   -0.346759
| 15> C         4.454515    1.363659   -0.168593
| 16> C         5.139642    0.200427    0.146896
| 17> C         4.454255   -0.994907    0.283915
| 18> C         3.082960   -1.029591    0.110242
| 19> H         2.558739   -1.970326    0.208068
| 20> H         2.532049    2.225772   -0.594998
| 21> H         4.990521    2.296967   -0.275222
| 22> H         6.212410    0.225766    0.285069
| 23> H         4.988876   -1.903519    0.524564
| 24> C        -3.642170    0.991502    0.581043
| 25> Cl        -4.744196    0.128179   -0.509771
| 26> H        -3.464351    1.981759    0.166944
| 27> H        -4.117586    1.089654    1.552291
| 28> *
| 29>
| 30> $new_job
| 31> ! ri-mp2 aug-cc-pvtz aug-cc-pvtz/c tightscf
| 32> %pal nprocs 16 end
| 33> %maxcore 3800
| 34> %base "TZ_S-S_13_AB"
| 35>
| 36> *xyz 0 1
| 37> C         0.922539    0.167258   -0.408743
| 38> O         0.335743    1.096358   -0.877399
| 39> S         0.050563   -1.316300    0.168635
| 40> S        -1.839378   -0.896913   -0.436629
| 41> C        -2.292117    0.337420    0.785118
| 42> O        -1.587997    0.688212    1.679864
| 43> C         2.392740    0.134235   -0.205189
| 44> C         3.085925    1.331617   -0.346759
| 45> C         4.454515    1.363659   -0.168593
| 46> C         5.139642    0.200427    0.146896
| 47> C         4.454255   -0.994907    0.283915
| 48> C         3.082960   -1.029591    0.110242
| 49> H         2.558739   -1.970326    0.208068
| 50> H         2.532049    2.225772   -0.594998
| 51> H         4.990521    2.296967   -0.275222
| 52> H         6.212410    0.225766    0.285069
| 53> H         4.988876   -1.903519    0.524564
| 54> C        -3.642170    0.991502    0.581043
| 55> Cl        -4.744196    0.128179   -0.509771
| 56> H        -3.464351    1.981759    0.166944
| 57> H        -4.117586    1.089654    1.552291
| 58> *
| 59>
| 60> $new_job
| 61> ! ri-mp2 aug-cc-pvqz aug-cc-pvqz/c tightscf
| 62> %pal nprocs 16 end
| 63> %maxcore 3800
| 64> %base "QZ_S-S_13_AB"
| 65>
| 66> *xyz 0 1
| 67> C         0.922539    0.167258   -0.408743
| 68> O         0.335743    1.096358   -0.877399
| 69> S         0.050563   -1.316300    0.168635
| 70> S        -1.839378   -0.896913   -0.436629
| 71> C        -2.292117    0.337420    0.785118
| 72> O        -1.587997    0.688212    1.679864
| 73> C         2.392740    0.134235   -0.205189
| 74> C         3.085925    1.331617   -0.346759
| 75> C         4.454515    1.363659   -0.168593
| 76> C         5.139642    0.200427    0.146896
| 77> C         4.454255   -0.994907    0.283915
| 78> C         3.082960   -1.029591    0.110242
| 79> H         2.558739   -1.970326    0.208068
| 80> H         2.532049    2.225772   -0.594998
| 81> H         4.990521    2.296967   -0.275222
| 82> H         6.212410    0.225766    0.285069
| 83> H         4.988876   -1.903519    0.524564
| 84> C        -3.642170    0.991502    0.581043
| 85> Cl        -4.744196    0.128179   -0.509771
| 86> H        -3.464351    1.981759    0.166944
| 87> H        -4.117586    1.089654    1.552291
| 88> *
| 89>
| 90>
| 91>
| 92>
| 93>                          ****END OF INPUT****
 Total Charge           Charge          ....    0
 Multiplicity           Mult            ....    1
 Number of Electrons    NEL             ....  126
MP2 TOTAL ENERGY:    -1751.279426597 Eh
FINAL SINGLE POINT ENERGY     -1751.279426597039
MP2 TOTAL ENERGY:    -1751.864845572 Eh
FINAL SINGLE POINT ENERGY     -1751.864845571760

CARTESIAN COORDINATES (ANGSTROEM)
---------------------------------
  C      0.922539    0.167258   -0.408743
  O      0.335743    1.096358   -0.877399
  S      0.050563   -1.316300    0.168635
  S     -1.839378   -0.896913   -0.436629
  C     -2.292117    0.337420    0.785118
  O     -1.587997    0.688212    1.679864
  C      2.392740    0.134235   -0.205189
  C      3.085925    1.331617   -0.346759
  C      4.454515    1.363659   -0.168593
  C      5.139642    0.200427    0.146896
  C      4.454255   -0.994907    0.283915
  C      3.082960   -1.029591    0.110242
  H      2.558739   -1.970326    0.208068
  H      2.532049    2.225772   -0.594998
  H      4.990521    2.296967   -0.275222
  H      6.212410    0.225766    0.285069
  H      4.988876   -1.903519    0.524564
  C     -3.642170    0.991502    0.581043
  Cl    -4.744196    0.128179   -0.509771
  H     -3.464351    1.981759    0.166944
  H     -4.117586    1.089654    1.552291

 Multiplicity           Mult            ....    1
 Number of Electrons    NEL             ....  126
 Basis Dimension        Dim             .... 1454

ORBITAL ENERGIES
----------------

  NO   OCC          E(Eh)            E(eV)
   0   2.0000    -104.847664     -2853.0500
   1   2.0000     -92.002704     -2503.5209
   2   2.0000     -91.997045     -2503.3669
   3   2.0000     -20.574538      -559.8616
   4   2.0000     -20.565509      -559.6159
   5   2.0000     -11.381676      -309.7111
   6   2.0000     -11.374144      -309.5062
   7   2.0000     -11.321378      -308.0704
   8   2.0000     -11.262238      -306.4611
   9   2.0000     -11.260920      -306.4252
  10   2.0000     -11.257708      -306.3378
  11   2.0000     -11.255192      -306.2693
  12   2.0000     -11.250346      -306.1375
  13   2.0000     -11.248863      -306.0971
  14   2.0000     -10.573433      -287.7177
  15   2.0000      -9.003887      -245.0082
  16   2.0000      -8.998750      -244.8684
  17   2.0000      -8.040527      -218.7939
  18   2.0000      -8.038787      -218.7465
  19   2.0000      -8.038689      -218.7439
  20   2.0000      -6.685017      -181.9086
  21   2.0000      -6.683680      -181.8722
  22   2.0000      -6.682940      -181.8520
  23   2.0000      -6.679980      -181.7715
  24   2.0000      -6.678684      -181.7362
  25   2.0000      -6.677989      -181.7173
  26   2.0000      -1.432646       -38.9843
  27   2.0000      -1.422132       -38.6982
  28   2.0000      -1.183922       -32.2162
  29   2.0000      -1.166658       -31.7464
  30   2.0000      -1.095590       -29.8125
  31   2.0000      -1.058648       -28.8073
  32   2.0000      -1.041352       -28.3366
  33   2.0000      -0.990720       -26.9589
  34   2.0000      -0.940825       -25.6011
  35   2.0000      -0.874773       -23.8038
  36   2.0000      -0.849076       -23.1045
  37   2.0000      -0.783500       -21.3201
  38   2.0000      -0.745323       -20.2813
  39   2.0000      -0.718273       -19.5452
  40   2.0000      -0.681723       -18.5506
  41   2.0000      -0.672898       -18.3105
  42   2.0000      -0.666938       -18.1483
  43   2.0000      -0.662314       -18.0225
  44   2.0000      -0.649464       -17.6728
  45   2.0000      -0.631661       -17.1884
  46   2.0000      -0.612152       -16.6575
  47   2.0000      -0.610788       -16.6204
  48   2.0000      -0.587198       -15.9785
  49   2.0000      -0.565226       -15.3806
  50   2.0000      -0.553128       -15.0514
  51   2.0000      -0.536516       -14.5993
  52   2.0000      -0.518605       -14.1119
  53   2.0000      -0.516314       -14.0496
  54   2.0000      -0.495232       -13.4759
  55   2.0000      -0.478367       -13.0170
  56   2.0000      -0.457715       -12.4551
  57   2.0000      -0.436451       -11.8764
  58   2.0000      -0.429682       -11.6922
  59   2.0000      -0.396274       -10.7832
  60   2.0000      -0.381296       -10.3756
  61   2.0000      -0.359527        -9.7832
  62   2.0000      -0.358555        -9.7568
  63   0.0000       0.020767         0.5651
  64   0.0000       0.027616         0.7515
  65   0.0000       0.029721         0.8088
  66   0.0000       0.035810         0.9745
  67   0.0000       0.041470         1.1285

MULLIKEN ATOMIC CHARGES
-----------------------
   0 C :    0.796877
   1 O :   -0.815449
   2 S :    0.028942
   3 S :    0.137185
   4 C :    0.581948
   5 O :   -0.770799
   6 C :   -0.120049
   7 C :   -0.273747
   8 C :   -0.286462
   9 C :   -0.269283
  10 C :   -0.401708
  11 C :   -0.130431
  12 H :    0.310815
  13 H :    0.345530
  14 H :    0.272388
  15 H :    0.321679
  16 H :    0.253854
  17 C :   -0.368836
  18 Cl:   -0.279989
  19 H :    0.342045
  20 H :    0.325489
Sum of atomic charges:   -0.0000000

LOEWDIN ATOMIC CHARGES
----------------------
   0 C :   -1.151169
   1 O :    0.642756
   2 S :    0.766303
   3 S :    0.678948
   4 C :   -1.286377
   5 O :    0.632266
   6 C :   -0.235679
   7 C :    0.312510
   8 C :    0.360308
   9 C :    0.349018
  10 C :    0.356442
  11 C :    0.273407
  12 H :   -0.395236
  13 H :   -0.335212
  14 H :   -0.317401
  15 H :   -0.313574
  16 H :   -0.317379
  17 C :   -0.312686
  18 Cl:    1.143476
  19 H :   -0.419011
  20 H :   -0.431709

  Mayer bond orders larger than 0.100000
B(  0-C ,  1-O ) :   1.1018 B(  0-C ,  2-S ) :   1.0071 B(  0-C ,  6-C ) :   0.8375
B(  0-C ,  7-C ) :  -0.3666 B(  0-C , 11-C ) :  -0.4331 B(  0-C , 12-H ) :   0.1021
B(  1-O ,  6-C ) :   0.3487 B(  2-S ,  3-S ) :   1.0474 B(  2-S ,  6-C ) :  -0.1556
B(  3-S ,  4-C ) :   0.9854 B(  4-C ,  5-O ) :   1.4265 B(  4-C , 17-C ) :   0.8717
B(  6-C ,  7-C ) :   1.1645 B(  6-C ,  8-C ) :  -0.2838 B(  6-C ,  9-C ) :   0.1055
B(  6-C , 10-C ) :  -0.2532 B(  6-C , 11-C ) :   1.1182 B(  6-C , 12-H ) :  -0.1559
B(  7-C ,  8-C ) :   1.3069 B(  7-C , 10-C ) :   0.1315 B(  7-C , 13-H ) :   0.8613
B(  7-C , 14-H ) :  -0.1362 B(  8-C ,  9-C ) :   1.1355 B(  8-C , 11-C ) :   0.1207
B(  8-C , 14-H ) :   1.0875 B(  9-C , 10-C ) :   1.1752 B(  9-C , 15-H ) :   1.0062
B( 10-C , 11-C ) :   1.2205 B( 10-C , 16-H ) :   1.1156 B( 11-C , 12-H ) :   0.9388
B( 11-C , 16-H ) :  -0.1232 B( 17-C , 18-Cl) :   0.9024 B( 17-C , 19-H ) :   0.8157
B( 17-C , 20-H ) :   0.8944

MP2 TOTAL ENERGY:    -1752.056767826 Eh
FINAL SINGLE POINT ENERGY     -1752.056767826155

DIPOLE MOMENT
-------------
                                X             Y             Z
Electronic contribution:    -18.74744      -3.72754      -2.35528
Nuclear contribution   :     19.68421       3.70132       2.50993
                        -----------------------------------------
Total Dipole Moment    :      0.93677      -0.02622       0.15465
                        -----------------------------------------
Magnitude (a.u.)       :      0.94981
Magnitude (Debye)      :      2.41422

Rotational constants in cm-1:     0.054685     0.006753     0.006443
Rotational constants in MHz :  1639.402328   202.451792   193.154634

                             ****ORCA TERMINATED NORMALLY****
TOTAL RUN TIME: 0 days 1 hours 13 minutes 35 seconds 519 msec
