                         Program Version 5.0.4 -  RELEASE  -
|  1> ! ri-mp2 aug-cc-pvdz aug-cc-pvdz/c tightscf
|  2> %pal nprocs 16 end
|  3> %maxcore 3800
|  4> %base "DZ_Si-Cl_55_AB"
|  5> %scf
|  6> STABPerform true
|  7> STABRestartUHFifUnstable true
|  8> end
|  9>
| 10> *xyz 0 1
| 11> Si         0.231443   -0.003191    0.000000
| 12> C        -1.650303    0.301715    0.000013
| 13> Cl         0.632411   -2.010506   -0.000071
| 14> Cl         1.031160    0.834400    1.658074
| 15> Cl         1.031147    0.834523   -1.658020
| 16> N        -2.482306   -0.759011    0.000004
| 17> H        -2.135121   -1.701529   -0.000015
| 18> H        -3.477258   -0.596055    0.000000
| 19> O        -2.020008    1.456495    0.000025
| 20> *
| 21>
| 22> $new_job
| 23> ! ri-mp2 aug-cc-pvtz aug-cc-pvtz/c tightscf
| 24> %pal nprocs 16 end
| 25> %maxcore 3800
| 26> %base "TZ_Si-Cl_55_AB"
| 27>
| 28> *xyz 0 1
| 29> Si         0.231443   -0.003191    0.000000
| 30> C        -1.650303    0.301715    0.000013
| 31> Cl         0.632411   -2.010506   -0.000071
| 32> Cl         1.031160    0.834400    1.658074
| 33> Cl         1.031147    0.834523   -1.658020
| 34> N        -2.482306   -0.759011    0.000004
| 35> H        -2.135121   -1.701529   -0.000015
| 36> H        -3.477258   -0.596055    0.000000
| 37> O        -2.020008    1.456495    0.000025
| 38> *
| 39>
| 40> $new_job
| 41> ! ri-mp2 aug-cc-pvqz aug-cc-pvqz/c tightscf
| 42> %pal nprocs 16 end
| 43> %maxcore 3800
| 44> %base "QZ_Si-Cl_55_AB"
| 45>
| 46> *xyz 0 1
| 47> Si         0.231443   -0.003191    0.000000
| 48> C        -1.650303    0.301715    0.000013
| 49> Cl         0.632411   -2.010506   -0.000071
| 50> Cl         1.031160    0.834400    1.658074
| 51> Cl         1.031147    0.834523   -1.658020
| 52> N        -2.482306   -0.759011    0.000004
| 53> H        -2.135121   -1.701529   -0.000015
| 54> H        -3.477258   -0.596055    0.000000
| 55> O        -2.020008    1.456495    0.000025
| 56> *
| 57>
| 58>
| 59>
| 60>
| 61>                          ****END OF INPUT****
 Total Charge           Charge          ....    0
 Multiplicity           Mult            ....    1
 Number of Electrons    NEL             ....   88
MP2 TOTAL ENERGY:    -1837.025414885 Eh
FINAL SINGLE POINT ENERGY     -1837.025414885158
MP2 TOTAL ENERGY:    -1837.391846717 Eh
FINAL SINGLE POINT ENERGY     -1837.391846716909

CARTESIAN COORDINATES (ANGSTROEM)
---------------------------------
  Si     0.231443   -0.003191    0.000000
  C     -1.650303    0.301715    0.000013
  Cl     0.632411   -2.010506   -0.000071
  Cl     1.031160    0.834400    1.658074
  Cl     1.031147    0.834523   -1.658020
  N     -2.482306   -0.759011    0.000004
  H     -2.135121   -1.701529   -0.000015
  H     -3.477258   -0.596055    0.000000
  O     -2.020008    1.456495    0.000025

 Multiplicity           Mult            ....    1
 Number of Electrons    NEL             ....   88
 Basis Dimension        Dim             ....  668

ORBITAL ENERGIES
----------------

  NO   OCC          E(Eh)            E(eV)
   0   2.0000    -104.862192     -2853.4453
   1   2.0000    -104.855779     -2853.2708
   2   2.0000    -104.855778     -2853.2708
   3   2.0000     -68.912723     -1875.2105
   4   2.0000     -20.546584      -559.1010
   5   2.0000     -15.609078      -424.7446
   6   2.0000     -11.364515      -309.2442
   7   2.0000     -10.589751      -288.1618
   8   2.0000     -10.583314      -287.9866
   9   2.0000     -10.583308      -287.9865
  10   2.0000      -8.056503      -219.2286
  11   2.0000      -8.055353      -219.1973
  12   2.0000      -8.055330      -219.1967
  13   2.0000      -8.050096      -219.0542
  14   2.0000      -8.050094      -219.0542
  15   2.0000      -8.048844      -219.0202
  16   2.0000      -8.048844      -219.0202
  17   2.0000      -8.048826      -219.0197
  18   2.0000      -8.048825      -219.0197
  19   2.0000      -6.248818      -170.0390
  20   2.0000      -4.356311      -118.5413
  21   2.0000      -4.356053      -118.5342
  22   2.0000      -4.354859      -118.5017
  23   2.0000      -1.407682       -38.3050
  24   2.0000      -1.238500       -33.7013
  25   2.0000      -1.158977       -31.5374
  26   2.0000      -1.117835       -30.4178
  27   2.0000      -1.114470       -30.3263
  28   2.0000      -0.858712       -23.3667
  29   2.0000      -0.774876       -21.0855
  30   2.0000      -0.716557       -19.4985
  31   2.0000      -0.668102       -18.1800
  32   2.0000      -0.606897       -16.5145
  33   2.0000      -0.603891       -16.4327
  34   2.0000      -0.584879       -15.9154
  35   2.0000      -0.574579       -15.6351
  36   2.0000      -0.522649       -14.2220
  37   2.0000      -0.514338       -13.9959
  38   2.0000      -0.511910       -13.9298
  39   2.0000      -0.487529       -13.2663
  40   2.0000      -0.485150       -13.2016
  41   2.0000      -0.472263       -12.8509
  42   2.0000      -0.437141       -11.8952
  43   2.0000      -0.421772       -11.4770
  44   0.0000       0.019039         0.5181
  45   0.0000       0.035546         0.9673
  46   0.0000       0.042116         1.1460
  47   0.0000       0.042708         1.1621
  48   0.0000       0.053510         1.4561

MULLIKEN ATOMIC CHARGES
-----------------------
   0 Si:    2.169786
   1 C :    0.592981
   2 Cl:   -0.616784
   3 Cl:   -0.595205
   4 Cl:   -0.595206
   5 N :   -0.765571
   6 H :    0.392853
   7 H :    0.203201
   8 O :   -0.786054
Sum of atomic charges:    0.0000000

LOEWDIN ATOMIC CHARGES
----------------------
   0 Si:   -2.381769
   1 C :   -1.000864
   2 Cl:    0.906462
   3 Cl:    0.912765
   4 Cl:    0.912764
   5 N :    1.144381
   6 H :   -0.584755
   7 H :   -0.496938
   8 O :    0.587954

  Mayer bond orders larger than 0.100000
B(  0-Si,  1-C ) :   0.8970 B(  0-Si,  2-Cl) :   0.4785 B(  0-Si,  3-Cl) :   0.5493
B(  0-Si,  4-Cl) :   0.5493 B(  1-C ,  5-N ) :   1.0882 B(  1-C ,  8-O ) :   1.4432
B(  5-N ,  6-H ) :   0.8660 B(  5-N ,  7-H ) :   1.0310 B(  5-N ,  8-O ) :   0.1201

MP2 TOTAL ENERGY:    -1837.515761102 Eh
FINAL SINGLE POINT ENERGY     -1837.515761102361

DIPOLE MOMENT
-------------
                                X             Y             Z
Electronic contribution:      8.45097       0.31110      -0.00003
Nuclear contribution   :     -8.82297      -1.65772       0.00001
                        -----------------------------------------
Total Dipole Moment    :     -0.37200      -1.34662      -0.00002
                        -----------------------------------------
Magnitude (a.u.)       :      1.39706
Magnitude (Debye)      :      3.55103

Rotational constants in cm-1:     0.038889     0.034610     0.031765
Rotational constants in MHz :  1165.859428  1037.573875   952.284448

                             ****ORCA TERMINATED NORMALLY****
TOTAL RUN TIME: 0 days 0 hours 36 minutes 25 seconds 871 msec
