                         Program Version 5.0.4 -  RELEASE  -
|  1> ! ri-mp2 aug-cc-pvdz aug-cc-pvdz/c tightscf
|  2> %pal nprocs 16 end
|  3> %maxcore 3800
|  4> %base "DZ_Si-Si_109_AB"
|  5>
|  6> *xyz 0 1
|  7> Si        -0.543783    1.751219   -0.045500
|  8> Si         1.702520    1.130962    0.196470
|  9> C         1.813521   -0.752799    0.012083
| 10> H         2.223078    1.442537    1.549760
| 11> H         2.567258    1.805600   -0.794689
| 12> N         1.305789   -1.328634   -0.997141
| 13> O         0.800044   -0.388480   -1.901415
| 14> H         0.257181   -0.905856   -2.504843
| 15> C        -1.605527    0.257166    0.363008
| 16> H        -0.839733    2.244212   -1.402436
| 17> H        -0.868041    2.809533    0.944274
| 18> N        -2.360342   -0.149859   -0.573795
| 19> O        -3.096908   -1.278004   -0.203766
| 20> H        -3.627639   -1.456491   -0.986011
| 21> C         2.421473   -1.631299    1.059032
| 22> H         1.938543   -1.468622    2.024508
| 23> H         3.479355   -1.396820    1.190336
| 24> H         2.321681   -2.679541    0.782140
| 25> C        -1.525785   -0.416708    1.700264
| 26> H        -1.166594   -1.440275    1.581525
| 27> H        -2.514253   -0.476813    2.156416
| 28> H        -0.858477    0.115170    2.377123
| 29> *
| 30>
| 31> $new_job
| 32> ! ri-mp2 aug-cc-pvtz aug-cc-pvtz/c tightscf
| 33> %pal nprocs 16 end
| 34> %maxcore 3800
| 35> %base "TZ_Si-Si_109_AB"
| 36>
| 37> *xyz 0 1
| 38> Si        -0.543783    1.751219   -0.045500
| 39> Si         1.702520    1.130962    0.196470
| 40> C         1.813521   -0.752799    0.012083
| 41> H         2.223078    1.442537    1.549760
| 42> H         2.567258    1.805600   -0.794689
| 43> N         1.305789   -1.328634   -0.997141
| 44> O         0.800044   -0.388480   -1.901415
| 45> H         0.257181   -0.905856   -2.504843
| 46> C        -1.605527    0.257166    0.363008
| 47> H        -0.839733    2.244212   -1.402436
| 48> H        -0.868041    2.809533    0.944274
| 49> N        -2.360342   -0.149859   -0.573795
| 50> O        -3.096908   -1.278004   -0.203766
| 51> H        -3.627639   -1.456491   -0.986011
| 52> C         2.421473   -1.631299    1.059032
| 53> H         1.938543   -1.468622    2.024508
| 54> H         3.479355   -1.396820    1.190336
| 55> H         2.321681   -2.679541    0.782140
| 56> C        -1.525785   -0.416708    1.700264
| 57> H        -1.166594   -1.440275    1.581525
| 58> H        -2.514253   -0.476813    2.156416
| 59> H        -0.858477    0.115170    2.377123
| 60> *
| 61>
| 62> $new_job
| 63> ! ri-mp2 aug-cc-pvqz aug-cc-pvqz/c tightscf
| 64> %pal nprocs 16 end
| 65> %maxcore 3800
| 66> %base "QZ_Si-Si_109_AB"
| 67>
| 68> *xyz 0 1
| 69> Si        -0.543783    1.751219   -0.045500
| 70> Si         1.702520    1.130962    0.196470
| 71> C         1.813521   -0.752799    0.012083
| 72> H         2.223078    1.442537    1.549760
| 73> H         2.567258    1.805600   -0.794689
| 74> N         1.305789   -1.328634   -0.997141
| 75> O         0.800044   -0.388480   -1.901415
| 76> H         0.257181   -0.905856   -2.504843
| 77> C        -1.605527    0.257166    0.363008
| 78> H        -0.839733    2.244212   -1.402436
| 79> H        -0.868041    2.809533    0.944274
| 80> N        -2.360342   -0.149859   -0.573795
| 81> O        -3.096908   -1.278004   -0.203766
| 82> H        -3.627639   -1.456491   -0.986011
| 83> C         2.421473   -1.631299    1.059032
| 84> H         1.938543   -1.468622    2.024508
| 85> H         3.479355   -1.396820    1.190336
| 86> H         2.321681   -2.679541    0.782140
| 87> C        -1.525785   -0.416708    1.700264
| 88> H        -1.166594   -1.440275    1.581525
| 89> H        -2.514253   -0.476813    2.156416
| 90> H        -0.858477    0.115170    2.377123
| 91> *
| 92>
| 93>
| 94>
| 95>
| 96>                          ****END OF INPUT****
 Total Charge           Charge          ....    0
 Multiplicity           Mult            ....    1
 Number of Electrons    NEL             ....   94
MP2 TOTAL ENERGY:     -996.408149638 Eh
FINAL SINGLE POINT ENERGY      -996.408149637632
MP2 TOTAL ENERGY:     -996.839755499 Eh
FINAL SINGLE POINT ENERGY      -996.839755499395

CARTESIAN COORDINATES (ANGSTROEM)
---------------------------------
  Si    -0.543783    1.751219   -0.045500
  Si     1.702520    1.130962    0.196470
  C      1.813521   -0.752799    0.012083
  H      2.223078    1.442537    1.549760
  H      2.567258    1.805600   -0.794689
  N      1.305789   -1.328634   -0.997141
  O      0.800044   -0.388480   -1.901415
  H      0.257181   -0.905856   -2.504843
  C     -1.605527    0.257166    0.363008
  H     -0.839733    2.244212   -1.402436
  H     -0.868041    2.809533    0.944274
  N     -2.360342   -0.149859   -0.573795
  O     -3.096908   -1.278004   -0.203766
  H     -3.627639   -1.456491   -0.986011
  C      2.421473   -1.631299    1.059032
  H      1.938543   -1.468622    2.024508
  H      3.479355   -1.396820    1.190336
  H      2.321681   -2.679541    0.782140
  C     -1.525785   -0.416708    1.700264
  H     -1.166594   -1.440275    1.581525
  H     -2.514253   -0.476813    2.156416
  H     -0.858477    0.115170    2.377123

 Multiplicity           Mult            ....    1
 Number of Electrons    NEL             ....   94
 Basis Dimension        Dim             .... 1360

ORBITAL ENERGIES
----------------

  NO   OCC          E(Eh)            E(eV)
   0   2.0000     -68.771620     -1871.3709
   1   2.0000     -68.768223     -1871.2785
   2   2.0000     -20.599980      -560.5540
   3   2.0000     -20.593819      -560.3863
   4   2.0000     -15.624775      -425.1717
   5   2.0000     -15.620304      -425.0501
   6   2.0000     -11.264332      -306.5180
   7   2.0000     -11.259666      -306.3911
   8   2.0000     -11.233242      -305.6721
   9   2.0000     -11.230470      -305.5966
  10   2.0000      -6.122308      -166.5965
  11   2.0000      -6.118727      -166.4990
  12   2.0000      -4.228507      -115.0635
  13   2.0000      -4.228324      -115.0585
  14   2.0000      -4.228297      -115.0578
  15   2.0000      -4.224842      -114.9638
  16   2.0000      -4.224742      -114.9611
  17   2.0000      -4.224708      -114.9602
  18   2.0000      -1.432735       -38.9867
  19   2.0000      -1.425203       -38.7817
  20   2.0000      -1.169326       -31.8190
  21   2.0000      -1.160285       -31.5730
  22   2.0000      -0.984958       -26.8021
  23   2.0000      -0.982813       -26.7437
  24   2.0000      -0.807544       -21.9744
  25   2.0000      -0.776558       -21.1312
  26   2.0000      -0.736854       -20.0508
  27   2.0000      -0.702995       -19.1295
  28   2.0000      -0.689465       -18.7613
  29   2.0000      -0.669788       -18.2259
  30   2.0000      -0.631646       -17.1880
  31   2.0000      -0.623831       -16.9753
  32   2.0000      -0.610719       -16.6185
  33   2.0000      -0.605189       -16.4680
  34   2.0000      -0.574995       -15.6464
  35   2.0000      -0.568573       -15.4716
  36   2.0000      -0.558766       -15.2048
  37   2.0000      -0.553340       -15.0572
  38   2.0000      -0.518363       -14.1054
  39   2.0000      -0.496927       -13.5221
  40   2.0000      -0.491644       -13.3783
  41   2.0000      -0.470533       -12.8038
  42   2.0000      -0.441844       -12.0232
  43   2.0000      -0.416340       -11.3292
  44   2.0000      -0.404340       -11.0026
  45   2.0000      -0.395992       -10.7755
  46   2.0000      -0.372705       -10.1418
  47   0.0000       0.021936         0.5969
  48   0.0000       0.028133         0.7655
  49   0.0000       0.031840         0.8664
  50   0.0000       0.032752         0.8912
  51   0.0000       0.042283         1.1506

MULLIKEN ATOMIC CHARGES
-----------------------
   0 Si:    1.076924
   1 Si:    1.265707
   2 C :    0.210135
   3 H :   -0.383604
   4 H :   -0.410836
   5 N :   -0.396520
   6 O :   -0.649410
   7 H :    0.341131
   8 C :    0.213407
   9 H :   -0.299864
  10 H :   -0.413105
  11 N :   -0.323820
  12 O :   -0.631585
  13 H :    0.307233
  14 C :   -0.900551
  15 H :    0.262667
  16 H :    0.307284
  17 H :    0.348482
  18 C :   -0.869031
  19 H :    0.245397
  20 H :    0.335891
  21 H :    0.364069
Sum of atomic charges:   -0.0000000

LOEWDIN ATOMIC CHARGES
----------------------
   0 Si:    0.683149
   1 Si:    0.698335
   2 C :   -0.431811
   3 H :   -0.253944
   4 H :   -0.250007
   5 N :    0.257158
   6 O :    0.980209
   7 H :   -0.835008
   8 C :   -0.459605
   9 H :   -0.247041
  10 H :   -0.257362
  11 N :    0.217196
  12 O :    1.010403
  13 H :   -0.865250
  14 C :    0.796738
  15 H :   -0.308375
  16 H :   -0.299314
  17 H :   -0.321984
  18 C :    0.798428
  19 H :   -0.298134
  20 H :   -0.297611
  21 H :   -0.316169

  Mayer bond orders larger than 0.100000
B(  0-Si,  1-Si) :   0.8266 B(  0-Si,  8-C ) :   0.6595 B(  0-Si,  9-H ) :   0.7463
B(  0-Si, 10-H ) :   0.7208 B(  1-Si,  2-C ) :   0.5893 B(  1-Si,  3-H ) :   0.7275
B(  1-Si,  4-H ) :   0.6376 B(  2-C ,  5-N ) :   1.3478 B(  2-C ,  6-O ) :  -0.1296
B(  2-C , 14-C ) :   0.7873 B(  5-N ,  6-O ) :   0.7825 B(  6-O ,  7-H ) :   0.9047
B(  8-C , 11-N ) :   1.5452 B(  8-C , 12-O ) :  -0.1048 B(  8-C , 18-C ) :   0.7870
B( 11-N , 12-O ) :   0.7697 B( 12-O , 13-H ) :   0.9473 B( 14-C , 15-H ) :   0.9339
B( 14-C , 16-H ) :   0.9610 B( 14-C , 17-H ) :   0.9198 B( 18-C , 19-H ) :   0.9126
B( 18-C , 20-H ) :   0.9200 B( 18-C , 21-H ) :   0.9124

MP2 TOTAL ENERGY:     -996.979772742 Eh
FINAL SINGLE POINT ENERGY      -996.979772741677

DIPOLE MOMENT
-------------
                                X             Y             Z
Electronic contribution:     -2.70804       1.47217      -6.49885
Nuclear contribution   :      2.80303      -1.61926       6.87490
                        -----------------------------------------
Total Dipole Moment    :      0.09499      -0.14708       0.37605
                        -----------------------------------------
Magnitude (a.u.)       :      0.41481
Magnitude (Debye)      :      1.05437

Rotational constants in cm-1:     0.040886     0.022776     0.020231
Rotational constants in MHz :  1225.720303   682.809562   606.504104

                             ****ORCA TERMINATED NORMALLY****
TOTAL RUN TIME: 0 days 1 hours 7 minutes 33 seconds 814 msec
