                         Program Version 5.0.4 -  RELEASE  -
|  1> ! ri-mp2 aug-cc-pvdz aug-cc-pvdz/c tightscf
|  2> %pal nprocs 16 end
|  3> %maxcore 3800
|  4> %base "DZ_B-Si_37_A"
|  5> %scf
|  6> STABPerform true
|  7> STABRestartUHFifUnstable true
|  8> end
|  9>
| 10> *xyz 0 2
| 11> Si         0.000001   -0.000008    0.373896
| 12> F         1.279531   -0.734262   -0.193880
| 13> F        -1.275668   -0.740955   -0.193874
| 14> F        -0.003865    1.475230   -0.193862
| 15> *
| 16>
| 17> $new_job
| 18> ! ri-mp2 aug-cc-pvtz aug-cc-pvtz/c tightscf
| 19> %pal nprocs 16 end
| 20> %maxcore 3800
| 21> %base "TZ_B-Si_37_A"
| 22>
| 23> *xyz 0 2
| 24> Si         0.000001   -0.000008    0.373896
| 25> F         1.279531   -0.734262   -0.193880
| 26> F        -1.275668   -0.740955   -0.193874
| 27> F        -0.003865    1.475230   -0.193862
| 28> *
| 29>
| 30> $new_job
| 31> ! ri-mp2 aug-cc-pvqz aug-cc-pvqz/c tightscf
| 32> %pal nprocs 16 end
| 33> %maxcore 3800
| 34> %base "QZ_B-Si_37_A"
| 35>
| 36> *xyz 0 2
| 37> Si         0.000001   -0.000008    0.373896
| 38> F         1.279531   -0.734262   -0.193880
| 39> F        -1.275668   -0.740955   -0.193874
| 40> F        -0.003865    1.475230   -0.193862
| 41> *
| 42>
| 43>
| 44>
| 45>
| 46>                          ****END OF INPUT****
 Total Charge           Charge          ....    0
 Multiplicity           Mult            ....    2
 Number of Electrons    NEL             ....   41
MP2 TOTAL ENERGY:     -588.116186727 Eh
FINAL SINGLE POINT ENERGY      -588.116186726886
MP2 TOTAL ENERGY:     -588.413542075 Eh
FINAL SINGLE POINT ENERGY      -588.413542074815

CARTESIAN COORDINATES (ANGSTROEM)
---------------------------------
  Si     0.000001   -0.000008    0.373896
  F      1.279531   -0.734262   -0.193880
  F     -1.275668   -0.740955   -0.193874
  F     -0.003865    1.475230   -0.193862

 Multiplicity           Mult            ....    2
 Number of Electrons    NEL             ....   41
 Basis Dimension        Dim             ....  324

ORBITAL ENERGIES
----------------
                 SPIN UP ORBITALS
  NO   OCC          E(Eh)            E(eV)
   0   1.0000     -68.910917     -1875.1614
   1   1.0000     -26.323616      -716.3020
   2   1.0000     -26.323615      -716.3020
   3   1.0000     -26.323604      -716.3017
   4   1.0000      -6.246538      -169.9769
   5   1.0000      -4.357103      -118.5628
   6   1.0000      -4.350538      -118.3842
   7   1.0000      -4.350538      -118.3842
   8   1.0000      -1.649714       -44.8910
   9   1.0000      -1.622174       -44.1416
  10   1.0000      -1.622173       -44.1416
  11   1.0000      -0.840448       -22.8698
  12   1.0000      -0.761840       -20.7307
  13   1.0000      -0.761839       -20.7307
  14   1.0000      -0.736035       -20.0285
  15   1.0000      -0.709466       -19.3055
  16   1.0000      -0.709465       -19.3055
  17   1.0000      -0.680554       -18.5188
  18   1.0000      -0.680553       -18.5188
  19   1.0000      -0.663609       -18.0577
  20   1.0000      -0.427742       -11.6394
  21   0.0000       0.040655         1.1063
  22   0.0000       0.040655         1.1063
  23   0.0000       0.041126         1.1191
  24   0.0000       0.055615         1.5134
  25   0.0000       0.111622         3.0374

                 SPIN DOWN ORBITALS
  NO   OCC          E(Eh)            E(eV)
   0   1.0000     -68.904062     -1874.9749
   1   1.0000     -26.319960      -716.2025
   2   1.0000     -26.319959      -716.2025
   3   1.0000     -26.319944      -716.2021
   4   1.0000      -6.234292      -169.6437
   5   1.0000      -4.345991      -118.2604
   6   1.0000      -4.345991      -118.2604
   7   1.0000      -4.337903      -118.0404
   8   1.0000      -1.638626       -44.5893
   9   1.0000      -1.611090       -43.8400
  10   1.0000      -1.611089       -43.8400
  11   1.0000      -0.819353       -22.2957
  12   1.0000      -0.748248       -20.3609
  13   1.0000      -0.748247       -20.3608
  14   1.0000      -0.714506       -19.4427
  15   1.0000      -0.697348       -18.9758
  16   1.0000      -0.697347       -18.9758
  17   1.0000      -0.675132       -18.3713
  18   1.0000      -0.675131       -18.3713
  19   1.0000      -0.661293       -17.9947
  20   0.0000       0.004109         0.1118
  21   0.0000       0.042248         1.1496
  22   0.0000       0.042248         1.1496
  23   0.0000       0.046383         1.2621
  24   0.0000       0.080104         2.1797

MULLIKEN ATOMIC CHARGES AND SPIN POPULATIONS
--------------------------------------------
   0 Si:    1.997388    0.982708
   1 F :   -0.665795    0.005764
   2 F :   -0.665795    0.005764
   3 F :   -0.665798    0.005764
Sum of atomic charges         :   -0.0000000

LOEWDIN ATOMIC CHARGES AND SPIN POPULATIONS
-------------------------------------------
   0 Si:   -0.936949    0.642641
   1 F :    0.312316    0.119120
   2 F :    0.312316    0.119120
   3 F :    0.312317    0.119119

  Mayer bond orders larger than 0.100000
B(  0-Si,  1-F ) :   0.4917 B(  0-Si,  2-F ) :   0.4917 B(  0-Si,  3-F ) :   0.4917

MP2 TOTAL ENERGY:     -588.513701128 Eh
FINAL SINGLE POINT ENERGY      -588.513701128252

DIPOLE MOMENT
-------------
                                X             Y             Z
Electronic contribution:      0.00000      -0.00001       0.06481
Nuclear contribution   :      0.00000      -0.00001       0.49931
                        -----------------------------------------
Total Dipole Moment    :      0.00000      -0.00002       0.56412
                        -----------------------------------------
Magnitude (a.u.)       :      0.56412
Magnitude (Debye)      :      1.43387

Rotational constants in cm-1:     0.247604     0.247598     0.135907
Rotational constants in MHz :  7422.966840  7422.791165  4074.393072

                             ****ORCA TERMINATED NORMALLY****
TOTAL RUN TIME: 0 days 0 hours 4 minutes 11 seconds 715 msec
