                         Program Version 5.0.4 -  RELEASE  -
|  1> ! ri-mp2 aug-cc-pvdz aug-cc-pvdz/c tightscf
|  2> %pal nprocs 16 end
|  3> %maxcore 3800
|  4> %base "DZ_P-S_24_A"
|  5> %scf
|  6> STABPerform true
|  7> STABRestartUHFifUnstable true
|  8> end
|  9>
| 10> *xyz 0 2
| 11> S        -1.778426   -0.069631    0.000000
| 12> O        -0.256764   -0.665862   -0.000006
| 13> C         0.832848    0.209355    0.000002
| 14> C         2.094805   -0.588368    0.000003
| 15> H         2.121026   -1.232780    0.878089
| 16> H         2.946572    0.084022   -0.000003
| 17> H         2.121022   -1.232792   -0.878073
| 18> O         0.719300    1.387078    0.000001
| 19> *
| 20>
| 21> $new_job
| 22> ! ri-mp2 aug-cc-pvtz aug-cc-pvtz/c tightscf
| 23> %pal nprocs 16 end
| 24> %maxcore 3800
| 25> %base "TZ_P-S_24_A"
| 26>
| 27> *xyz 0 2
| 28> S        -1.778426   -0.069631    0.000000
| 29> O        -0.256764   -0.665862   -0.000006
| 30> C         0.832848    0.209355    0.000002
| 31> C         2.094805   -0.588368    0.000003
| 32> H         2.121026   -1.232780    0.878089
| 33> H         2.946572    0.084022   -0.000003
| 34> H         2.121022   -1.232792   -0.878073
| 35> O         0.719300    1.387078    0.000001
| 36> *
| 37>
| 38> $new_job
| 39> ! ri-mp2 aug-cc-pvqz aug-cc-pvqz/c tightscf
| 40> %pal nprocs 16 end
| 41> %maxcore 3800
| 42> %base "QZ_P-S_24_A"
| 43>
| 44> *xyz 0 2
| 45> S        -1.778426   -0.069631    0.000000
| 46> O        -0.256764   -0.665862   -0.000006
| 47> C         0.832848    0.209355    0.000002
| 48> C         2.094805   -0.588368    0.000003
| 49> H         2.121026   -1.232780    0.878089
| 50> H         2.946572    0.084022   -0.000003
| 51> H         2.121022   -1.232792   -0.878073
| 52> O         0.719300    1.387078    0.000001
| 53> *
| 54>
| 55>
| 56>
| 57>
| 58>                          ****END OF INPUT****
 Total Charge           Charge          ....    0
 Multiplicity           Mult            ....    2
 Number of Electrons    NEL             ....   47
MP2 TOTAL ENERGY:     -625.521623889 Eh
FINAL SINGLE POINT ENERGY      -625.521623888801
MP2 TOTAL ENERGY:     -625.767131927 Eh
FINAL SINGLE POINT ENERGY      -625.767131927465

CARTESIAN COORDINATES (ANGSTROEM)
---------------------------------
  S     -1.778426   -0.069631    0.000000
  O     -0.256764   -0.665862   -0.000006
  C      0.832848    0.209355    0.000002
  C      2.094805   -0.588368    0.000003
  H      2.121026   -1.232780    0.878089
  H      2.946572    0.084022   -0.000003
  H      2.121022   -1.232792   -0.878073
  O      0.719300    1.387078    0.000001

 Multiplicity           Mult            ....    2
 Number of Electrons    NEL             ....   47
 Basis Dimension        Dim             ....  542

ORBITAL ENERGIES
----------------
                 SPIN UP ORBITALS
  NO   OCC          E(Eh)            E(eV)
   0   1.0000     -92.026620     -2504.1716
   1   1.0000     -20.641112      -561.6732
   2   1.0000     -20.569815      -559.7331
   3   1.0000     -11.400885      -310.2339
   4   1.0000     -11.255927      -306.2894
   5   1.0000      -9.023246      -245.5350
   6   1.0000      -6.718187      -182.8112
   7   1.0000      -6.700603      -182.3327
   8   1.0000      -6.698286      -182.2696
   9   1.0000      -1.484330       -40.3907
  10   1.0000      -1.396225       -37.9932
  11   1.0000      -1.057649       -28.7801
  12   1.0000      -0.962089       -26.1798
  13   1.0000      -0.782165       -21.2838
  14   1.0000      -0.708779       -19.2869
  15   1.0000      -0.689453       -18.7610
  16   1.0000      -0.684027       -18.6133
  17   1.0000      -0.601847       -16.3771
  18   1.0000      -0.597272       -16.2526
  19   1.0000      -0.566967       -15.4280
  20   1.0000      -0.527786       -14.3618
  21   1.0000      -0.474507       -12.9120
  22   1.0000      -0.432731       -11.7752
  23   1.0000      -0.387746       -10.5511
  24   0.0000       0.023211         0.6316
  25   0.0000       0.038796         1.0557
  26   0.0000       0.041827         1.1382
  27   0.0000       0.045535         1.2391
  28   0.0000       0.061728         1.6797

                 SPIN DOWN ORBITALS
  NO   OCC          E(Eh)            E(eV)
   0   1.0000     -92.017757     -2503.9305
   1   1.0000     -20.635845      -561.5299
   2   1.0000     -20.569613      -559.7276
   3   1.0000     -11.401082      -310.2392
   4   1.0000     -11.255956      -306.2901
   5   1.0000      -9.013473      -245.2691
   6   1.0000      -6.696964      -182.2337
   7   1.0000      -6.693256      -182.1328
   8   1.0000      -6.677097      -181.6930
   9   1.0000      -1.476123       -40.1673
  10   1.0000      -1.388081       -37.7716
  11   1.0000      -1.049439       -28.5567
  12   1.0000      -0.912669       -24.8350
  13   1.0000      -0.758686       -20.6449
  14   1.0000      -0.706393       -19.2219
  15   1.0000      -0.669507       -18.2182
  16   1.0000      -0.662640       -18.0313
  17   1.0000      -0.599606       -16.3161
  18   1.0000      -0.574101       -15.6221
  19   1.0000      -0.557622       -15.1737
  20   1.0000      -0.509854       -13.8738
  21   1.0000      -0.473014       -12.8714
  22   1.0000      -0.370351       -10.0778
  23   0.0000       0.011594         0.3155
  24   0.0000       0.023304         0.6341
  25   0.0000       0.040685         1.1071
  26   0.0000       0.041936         1.1411
  27   0.0000       0.046666         1.2699

MULLIKEN ATOMIC CHARGES AND SPIN POPULATIONS
--------------------------------------------
   0 S :    0.271101    0.989854
   1 O :   -0.606397    0.013955
   2 C :    0.845022   -0.005555
   3 C :   -0.787562   -0.004186
   4 H :    0.292011    0.000330
   5 H :    0.311626   -0.000370
   6 H :    0.292013    0.000330
   7 O :   -0.617814    0.005643
Sum of atomic charges         :    0.0000000

LOEWDIN ATOMIC CHARGES AND SPIN POPULATIONS
-------------------------------------------
   0 S :    0.629726    0.770441
   1 O :    0.062176    0.209511
   2 C :   -1.256672    0.016975
   3 C :    0.842125   -0.000117
   4 H :   -0.305520    0.000099
   5 H :   -0.320786   -0.000217
   6 H :   -0.305522    0.000099
   7 O :    0.654473    0.003210

  Mayer bond orders larger than 0.100000
B(  0-S ,  1-O ) :   0.8414 B(  1-O ,  2-C ) :   0.9088 B(  2-C ,  3-C ) :   0.9696
B(  2-C ,  7-O ) :   1.6463 B(  3-C ,  4-H ) :   0.9099 B(  3-C ,  5-H ) :   0.9339
B(  3-C ,  6-H ) :   0.9099

MP2 TOTAL ENERGY:     -625.846829271 Eh
FINAL SINGLE POINT ENERGY      -625.846829270505

DIPOLE MOMENT
-------------
                                X             Y             Z
Electronic contribution:     -6.43929       1.52473      -0.00001
Nuclear contribution   :      7.02519      -2.29435       0.00001
                        -----------------------------------------
Total Dipole Moment    :      0.58590      -0.76962       0.00000
                        -----------------------------------------
Magnitude (a.u.)       :      0.96727
Magnitude (Debye)      :      2.45860

Rotational constants in cm-1:     0.357936     0.088372     0.071812
Rotational constants in MHz : 10730.654145  2649.316533  2152.873705

                             ****ORCA TERMINATED NORMALLY****
TOTAL RUN TIME: 0 days 0 hours 46 minutes 44 seconds 474 msec
