                         Program Version 5.0.4 -  RELEASE  -
|  1> ! ri-mp2 aug-cc-pvdz aug-cc-pvdz/c tightscf
|  2> %pal nprocs 16 end
|  3> %maxcore 3800
|  4> %base "DZ_Si-Si_75_AB"
|  5> %scf
|  6> STABPerform true
|  7> STABRestartUHFifUnstable true
|  8> end
|  9>
| 10> *xyz 0 1
| 11> Si        -2.049005   -0.298406    0.038306
| 12> Si         0.058517    0.707166   -0.037040
| 13> H        -2.176654   -1.296460   -1.051465
| 14> H        -3.114190    0.715360   -0.137452
| 15> H        -2.265784   -0.995263    1.326250
| 16> N         1.251498   -0.527107   -0.065823
| 17> H         0.296182    1.543542    1.164396
| 18> H         0.103469    1.642043   -1.197691
| 19> C         2.673762   -0.275805    0.081273
| 20> H         1.045312   -1.376589   -0.565356
| 21> H         2.827746    0.537882    0.791158
| 22> H         3.165211    0.005417   -0.856549
| 23> H         3.182496   -1.153992    0.482095
| 24> *
| 25>
| 26> $new_job
| 27> ! ri-mp2 aug-cc-pvtz aug-cc-pvtz/c tightscf
| 28> %pal nprocs 16 end
| 29> %maxcore 3800
| 30> %base "TZ_Si-Si_75_AB"
| 31>
| 32> *xyz 0 1
| 33> Si        -2.049005   -0.298406    0.038306
| 34> Si         0.058517    0.707166   -0.037040
| 35> H        -2.176654   -1.296460   -1.051465
| 36> H        -3.114190    0.715360   -0.137452
| 37> H        -2.265784   -0.995263    1.326250
| 38> N         1.251498   -0.527107   -0.065823
| 39> H         0.296182    1.543542    1.164396
| 40> H         0.103469    1.642043   -1.197691
| 41> C         2.673762   -0.275805    0.081273
| 42> H         1.045312   -1.376589   -0.565356
| 43> H         2.827746    0.537882    0.791158
| 44> H         3.165211    0.005417   -0.856549
| 45> H         3.182496   -1.153992    0.482095
| 46> *
| 47>
| 48> $new_job
| 49> ! ri-mp2 aug-cc-pvqz aug-cc-pvqz/c tightscf
| 50> %pal nprocs 16 end
| 51> %maxcore 3800
| 52> %base "QZ_Si-Si_75_AB"
| 53>
| 54> *xyz 0 1
| 55> Si        -2.049005   -0.298406    0.038306
| 56> Si         0.058517    0.707166   -0.037040
| 57> H        -2.176654   -1.296460   -1.051465
| 58> H        -3.114190    0.715360   -0.137452
| 59> H        -2.265784   -0.995263    1.326250
| 60> N         1.251498   -0.527107   -0.065823
| 61> H         0.296182    1.543542    1.164396
| 62> H         0.103469    1.642043   -1.197691
| 63> C         2.673762   -0.275805    0.081273
| 64> H         1.045312   -1.376589   -0.565356
| 65> H         2.827746    0.537882    0.791158
| 66> H         3.165211    0.005417   -0.856549
| 67> H         3.182496   -1.153992    0.482095
| 68> *
| 69>
| 70>
| 71>
| 72>
| 73>                          ****END OF INPUT****
 Total Charge           Charge          ....    0
 Multiplicity           Mult            ....    1
 Number of Electrons    NEL             ....   50
MP2 TOTAL ENERGY:     -675.981762371 Eh
FINAL SINGLE POINT ENERGY      -675.981762370669
MP2 TOTAL ENERGY:     -676.152206901 Eh
FINAL SINGLE POINT ENERGY      -676.152206901205

CARTESIAN COORDINATES (ANGSTROEM)
---------------------------------
  Si    -2.049005   -0.298406    0.038306
  Si     0.058517    0.707166   -0.037040
  H     -2.176654   -1.296460   -1.051465
  H     -3.114190    0.715360   -0.137452
  H     -2.265784   -0.995263    1.326250
  N      1.251498   -0.527107   -0.065823
  H      0.296182    1.543542    1.164396
  H      0.103469    1.642043   -1.197691
  C      2.673762   -0.275805    0.081273
  H      1.045312   -1.376589   -0.565356
  H      2.827746    0.537882    0.791158
  H      3.165211    0.005417   -0.856549
  H      3.182496   -1.153992    0.482095

 Multiplicity           Mult            ....    1
 Number of Electrons    NEL             ....   50
 Basis Dimension        Dim             ....  742

ORBITAL ENERGIES
----------------

  NO   OCC          E(Eh)            E(eV)
   0   2.0000     -68.769963     -1871.3258
   1   2.0000     -68.760647     -1871.0723
   2   2.0000     -15.535383      -422.7393
   3   2.0000     -11.252211      -306.1882
   4   2.0000      -6.117592      -166.4681
   5   2.0000      -6.111811      -166.3108
   6   2.0000      -4.224450      -114.9531
   7   2.0000      -4.224012      -114.9412
   8   2.0000      -4.223712      -114.9330
   9   2.0000      -4.217918      -114.7754
  10   2.0000      -4.217870      -114.7741
  11   2.0000      -4.217756      -114.7710
  12   2.0000      -1.171791       -31.8860
  13   2.0000      -0.906901       -24.6780
  14   2.0000      -0.746164       -20.3042
  15   2.0000      -0.694450       -18.8969
  16   2.0000      -0.625429       -17.0188
  17   2.0000      -0.594367       -16.1736
  18   2.0000      -0.570192       -15.5157
  19   2.0000      -0.509533       -13.8651
  20   2.0000      -0.493219       -13.4212
  21   2.0000      -0.479611       -13.0509
  22   2.0000      -0.467613       -12.7244
  23   2.0000      -0.402690       -10.9577
  24   2.0000      -0.370556       -10.0833
  25   0.0000       0.024398         0.6639
  26   0.0000       0.030709         0.8356
  27   0.0000       0.034515         0.9392
  28   0.0000       0.038243         1.0407
  29   0.0000       0.046374         1.2619

MULLIKEN ATOMIC CHARGES
-----------------------
   0 Si:    0.338272
   1 Si:    0.856555
   2 H :   -0.146540
   3 H :   -0.161300
   4 H :   -0.130998
   5 N :   -0.634481
   6 H :   -0.229604
   7 H :   -0.255094
   8 C :   -0.777719
   9 H :    0.239367
  10 H :    0.284070
  11 H :    0.291897
  12 H :    0.325577
Sum of atomic charges:   -0.0000000

LOEWDIN ATOMIC CHARGES
----------------------
   0 Si:    1.053224
   1 Si:    0.543996
   2 H :   -0.317493
   3 H :   -0.322145
   4 H :   -0.317576
   5 N :    0.710845
   6 H :   -0.253862
   7 H :   -0.261861
   8 C :    0.681175
   9 H :   -0.596488
  10 H :   -0.329190
  11 H :   -0.291169
  12 H :   -0.299455

  Mayer bond orders larger than 0.100000
B(  0-Si,  1-Si) :   0.7594 B(  0-Si,  2-H ) :   0.7697 B(  0-Si,  3-H ) :   0.7881
B(  0-Si,  4-H ) :   0.7683 B(  1-Si,  5-N ) :   0.8534 B(  1-Si,  6-H ) :   0.8532
B(  1-Si,  7-H ) :   0.7745 B(  5-N ,  8-C ) :   0.9190 B(  5-N ,  9-H ) :   1.0020
B(  8-C , 10-H ) :   0.9310 B(  8-C , 11-H ) :   0.9261 B(  8-C , 12-H ) :   0.9156

MP2 TOTAL ENERGY:     -676.205533603 Eh
FINAL SINGLE POINT ENERGY      -676.205533603079

DIPOLE MOMENT
-------------
                                X             Y             Z
Electronic contribution:     -2.87375       0.17624      -0.12172
Nuclear contribution   :      3.28436      -0.41772      -0.04638
                        -----------------------------------------
Total Dipole Moment    :      0.41061      -0.24148      -0.16810
                        -----------------------------------------
Magnitude (a.u.)       :      0.50515
Magnitude (Debye)      :      1.28398

Rotational constants in cm-1:     0.410290     0.059597     0.054691
Rotational constants in MHz : 12300.179621  1786.664732  1639.604367

                             ****ORCA TERMINATED NORMALLY****
TOTAL RUN TIME: 0 days 0 hours 35 minutes 9 seconds 343 msec
