                         Program Version 5.0.4 -  RELEASE  -
|  1> ! ri-mp2 aug-cc-pvdz aug-cc-pvdz/c tightscf
|  2> %pal nprocs 16 end
|  3> %maxcore 3800
|  4> %base "DZ_B-F_11_AB"
|  5> %scf
|  6> STABPerform true
|  7> STABRestartUHFifUnstable true
|  8> end
|  9>
| 10> *xyz 0 1
| 11> F         1.929283   -0.841654    0.000019
| 12> F         1.301485    1.311572   -0.000002
| 13> B         0.950105    0.043743   -0.000018
| 14> Si        -0.982102   -0.572917   -0.000004
| 15> F        -1.948967    0.702485   -0.000001
| 16> H        -1.268662   -1.374758   -1.206275
| 17> H        -1.268645   -1.374751    1.206275
| 18> *
| 19>
| 20> $new_job
| 21> ! ri-mp2 aug-cc-pvtz aug-cc-pvtz/c tightscf
| 22> %pal nprocs 16 end
| 23> %maxcore 3800
| 24> %base "TZ_B-F_11_AB"
| 25>
| 26> *xyz 0 1
| 27> F         1.929283   -0.841654    0.000019
| 28> F         1.301485    1.311572   -0.000002
| 29> B         0.950105    0.043743   -0.000018
| 30> Si        -0.982102   -0.572917   -0.000004
| 31> F        -1.948967    0.702485   -0.000001
| 32> H        -1.268662   -1.374758   -1.206275
| 33> H        -1.268645   -1.374751    1.206275
| 34> *
| 35>
| 36> $new_job
| 37> ! ri-mp2 aug-cc-pvqz aug-cc-pvqz/c tightscf
| 38> %pal nprocs 16 end
| 39> %maxcore 3800
| 40> %base "QZ_B-F_11_AB"
| 41>
| 42> *xyz 0 1
| 43> F         1.929283   -0.841654    0.000019
| 44> F         1.301485    1.311572   -0.000002
| 45> B         0.950105    0.043743   -0.000018
| 46> Si        -0.982102   -0.572917   -0.000004
| 47> F        -1.948967    0.702485   -0.000001
| 48> H        -1.268662   -1.374758   -1.206275
| 49> H        -1.268645   -1.374751    1.206275
| 50> *
| 51>
| 52>
| 53>
| 54>
| 55>                          ****END OF INPUT****
 Total Charge           Charge          ....    0
 Multiplicity           Mult            ....    1
 Number of Electrons    NEL             ....   48
MP2 TOTAL ENERGY:     -614.086487678 Eh
FINAL SINGLE POINT ENERGY      -614.086487677987
MP2 TOTAL ENERGY:     -614.406064309 Eh
FINAL SINGLE POINT ENERGY      -614.406064309405

CARTESIAN COORDINATES (ANGSTROEM)
---------------------------------
  F      1.929283   -0.841654    0.000019
  F      1.301485    1.311572   -0.000002
  B      0.950105    0.043743   -0.000018
  Si    -0.982102   -0.572917   -0.000004
  F     -1.948967    0.702485   -0.000001
  H     -1.268662   -1.374758   -1.206275
  H     -1.268645   -1.374751    1.206275

 Multiplicity           Mult            ....    1
 Number of Electrons    NEL             ....   48
 Basis Dimension        Dim             ....  496

ORBITAL ENERGIES
----------------

  NO   OCC          E(Eh)            E(eV)
   0   2.0000     -68.821546     -1872.7295
   1   2.0000     -26.325544      -716.3545
   2   2.0000     -26.324254      -716.3194
   3   2.0000     -26.291462      -715.4271
   4   2.0000      -7.722293      -210.1343
   5   2.0000      -6.166813      -167.8075
   6   2.0000      -4.273966      -116.3005
   7   2.0000      -4.273195      -116.2796
   8   2.0000      -4.273091      -116.2767
   9   2.0000      -1.658753       -45.1370
  10   2.0000      -1.625894       -44.2428
  11   2.0000      -1.593919       -43.3727
  12   2.0000      -0.838172       -22.8078
  13   2.0000      -0.790828       -21.5195
  14   2.0000      -0.773538       -21.0490
  15   2.0000      -0.737245       -20.0615
  16   2.0000      -0.725428       -19.7399
  17   2.0000      -0.676639       -18.4123
  18   2.0000      -0.676425       -18.4064
  19   2.0000      -0.670608       -18.2482
  20   2.0000      -0.662633       -18.0312
  21   2.0000      -0.636278       -17.3140
  22   2.0000      -0.501717       -13.6524
  23   2.0000      -0.465755       -12.6738
  24   0.0000       0.025849         0.7034
  25   0.0000       0.031336         0.8527
  26   0.0000       0.037214         1.0126
  27   0.0000       0.037953         1.0328
  28   0.0000       0.052495         1.4285

MULLIKEN ATOMIC CHARGES
-----------------------
   0 F :   -0.737896
   1 F :   -0.742914
   2 B :    1.413303
   3 Si:    1.011116
   4 F :   -0.643963
   5 H :   -0.149824
   6 H :   -0.149822
Sum of atomic charges:    0.0000000

LOEWDIN ATOMIC CHARGES
----------------------
   0 F :    0.734334
   1 F :    0.742383
   2 B :   -1.692312
   3 Si:    0.407975
   4 F :    0.379443
   5 H :   -0.285912
   6 H :   -0.285911

  Mayer bond orders larger than 0.100000
B(  0-F ,  2-B ) :   0.3496 B(  1-F ,  2-B ) :   0.3738 B(  2-B ,  3-Si) :   0.8849
B(  3-Si,  4-F ) :   0.3489 B(  3-Si,  5-H ) :   0.8842 B(  3-Si,  6-H ) :   0.8842

MP2 TOTAL ENERGY:     -614.510384737 Eh
FINAL SINGLE POINT ENERGY      -614.510384737240

DIPOLE MOMENT
-------------
                                X             Y             Z
Electronic contribution:      4.06684       3.05437      -0.00003
Nuclear contribution   :     -4.15185      -3.59816      -0.00000
                        -----------------------------------------
Total Dipole Moment    :     -0.08501      -0.54378      -0.00003
                        -----------------------------------------
Magnitude (a.u.)       :      0.55039
Magnitude (Debye)      :      1.39898

Rotational constants in cm-1:     0.236821     0.077316     0.059493
Rotational constants in MHz :  7099.701711  2317.861057  1783.566958

                             ****ORCA TERMINATED NORMALLY****
TOTAL RUN TIME: 0 days 0 hours 10 minutes 2 seconds 857 msec
