                         Program Version 5.0.4 -  RELEASE  -
|  1> ! ri-mp2 aug-cc-pvdz aug-cc-pvdz/c tightscf
|  2> %pal nprocs 16 end
|  3> %maxcore 3800
|  4> %base "DZ_Si-Si_112_AB"
|  5> %scf
|  6> STABPerform true
|  7> STABRestartUHFifUnstable true
|  8> end
|  9>
| 10> *xyz 0 1
| 11> Si         1.127593    0.952721    0.309532
| 12> Si        -1.127593    0.952721   -0.309532
| 13> S        -2.015578   -0.928562    0.216640
| 14> H        -1.268932    1.213962   -1.758713
| 15> H        -1.906058    1.957502    0.445529
| 16> H        -1.222681   -1.652569   -0.586924
| 17> S         2.015578   -0.928562   -0.216640
| 18> H         1.268932    1.213962    1.758713
| 19> H         1.906057    1.957502   -0.445529
| 20> H         1.222682   -1.652569    0.586925
| 21> *
| 22>
| 23> $new_job
| 24> ! ri-mp2 aug-cc-pvtz aug-cc-pvtz/c tightscf
| 25> %pal nprocs 16 end
| 26> %maxcore 3800
| 27> %base "TZ_Si-Si_112_AB"
| 28>
| 29> *xyz 0 1
| 30> Si         1.127593    0.952721    0.309532
| 31> Si        -1.127593    0.952721   -0.309532
| 32> S        -2.015578   -0.928562    0.216640
| 33> H        -1.268932    1.213962   -1.758713
| 34> H        -1.906058    1.957502    0.445529
| 35> H        -1.222681   -1.652569   -0.586924
| 36> S         2.015578   -0.928562   -0.216640
| 37> H         1.268932    1.213962    1.758713
| 38> H         1.906057    1.957502   -0.445529
| 39> H         1.222682   -1.652569    0.586925
| 40> *
| 41>
| 42> $new_job
| 43> ! ri-mp2 aug-cc-pvqz aug-cc-pvqz/c tightscf
| 44> %pal nprocs 16 end
| 45> %maxcore 3800
| 46> %base "QZ_Si-Si_112_AB"
| 47>
| 48> *xyz 0 1
| 49> Si         1.127593    0.952721    0.309532
| 50> Si        -1.127593    0.952721   -0.309532
| 51> S        -2.015578   -0.928562    0.216640
| 52> H        -1.268932    1.213962   -1.758713
| 53> H        -1.906058    1.957502    0.445529
| 54> H        -1.222681   -1.652569   -0.586924
| 55> S         2.015578   -0.928562   -0.216640
| 56> H         1.268932    1.213962    1.758713
| 57> H         1.906057    1.957502   -0.445529
| 58> H         1.222682   -1.652569    0.586925
| 59> *
| 60>
| 61>
| 62>
| 63>
| 64>                          ****END OF INPUT****
 Total Charge           Charge          ....    0
 Multiplicity           Mult            ....    1
 Number of Electrons    NEL             ....   66
MP2 TOTAL ENERGY:    -1376.980668718 Eh
FINAL SINGLE POINT ENERGY     -1376.980668717842
MP2 TOTAL ENERGY:    -1377.161000903 Eh
FINAL SINGLE POINT ENERGY     -1377.161000902703

CARTESIAN COORDINATES (ANGSTROEM)
---------------------------------
  Si     1.127593    0.952721    0.309532
  Si    -1.127593    0.952721   -0.309532
  S     -2.015578   -0.928562    0.216640
  H     -1.268932    1.213962   -1.758713
  H     -1.906058    1.957502    0.445529
  H     -1.222681   -1.652569   -0.586924
  S      2.015578   -0.928562   -0.216640
  H      1.268932    1.213962    1.758713
  H      1.906057    1.957502   -0.445529
  H      1.222682   -1.652569    0.586925

 Multiplicity           Mult            ....    1
 Number of Electrons    NEL             ....   66
 Basis Dimension        Dim             ....  612

ORBITAL ENERGIES
----------------

  NO   OCC          E(Eh)            E(eV)
   0   2.0000     -91.955716     -2502.2422
   1   2.0000     -91.955716     -2502.2422
   2   2.0000     -68.800624     -1872.1602
   3   2.0000     -68.800623     -1872.1601
   4   2.0000      -8.960139      -243.8178
   5   2.0000      -8.960138      -243.8178
   6   2.0000      -6.641582      -180.7266
   7   2.0000      -6.641582      -180.7266
   8   2.0000      -6.640879      -180.7075
   9   2.0000      -6.640879      -180.7075
  10   2.0000      -6.640004      -180.6837
  11   2.0000      -6.640004      -180.6837
  12   2.0000      -6.148557      -167.3108
  13   2.0000      -6.148409      -167.3067
  14   2.0000      -4.255022      -115.7850
  15   2.0000      -4.254905      -115.7819
  16   2.0000      -4.254653      -115.7750
  17   2.0000      -4.254414      -115.7685
  18   2.0000      -4.254255      -115.7642
  19   2.0000      -4.253863      -115.7535
  20   2.0000      -0.982743       -26.7418
  21   2.0000      -0.970891       -26.4193
  22   2.0000      -0.744736       -20.2653
  23   2.0000      -0.672703       -18.3052
  24   2.0000      -0.562779       -15.3140
  25   2.0000      -0.558300       -15.1921
  26   2.0000      -0.499506       -13.5922
  27   2.0000      -0.493552       -13.4302
  28   2.0000      -0.483858       -13.1664
  29   2.0000      -0.451571       -12.2879
  30   2.0000      -0.432635       -11.7726
  31   2.0000      -0.387972       -10.5573
  32   2.0000      -0.361641        -9.8408
  33   0.0000       0.026504         0.7212
  34   0.0000       0.031165         0.8480
  35   0.0000       0.031729         0.8634
  36   0.0000       0.039862         1.0847
  37   0.0000       0.048992         1.3331

MULLIKEN ATOMIC CHARGES
-----------------------
   0 Si:    0.746741
   1 Si:    0.746741
   2 S :   -0.459355
   3 H :   -0.182940
   4 H :   -0.198494
   5 H :    0.094048
   6 S :   -0.459355
   7 H :   -0.182940
   8 H :   -0.198494
   9 H :    0.094048
Sum of atomic charges:    0.0000000

LOEWDIN ATOMIC CHARGES
----------------------
   0 Si:    0.173087
   1 Si:    0.173087
   2 S :    1.370893
   3 H :   -0.312981
   4 H :   -0.327314
   5 H :   -0.903684
   6 S :    1.370893
   7 H :   -0.312981
   8 H :   -0.327314
   9 H :   -0.903684

  Mayer bond orders larger than 0.100000
B(  0-Si,  1-Si) :   0.7671 B(  0-Si,  6-S ) :   0.7520 B(  0-Si,  7-H ) :   0.8179
B(  0-Si,  8-H ) :   0.8371 B(  1-Si,  2-S ) :   0.7520 B(  1-Si,  3-H ) :   0.8179
B(  1-Si,  4-H ) :   0.8371 B(  2-S ,  5-H ) :   1.0218 B(  6-S ,  9-H ) :   1.0218

MP2 TOTAL ENERGY:    -1377.220264979 Eh
FINAL SINGLE POINT ENERGY     -1377.220264979326

DIPOLE MOMENT
-------------
                                X             Y             Z
Electronic contribution:      0.00000      -2.59439      -0.00000
Nuclear contribution   :      0.00000       2.92312       0.00000
                        -----------------------------------------
Total Dipole Moment    :      0.00000       0.32874       0.00000
                        -----------------------------------------
Magnitude (a.u.)       :      0.32874
Magnitude (Debye)      :      0.83558

Rotational constants in cm-1:     0.122092     0.046669     0.036024
Rotational constants in MHz :  3660.226843  1399.100430  1079.979851

                             ****ORCA TERMINATED NORMALLY****
TOTAL RUN TIME: 0 days 0 hours 38 minutes 8 seconds 261 msec
