                         Program Version 5.0.4 -  RELEASE  -
|  1> ! ri-mp2 aug-cc-pvdz aug-cc-pvdz/c tightscf
|  2> %pal nprocs 16 end
|  3> %maxcore 3800
|  4> %base "DZ_B-S_48_A"
|  5> %scf
|  6> STABPerform true
|  7> STABRestartUHFifUnstable true
|  8> end
|  9>
| 10> *xyz 0 2
| 11> S         2.032918   -0.361050   -0.000000
| 12> S         0.586631    0.936873    0.000000
| 13> C        -0.942485   -0.087079    0.000000
| 14> F        -1.976121    0.755813   -0.000002
| 15> F        -1.026268   -0.860721    1.074460
| 16> F        -1.026265   -0.860725   -1.074457
| 17> *
| 18>
| 19> $new_job
| 20> ! ri-mp2 aug-cc-pvtz aug-cc-pvtz/c tightscf
| 21> %pal nprocs 16 end
| 22> %maxcore 3800
| 23> %base "TZ_B-S_48_A"
| 24>
| 25> *xyz 0 2
| 26> S         2.032918   -0.361050   -0.000000
| 27> S         0.586631    0.936873    0.000000
| 28> C        -0.942485   -0.087079    0.000000
| 29> F        -1.976121    0.755813   -0.000002
| 30> F        -1.026268   -0.860721    1.074460
| 31> F        -1.026265   -0.860725   -1.074457
| 32> *
| 33>
| 34> $new_job
| 35> ! ri-mp2 aug-cc-pvqz aug-cc-pvqz/c tightscf
| 36> %pal nprocs 16 end
| 37> %maxcore 3800
| 38> %base "QZ_B-S_48_A"
| 39>
| 40> *xyz 0 2
| 41> S         2.032918   -0.361050   -0.000000
| 42> S         0.586631    0.936873    0.000000
| 43> C        -0.942485   -0.087079    0.000000
| 44> F        -1.976121    0.755813   -0.000002
| 45> F        -1.026268   -0.860721    1.074460
| 46> F        -1.026265   -0.860725   -1.074457
| 47> *
| 48>
| 49>
| 50>
| 51>
| 52>                          ****END OF INPUT****
 Total Charge           Charge          ....    0
 Multiplicity           Mult            ....    2
 Number of Electrons    NEL             ....   65
MP2 TOTAL ENERGY:    -1132.274270766 Eh
FINAL SINGLE POINT ENERGY     -1132.274270765810
MP2 TOTAL ENERGY:    -1132.657442212 Eh
FINAL SINGLE POINT ENERGY     -1132.657442212251

CARTESIAN COORDINATES (ANGSTROEM)
---------------------------------
  S      2.032918   -0.361050   -0.000000
  S      0.586631    0.936873    0.000000
  C     -0.942485   -0.087079    0.000000
  F     -1.976121    0.755813   -0.000002
  F     -1.026268   -0.860721    1.074460
  F     -1.026265   -0.860725   -1.074457

 Multiplicity           Mult            ....    2
 Number of Electrons    NEL             ....   65
 Basis Dimension        Dim             ....  488

ORBITAL ENERGIES
----------------
                 SPIN UP ORBITALS
  NO   OCC          E(Eh)            E(eV)
   0   1.0000     -92.040630     -2504.5529
   1   1.0000     -92.015873     -2503.8792
   2   1.0000     -26.361858      -717.3426
   3   1.0000     -26.359156      -717.2691
   4   1.0000     -26.359134      -717.2685
   5   1.0000     -11.546018      -314.1831
   6   1.0000      -9.040752      -246.0114
   7   1.0000      -9.017157      -245.3693
   8   1.0000      -6.724014      -182.9697
   9   1.0000      -6.721104      -182.8905
  10   1.0000      -6.719640      -182.8507
  11   1.0000      -6.710726      -182.6081
  12   1.0000      -6.695060      -182.1819
  13   1.0000      -6.693140      -182.1296
  14   1.0000      -1.757985       -47.8372
  15   1.0000      -1.661588       -45.2141
  16   1.0000      -1.660157       -45.1752
  17   1.0000      -1.136482       -30.9252
  18   1.0000      -0.999751       -27.2046
  19   1.0000      -0.907670       -24.6990
  20   1.0000      -0.850233       -23.1360
  21   1.0000      -0.849420       -23.1139
  22   1.0000      -0.783830       -21.3291
  23   1.0000      -0.733706       -19.9651
  24   1.0000      -0.732496       -19.9322
  25   1.0000      -0.689488       -18.7619
  26   1.0000      -0.689122       -18.7519
  27   1.0000      -0.672055       -18.2875
  28   1.0000      -0.576060       -15.6754
  29   1.0000      -0.544580       -14.8188
  30   1.0000      -0.527815       -14.3626
  31   1.0000      -0.409758       -11.1501
  32   1.0000      -0.396576       -10.7914
  33   0.0000       0.042150         1.1470
  34   0.0000       0.048073         1.3081
  35   0.0000       0.058349         1.5878
  36   0.0000       0.068924         1.8755
  37   0.0000       0.079743         2.1699

                 SPIN DOWN ORBITALS
  NO   OCC          E(Eh)            E(eV)
   0   1.0000     -92.038370     -2504.4914
   1   1.0000     -92.007534     -2503.6523
   2   1.0000     -26.361915      -717.3442
   3   1.0000     -26.359028      -717.2656
   4   1.0000     -26.359006      -717.2650
   5   1.0000     -11.546435      -314.1945
   6   1.0000      -9.038211      -245.9422
   7   1.0000      -9.007989      -245.1198
   8   1.0000      -6.719963      -182.8595
   9   1.0000      -6.719008      -182.8335
  10   1.0000      -6.713614      -182.6867
  11   1.0000      -6.690722      -182.0638
  12   1.0000      -6.688181      -181.9947
  13   1.0000      -6.673327      -181.5904
  14   1.0000      -1.757827       -47.8329
  15   1.0000      -1.661588       -45.2141
  16   1.0000      -1.659748       -45.1640
  17   1.0000      -1.113117       -30.2895
  18   1.0000      -0.984108       -26.7789
  19   1.0000      -0.875855       -23.8332
  20   1.0000      -0.848896       -23.0996
  21   1.0000      -0.848350       -23.0848
  22   1.0000      -0.756742       -20.5920
  23   1.0000      -0.732980       -19.9454
  24   1.0000      -0.731923       -19.9166
  25   1.0000      -0.688987       -18.7483
  26   1.0000      -0.688577       -18.7371
  27   1.0000      -0.671612       -18.2755
  28   1.0000      -0.569609       -15.4998
  29   1.0000      -0.513857       -13.9828
  30   1.0000      -0.446000       -12.1363
  31   1.0000      -0.393676       -10.7125
  32   0.0000      -0.008131        -0.2212
  33   0.0000       0.043707         1.1893
  34   0.0000       0.048401         1.3170
  35   0.0000       0.058447         1.5904
  36   0.0000       0.070485         1.9180

MULLIKEN ATOMIC CHARGES AND SPIN POPULATIONS
--------------------------------------------
   0 S :   -0.053257    0.884474
   1 S :    0.096992    0.128927
   2 C :    1.532997   -0.015934
   3 F :   -0.536901   -0.001462
   4 F :   -0.519916    0.001997
   5 F :   -0.519916    0.001997
Sum of atomic charges         :    0.0000000

LOEWDIN ATOMIC CHARGES AND SPIN POPULATIONS
-------------------------------------------
   0 S :    0.364871    0.682094
   1 S :    0.330360    0.282214
   2 C :   -2.716270    0.030937
   3 F :    0.667268    0.001069
   4 F :    0.676886    0.001843
   5 F :    0.676886    0.001843

  Mayer bond orders larger than 0.100000
B(  0-S ,  1-S ) :   1.4030 B(  1-S ,  2-C ) :   0.9402 B(  2-C ,  3-F ) :   0.6121
B(  2-C ,  4-F ) :   0.6031 B(  2-C ,  5-F ) :   0.6031

MP2 TOTAL ENERGY:    -1132.784006348 Eh
FINAL SINGLE POINT ENERGY     -1132.784006347896

DIPOLE MOMENT
-------------
                                X             Y             Z
Electronic contribution:     -3.27679      -0.67506      -0.00000
Nuclear contribution   :      3.57428       0.85820      -0.00000
                        -----------------------------------------
Total Dipole Moment    :      0.29749       0.18313      -0.00000
                        -----------------------------------------
Magnitude (a.u.)       :      0.34934
Magnitude (Debye)      :      0.88796

Rotational constants in cm-1:     0.146244     0.054004     0.049625
Rotational constants in MHz :  4384.299681  1618.990371  1487.733146

                             ****ORCA TERMINATED NORMALLY****
TOTAL RUN TIME: 0 days 0 hours 23 minutes 32 seconds 985 msec
