                         Program Version 5.0.4 -  RELEASE  -
|  1> ! ri-mp2 aug-cc-pvdz aug-cc-pvdz/c tightscf
|  2> %pal nprocs 16 end
|  3> %maxcore 3800
|  4> %base "DZ_Si-S_37_AB"
|  5> %scf
|  6> STABPerform true
|  7> STABRestartUHFifUnstable true
|  8> end
|  9>
| 10> *xyz 0 1
| 11> S        -0.467175   -0.133984    0.065441
| 12> Si         1.733741    0.057510   -0.000100
| 13> O        -0.937094    1.091488   -0.864147
| 14> O        -0.950847    0.153499    1.385325
| 15> O        -0.843485   -1.330863   -0.612242
| 16> H        -1.349318    1.763394   -0.301564
| 17> H         2.053125    1.378280    0.564177
| 18> H         2.123529   -0.066501   -1.411865
| 19> H         2.226497   -1.049554    0.832117
| 20> *
| 21>
| 22> $new_job
| 23> ! ri-mp2 aug-cc-pvtz aug-cc-pvtz/c tightscf
| 24> %pal nprocs 16 end
| 25> %maxcore 3800
| 26> %base "TZ_Si-S_37_AB"
| 27>
| 28> *xyz 0 1
| 29> S        -0.467175   -0.133984    0.065441
| 30> Si         1.733741    0.057510   -0.000100
| 31> O        -0.937094    1.091488   -0.864147
| 32> O        -0.950847    0.153499    1.385325
| 33> O        -0.843485   -1.330863   -0.612242
| 34> H        -1.349318    1.763394   -0.301564
| 35> H         2.053125    1.378280    0.564177
| 36> H         2.123529   -0.066501   -1.411865
| 37> H         2.226497   -1.049554    0.832117
| 38> *
| 39>
| 40> $new_job
| 41> ! ri-mp2 aug-cc-pvqz aug-cc-pvqz/c tightscf
| 42> %pal nprocs 16 end
| 43> %maxcore 3800
| 44> %base "QZ_Si-S_37_AB"
| 45>
| 46> *xyz 0 1
| 47> S        -0.467175   -0.133984    0.065441
| 48> Si         1.733741    0.057510   -0.000100
| 49> O        -0.937094    1.091488   -0.864147
| 50> O        -0.950847    0.153499    1.385325
| 51> O        -0.843485   -1.330863   -0.612242
| 52> H        -1.349318    1.763394   -0.301564
| 53> H         2.053125    1.378280    0.564177
| 54> H         2.123529   -0.066501   -1.411865
| 55> H         2.226497   -1.049554    0.832117
| 56> *
| 57>
| 58>
| 59>
| 60>
| 61>                          ****END OF INPUT****
 Total Charge           Charge          ....    0
 Multiplicity           Mult            ....    1
 Number of Electrons    NEL             ....   58
MP2 TOTAL ENERGY:     -914.182747940 Eh
FINAL SINGLE POINT ENERGY      -914.182747940023
MP2 TOTAL ENERGY:     -914.509446544 Eh
FINAL SINGLE POINT ENERGY      -914.509446544451

CARTESIAN COORDINATES (ANGSTROEM)
---------------------------------
  S     -0.467175   -0.133984    0.065441
  Si     1.733741    0.057510   -0.000100
  O     -0.937094    1.091488   -0.864147
  O     -0.950847    0.153499    1.385325
  O     -0.843485   -1.330863   -0.612242
  H     -1.349318    1.763394   -0.301564
  H      2.053125    1.378280    0.564177
  H      2.123529   -0.066501   -1.411865
  H      2.226497   -1.049554    0.832117

 Multiplicity           Mult            ....    1
 Number of Electrons    NEL             ....   58
 Basis Dimension        Dim             ....  592

ORBITAL ENERGIES
----------------

  NO   OCC          E(Eh)            E(eV)
   0   2.0000     -92.199295     -2508.8704
   1   2.0000     -68.831494     -1873.0002
   2   2.0000     -20.632148      -561.4293
   3   2.0000     -20.562294      -559.5285
   4   2.0000     -20.559100      -559.4416
   5   2.0000      -9.166686      -249.4382
   6   2.0000      -6.852764      -186.4732
   7   2.0000      -6.851085      -186.4275
   8   2.0000      -6.850714      -186.4174
   9   2.0000      -6.180994      -168.1934
  10   2.0000      -4.287556      -116.6703
  11   2.0000      -4.286612      -116.6446
  12   2.0000      -4.286573      -116.6436
  13   2.0000      -1.511988       -41.1433
  14   2.0000      -1.396250       -37.9939
  15   2.0000      -1.364874       -37.1401
  16   2.0000      -0.919001       -25.0073
  17   2.0000      -0.796776       -21.6814
  18   2.0000      -0.739923       -20.1343
  19   2.0000      -0.692989       -18.8572
  20   2.0000      -0.679794       -18.4981
  21   2.0000      -0.636933       -17.3318
  22   2.0000      -0.579457       -15.7678
  23   2.0000      -0.545165       -14.8347
  24   2.0000      -0.543462       -14.7884
  25   2.0000      -0.522664       -14.2224
  26   2.0000      -0.510773       -13.8988
  27   2.0000      -0.489580       -13.3222
  28   2.0000      -0.449510       -12.2318
  29   0.0000       0.017244         0.4692
  30   0.0000       0.029079         0.7913
  31   0.0000       0.037722         1.0265
  32   0.0000       0.040735         1.1085
  33   0.0000       0.049982         1.3601

MULLIKEN ATOMIC CHARGES
-----------------------
   0 S :    2.237481
   1 Si:    0.876112
   2 O :   -0.780364
   3 O :   -1.134529
   4 O :   -1.151979
   5 H :    0.358915
   6 H :   -0.131978
   7 H :   -0.121339
   8 H :   -0.152318
Sum of atomic charges:   -0.0000000

LOEWDIN ATOMIC CHARGES
----------------------
   0 S :   -0.645545
   1 Si:    0.991653
   2 O :    0.983544
   3 O :    0.227819
   4 O :    0.209375
   5 H :   -0.906873
   6 H :   -0.287480
   7 H :   -0.285624
   8 H :   -0.286869

  Mayer bond orders larger than 0.100000
B(  0-S ,  1-Si) :   0.6291 B(  0-S ,  2-O ) :   0.6800 B(  0-S ,  3-O ) :   1.2157
B(  0-S ,  4-O ) :   1.2071 B(  1-Si,  6-H ) :   0.8277 B(  1-Si,  7-H ) :   0.8291
B(  1-Si,  8-H ) :   0.8223 B(  2-O ,  5-H ) :   0.8925

MP2 TOTAL ENERGY:     -914.617813791 Eh
FINAL SINGLE POINT ENERGY      -914.617813791163

DIPOLE MOMENT
-------------
                                X             Y             Z
Electronic contribution:     -3.39337      -0.84400       0.18952
Nuclear contribution   :      4.77754       1.96630      -0.31131
                        -----------------------------------------
Total Dipole Moment    :      1.38417       1.12230      -0.12178
                        -----------------------------------------
Magnitude (a.u.)       :      1.78615
Magnitude (Debye)      :      4.54002

Rotational constants in cm-1:     0.158387     0.084896     0.083698
Rotational constants in MHz :  4748.315667  2545.122978  2509.197843

                             ****ORCA TERMINATED NORMALLY****
TOTAL RUN TIME: 0 days 0 hours 23 minutes 17 seconds 943 msec
