                         Program Version 5.0.4 -  RELEASE  -
|  1> ! ri-mp2 aug-cc-pvdz aug-cc-pvdz/c tightscf
|  2> %pal nprocs 16 end
|  3> %maxcore 3800
|  4> %base "DZ_Si-F_5_AB"
|  5> %scf
|  6> STABPerform true
|  7> STABRestartUHFifUnstable true
|  8> end
|  9>
| 10> *xyz 0 1
| 11> C         0.822178    0.112591   -0.381729
| 12> Si        -0.878749   -0.519384    0.199778
| 13> F         1.158975    1.258957    0.282664
| 14> H         0.922028    0.315183   -1.451195
| 15> F         1.756544   -0.839784   -0.056100
| 16> F        -1.972912    0.548095   -0.255070
| 17> H        -0.872041   -0.623262    1.666378
| 18> H        -1.164038   -1.801504   -0.465153
| 19> *
| 20>
| 21> $new_job
| 22> ! ri-mp2 aug-cc-pvtz aug-cc-pvtz/c tightscf
| 23> %pal nprocs 16 end
| 24> %maxcore 3800
| 25> %base "TZ_Si-F_5_AB"
| 26>
| 27> *xyz 0 1
| 28> C         0.822178    0.112591   -0.381729
| 29> Si        -0.878749   -0.519384    0.199778
| 30> F         1.158975    1.258957    0.282664
| 31> H         0.922028    0.315183   -1.451195
| 32> F         1.756544   -0.839784   -0.056100
| 33> F        -1.972912    0.548095   -0.255070
| 34> H        -0.872041   -0.623262    1.666378
| 35> H        -1.164038   -1.801504   -0.465153
| 36> *
| 37>
| 38> $new_job
| 39> ! ri-mp2 aug-cc-pvqz aug-cc-pvqz/c tightscf
| 40> %pal nprocs 16 end
| 41> %maxcore 3800
| 42> %base "QZ_Si-F_5_AB"
| 43>
| 44> *xyz 0 1
| 45> C         0.822178    0.112591   -0.381729
| 46> Si        -0.878749   -0.519384    0.199778
| 47> F         1.158975    1.258957    0.282664
| 48> H         0.922028    0.315183   -1.451195
| 49> F         1.756544   -0.839784   -0.056100
| 50> F        -1.972912    0.548095   -0.255070
| 51> H        -0.872041   -0.623262    1.666378
| 52> H        -1.164038   -1.801504   -0.465153
| 53> *
| 54>
| 55>
| 56>
| 57>
| 58>                          ****END OF INPUT****
 Total Charge           Charge          ....    0
 Multiplicity           Mult            ....    1
 Number of Electrons    NEL             ....   50
MP2 TOTAL ENERGY:     -627.799124678 Eh
FINAL SINGLE POINT ENERGY      -627.799124678094
MP2 TOTAL ENERGY:     -628.125432470 Eh
FINAL SINGLE POINT ENERGY      -628.125432469597

CARTESIAN COORDINATES (ANGSTROEM)
---------------------------------
  C      0.822178    0.112591   -0.381729
  Si    -0.878749   -0.519384    0.199778
  F      1.158975    1.258957    0.282664
  H      0.922028    0.315183   -1.451195
  F      1.756544   -0.839784   -0.056100
  F     -1.972912    0.548095   -0.255070
  H     -0.872041   -0.623262    1.666378
  H     -1.164038   -1.801504   -0.465153

 Multiplicity           Mult            ....    1
 Number of Electrons    NEL             ....   50
 Basis Dimension        Dim             ....  542

ORBITAL ENERGIES
----------------

  NO   OCC          E(Eh)            E(eV)
   0   2.0000     -68.833664     -1873.0592
   1   2.0000     -26.315102      -716.0703
   2   2.0000     -26.313566      -716.0285
   3   2.0000     -26.302162      -715.7182
   4   2.0000     -11.397015      -310.1285
   5   2.0000      -6.178610      -168.1285
   6   2.0000      -4.285848      -116.6239
   7   2.0000      -4.284890      -116.5978
   8   2.0000      -4.284831      -116.5962
   9   2.0000      -1.660333       -45.1800
  10   2.0000      -1.605494       -43.6877
  11   2.0000      -1.602101       -43.5954
  12   2.0000      -0.965453       -26.2713
  13   2.0000      -0.806687       -21.9511
  14   2.0000      -0.775433       -21.1006
  15   2.0000      -0.756058       -20.5734
  16   2.0000      -0.742515       -20.2049
  17   2.0000      -0.687942       -18.7199
  18   2.0000      -0.684972       -18.6390
  19   2.0000      -0.672626       -18.3031
  20   2.0000      -0.639058       -17.3897
  21   2.0000      -0.635903       -17.3038
  22   2.0000      -0.600372       -16.3369
  23   2.0000      -0.510923       -13.9029
  24   2.0000      -0.474905       -12.9228
  25   0.0000       0.024671         0.6713
  26   0.0000       0.034246         0.9319
  27   0.0000       0.038827         1.0565
  28   0.0000       0.042558         1.1581
  29   0.0000       0.055158         1.5009

MULLIKEN ATOMIC CHARGES
-----------------------
   0 C :    0.638350
   1 Si:    1.328429
   2 F :   -0.627481
   3 H :    0.322977
   4 F :   -0.624633
   5 F :   -0.673223
   6 H :   -0.178946
   7 H :   -0.185473
Sum of atomic charges:   -0.0000000

LOEWDIN ATOMIC CHARGES
----------------------
   0 C :   -1.079664
   1 Si:    0.298197
   2 F :    0.688523
   3 H :   -0.471136
   4 F :    0.679552
   5 F :    0.402358
   6 H :   -0.256381
   7 H :   -0.261449

  Mayer bond orders larger than 0.100000
B(  0-C ,  1-Si) :   0.8162 B(  0-C ,  2-F ) :   0.5444 B(  0-C ,  3-H ) :   0.8474
B(  0-C ,  4-F ) :   0.5526 B(  1-Si,  5-F ) :   0.3967 B(  1-Si,  6-H ) :   0.8802
B(  1-Si,  7-H ) :   0.8931

MP2 TOTAL ENERGY:     -628.233514317 Eh
FINAL SINGLE POINT ENERGY      -628.233514317340

DIPOLE MOMENT
-------------
                                X             Y             Z
Electronic contribution:      1.52590       2.35150      -0.09420
Nuclear contribution   :     -1.86805      -2.84512      -0.21943
                        -----------------------------------------
Total Dipole Moment    :     -0.34215      -0.49362      -0.31363
                        -----------------------------------------
Magnitude (a.u.)       :      0.67756
Magnitude (Debye)      :      1.72223

Rotational constants in cm-1:     0.236530     0.083549     0.067022
Rotational constants in MHz :  7090.978290  2504.737952  2009.261908

                             ****ORCA TERMINATED NORMALLY****
TOTAL RUN TIME: 0 days 0 hours 17 minutes 21 seconds 48 msec
