                         Program Version 5.0.4 -  RELEASE  -
|  1> ! ri-mp2 aug-cc-pvdz aug-cc-pvdz/c tightscf
|  2> %pal nprocs 16 end
|  3> %maxcore 3800
|  4> %base "DZ_B-Si_67_AB"
|  5>
|  6> *xyz 0 1
|  7> C         2.106288   -0.319664    0.135161
|  8> C         1.705164    1.002112    0.152682
|  9> C         0.387849    1.313783   -0.126320
| 10> C         1.191842   -1.313965   -0.159588
| 11> C        -0.112671   -0.959897   -0.432132
| 12> C        -0.555921    0.350067   -0.428729
| 13> F         3.365556   -0.634807    0.401384
| 14> F         2.586098    1.955348    0.437822
| 15> F         0.046778    2.604870   -0.091169
| 16> F         1.577036   -2.585543   -0.174527
| 17> F        -0.978447   -1.941667   -0.712155
| 18> B        -3.531188   -0.122665    0.665993
| 19> O        -2.910456   -0.688885    1.719191
| 20> H        -3.498649   -1.075473    2.376210
| 21> Si        -2.377061    0.711830   -0.767990
| 22> H        -4.728906   -0.124173    0.613028
| 23> H        -2.553964    2.177780   -0.817679
| 24> H        -2.708554    0.162227   -2.101841
| 25> *
| 26>
| 27> $new_job
| 28> ! ri-mp2 aug-cc-pvtz aug-cc-pvtz/c tightscf
| 29> %pal nprocs 16 end
| 30> %maxcore 3800
| 31> %base "TZ_B-Si_67_AB"
| 32>
| 33> *xyz 0 1
| 34> C         2.106288   -0.319664    0.135161
| 35> C         1.705164    1.002112    0.152682
| 36> C         0.387849    1.313783   -0.126320
| 37> C         1.191842   -1.313965   -0.159588
| 38> C        -0.112671   -0.959897   -0.432132
| 39> C        -0.555921    0.350067   -0.428729
| 40> F         3.365556   -0.634807    0.401384
| 41> F         2.586098    1.955348    0.437822
| 42> F         0.046778    2.604870   -0.091169
| 43> F         1.577036   -2.585543   -0.174527
| 44> F        -0.978447   -1.941667   -0.712155
| 45> B        -3.531188   -0.122665    0.665993
| 46> O        -2.910456   -0.688885    1.719191
| 47> H        -3.498649   -1.075473    2.376210
| 48> Si        -2.377061    0.711830   -0.767990
| 49> H        -4.728906   -0.124173    0.613028
| 50> H        -2.553964    2.177780   -0.817679
| 51> H        -2.708554    0.162227   -2.101841
| 52> *
| 53>
| 54> $new_job
| 55> ! ri-mp2 aug-cc-pvqz aug-cc-pvqz/c tightscf
| 56> %pal nprocs 16 end
| 57> %maxcore 3800
| 58> %base "QZ_B-Si_67_AB"
| 59>
| 60> *xyz 0 1
| 61> C         2.106288   -0.319664    0.135161
| 62> C         1.705164    1.002112    0.152682
| 63> C         0.387849    1.313783   -0.126320
| 64> C         1.191842   -1.313965   -0.159588
| 65> C        -0.112671   -0.959897   -0.432132
| 66> C        -0.555921    0.350067   -0.428729
| 67> F         3.365556   -0.634807    0.401384
| 68> F         2.586098    1.955348    0.437822
| 69> F         0.046778    2.604870   -0.091169
| 70> F         1.577036   -2.585543   -0.174527
| 71> F        -0.978447   -1.941667   -0.712155
| 72> B        -3.531188   -0.122665    0.665993
| 73> O        -2.910456   -0.688885    1.719191
| 74> H        -3.498649   -1.075473    2.376210
| 75> Si        -2.377061    0.711830   -0.767990
| 76> H        -4.728906   -0.124173    0.613028
| 77> H        -2.553964    2.177780   -0.817679
| 78> H        -2.708554    0.162227   -2.101841
| 79> *
| 80>
| 81>
| 82>
| 83>
| 84>                          ****END OF INPUT****
 Total Charge           Charge          ....    0
 Multiplicity           Mult            ....    1
 Number of Electrons    NEL             ....  112
MP2 TOTAL ENERGY:    -1117.463177553 Eh
FINAL SINGLE POINT ENERGY     -1117.463177553480
MP2 TOTAL ENERGY:    -1118.187164522 Eh
FINAL SINGLE POINT ENERGY     -1118.187164522144

CARTESIAN COORDINATES (ANGSTROEM)
---------------------------------
  C      2.106288   -0.319664    0.135161
  C      1.705164    1.002112    0.152682
  C      0.387849    1.313783   -0.126320
  C      1.191842   -1.313965   -0.159588
  C     -0.112671   -0.959897   -0.432132
  C     -0.555921    0.350067   -0.428729
  F      3.365556   -0.634807    0.401384
  F      2.586098    1.955348    0.437822
  F      0.046778    2.604870   -0.091169
  F      1.577036   -2.585543   -0.174527
  F     -0.978447   -1.941667   -0.712155
  B     -3.531188   -0.122665    0.665993
  O     -2.910456   -0.688885    1.719191
  H     -3.498649   -1.075473    2.376210
  Si    -2.377061    0.711830   -0.767990
  H     -4.728906   -0.124173    0.613028
  H     -2.553964    2.177780   -0.817679
  H     -2.708554    0.162227   -2.101841

 Multiplicity           Mult            ....    1
 Number of Electrons    NEL             ....  112
 Basis Dimension        Dim             .... 1308

ORBITAL ENERGIES
----------------

  NO   OCC          E(Eh)            E(eV)
   0   2.0000     -68.774343     -1871.4450
   1   2.0000     -26.347242      -716.9449
   2   2.0000     -26.340025      -716.7485
   3   2.0000     -26.339109      -716.7236
   4   2.0000     -26.338789      -716.7149
   5   2.0000     -26.335336      -716.6209
   6   2.0000     -20.598992      -560.5271
   7   2.0000     -11.372420      -309.4593
   8   2.0000     -11.365578      -309.2731
   9   2.0000     -11.364903      -309.2547
  10   2.0000     -11.359467      -309.1068
  11   2.0000     -11.358950      -309.0927
  12   2.0000     -11.260915      -306.4251
  13   2.0000      -7.638178      -207.8454
  14   2.0000      -6.125579      -166.6855
  15   2.0000      -4.231981      -115.1581
  16   2.0000      -4.231810      -115.1534
  17   2.0000      -4.231306      -115.1397
  18   2.0000      -1.678753       -45.6812
  19   2.0000      -1.668436       -45.4004
  20   2.0000      -1.663648       -45.2702
  21   2.0000      -1.653766       -45.0013
  22   2.0000      -1.650874       -44.9226
  23   2.0000      -1.393761       -37.9262
  24   2.0000      -1.212012       -32.9805
  25   2.0000      -1.071449       -29.1556
  26   2.0000      -1.064312       -28.9614
  27   2.0000      -0.923063       -25.1178
  28   2.0000      -0.911703       -24.8087
  29   2.0000      -0.829232       -22.5646
  30   2.0000      -0.819140       -22.2899
  31   2.0000      -0.807650       -21.9773
  32   2.0000      -0.790615       -21.5137
  33   2.0000      -0.760689       -20.6994
  34   2.0000      -0.759303       -20.6617
  35   2.0000      -0.757325       -20.6079
  36   2.0000      -0.737589       -20.0708
  37   2.0000      -0.735509       -20.0142
  38   2.0000      -0.726871       -19.7792
  39   2.0000      -0.720317       -19.6008
  40   2.0000      -0.710702       -19.3392
  41   2.0000      -0.707775       -19.2595
  42   2.0000      -0.689046       -18.7499
  43   2.0000      -0.686549       -18.6820
  44   2.0000      -0.667247       -18.1567
  45   2.0000      -0.640649       -17.4329
  46   2.0000      -0.626964       -17.0606
  47   2.0000      -0.591719       -16.1015
  48   2.0000      -0.563846       -15.3430
  49   2.0000      -0.559196       -15.2165
  50   2.0000      -0.532817       -14.4987
  51   2.0000      -0.502487       -13.6734
  52   2.0000      -0.489943       -13.3320
  53   2.0000      -0.426136       -11.5958
  54   2.0000      -0.371031       -10.0963
  55   2.0000      -0.367361        -9.9964
  56   0.0000       0.017372         0.4727
  57   0.0000       0.028918         0.7869
  58   0.0000       0.032001         0.8708
  59   0.0000       0.032844         0.8937
  60   0.0000       0.045776         1.2456

MULLIKEN ATOMIC CHARGES
-----------------------
   0 C :    0.817432
   1 C :    0.804034
   2 C :    0.840002
   3 C :    0.878838
   4 C :    0.891252
   5 C :   -0.749126
   6 F :   -0.742248
   7 F :   -0.778504
   8 F :   -0.742321
   9 F :   -0.778538
  10 F :   -0.752507
  11 B :    0.968054
  12 O :   -0.995701
  13 H :    0.365435
  14 Si:    0.717598
  15 H :   -0.385788
  16 H :   -0.201680
  17 H :   -0.156233
Sum of atomic charges:   -0.0000000

LOEWDIN ATOMIC CHARGES
----------------------
   0 C :   -0.803582
   1 C :   -0.798653
   2 C :   -0.832667
   3 C :   -0.792786
   4 C :   -0.846469
   5 C :   -0.217169
   6 F :    0.809814
   7 F :    0.797603
   8 F :    0.800995
   9 F :    0.798550
  10 F :    0.816294
  11 B :   -0.409542
  12 O :    1.279363
  13 H :   -0.784808
  14 Si:    0.875986
  15 H :   -0.222777
  16 H :   -0.238237
  17 H :   -0.231916

  Mayer bond orders larger than 0.100000
B(  0-C ,  1-C ) :   1.5482 B(  0-C ,  3-C ) :   1.5462 B(  1-C ,  2-C ) :   1.6055
B(  1-C ,  5-C ) :  -0.2018 B(  2-C ,  3-C ) :   0.1002 B(  2-C ,  5-C ) :   1.0237
B(  2-C ,  8-F ) :  -0.1201 B(  2-C , 14-Si) :  -0.1552 B(  3-C ,  4-C ) :   1.5364
B(  3-C ,  5-C ) :  -0.2072 B(  4-C ,  5-C ) :   1.0579 B(  4-C , 14-Si) :  -0.1492
B(  5-C ,  8-F ) :   0.2734 B(  5-C , 10-F ) :   0.1970 B(  5-C , 14-Si) :   0.8237
B( 11-B , 12-O ) :   0.5584 B( 11-B , 14-Si) :   0.8137 B( 11-B , 15-H ) :   0.8440
B( 12-O , 13-H ) :   0.9170 B( 14-Si, 16-H ) :   0.7092 B( 14-Si, 17-H ) :   0.7216

MP2 TOTAL ENERGY:    -1118.426702115 Eh
FINAL SINGLE POINT ENERGY     -1118.426702115220

DIPOLE MOMENT
-------------
                                X             Y             Z
Electronic contribution:     14.56562      -1.79913       0.63072
Nuclear contribution   :    -15.88065       1.65632      -0.23856
                        -----------------------------------------
Total Dipole Moment    :     -1.31503      -0.14281       0.39217
                        -----------------------------------------
Magnitude (a.u.)       :      1.37967
Magnitude (Debye)      :      3.50685

Rotational constants in cm-1:     0.027845     0.015360     0.011250
Rotational constants in MHz :   834.772056   460.471476   337.261250

                             ****ORCA TERMINATED NORMALLY****
TOTAL RUN TIME: 0 days 1 hours 7 minutes 13 seconds 271 msec
