                         Program Version 5.0.4 -  RELEASE  -
|  1> ! ri-mp2 aug-cc-pvdz aug-cc-pvdz/c tightscf
|  2> %pal nprocs 16 end
|  3> %maxcore 3800
|  4> %base "DZ_P-C_66_AB"
|  5>
|  6> *xyz 0 1
|  7> N         2.981671    0.281007    0.174759
|  8> P         1.877039   -1.111737   -0.309892
|  9> C         0.271549   -0.436988    0.267469
| 10> P        -1.999695    1.206029   -0.319231
| 11> N        -2.913061   -0.316636    0.166180
| 12> O        -2.692591   -1.334036   -0.459172
| 13> O        -3.743013   -0.197522    1.037628
| 14> O         2.528764    1.407837    0.170596
| 15> O         4.133009   -0.008915    0.401932
| 16> C        -0.388751    0.465800   -0.766452
| 17> H        -0.349612   -1.318240    0.446931
| 18> H        -0.535493   -0.057607   -1.712341
| 19> H         0.249665    1.327604   -0.979846
| 20> H         0.399358    0.080766    1.217125
| 21> H         2.211445   -1.848528    0.842756
| 22> H        -1.721924    1.539263    1.021679
| 23> *
| 24>
| 25> $new_job
| 26> ! ri-mp2 aug-cc-pvtz aug-cc-pvtz/c tightscf
| 27> %pal nprocs 16 end
| 28> %maxcore 3800
| 29> %base "TZ_P-C_66_AB"
| 30>
| 31> *xyz 0 1
| 32> N         2.981671    0.281007    0.174759
| 33> P         1.877039   -1.111737   -0.309892
| 34> C         0.271549   -0.436988    0.267469
| 35> P        -1.999695    1.206029   -0.319231
| 36> N        -2.913061   -0.316636    0.166180
| 37> O        -2.692591   -1.334036   -0.459172
| 38> O        -3.743013   -0.197522    1.037628
| 39> O         2.528764    1.407837    0.170596
| 40> O         4.133009   -0.008915    0.401932
| 41> C        -0.388751    0.465800   -0.766452
| 42> H        -0.349612   -1.318240    0.446931
| 43> H        -0.535493   -0.057607   -1.712341
| 44> H         0.249665    1.327604   -0.979846
| 45> H         0.399358    0.080766    1.217125
| 46> H         2.211445   -1.848528    0.842756
| 47> H        -1.721924    1.539263    1.021679
| 48> *
| 49>
| 50> $new_job
| 51> ! ri-mp2 aug-cc-pvqz aug-cc-pvqz/c tightscf
| 52> %pal nprocs 16 end
| 53> %maxcore 3800
| 54> %base "QZ_P-C_66_AB"
| 55>
| 56> *xyz 0 1
| 57> N         2.981671    0.281007    0.174759
| 58> P         1.877039   -1.111737   -0.309892
| 59> C         0.271549   -0.436988    0.267469
| 60> P        -1.999695    1.206029   -0.319231
| 61> N        -2.913061   -0.316636    0.166180
| 62> O        -2.692591   -1.334036   -0.459172
| 63> O        -3.743013   -0.197522    1.037628
| 64> O         2.528764    1.407837    0.170596
| 65> O         4.133009   -0.008915    0.401932
| 66> C        -0.388751    0.465800   -0.766452
| 67> H        -0.349612   -1.318240    0.446931
| 68> H        -0.535493   -0.057607   -1.712341
| 69> H         0.249665    1.327604   -0.979846
| 70> H         0.399358    0.080766    1.217125
| 71> H         2.211445   -1.848528    0.842756
| 72> H        -1.721924    1.539263    1.021679
| 73> *
| 74>
| 75>
| 76>
| 77>
| 78>                          ****END OF INPUT****
 Total Charge           Charge          ....    0
 Multiplicity           Mult            ....    1
 Number of Electrons    NEL             ....   94
MP2 TOTAL ENERGY:    -1170.591916745 Eh
FINAL SINGLE POINT ENERGY     -1170.591916745277
MP2 TOTAL ENERGY:    -1171.082778527 Eh
FINAL SINGLE POINT ENERGY     -1171.082778526976

CARTESIAN COORDINATES (ANGSTROEM)
---------------------------------
  N      2.981671    0.281007    0.174759
  P      1.877039   -1.111737   -0.309892
  C      0.271549   -0.436988    0.267469
  P     -1.999695    1.206029   -0.319231
  N     -2.913061   -0.316636    0.166180
  O     -2.692591   -1.334036   -0.459172
  O     -3.743013   -0.197522    1.037628
  O      2.528764    1.407837    0.170596
  O      4.133009   -0.008915    0.401932
  C     -0.388751    0.465800   -0.766452
  H     -0.349612   -1.318240    0.446931
  H     -0.535493   -0.057607   -1.712341
  H      0.249665    1.327604   -0.979846
  H      0.399358    0.080766    1.217125
  H      2.211445   -1.848528    0.842756
  H     -1.721924    1.539263    1.021679

 Multiplicity           Mult            ....    1
 Number of Electrons    NEL             ....   94
 Basis Dimension        Dim             .... 1084

ORBITAL ENERGIES
----------------

  NO   OCC          E(Eh)            E(eV)
   0   2.0000     -80.025324     -2177.5998
   1   2.0000     -80.023581     -2177.5523
   2   2.0000     -20.615904      -560.9873
   3   2.0000     -20.615597      -560.9789
   4   2.0000     -20.614453      -560.9478
   5   2.0000     -20.613495      -560.9217
   6   2.0000     -15.845878      -431.1883
   7   2.0000     -15.845032      -431.1652
   8   2.0000     -11.283657      -307.0439
   9   2.0000     -11.282173      -307.0035
  10   2.0000      -7.565529      -205.8685
  11   2.0000      -7.563737      -205.8197
  12   2.0000      -5.459270      -148.5543
  13   2.0000      -5.458198      -148.5251
  14   2.0000      -5.457496      -148.5060
  15   2.0000      -5.457286      -148.5003
  16   2.0000      -5.456429      -148.4770
  17   2.0000      -5.455454      -148.4505
  18   2.0000      -1.621401       -44.1206
  19   2.0000      -1.620765       -44.1033
  20   2.0000      -1.419058       -38.6145
  21   2.0000      -1.418267       -38.5930
  22   2.0000      -1.115494       -30.3541
  23   2.0000      -1.030991       -28.0547
  24   2.0000      -0.990429       -26.9510
  25   2.0000      -0.918145       -24.9840
  26   2.0000      -0.831138       -22.6164
  27   2.0000      -0.827421       -22.5153
  28   2.0000      -0.745921       -20.2975
  29   2.0000      -0.741670       -20.1819
  30   2.0000      -0.739396       -20.1200
  31   2.0000      -0.735791       -20.0219
  32   2.0000      -0.728877       -19.8338
  33   2.0000      -0.725047       -19.7295
  34   2.0000      -0.662705       -18.0331
  35   2.0000      -0.614922       -16.7329
  36   2.0000      -0.581713       -15.8292
  37   2.0000      -0.562637       -15.3101
  38   2.0000      -0.538142       -14.6436
  39   2.0000      -0.509865       -13.8741
  40   2.0000      -0.506763       -13.7897
  41   2.0000      -0.492060       -13.3896
  42   2.0000      -0.475045       -12.9266
  43   2.0000      -0.471238       -12.8230
  44   2.0000      -0.468045       -12.7361
  45   2.0000      -0.427660       -11.6372
  46   2.0000      -0.417316       -11.3557
  47   0.0000       0.020999         0.5714
  48   0.0000       0.025331         0.6893
  49   0.0000       0.029947         0.8149
  50   0.0000       0.040261         1.0956
  51   0.0000       0.043704         1.1893

MULLIKEN ATOMIC CHARGES
-----------------------
   0 N :    0.627351
   1 P :    0.668313
   2 C :   -0.806385
   3 P :    0.642277
   4 N :    0.678537
   5 O :   -0.620759
   6 O :   -0.605648
   7 O :   -0.618610
   8 O :   -0.579052
   9 C :   -0.622234
  10 H :    0.377886
  11 H :    0.287201
  12 H :    0.383646
  13 H :    0.280513
  14 H :   -0.062061
  15 H :   -0.030975
Sum of atomic charges:   -0.0000000

LOEWDIN ATOMIC CHARGES
----------------------
   0 N :   -1.073475
   1 P :    1.149968
   2 C :    0.240468
   3 P :    1.154427
   4 N :   -1.079979
   5 O :    0.449313
   6 O :    0.431847
   7 O :    0.451036
   8 O :    0.428738
   9 C :    0.231726
  10 H :   -0.402814
  11 H :   -0.371582
  12 H :   -0.404228
  13 H :   -0.360812
  14 H :   -0.421182
  15 H :   -0.423452

  Mayer bond orders larger than 0.100000
B(  0-N ,  1-P ) :   0.6145 B(  0-N ,  7-O ) :   1.2720 B(  0-N ,  8-O ) :   1.3290
B(  1-P ,  2-C ) :   0.8573 B(  1-P , 14-H ) :   0.9691 B(  2-C ,  9-C ) :   0.8957
B(  2-C , 10-H ) :   0.8342 B(  2-C , 13-H ) :   0.9071 B(  3-P ,  4-N ) :   0.5956
B(  3-P ,  9-C ) :   0.8840 B(  3-P , 15-H ) :   0.9473 B(  4-N ,  5-O ) :   1.2631
B(  4-N ,  6-O ) :   1.3055 B(  5-O ,  6-O ) :   0.1420 B(  7-O ,  8-O ) :   0.1349
B(  9-C , 11-H ) :   0.9099 B(  9-C , 12-H ) :   0.8121

MP2 TOTAL ENERGY:    -1171.245934035 Eh
FINAL SINGLE POINT ENERGY     -1171.245934035398

DIPOLE MOMENT
-------------
                                X             Y             Z
Electronic contribution:     -0.34971       0.34383      -1.60933
Nuclear contribution   :      0.35899      -0.35383       1.39637
                        -----------------------------------------
Total Dipole Moment    :      0.00928      -0.01000      -0.21295
                        -----------------------------------------
Magnitude (a.u.)       :      0.21339
Magnitude (Debye)      :      0.54240

Rotational constants in cm-1:     0.081515     0.013494     0.012356
Rotational constants in MHz :  2443.755580   404.550624   370.425985

                             ****ORCA TERMINATED NORMALLY****
TOTAL RUN TIME: 0 days 0 hours 32 minutes 6 seconds 925 msec
