                         Program Version 5.0.4 -  RELEASE  -
|  1> ! ri-mp2 aug-cc-pvdz aug-cc-pvdz/c tightscf
|  2> %pal nprocs 16 end
|  3> %maxcore 3800
|  4> %base "DZ_Si-Si_74_A"
|  5> %scf
|  6> STABPerform true
|  7> STABRestartUHFifUnstable true
|  8> end
|  9>
| 10> *xyz 0 2
| 11> Si         0.617148    0.000000   -0.108097
| 12> N        -1.092538    0.000000    0.080736
| 13> H         1.138024    1.222231    0.559293
| 14> H         1.138023   -1.222232    0.559292
| 15> H        -1.634174    0.832414   -0.085192
| 16> H        -1.634173   -0.832415   -0.085191
| 17> *
| 18>
| 19> $new_job
| 20> ! ri-mp2 aug-cc-pvtz aug-cc-pvtz/c tightscf
| 21> %pal nprocs 16 end
| 22> %maxcore 3800
| 23> %base "TZ_Si-Si_74_A"
| 24>
| 25> *xyz 0 2
| 26> Si         0.617148    0.000000   -0.108097
| 27> N        -1.092538    0.000000    0.080736
| 28> H         1.138024    1.222231    0.559293
| 29> H         1.138023   -1.222232    0.559292
| 30> H        -1.634174    0.832414   -0.085192
| 31> H        -1.634173   -0.832415   -0.085191
| 32> *
| 33>
| 34> $new_job
| 35> ! ri-mp2 aug-cc-pvqz aug-cc-pvqz/c tightscf
| 36> %pal nprocs 16 end
| 37> %maxcore 3800
| 38> %base "QZ_Si-Si_74_A"
| 39>
| 40> *xyz 0 2
| 41> Si         0.617148    0.000000   -0.108097
| 42> N        -1.092538    0.000000    0.080736
| 43> H         1.138024    1.222231    0.559293
| 44> H         1.138023   -1.222232    0.559292
| 45> H        -1.634174    0.832414   -0.085192
| 46> H        -1.634173   -0.832415   -0.085191
| 47> *
| 48>
| 49>
| 50>
| 51>
| 52>                          ****END OF INPUT****
 Total Charge           Charge          ....    0
 Multiplicity           Mult            ....    2
 Number of Electrons    NEL             ....   25
MP2 TOTAL ENERGY:     -345.973585039 Eh
FINAL SINGLE POINT ENERGY      -345.973585038540
MP2 TOTAL ENERGY:     -346.063990313 Eh
FINAL SINGLE POINT ENERGY      -346.063990312682

CARTESIAN COORDINATES (ANGSTROEM)
---------------------------------
  Si     0.617148    0.000000   -0.108097
  N     -1.092538    0.000000    0.080736
  H      1.138024    1.222231    0.559293
  H      1.138023   -1.222232    0.559292
  H     -1.634174    0.832414   -0.085192
  H     -1.634173   -0.832415   -0.085191

 Multiplicity           Mult            ....    2
 Number of Electrons    NEL             ....   25
 Basis Dimension        Dim             ....  348

ORBITAL ENERGIES
----------------
                 SPIN UP ORBITALS
  NO   OCC          E(Eh)            E(eV)
   0   1.0000     -68.781068     -1871.6280
   1   1.0000     -15.545909      -423.0257
   2   1.0000      -6.128563      -166.7667
   3   1.0000      -4.240152      -115.3804
   4   1.0000      -4.231863      -115.1548
   5   1.0000      -4.231802      -115.1532
   6   1.0000      -1.148332       -31.2477
   7   1.0000      -0.720432       -19.6039
   8   1.0000      -0.667698       -18.1690
   9   1.0000      -0.550425       -14.9778
  10   1.0000      -0.480833       -13.0841
  11   1.0000      -0.467131       -12.7113
  12   1.0000      -0.304569        -8.2877
  13   0.0000       0.023898         0.6503
  14   0.0000       0.038623         1.0510
  15   0.0000       0.038719         1.0536
  16   0.0000       0.047185         1.2840
  17   0.0000       0.057897         1.5755

                 SPIN DOWN ORBITALS
  NO   OCC          E(Eh)            E(eV)
   0   1.0000     -68.776061     -1871.4918
   1   1.0000     -15.540607      -422.8814
   2   1.0000      -6.120615      -166.5504
   3   1.0000      -4.228950      -115.0756
   4   1.0000      -4.228900      -115.0742
   5   1.0000      -4.220665      -114.8501
   6   1.0000      -1.133260       -30.8376
   7   1.0000      -0.691169       -18.8077
   8   1.0000      -0.664541       -18.0831
   9   1.0000      -0.532140       -14.4803
  10   1.0000      -0.466442       -12.6925
  11   1.0000      -0.416498       -11.3335
  12   0.0000       0.023204         0.6314
  13   0.0000       0.038317         1.0427
  14   0.0000       0.038859         1.0574
  15   0.0000       0.040582         1.1043
  16   0.0000       0.058090         1.5807

MULLIKEN ATOMIC CHARGES AND SPIN POPULATIONS
--------------------------------------------
   0 Si:    0.758243    0.819873
   1 N :   -0.819431    0.115563
   2 H :   -0.229802    0.043042
   3 H :   -0.229802    0.043042
   4 H :    0.260396   -0.010760
   5 H :    0.260396   -0.010760
Sum of atomic charges         :    0.0000000

LOEWDIN ATOMIC CHARGES AND SPIN POPULATIONS
-------------------------------------------
   0 Si:    0.909398    0.556185
   1 N :    1.046228    0.157986
   2 H :   -0.357937    0.128543
   3 H :   -0.357937    0.128543
   4 H :   -0.619877    0.014372
   5 H :   -0.619877    0.014372

  Mayer bond orders larger than 0.100000
B(  0-Si,  1-N ) :   0.8812 B(  0-Si,  2-H ) :   0.9055 B(  0-Si,  3-H ) :   0.9055
B(  1-N ,  4-H ) :   0.9647 B(  1-N ,  5-H ) :   0.9647

MP2 TOTAL ENERGY:     -346.092323070 Eh
FINAL SINGLE POINT ENERGY      -346.092323070069

DIPOLE MOMENT
-------------
                                X             Y             Z
Electronic contribution:      0.55455       0.00000      -1.15474
Nuclear contribution   :     -1.05475      -0.00000       0.97236
                        -----------------------------------------
Total Dipole Moment    :     -0.50021      -0.00000      -0.18237
                        -----------------------------------------
Magnitude (a.u.)       :      0.53242
Magnitude (Debye)      :      1.35330

Rotational constants in cm-1:     3.129783     0.462698     0.422877
Rotational constants in MHz : 93828.526651 13871.337163 12677.529490

                             ****ORCA TERMINATED NORMALLY****
TOTAL RUN TIME: 0 days 0 hours 6 minutes 14 seconds 483 msec
