                         Program Version 5.0.4 -  RELEASE  -
|  1> ! ri-mp2 aug-cc-pvdz aug-cc-pvdz/c tightscf
|  2> %pal nprocs 16 end
|  3> %maxcore 3800
|  4> %base "DZ_Si-F_11_AB"
|  5> %scf
|  6> STABPerform true
|  7> STABRestartUHFifUnstable true
|  8> end
|  9>
| 10> *xyz 0 1
| 11> Si         0.000000    0.480060    0.000000
| 12> F         1.558185    0.648823    0.000000
| 13> O        -1.011585    1.586029    0.000000
| 14> Cl        -0.348881   -1.485205    0.000000
| 15> *
| 16>
| 17> $new_job
| 18> ! ri-mp2 aug-cc-pvtz aug-cc-pvtz/c tightscf
| 19> %pal nprocs 16 end
| 20> %maxcore 3800
| 21> %base "TZ_Si-F_11_AB"
| 22>
| 23> *xyz 0 1
| 24> Si         0.000000    0.480060    0.000000
| 25> F         1.558185    0.648823    0.000000
| 26> O        -1.011585    1.586029    0.000000
| 27> Cl        -0.348881   -1.485205    0.000000
| 28> *
| 29>
| 30> $new_job
| 31> ! ri-mp2 aug-cc-pvqz aug-cc-pvqz/c tightscf
| 32> %pal nprocs 16 end
| 33> %maxcore 3800
| 34> %base "QZ_Si-F_11_AB"
| 35>
| 36> *xyz 0 1
| 37> Si         0.000000    0.480060    0.000000
| 38> F         1.558185    0.648823    0.000000
| 39> O        -1.011585    1.586029    0.000000
| 40> Cl        -0.348881   -1.485205    0.000000
| 41> *
| 42>
| 43>
| 44>
| 45>
| 46>                          ****END OF INPUT****
 Total Charge           Charge          ....    0
 Multiplicity           Mult            ....    1
 Number of Electrons    NEL             ....   48
MP2 TOTAL ENERGY:     -923.496832623 Eh
FINAL SINGLE POINT ENERGY      -923.496832623494
MP2 TOTAL ENERGY:     -923.752593325 Eh
FINAL SINGLE POINT ENERGY      -923.752593324616

CARTESIAN COORDINATES (ANGSTROEM)
---------------------------------
  Si     0.000000    0.480060    0.000000
  F      1.558185    0.648823    0.000000
  O     -1.011585    1.586029    0.000000
  Cl    -0.348881   -1.485205    0.000000

 Multiplicity           Mult            ....    1
 Number of Electrons    NEL             ....   48
 Basis Dimension        Dim             ....  328

ORBITAL ENERGIES
----------------

  NO   OCC          E(Eh)            E(eV)
   0   2.0000    -104.894108     -2854.3138
   1   2.0000     -68.898913     -1874.8347
   2   2.0000     -26.353041      -717.1027
   3   2.0000     -20.532316      -558.7127
   4   2.0000     -10.621142      -289.0160
   5   2.0000      -8.087943      -220.0841
   6   2.0000      -8.086673      -220.0496
   7   2.0000      -8.086516      -220.0453
   8   2.0000      -6.240050      -169.8004
   9   2.0000      -4.349886      -118.3664
  10   2.0000      -4.346671      -118.2789
  11   2.0000      -4.345008      -118.2337
  12   2.0000      -1.657708       -45.1085
  13   2.0000      -1.276646       -34.7393
  14   2.0000      -1.161990       -31.6194
  15   2.0000      -0.809641       -22.0315
  16   2.0000      -0.734920       -19.9982
  17   2.0000      -0.728849       -19.8330
  18   2.0000      -0.646451       -17.5908
  19   2.0000      -0.556165       -15.1340
  20   2.0000      -0.545039       -14.8313
  21   2.0000      -0.535831       -14.5807
  22   2.0000      -0.482432       -13.1276
  23   2.0000      -0.482379       -13.1262
  24   0.0000       0.016754         0.4559
  25   0.0000       0.037922         1.0319
  26   0.0000       0.042386         1.1534
  27   0.0000       0.047583         1.2948
  28   0.0000       0.076822         2.0904

MULLIKEN ATOMIC CHARGES
-----------------------
   0 Si:    2.078075
   1 F :   -0.655887
   2 O :   -1.036972
   3 Cl:   -0.385216
Sum of atomic charges:   -0.0000000

LOEWDIN ATOMIC CHARGES
----------------------
   0 Si:   -1.331762
   1 F :    0.354264
   2 O :    0.066209
   3 Cl:    0.911289

  Mayer bond orders larger than 0.100000
B(  0-Si,  1-F ) :   0.5547 B(  0-Si,  2-O ) :   1.6001 B(  0-Si,  3-Cl) :   0.8560

MP2 TOTAL ENERGY:     -923.838508386 Eh
FINAL SINGLE POINT ENERGY      -923.838508386202

DIPOLE MOMENT
-------------
                                X             Y             Z
Electronic contribution:      1.63013      -2.49475      -0.00000
Nuclear contribution   :     -0.96580       1.35392       0.00000
                        -----------------------------------------
Total Dipole Moment    :      0.66434      -1.14084      -0.00000
                        -----------------------------------------
Magnitude (a.u.)       :      1.32017
Magnitude (Debye)      :      3.35561

Rotational constants in cm-1:     0.260484     0.124888     0.084415
Rotational constants in MHz :  7809.113230  3744.041563  2530.706550

                             ****ORCA TERMINATED NORMALLY****
TOTAL RUN TIME: 0 days 0 hours 2 minutes 30 seconds 334 msec
