                         Program Version 5.0.4 -  RELEASE  -
|  1> ! ri-mp2 aug-cc-pvdz aug-cc-pvdz/c tightscf
|  2> %pal nprocs 16 end
|  3> %maxcore 3800
|  4> %base "DZ_Si-F_1_AB"
|  5> %scf
|  6> STABPerform true
|  7> STABRestartUHFifUnstable true
|  8> end
|  9>
| 10> *xyz 0 1
| 11> Si         0.782349   -0.463848    0.184686
| 12> C        -0.974326   -0.566828   -0.402469
| 13> F         1.387992    0.968058   -0.214619
| 14> C        -1.895810    0.498983    0.193326
| 15> H        -1.553999    1.502893   -0.059978
| 16> H        -1.931873    0.430534    1.281714
| 17> H        -2.916160    0.394789   -0.176322
| 18> H        -1.341797   -1.569250   -0.158983
| 19> H        -0.976374   -0.505757   -1.494201
| 20> H         1.631605   -1.494036   -0.448569
| 21> H         0.864598   -0.570749    1.657164
| 22> *
| 23>
| 24> $new_job
| 25> ! ri-mp2 aug-cc-pvtz aug-cc-pvtz/c tightscf
| 26> %pal nprocs 16 end
| 27> %maxcore 3800
| 28> %base "TZ_Si-F_1_AB"
| 29>
| 30> *xyz 0 1
| 31> Si         0.782349   -0.463848    0.184686
| 32> C        -0.974326   -0.566828   -0.402469
| 33> F         1.387992    0.968058   -0.214619
| 34> C        -1.895810    0.498983    0.193326
| 35> H        -1.553999    1.502893   -0.059978
| 36> H        -1.931873    0.430534    1.281714
| 37> H        -2.916160    0.394789   -0.176322
| 38> H        -1.341797   -1.569250   -0.158983
| 39> H        -0.976374   -0.505757   -1.494201
| 40> H         1.631605   -1.494036   -0.448569
| 41> H         0.864598   -0.570749    1.657164
| 42> *
| 43>
| 44> $new_job
| 45> ! ri-mp2 aug-cc-pvqz aug-cc-pvqz/c tightscf
| 46> %pal nprocs 16 end
| 47> %maxcore 3800
| 48> %base "QZ_Si-F_1_AB"
| 49>
| 50> *xyz 0 1
| 51> Si         0.782349   -0.463848    0.184686
| 52> C        -0.974326   -0.566828   -0.402469
| 53> F         1.387992    0.968058   -0.214619
| 54> C        -1.895810    0.498983    0.193326
| 55> H        -1.553999    1.502893   -0.059978
| 56> H        -1.931873    0.430534    1.281714
| 57> H        -2.916160    0.394789   -0.176322
| 58> H        -1.341797   -1.569250   -0.158983
| 59> H        -0.976374   -0.505757   -1.494201
| 60> H         1.631605   -1.494036   -0.448569
| 61> H         0.864598   -0.570749    1.657164
| 62> *
| 63>
| 64>
| 65>
| 66>
| 67>                          ****END OF INPUT****
 Total Charge           Charge          ....    0
 Multiplicity           Mult            ....    1
 Number of Electrons    NEL             ....   42
MP2 TOTAL ENERGY:     -468.878971831 Eh
FINAL SINGLE POINT ENERGY      -468.878971831320
MP2 TOTAL ENERGY:     -469.086291447 Eh
FINAL SINGLE POINT ENERGY      -469.086291446678

CARTESIAN COORDINATES (ANGSTROEM)
---------------------------------
  Si     0.782349   -0.463848    0.184686
  C     -0.974326   -0.566828   -0.402469
  F      1.387992    0.968058   -0.214619
  C     -1.895810    0.498983    0.193326
  H     -1.553999    1.502893   -0.059978
  H     -1.931873    0.430534    1.281714
  H     -2.916160    0.394789   -0.176322
  H     -1.341797   -1.569250   -0.158983
  H     -0.976374   -0.505757   -1.494201
  H      1.631605   -1.494036   -0.448569
  H      0.864598   -0.570749    1.657164

 Multiplicity           Mult            ....    1
 Number of Electrons    NEL             ....   42
 Basis Dimension        Dim             ....  646

ORBITAL ENERGIES
----------------

  NO   OCC          E(Eh)            E(eV)
   0   2.0000     -68.798742     -1872.1089
   1   2.0000     -26.272624      -714.9144
   2   2.0000     -11.224587      -305.4365
   3   2.0000     -11.217089      -305.2325
   4   2.0000      -6.143604      -167.1760
   5   2.0000      -4.250901      -115.6729
   6   2.0000      -4.250055      -115.6499
   7   2.0000      -4.249626      -115.6382
   8   2.0000      -1.575030       -42.8588
   9   2.0000      -1.032174       -28.0869
  10   2.0000      -0.859249       -23.3814
  11   2.0000      -0.750234       -20.4149
  12   2.0000      -0.661646       -18.0043
  13   2.0000      -0.659793       -17.9539
  14   2.0000      -0.627999       -17.0887
  15   2.0000      -0.605760       -16.4836
  16   2.0000      -0.574366       -15.6293
  17   2.0000      -0.524938       -14.2843
  18   2.0000      -0.502823       -13.6825
  19   2.0000      -0.473036       -12.8720
  20   2.0000      -0.437485       -11.9046
  21   0.0000       0.024420         0.6645
  22   0.0000       0.034713         0.9446
  23   0.0000       0.035046         0.9537
  24   0.0000       0.035998         0.9796
  25   0.0000       0.050419         1.3720

MULLIKEN ATOMIC CHARGES
-----------------------
   0 Si:    1.401986
   1 C :   -0.612532
   2 F :   -0.702261
   3 C :   -0.856426
   4 H :    0.249204
   5 H :    0.251941
   6 H :    0.297444
   7 H :    0.228460
   8 H :    0.239005
   9 H :   -0.262030
  10 H :   -0.234791
Sum of atomic charges:    0.0000000

LOEWDIN ATOMIC CHARGES
----------------------
   0 Si:    0.318950
   1 C :    0.481649
   2 F :    0.414584
   3 C :    0.849941
   4 H :   -0.296663
   5 H :   -0.300003
   6 H :   -0.286485
   7 H :   -0.348930
   8 H :   -0.345761
   9 H :   -0.248090
  10 H :   -0.239191

  Mayer bond orders larger than 0.100000
B(  0-Si,  1-C ) :   0.8684 B(  0-Si,  2-F ) :   0.3716 B(  0-Si,  9-H ) :   0.8573
B(  0-Si, 10-H ) :   0.8630 B(  1-C ,  3-C ) :   0.9829 B(  1-C ,  7-H ) :   0.9146
B(  1-C ,  8-H ) :   0.9227 B(  3-C ,  4-H ) :   0.9309 B(  3-C ,  5-H ) :   0.9392
B(  3-C ,  6-H ) :   0.9255

MP2 TOTAL ENERGY:     -469.151938186 Eh
FINAL SINGLE POINT ENERGY      -469.151938186134

DIPOLE MOMENT
-------------
                                X             Y             Z
Electronic contribution:      7.17507       2.27095      -0.78476
Nuclear contribution   :     -7.71237      -2.76459       0.80892
                        -----------------------------------------
Total Dipole Moment    :     -0.53730      -0.49364       0.02416
                        -----------------------------------------
Magnitude (a.u.)       :      0.73004
Magnitude (Debye)      :      1.85562

Rotational constants in cm-1:     0.341670     0.120362     0.100819
Rotational constants in MHz : 10243.014394  3608.368261  3022.463983

                             ****ORCA TERMINATED NORMALLY****
TOTAL RUN TIME: 0 days 0 hours 33 minutes 23 seconds 866 msec
