                         Program Version 5.0.4 -  RELEASE  -
|  1> ! ri-mp2 aug-cc-pvdz aug-cc-pvdz/c tightscf
|  2> %pal nprocs 16 end
|  3> %maxcore 3800
|  4> %base "DZ_Si-S_32_AB"
|  5>
|  6> *xyz 0 1
|  7> Si         2.304445   -0.031117    0.535801
|  8> S         1.098915   -1.045699   -0.913923
|  9> C        -0.500136   -0.454442   -0.385584
| 10> C        -1.146742   -1.039986    0.694968
| 11> C        -2.393719   -0.585415    1.087500
| 12> C        -1.117985    0.580364   -1.075053
| 13> C        -2.367544    1.028392   -0.682334
| 14> C        -3.006876    0.449123    0.400761
| 15> H        -3.982753    0.801056    0.707249
| 16> H        -2.889328   -1.045787    1.931905
| 17> H        -0.668679   -1.852640    1.224391
| 18> H        -0.613747    1.031508   -1.918458
| 19> H        -2.841996    1.834714   -1.225822
| 20> C         2.092481    1.815235    0.455554
| 21> H         2.374168    2.197555   -0.525427
| 22> H         2.716278    2.301412    1.207725
| 23> H         1.055411    2.091966    0.645993
| 24> H         3.688397   -0.436673    0.207997
| 25> H         1.960496   -0.515917    1.891143
| 26> *
| 27>
| 28> $new_job
| 29> ! ri-mp2 aug-cc-pvtz aug-cc-pvtz/c tightscf
| 30> %pal nprocs 16 end
| 31> %maxcore 3800
| 32> %base "TZ_Si-S_32_AB"
| 33>
| 34> *xyz 0 1
| 35> Si         2.304445   -0.031117    0.535801
| 36> S         1.098915   -1.045699   -0.913923
| 37> C        -0.500136   -0.454442   -0.385584
| 38> C        -1.146742   -1.039986    0.694968
| 39> C        -2.393719   -0.585415    1.087500
| 40> C        -1.117985    0.580364   -1.075053
| 41> C        -2.367544    1.028392   -0.682334
| 42> C        -3.006876    0.449123    0.400761
| 43> H        -3.982753    0.801056    0.707249
| 44> H        -2.889328   -1.045787    1.931905
| 45> H        -0.668679   -1.852640    1.224391
| 46> H        -0.613747    1.031508   -1.918458
| 47> H        -2.841996    1.834714   -1.225822
| 48> C         2.092481    1.815235    0.455554
| 49> H         2.374168    2.197555   -0.525427
| 50> H         2.716278    2.301412    1.207725
| 51> H         1.055411    2.091966    0.645993
| 52> H         3.688397   -0.436673    0.207997
| 53> H         1.960496   -0.515917    1.891143
| 54> *
| 55>
| 56> $new_job
| 57> ! ri-mp2 aug-cc-pvqz aug-cc-pvqz/c tightscf
| 58> %pal nprocs 16 end
| 59> %maxcore 3800
| 60> %base "QZ_Si-S_32_AB"
| 61>
| 62> *xyz 0 1
| 63> Si         2.304445   -0.031117    0.535801
| 64> S         1.098915   -1.045699   -0.913923
| 65> C        -0.500136   -0.454442   -0.385584
| 66> C        -1.146742   -1.039986    0.694968
| 67> C        -2.393719   -0.585415    1.087500
| 68> C        -1.117985    0.580364   -1.075053
| 69> C        -2.367544    1.028392   -0.682334
| 70> C        -3.006876    0.449123    0.400761
| 71> H        -3.982753    0.801056    0.707249
| 72> H        -2.889328   -1.045787    1.931905
| 73> H        -0.668679   -1.852640    1.224391
| 74> H        -0.613747    1.031508   -1.918458
| 75> H        -2.841996    1.834714   -1.225822
| 76> C         2.092481    1.815235    0.455554
| 77> H         2.374168    2.197555   -0.525427
| 78> H         2.716278    2.301412    1.207725
| 79> H         1.055411    2.091966    0.645993
| 80> H         3.688397   -0.436673    0.207997
| 81> H         1.960496   -0.515917    1.891143
| 82> *
| 83>
| 84>
| 85>
| 86>
| 87>                          ****END OF INPUT****
 Total Charge           Charge          ....    0
 Multiplicity           Mult            ....    1
 Number of Electrons    NEL             ....   82
MP2 TOTAL ENERGY:     -958.638974974 Eh
FINAL SINGLE POINT ENERGY      -958.638974974091
MP2 TOTAL ENERGY:     -958.972028350 Eh
FINAL SINGLE POINT ENERGY      -958.972028350076

CARTESIAN COORDINATES (ANGSTROEM)
---------------------------------
  Si     2.304445   -0.031117    0.535801
  S      1.098915   -1.045699   -0.913923
  C     -0.500136   -0.454442   -0.385584
  C     -1.146742   -1.039986    0.694968
  C     -2.393719   -0.585415    1.087500
  C     -1.117985    0.580364   -1.075053
  C     -2.367544    1.028392   -0.682334
  C     -3.006876    0.449123    0.400761
  H     -3.982753    0.801056    0.707249
  H     -2.889328   -1.045787    1.931905
  H     -0.668679   -1.852640    1.224391
  H     -0.613747    1.031508   -1.918458
  H     -2.841996    1.834714   -1.225822
  C      2.092481    1.815235    0.455554
  H      2.374168    2.197555   -0.525427
  H      2.716278    2.301412    1.207725
  H      1.055411    2.091966    0.645993
  H      3.688397   -0.436673    0.207997
  H      1.960496   -0.515917    1.891143

 Multiplicity           Mult            ....    1
 Number of Electrons    NEL             ....   82
 Basis Dimension        Dim             .... 1188

ORBITAL ENERGIES
----------------

  NO   OCC          E(Eh)            E(eV)
   0   2.0000     -91.938916     -2501.7851
   1   2.0000     -68.783794     -1871.7022
   2   2.0000     -11.269600      -306.6614
   3   2.0000     -11.241540      -305.8978
   4   2.0000     -11.241377      -305.8934
   5   2.0000     -11.240663      -305.8740
   6   2.0000     -11.239850      -305.8519
   7   2.0000     -11.239170      -305.8334
   8   2.0000     -11.207801      -304.9798
   9   2.0000      -8.943250      -243.3582
  10   2.0000      -6.624752      -180.2687
  11   2.0000      -6.623977      -180.2476
  12   2.0000      -6.623306      -180.2293
  13   2.0000      -6.131210      -166.8387
  14   2.0000      -4.238000      -115.3219
  15   2.0000      -4.237364      -115.3045
  16   2.0000      -4.236873      -115.2912
  17   2.0000      -1.170967       -31.8636
  18   2.0000      -1.055091       -28.7105
  19   2.0000      -1.027714       -27.9655
  20   2.0000      -0.959151       -26.0998
  21   2.0000      -0.931946       -25.3595
  22   2.0000      -0.838988       -22.8300
  23   2.0000      -0.809169       -22.0186
  24   2.0000      -0.710502       -19.3337
  25   2.0000      -0.678733       -18.4693
  26   2.0000      -0.640300       -17.4234
  27   2.0000      -0.632920       -17.2226
  28   2.0000      -0.597626       -16.2622
  29   2.0000      -0.573221       -15.5981
  30   2.0000      -0.569945       -15.5090
  31   2.0000      -0.559262       -15.2183
  32   2.0000      -0.524743       -14.2790
  33   2.0000      -0.506016       -13.7694
  34   2.0000      -0.492504       -13.4017
  35   2.0000      -0.473689       -12.8897
  36   2.0000      -0.465146       -12.6573
  37   2.0000      -0.439103       -11.9486
  38   2.0000      -0.364412        -9.9162
  39   2.0000      -0.348165        -9.4741
  40   2.0000      -0.332801        -9.0560
  41   0.0000       0.022133         0.6023
  42   0.0000       0.028100         0.7646
  43   0.0000       0.028675         0.7803
  44   0.0000       0.035798         0.9741
  45   0.0000       0.040514         1.1024

MULLIKEN ATOMIC CHARGES
-----------------------
   0 Si:    1.028701
   1 S :   -0.456126
   2 C :   -0.058497
   3 C :   -0.327457
   4 C :   -0.223528
   5 C :   -0.360301
   6 C :   -0.206111
   7 C :   -0.278868
   8 H :    0.343176
   9 H :    0.255032
  10 H :    0.404983
  11 H :    0.361923
  12 H :    0.258314
  13 C :   -1.041589
  14 H :    0.253830
  15 H :    0.312136
  16 H :    0.297191
  17 H :   -0.332964
  18 H :   -0.229846
Sum of atomic charges:    0.0000000

LOEWDIN ATOMIC CHARGES
----------------------
   0 Si:    0.355290
   1 S :    1.192334
   2 C :   -0.624294
   3 C :    0.215171
   4 C :    0.336270
   5 C :    0.215012
   6 C :    0.334246
   7 C :    0.335056
   8 H :   -0.320249
   9 H :   -0.318957
  10 H :   -0.344918
  11 H :   -0.342734
  12 H :   -0.319281
  13 C :    0.878972
  14 H :   -0.357860
  15 H :   -0.356162
  16 H :   -0.365240
  17 H :   -0.269350
  18 H :   -0.243306

  Mayer bond orders larger than 0.100000
B(  0-Si,  1-S ) :   0.8573 B(  0-Si, 13-C ) :   0.8491 B(  0-Si, 17-H ) :   0.7475
B(  0-Si, 18-H ) :   0.7855 B(  1-S ,  2-C ) :   0.9316 B(  1-S ,  3-C ) :  -0.2224
B(  1-S ,  5-C ) :  -0.1442 B(  2-C ,  3-C ) :   1.0509 B(  2-C ,  4-C ) :  -0.2042
B(  2-C ,  5-C ) :   1.0430 B(  2-C ,  6-C ) :  -0.1999 B(  3-C ,  4-C ) :   1.2787
B(  3-C ,  6-C ) :   0.1388 B(  3-C ,  9-H ) :  -0.1269 B(  3-C , 10-H ) :   0.8807
B(  4-C ,  5-C ) :   0.1350 B(  4-C ,  6-C ) :  -0.1052 B(  4-C ,  7-C ) :   1.1029
B(  4-C ,  9-H ) :   1.1067 B(  5-C ,  6-C ) :   1.3311 B(  5-C , 11-H ) :   0.9346
B(  5-C , 12-H ) :  -0.1261 B(  6-C ,  7-C ) :   1.0857 B(  6-C , 12-H ) :   1.1036
B(  7-C ,  8-H ) :   0.9803 B(  7-C ,  9-H ) :  -0.1074 B(  7-C , 12-H ) :  -0.1129
B( 13-C , 14-H ) :   0.9376 B( 13-C , 15-H ) :   0.9402 B( 13-C , 16-H ) :   0.9048

MP2 TOTAL ENERGY:     -959.077677794 Eh
FINAL SINGLE POINT ENERGY      -959.077677794011

DIPOLE MOMENT
-------------
                                X             Y             Z
Electronic contribution:     -0.99241      -5.78726      -3.72022
Nuclear contribution   :      0.62322       6.42878       4.13429
                        -----------------------------------------
Total Dipole Moment    :     -0.36919       0.64152       0.41406
                        -----------------------------------------
Magnitude (a.u.)       :      0.84811
Magnitude (Debye)      :      2.15573

Rotational constants in cm-1:     0.071722     0.024764     0.023318
Rotational constants in MHz :  2150.162661   742.418683   699.048879

                             ****ORCA TERMINATED NORMALLY****
TOTAL RUN TIME: 0 days 0 hours 49 minutes 32 seconds 836 msec
