                         Program Version 5.0.4 -  RELEASE  -
|  1> ! ri-mp2 aug-cc-pvdz aug-cc-pvdz/c tightscf
|  2> %pal nprocs 16 end
|  3> %maxcore 3800
|  4> %base "DZ_B-F_33_AB"
|  5> %scf
|  6> STABPerform true
|  7> STABRestartUHFifUnstable true
|  8> end
|  9>
| 10> *xyz 0 1
| 11> F        -1.590315   -0.998683    0.000028
| 12> F        -1.287103    1.235642   -0.000029
| 13> B        -0.775048    0.018436    0.000002
| 14> C         0.811130   -0.191316    0.000004
| 15> O         1.298746   -1.302875   -0.000024
| 16> N         1.549103    0.945412    0.000019
| 17> H         1.117677    1.852297    0.000029
| 18> H         2.553852    0.875898    0.000011
| 19> *
| 20>
| 21> $new_job
| 22> ! ri-mp2 aug-cc-pvtz aug-cc-pvtz/c tightscf
| 23> %pal nprocs 16 end
| 24> %maxcore 3800
| 25> %base "TZ_B-F_33_AB"
| 26>
| 27> *xyz 0 1
| 28> F        -1.590315   -0.998683    0.000028
| 29> F        -1.287103    1.235642   -0.000029
| 30> B        -0.775048    0.018436    0.000002
| 31> C         0.811130   -0.191316    0.000004
| 32> O         1.298746   -1.302875   -0.000024
| 33> N         1.549103    0.945412    0.000019
| 34> H         1.117677    1.852297    0.000029
| 35> H         2.553852    0.875898    0.000011
| 36> *
| 37>
| 38> $new_job
| 39> ! ri-mp2 aug-cc-pvqz aug-cc-pvqz/c tightscf
| 40> %pal nprocs 16 end
| 41> %maxcore 3800
| 42> %base "QZ_B-F_33_AB"
| 43>
| 44> *xyz 0 1
| 45> F        -1.590315   -0.998683    0.000028
| 46> F        -1.287103    1.235642   -0.000029
| 47> B        -0.775048    0.018436    0.000002
| 48> C         0.811130   -0.191316    0.000004
| 49> O         1.298746   -1.302875   -0.000024
| 50> N         1.549103    0.945412    0.000019
| 51> H         1.117677    1.852297    0.000029
| 52> H         2.553852    0.875898    0.000011
| 53> *
| 54>
| 55>
| 56>
| 57>
| 58>                          ****END OF INPUT****
 Total Charge           Charge          ....    0
 Multiplicity           Mult            ....    1
 Number of Electrons    NEL             ....   46
MP2 TOTAL ENERGY:     -393.075546550 Eh
FINAL SINGLE POINT ENERGY      -393.075546549845
MP2 TOTAL ENERGY:     -393.413276365 Eh
FINAL SINGLE POINT ENERGY      -393.413276364875

CARTESIAN COORDINATES (ANGSTROEM)
---------------------------------
  F     -1.590315   -0.998683    0.000028
  F     -1.287103    1.235642   -0.000029
  B     -0.775048    0.018436    0.000002
  C      0.811130   -0.191316    0.000004
  O      1.298746   -1.302875   -0.000024
  N      1.549103    0.945412    0.000019
  H      1.117677    1.852297    0.000029
  H      2.553852    0.875898    0.000011

 Multiplicity           Mult            ....    1
 Number of Electrons    NEL             ....   46
 Basis Dimension        Dim             ....  572

ORBITAL ENERGIES
----------------

  NO   OCC          E(Eh)            E(eV)
   0   2.0000     -26.339775      -716.7417
   1   2.0000     -26.331107      -716.5059
   2   2.0000     -20.541617      -558.9658
   3   2.0000     -15.603122      -424.5825
   4   2.0000     -11.354640      -308.9755
   5   2.0000      -7.737737      -210.5545
   6   2.0000      -1.670286       -45.4508
   7   2.0000      -1.638392       -44.5829
   8   2.0000      -1.400199       -38.1013
   9   2.0000      -1.230896       -33.4944
  10   2.0000      -0.884807       -24.0768
  11   2.0000      -0.830275       -22.5929
  12   2.0000      -0.787385       -21.4258
  13   2.0000      -0.780297       -21.2330
  14   2.0000      -0.737899       -20.0793
  15   2.0000      -0.720527       -19.6065
  16   2.0000      -0.681469       -18.5437
  17   2.0000      -0.681085       -18.5333
  18   2.0000      -0.663792       -18.0627
  19   2.0000      -0.601515       -16.3680
  20   2.0000      -0.586367       -15.9559
  21   2.0000      -0.440613       -11.9897
  22   2.0000      -0.430702       -11.7200
  23   0.0000       0.018018         0.4903
  24   0.0000       0.034357         0.9349
  25   0.0000       0.036784         1.0009
  26   0.0000       0.041118         1.1189
  27   0.0000       0.052668         1.4332

MULLIKEN ATOMIC CHARGES
-----------------------
   0 F :   -0.759472
   1 F :   -0.777639
   2 B :    1.747400
   3 C :    0.598208
   4 O :   -0.717336
   5 N :   -0.657964
   6 H :    0.330734
   7 H :    0.236070
Sum of atomic charges:    0.0000000

LOEWDIN ATOMIC CHARGES
----------------------
   0 F :    0.832300
   1 F :    0.827035
   2 B :   -1.758243
   3 C :   -0.749071
   4 O :    0.657305
   5 N :    1.203776
   6 H :   -0.521947
   7 H :   -0.491154

  Mayer bond orders larger than 0.100000
B(  0-F ,  2-B ) :   0.3995 B(  1-F ,  2-B ) :   0.3582 B(  2-B ,  3-C ) :   0.9236
B(  3-C ,  4-O ) :   1.5244 B(  3-C ,  5-N ) :   1.1504 B(  4-O ,  5-N ) :   0.1095
B(  5-N ,  6-H ) :   0.8815 B(  5-N ,  7-H ) :   0.9783

MP2 TOTAL ENERGY:     -393.523419873 Eh
FINAL SINGLE POINT ENERGY      -393.523419873496

DIPOLE MOMENT
-------------
                                X             Y             Z
Electronic contribution:     -6.41601      -0.79679      -0.00001
Nuclear contribution   :      6.66957       2.29318       0.00004
                        -----------------------------------------
Total Dipole Moment    :      0.25356       1.49639       0.00003
                        -----------------------------------------
Magnitude (a.u.)       :      1.51772
Magnitude (Debye)      :      3.85775

Rotational constants in cm-1:     0.183321     0.104003     0.066357
Rotational constants in MHz :  5495.821087  3117.933292  1989.330411

                             ****ORCA TERMINATED NORMALLY****
TOTAL RUN TIME: 0 days 0 hours 13 minutes 43 seconds 588 msec
