                         Program Version 5.0.4 -  RELEASE  -
|  1> ! ri-mp2 aug-cc-pvdz aug-cc-pvdz/c tightscf
|  2> %pal nprocs 16 end
|  3> %maxcore 3800
|  4> %base "DZ_P-Cl_19_AB"
|  5> %scf
|  6> STABPerform true
|  7> STABRestartUHFifUnstable true
|  8> end
|  9>
| 10> *xyz 0 1
| 11> F        -1.545482    0.554275    1.235551
| 12> P        -1.320061   -1.118722   -0.912725
| 13> C        -1.546701    0.554691   -0.134634
| 14> Cl       -2.614724   -2.214811    0.225703
| 15> P        -0.308236    1.702566   -0.912857
| 16> C         0.292860   -1.616502   -0.133252
| 17> C         1.253837    1.061839   -0.134121
| 18> Cl       -0.610767    3.371520    0.225843
| 19> F         0.292211   -1.613139    1.236968
| 20> P         1.628691   -0.584489   -0.912642
| 21> F         1.252325    1.060466    1.236075
| 22> Cl        3.225630   -1.156975    0.225610
| 23> H         2.049487    1.735761   -0.468134
| 24> H         0.478795   -2.642808   -0.466290
| 25> H        -2.528025    0.906660   -0.469177
| 26> *
| 27>
| 28> $new_job
| 29> ! ri-mp2 aug-cc-pvtz aug-cc-pvtz/c tightscf
| 30> %pal nprocs 16 end
| 31> %maxcore 3800
| 32> %base "TZ_P-Cl_19_AB"
| 33>
| 34> *xyz 0 1
| 35> F        -1.545482    0.554275    1.235551
| 36> P        -1.320061   -1.118722   -0.912725
| 37> C        -1.546701    0.554691   -0.134634
| 38> Cl       -2.614724   -2.214811    0.225703
| 39> P        -0.308236    1.702566   -0.912857
| 40> C         0.292860   -1.616502   -0.133252
| 41> C         1.253837    1.061839   -0.134121
| 42> Cl       -0.610767    3.371520    0.225843
| 43> F         0.292211   -1.613139    1.236968
| 44> P         1.628691   -0.584489   -0.912642
| 45> F         1.252325    1.060466    1.236075
| 46> Cl        3.225630   -1.156975    0.225610
| 47> H         2.049487    1.735761   -0.468134
| 48> H         0.478795   -2.642808   -0.466290
| 49> H        -2.528025    0.906660   -0.469177
| 50> *
| 51>
| 52> $new_job
| 53> ! ri-mp2 aug-cc-pvqz aug-cc-pvqz/c tightscf
| 54> %pal nprocs 16 end
| 55> %maxcore 3800
| 56> %base "QZ_P-Cl_19_AB"
| 57>
| 58> *xyz 0 1
| 59> F        -1.545482    0.554275    1.235551
| 60> P        -1.320061   -1.118722   -0.912725
| 61> C        -1.546701    0.554691   -0.134634
| 62> Cl       -2.614724   -2.214811    0.225703
| 63> P        -0.308236    1.702566   -0.912857
| 64> C         0.292860   -1.616502   -0.133252
| 65> C         1.253837    1.061839   -0.134121
| 66> Cl       -0.610767    3.371520    0.225843
| 67> F         0.292211   -1.613139    1.236968
| 68> P         1.628691   -0.584489   -0.912642
| 69> F         1.252325    1.060466    1.236075
| 70> Cl        3.225630   -1.156975    0.225610
| 71> H         2.049487    1.735761   -0.468134
| 72> H         0.478795   -2.642808   -0.466290
| 73> H        -2.528025    0.906660   -0.469177
| 74> *
| 75>
| 76>
| 77>
| 78>
| 79>                          ****END OF INPUT****
 Total Charge           Charge          ....    0
 Multiplicity           Mult            ....    1
 Number of Electrons    NEL             ....  144
MP2 TOTAL ENERGY:    -2816.298491166 Eh
FINAL SINGLE POINT ENERGY     -2816.298491165604
MP2 TOTAL ENERGY:    -2816.959217441 Eh
FINAL SINGLE POINT ENERGY     -2816.959217440655

CARTESIAN COORDINATES (ANGSTROEM)
---------------------------------
  F     -1.545482    0.554275    1.235551
  P     -1.320061   -1.118722   -0.912725
  C     -1.546701    0.554691   -0.134634
  Cl    -2.614724   -2.214811    0.225703
  P     -0.308236    1.702566   -0.912857
  C      0.292860   -1.616502   -0.133252
  C      1.253837    1.061839   -0.134121
  Cl    -0.610767    3.371520    0.225843
  F      0.292211   -1.613139    1.236968
  P      1.628691   -0.584489   -0.912642
  F      1.252325    1.060466    1.236075
  Cl     3.225630   -1.156975    0.225610
  H      2.049487    1.735761   -0.468134
  H      0.478795   -2.642808   -0.466290
  H     -2.528025    0.906660   -0.469177

 Multiplicity           Mult            ....    1
 Number of Electrons    NEL             ....  144
 Basis Dimension        Dim             .... 1122

ORBITAL ENERGIES
----------------

  NO   OCC          E(Eh)            E(eV)
   0   2.0000    -104.857204     -2853.3096
   1   2.0000    -104.857201     -2853.3095
   2   2.0000    -104.857198     -2853.3094
   3   2.0000     -80.030669     -2177.7452
   4   2.0000     -80.030668     -2177.7452
   5   2.0000     -80.030667     -2177.7452
   6   2.0000     -26.309977      -715.9309
   7   2.0000     -26.309974      -715.9308
   8   2.0000     -26.309968      -715.9306
   9   2.0000     -11.359187      -309.0992
  10   2.0000     -11.359183      -309.0991
  11   2.0000     -11.359171      -309.0987
  12   2.0000     -10.583419      -287.9895
  13   2.0000     -10.583416      -287.9894
  14   2.0000     -10.583412      -287.9893
  15   2.0000      -8.050300      -219.0598
  16   2.0000      -8.050297      -219.0597
  17   2.0000      -8.050294      -219.0596
  18   2.0000      -8.048753      -219.0177
  19   2.0000      -8.048750      -219.0176
  20   2.0000      -8.048746      -219.0175
  21   2.0000      -8.048612      -219.0139
  22   2.0000      -8.048609      -219.0138
  23   2.0000      -8.048606      -219.0137
  24   2.0000      -7.568700      -205.9548
  25   2.0000      -7.568699      -205.9548
  26   2.0000      -7.568697      -205.9547
  27   2.0000      -5.462427      -148.6402
  28   2.0000      -5.462411      -148.6398
  29   2.0000      -5.462409      -148.6397
  30   2.0000      -5.461667      -148.6195
  31   2.0000      -5.461661      -148.6194
  32   2.0000      -5.461659      -148.6193
  33   2.0000      -5.460719      -148.5937
  34   2.0000      -5.460717      -148.5937
  35   2.0000      -5.460711      -148.5935
  36   2.0000      -1.630231       -44.3609
  37   2.0000      -1.623868       -44.1877
  38   2.0000      -1.623840       -44.1869
  39   2.0000      -1.152928       -31.3728
  40   2.0000      -1.140188       -31.0261
  41   2.0000      -1.140184       -31.0260
  42   2.0000      -1.054503       -28.6945
  43   2.0000      -0.996387       -27.1131
  44   2.0000      -0.996384       -27.1130
  45   2.0000      -0.825500       -22.4630
  46   2.0000      -0.825491       -22.4627
  47   2.0000      -0.803351       -21.8603
  48   2.0000      -0.752913       -20.4878
  49   2.0000      -0.731690       -19.9103
  50   2.0000      -0.731669       -19.9097
  51   2.0000      -0.710323       -19.3289
  52   2.0000      -0.700112       -19.0510
  53   2.0000      -0.700088       -19.0504
  54   2.0000      -0.675903       -18.3923
  55   2.0000      -0.675869       -18.3913
  56   2.0000      -0.638855       -17.3841
  57   2.0000      -0.610351       -16.6085
  58   2.0000      -0.552158       -15.0250
  59   2.0000      -0.552157       -15.0250
  60   2.0000      -0.546228       -14.8636
  61   2.0000      -0.520721       -14.1695
  62   2.0000      -0.513272       -13.9668
  63   2.0000      -0.513264       -13.9666
  64   2.0000      -0.509713       -13.8700
  65   2.0000      -0.509706       -13.8698
  66   2.0000      -0.473259       -12.8780
  67   2.0000      -0.473241       -12.8775
  68   2.0000      -0.448586       -12.2066
  69   2.0000      -0.431696       -11.7470
  70   2.0000      -0.387502       -10.5445
  71   2.0000      -0.387496       -10.5443
  72   0.0000       0.020780         0.5654
  73   0.0000       0.027447         0.7469
  74   0.0000       0.029675         0.8075
  75   0.0000       0.029676         0.8075
  76   0.0000       0.049520         1.3475

MULLIKEN ATOMIC CHARGES
-----------------------
   0 F :   -0.734375
   1 P :    0.769089
   2 C :    0.041304
   3 Cl:   -0.532304
   4 P :    0.769017
   5 C :    0.041363
   6 C :    0.041304
   7 Cl:   -0.532249
   8 F :   -0.734305
   9 P :    0.769138
  10 F :   -0.734354
  11 Cl:   -0.532334
  12 H :    0.456252
  13 H :    0.456137
  14 H :    0.456316
Sum of atomic charges:    0.0000000

LOEWDIN ATOMIC CHARGES
----------------------
   0 F :    0.699971
   1 P :   -0.022549
   2 C :   -0.964854
   3 Cl:    0.818987
   4 P :   -0.022460
   5 C :   -0.964870
   6 C :   -0.964856
   7 Cl:    0.818995
   8 F :    0.700010
   9 P :   -0.022606
  10 F :    0.699987
  11 Cl:    0.818987
  12 H :   -0.531586
  13 H :   -0.531553
  14 H :   -0.531602

  Mayer bond orders larger than 0.100000
B(  0-F ,  2-C ) :   0.4921 B(  1-P ,  2-C ) :   0.8170 B(  1-P ,  3-Cl) :   0.8675
B(  1-P ,  5-C ) :   0.8171 B(  2-C ,  4-P ) :   0.8170 B(  2-C , 14-H ) :   0.8474
B(  4-P ,  6-C ) :   0.8170 B(  4-P ,  7-Cl) :   0.8675 B(  5-C ,  8-F ) :   0.4921
B(  5-C ,  9-P ) :   0.8171 B(  5-C , 13-H ) :   0.8476 B(  6-C ,  9-P ) :   0.8171
B(  6-C , 10-F ) :   0.4921 B(  6-C , 12-H ) :   0.8475 B(  9-P , 11-Cl) :   0.8674

MP2 TOTAL ENERGY:    -2817.176531983 Eh
FINAL SINGLE POINT ENERGY     -2817.176531982934

DIPOLE MOMENT
-------------
                                X             Y             Z
Electronic contribution:     -0.00025       0.00039       1.85375
Nuclear contribution   :      0.00056      -0.00089      -3.13831
                        -----------------------------------------
Total Dipole Moment    :      0.00031      -0.00050      -1.28456
                        -----------------------------------------
Magnitude (a.u.)       :      1.28456
Magnitude (Debye)      :      3.26509

Rotational constants in cm-1:     0.015742     0.015738     0.009368
Rotational constants in MHz :   471.935172   471.826303   280.831647

                             ****ORCA TERMINATED NORMALLY****
TOTAL RUN TIME: 0 days 2 hours 50 minutes 3 seconds 471 msec
