                         Program Version 5.0.4 -  RELEASE  -
|  1> ! ri-mp2 aug-cc-pvdz aug-cc-pvdz/c tightscf
|  2> %pal nprocs 16 end
|  3> %maxcore 3800
|  4> %base "DZ_B-F_23_A"
|  5> %scf
|  6> STABPerform true
|  7> STABRestartUHFifUnstable true
|  8> end
|  9>
| 10> *xyz 0 2
| 11> F         2.468398   -0.026645    0.068493
| 12> B         1.378762   -0.641023    0.395647
| 13> P        -0.406136   -0.069297   -0.094146
| 14> O        -0.892391   -0.792981   -1.269416
| 15> O        -1.317297   -0.266531    1.202898
| 16> H        -1.795125   -1.104615    1.189079
| 17> O        -0.304366    1.512435   -0.173114
| 18> H        -1.109779    1.965600   -0.454511
| 19> *
| 20>
| 21> $new_job
| 22> ! ri-mp2 aug-cc-pvtz aug-cc-pvtz/c tightscf
| 23> %pal nprocs 16 end
| 24> %maxcore 3800
| 25> %base "TZ_B-F_23_A"
| 26>
| 27> *xyz 0 2
| 28> F         2.468398   -0.026645    0.068493
| 29> B         1.378762   -0.641023    0.395647
| 30> P        -0.406136   -0.069297   -0.094146
| 31> O        -0.892391   -0.792981   -1.269416
| 32> O        -1.317297   -0.266531    1.202898
| 33> H        -1.795125   -1.104615    1.189079
| 34> O        -0.304366    1.512435   -0.173114
| 35> H        -1.109779    1.965600   -0.454511
| 36> *
| 37>
| 38> $new_job
| 39> ! ri-mp2 aug-cc-pvqz aug-cc-pvqz/c tightscf
| 40> %pal nprocs 16 end
| 41> %maxcore 3800
| 42> %base "QZ_B-F_23_A"
| 43>
| 44> *xyz 0 2
| 45> F         2.468398   -0.026645    0.068493
| 46> B         1.378762   -0.641023    0.395647
| 47> P        -0.406136   -0.069297   -0.094146
| 48> O        -0.892391   -0.792981   -1.269416
| 49> O        -1.317297   -0.266531    1.202898
| 50> H        -1.795125   -1.104615    1.189079
| 51> O        -0.304366    1.512435   -0.173114
| 52> H        -1.109779    1.965600   -0.454511
| 53> *
| 54>
| 55>
| 56>
| 57>
| 58>                          ****END OF INPUT****
 Total Charge           Charge          ....    0
 Multiplicity           Mult            ....    2
 Number of Electrons    NEL             ....   55
MP2 TOTAL ENERGY:     -691.692543453 Eh
FINAL SINGLE POINT ENERGY      -691.692543453046
MP2 TOTAL ENERGY:     -692.065465846 Eh
FINAL SINGLE POINT ENERGY      -692.065465846435

CARTESIAN COORDINATES (ANGSTROEM)
---------------------------------
  F      2.468398   -0.026645    0.068493
  B      1.378762   -0.641023    0.395647
  P     -0.406136   -0.069297   -0.094146
  O     -0.892391   -0.792981   -1.269416
  O     -1.317297   -0.266531    1.202898
  H     -1.795125   -1.104615    1.189079
  O     -0.304366    1.512435   -0.173114
  H     -1.109779    1.965600   -0.454511

 Multiplicity           Mult            ....    2
 Number of Electrons    NEL             ....   55
 Basis Dimension        Dim             ....  576

ORBITAL ENERGIES
----------------
                 SPIN UP ORBITALS
  NO   OCC          E(Eh)            E(eV)
   0   1.0000     -80.076903     -2179.0033
   1   1.0000     -26.349900      -717.0172
   2   1.0000     -20.613869      -560.9319
   3   1.0000     -20.611259      -560.8609
   4   1.0000     -20.518145      -558.3271
   5   1.0000      -7.719715      -210.0641
   6   1.0000      -7.600715      -206.8260
   7   1.0000      -5.498729      -149.6280
   8   1.0000      -5.498084      -149.6105
   9   1.0000      -5.497116      -149.5841
  10   1.0000      -1.669361       -45.4256
  11   1.0000      -1.450366       -39.4665
  12   1.0000      -1.397221       -38.0203
  13   1.0000      -1.310545       -35.6618
  14   1.0000      -0.890567       -24.2335
  15   1.0000      -0.827567       -22.5193
  16   1.0000      -0.770343       -20.9621
  17   1.0000      -0.745697       -20.2915
  18   1.0000      -0.717172       -19.5152
  19   1.0000      -0.697652       -18.9841
  20   1.0000      -0.673735       -18.3332
  21   1.0000      -0.631509       -17.1842
  22   1.0000      -0.584379       -15.9018
  23   1.0000      -0.575756       -15.6671
  24   1.0000      -0.539573       -14.6825
  25   1.0000      -0.480995       -13.0885
  26   1.0000      -0.476862       -12.9761
  27   1.0000      -0.371738       -10.1155
  28   0.0000       0.021458         0.5839
  29   0.0000       0.030590         0.8324
  30   0.0000       0.034216         0.9311
  31   0.0000       0.036285         0.9874
  32   0.0000       0.051020         1.3883

                 SPIN DOWN ORBITALS
  NO   OCC          E(Eh)            E(eV)
   0   1.0000     -80.075673     -2178.9698
   1   1.0000     -26.346596      -716.9273
   2   1.0000     -20.612811      -560.9031
   3   1.0000     -20.611644      -560.8713
   4   1.0000     -20.517870      -558.3196
   5   1.0000      -7.700671      -209.5459
   6   1.0000      -7.598758      -206.7727
   7   1.0000      -5.497633      -149.5982
   8   1.0000      -5.496498      -149.5673
   9   1.0000      -5.494413      -149.5106
  10   1.0000      -1.660628       -45.1880
  11   1.0000      -1.448635       -39.4194
  12   1.0000      -1.396151       -37.9912
  13   1.0000      -1.309638       -35.6371
  14   1.0000      -0.878152       -23.8957
  15   1.0000      -0.816985       -22.2313
  16   1.0000      -0.763274       -20.7697
  17   1.0000      -0.719871       -19.5887
  18   1.0000      -0.717232       -19.5169
  19   1.0000      -0.686158       -18.6713
  20   1.0000      -0.668325       -18.1860
  21   1.0000      -0.626151       -17.0384
  22   1.0000      -0.580303       -15.7908
  23   1.0000      -0.575129       -15.6501
  24   1.0000      -0.528481       -14.3807
  25   1.0000      -0.477344       -12.9892
  26   1.0000      -0.461616       -12.5612
  27   0.0000       0.020169         0.5488
  28   0.0000       0.026791         0.7290
  29   0.0000       0.033888         0.9221
  30   0.0000       0.039970         1.0877
  31   0.0000       0.050517         1.3746

MULLIKEN ATOMIC CHARGES AND SPIN POPULATIONS
--------------------------------------------
   0 F :   -0.675637   -0.000270
   1 B :    0.655124    0.938182
   2 P :    2.050477    0.048629
   3 O :   -1.105915    0.004452
   4 O :   -0.820546   -0.006916
   5 H :    0.375923    0.001640
   6 O :   -0.846307    0.005328
   7 H :    0.366881    0.008955
Sum of atomic charges         :   -0.0000000

LOEWDIN ATOMIC CHARGES AND SPIN POPULATIONS
-------------------------------------------
   0 F :    0.688629    0.158360
   1 B :   -0.719971    0.609322
   2 P :   -0.625093    0.175656
   3 O :    0.257153    0.015054
   4 O :    1.056475    0.006507
   5 H :   -0.874072    0.002699
   6 O :    1.058289    0.028033
   7 H :   -0.841411    0.004369

  Mayer bond orders larger than 0.100000
B(  0-F ,  1-B ) :   0.4055 B(  1-B ,  2-P ) :   0.9492 B(  2-P ,  3-O ) :   1.4411
B(  2-P ,  4-O ) :   0.7025 B(  2-P ,  6-O ) :   0.6420 B(  4-O ,  5-H ) :   0.9145
B(  6-O ,  7-H ) :   0.9000

MP2 TOTAL ENERGY:     -692.186577850 Eh
FINAL SINGLE POINT ENERGY      -692.186577849767

DIPOLE MOMENT
-------------
                                X             Y             Z
Electronic contribution:      5.34847      -1.07719       0.43605
Nuclear contribution   :     -5.69310       1.37698       0.40461
                        -----------------------------------------
Total Dipole Moment    :     -0.34463       0.29979       0.84067
                        -----------------------------------------
Magnitude (a.u.)       :      0.95675
Magnitude (Debye)      :      2.43186

Rotational constants in cm-1:     0.152474     0.070271     0.068566
Rotational constants in MHz :  4571.052166  2106.670461  2055.561990

                             ****ORCA TERMINATED NORMALLY****
TOTAL RUN TIME: 0 days 0 hours 46 minutes 16 seconds 838 msec
