                         Program Version 5.0.4 -  RELEASE  -
|  1> ! ri-mp2 aug-cc-pvdz aug-cc-pvdz/c tightscf
|  2> %pal nprocs 16 end
|  3> %maxcore 3800
|  4> %base "DZ_B-P_63_AB"
|  5>
|  6> *xyz 0 1
|  7> C        -1.325230   -0.848099    0.795405
|  8> C         0.011574   -0.588752    1.030932
|  9> C        -2.046888    0.046346    0.031623
| 10> C        -1.470041    1.183413   -0.499699
| 11> C        -0.129501    1.420209   -0.270183
| 12> C         0.634498    0.538349    0.492025
| 13> H         0.330023    2.301779   -0.695641
| 14> H        -1.814738   -1.718633    1.204438
| 15> H         0.574410   -1.265538    1.662603
| 16> B         3.194988   -0.457431   -0.394707
| 17> O         2.546497   -1.542311   -0.889905
| 18> O         4.492187   -0.249994   -0.720646
| 19> N        -3.469424   -0.216115   -0.219016
| 20> O        -3.945169   -1.228077    0.249729
| 21> O        -4.082377    0.593994   -0.880504
| 22> H        -2.070493    1.859313   -1.089157
| 23> H         4.845306   -0.918054   -1.319322
| 24> H         1.610168   -1.594619   -0.674264
| 25> P         2.406030    0.805635    0.853752
| 26> H         2.610321    1.953495    0.061707
| 27> *
| 28>
| 29> $new_job
| 30> ! ri-mp2 aug-cc-pvtz aug-cc-pvtz/c tightscf
| 31> %pal nprocs 16 end
| 32> %maxcore 3800
| 33> %base "TZ_B-P_63_AB"
| 34>
| 35> *xyz 0 1
| 36> C        -1.325230   -0.848099    0.795405
| 37> C         0.011574   -0.588752    1.030932
| 38> C        -2.046888    0.046346    0.031623
| 39> C        -1.470041    1.183413   -0.499699
| 40> C        -0.129501    1.420209   -0.270183
| 41> C         0.634498    0.538349    0.492025
| 42> H         0.330023    2.301779   -0.695641
| 43> H        -1.814738   -1.718633    1.204438
| 44> H         0.574410   -1.265538    1.662603
| 45> B         3.194988   -0.457431   -0.394707
| 46> O         2.546497   -1.542311   -0.889905
| 47> O         4.492187   -0.249994   -0.720646
| 48> N        -3.469424   -0.216115   -0.219016
| 49> O        -3.945169   -1.228077    0.249729
| 50> O        -4.082377    0.593994   -0.880504
| 51> H        -2.070493    1.859313   -1.089157
| 52> H         4.845306   -0.918054   -1.319322
| 53> H         1.610168   -1.594619   -0.674264
| 54> P         2.406030    0.805635    0.853752
| 55> H         2.610321    1.953495    0.061707
| 56> *
| 57>
| 58> $new_job
| 59> ! ri-mp2 aug-cc-pvqz aug-cc-pvqz/c tightscf
| 60> %pal nprocs 16 end
| 61> %maxcore 3800
| 62> %base "QZ_B-P_63_AB"
| 63>
| 64> *xyz 0 1
| 65> C        -1.325230   -0.848099    0.795405
| 66> C         0.011574   -0.588752    1.030932
| 67> C        -2.046888    0.046346    0.031623
| 68> C        -1.470041    1.183413   -0.499699
| 69> C        -0.129501    1.420209   -0.270183
| 70> C         0.634498    0.538349    0.492025
| 71> H         0.330023    2.301779   -0.695641
| 72> H        -1.814738   -1.718633    1.204438
| 73> H         0.574410   -1.265538    1.662603
| 74> B         3.194988   -0.457431   -0.394707
| 75> O         2.546497   -1.542311   -0.889905
| 76> O         4.492187   -0.249994   -0.720646
| 77> N        -3.469424   -0.216115   -0.219016
| 78> O        -3.945169   -1.228077    0.249729
| 79> O        -4.082377    0.593994   -0.880504
| 80> H        -2.070493    1.859313   -1.089157
| 81> H         4.845306   -0.918054   -1.319322
| 82> H         1.610168   -1.594619   -0.674264
| 83> P         2.406030    0.805635    0.853752
| 84> H         2.610321    1.953495    0.061707
| 85> *
| 86>
| 87>
| 88>
| 89>
| 90>                          ****END OF INPUT****
 Total Charge           Charge          ....    0
 Multiplicity           Mult            ....    1
 Number of Electrons    NEL             ....  102
MP2 TOTAL ENERGY:     -952.677790040 Eh
FINAL SINGLE POINT ENERGY      -952.677790040260
MP2 TOTAL ENERGY:     -953.234971268 Eh
FINAL SINGLE POINT ENERGY      -953.234971268234

CARTESIAN COORDINATES (ANGSTROEM)
---------------------------------
  C     -1.325230   -0.848099    0.795405
  C      0.011574   -0.588752    1.030932
  C     -2.046888    0.046346    0.031623
  C     -1.470041    1.183413   -0.499699
  C     -0.129501    1.420209   -0.270183
  C      0.634498    0.538349    0.492025
  H      0.330023    2.301779   -0.695641
  H     -1.814738   -1.718633    1.204438
  H      0.574410   -1.265538    1.662603
  B      3.194988   -0.457431   -0.394707
  O      2.546497   -1.542311   -0.889905
  O      4.492187   -0.249994   -0.720646
  N     -3.469424   -0.216115   -0.219016
  O     -3.945169   -1.228077    0.249729
  O     -4.082377    0.593994   -0.880504
  H     -2.070493    1.859313   -1.089157
  H      4.845306   -0.918054   -1.319322
  H      1.610168   -1.594619   -0.674264
  P      2.406030    0.805635    0.853752
  H      2.610321    1.953495    0.061707

 Multiplicity           Mult            ....    1
 Number of Electrons    NEL             ....  102
 Basis Dimension        Dim             .... 1366

ORBITAL ENERGIES
----------------

  NO   OCC          E(Eh)            E(eV)
   0   2.0000     -79.946403     -2175.4522
   1   2.0000     -20.603652      -560.6539
   2   2.0000     -20.603472      -560.6490
   3   2.0000     -20.589709      -560.2745
   4   2.0000     -20.583425      -560.1035
   5   2.0000     -15.857329      -431.4999
   6   2.0000     -11.312772      -307.8362
   7   2.0000     -11.284998      -307.0804
   8   2.0000     -11.281631      -306.9888
   9   2.0000     -11.280036      -306.9454
  10   2.0000     -11.271005      -306.6996
  11   2.0000     -11.269367      -306.6551
  12   2.0000      -7.669117      -208.6873
  13   2.0000      -7.491718      -203.8600
  14   2.0000      -5.386017      -146.5610
  15   2.0000      -5.385449      -146.5455
  16   2.0000      -5.384943      -146.5318
  17   2.0000      -1.622007       -44.1371
  18   2.0000      -1.412219       -38.4284
  19   2.0000      -1.406959       -38.2853
  20   2.0000      -1.367346       -37.2074
  21   2.0000      -1.213387       -33.0179
  22   2.0000      -1.107164       -30.1275
  23   2.0000      -1.064278       -28.9605
  24   2.0000      -0.980230       -26.6734
  25   2.0000      -0.878152       -23.8957
  26   2.0000      -0.874811       -23.8048
  27   2.0000      -0.821541       -22.3553
  28   2.0000      -0.793191       -21.5838
  29   2.0000      -0.784229       -21.3400
  30   2.0000      -0.750420       -20.4200
  31   2.0000      -0.737804       -20.0767
  32   2.0000      -0.732538       -19.9334
  33   2.0000      -0.675898       -18.3921
  34   2.0000      -0.669568       -18.2199
  35   2.0000      -0.651835       -17.7373
  36   2.0000      -0.636354       -17.3161
  37   2.0000      -0.630577       -17.1589
  38   2.0000      -0.598322       -16.2812
  39   2.0000      -0.584255       -15.8984
  40   2.0000      -0.552576       -15.0364
  41   2.0000      -0.539818       -14.6892
  42   2.0000      -0.524385       -14.2692
  43   2.0000      -0.520231       -14.1562
  44   2.0000      -0.502081       -13.6623
  45   2.0000      -0.500130       -13.6092
  46   2.0000      -0.477487       -12.9931
  47   2.0000      -0.462387       -12.5822
  48   2.0000      -0.418545       -11.3892
  49   2.0000      -0.382050       -10.3961
  50   2.0000      -0.347989        -9.4693
  51   0.0000       0.016299         0.4435
  52   0.0000       0.024707         0.6723
  53   0.0000       0.025564         0.6956
  54   0.0000       0.027716         0.7542
  55   0.0000       0.035911         0.9772

MULLIKEN ATOMIC CHARGES
-----------------------
   0 C :   -0.104583
   1 C :   -0.076419
   2 C :   -0.196407
   3 C :   -0.204312
   4 C :   -0.372828
   5 C :    0.130430
   6 H :    0.236548
   7 H :    0.328708
   8 H :    0.239878
   9 B :    1.324508
  10 O :   -1.165386
  11 O :   -1.015720
  12 N :    0.823639
  13 O :   -0.626523
  14 O :   -0.621957
  15 H :    0.346974
  16 H :    0.322240
  17 H :    0.418918
  18 P :    0.318681
  19 H :   -0.106389
Sum of atomic charges:   -0.0000000

LOEWDIN ATOMIC CHARGES
----------------------
   0 C :    0.328802
   1 C :    0.254316
   2 C :   -0.303391
   3 C :    0.328504
   4 C :    0.288880
   5 C :   -0.309308
   6 H :   -0.338103
   7 H :   -0.342185
   8 H :   -0.325482
   9 B :   -1.406863
  10 O :    1.340966
  11 O :    1.281141
  12 N :   -0.847017
  13 O :    0.553578
  14 O :    0.554244
  15 H :   -0.343514
  16 H :   -0.796270
  17 H :   -0.854592
  18 P :    1.379263
  19 H :   -0.442969

  Mayer bond orders larger than 0.100000
B(  0-C ,  1-C ) :   1.3620 B(  0-C ,  2-C ) :   1.1862 B(  0-C ,  4-C ) :   0.1463
B(  0-C ,  5-C ) :  -0.2846 B(  0-C ,  7-H ) :   0.9047 B(  0-C ,  8-H ) :  -0.1241
B(  0-C , 12-N ) :  -0.1181 B(  1-C ,  2-C ) :  -0.1383 B(  1-C ,  3-C ) :   0.1079
B(  1-C ,  5-C ) :   0.8013 B(  1-C ,  8-H ) :   1.0663 B(  1-C , 13-O ) :  -0.1011
B(  1-C , 18-P ) :  -0.2485 B(  2-C ,  3-C ) :   1.2055 B(  2-C ,  4-C ) :  -0.1467
B(  2-C ,  5-C ) :  -0.1243 B(  2-C ,  7-H ) :  -0.1013 B(  2-C , 12-N ) :   0.7746
B(  2-C , 13-O ) :   0.3398 B(  2-C , 14-O ) :   0.3300 B(  2-C , 15-H ) :  -0.1008
B(  3-C ,  4-C ) :   1.3472 B(  3-C ,  5-C ) :  -0.2246 B(  3-C ,  6-H ) :  -0.1363
B(  3-C , 15-H ) :   0.8853 B(  4-C ,  5-C ) :   0.8583 B(  4-C ,  6-H ) :   1.0578
B(  4-C , 15-H ) :  -0.1103 B(  4-C , 18-P ) :  -0.1066 B(  5-C ,  8-H ) :  -0.1146
B(  5-C , 18-P ) :   0.8217 B(  5-C , 19-H ) :  -0.1019 B(  9-B , 10-O ) :   0.4722
B(  9-B , 11-O ) :   0.4316 B(  9-B , 18-P ) :   1.0457 B( 10-O , 11-O ) :  -0.1415
B( 10-O , 17-H ) :   0.8624 B( 10-O , 18-P ) :   0.1046 B( 11-O , 16-H ) :   0.9418
B( 11-O , 18-P ) :  -0.1589 B( 12-N , 13-O ) :   1.1570 B( 12-N , 14-O ) :   1.1592
B( 18-P , 19-H ) :   0.9665

MP2 TOTAL ENERGY:     -953.418830964 Eh
FINAL SINGLE POINT ENERGY      -953.418830963508

DIPOLE MOMENT
-------------
                                X             Y             Z
Electronic contribution:      0.21967      -0.10826       1.19192
Nuclear contribution   :      1.13939       0.17293      -1.33028
                        -----------------------------------------
Total Dipole Moment    :      1.35906       0.06467      -0.13836
                        -----------------------------------------
Magnitude (a.u.)       :      1.36761
Magnitude (Debye)      :      3.47619

Rotational constants in cm-1:     0.063746     0.010290     0.009832
Rotational constants in MHz :  1911.059430   308.483543   294.757061

                             ****ORCA TERMINATED NORMALLY****
TOTAL RUN TIME: 0 days 1 hours 5 minutes 17 seconds 120 msec
