                         Program Version 5.0.4 -  RELEASE  -
|  1> ! ri-mp2 aug-cc-pvdz aug-cc-pvdz/c tightscf
|  2> %pal nprocs 16 end
|  3> %maxcore 3800
|  4> %base "DZ_Si-Si_110_A"
|  5> %scf
|  6> STABPerform true
|  7> STABRestartUHFifUnstable true
|  8> end
|  9>
| 10> *xyz 0 2
| 11> Si        -2.455768    0.075654   -0.046068
| 12> O        -0.851445    0.594787   -0.046458
| 13> H        -2.751077   -0.680348    1.191917
| 14> H        -3.195275    1.360862   -0.071463
| 15> C         0.103752   -0.359999   -0.034371
| 16> O        -0.192740   -1.537361   -0.055856
| 17> N         1.359424    0.127595   -0.000363
| 18> C         1.683200    1.535864    0.037182
| 19> H         0.778133    2.129542    0.006259
| 20> H         2.311441    1.799642   -0.817005
| 21> H         2.233724    1.773399    0.950955
| 22> C         2.473189   -0.793729    0.019300
| 23> H         2.094749   -1.809217   -0.019952
| 24> H         3.060092   -0.661761    0.931435
| 25> H         3.125627   -0.616658   -0.838811
| 26> *
| 27>
| 28> $new_job
| 29> ! ri-mp2 aug-cc-pvtz aug-cc-pvtz/c tightscf
| 30> %pal nprocs 16 end
| 31> %maxcore 3800
| 32> %base "TZ_Si-Si_110_A"
| 33>
| 34> *xyz 0 2
| 35> Si        -2.455768    0.075654   -0.046068
| 36> O        -0.851445    0.594787   -0.046458
| 37> H        -2.751077   -0.680348    1.191917
| 38> H        -3.195275    1.360862   -0.071463
| 39> C         0.103752   -0.359999   -0.034371
| 40> O        -0.192740   -1.537361   -0.055856
| 41> N         1.359424    0.127595   -0.000363
| 42> C         1.683200    1.535864    0.037182
| 43> H         0.778133    2.129542    0.006259
| 44> H         2.311441    1.799642   -0.817005
| 45> H         2.233724    1.773399    0.950955
| 46> C         2.473189   -0.793729    0.019300
| 47> H         2.094749   -1.809217   -0.019952
| 48> H         3.060092   -0.661761    0.931435
| 49> H         3.125627   -0.616658   -0.838811
| 50> *
| 51>
| 52> $new_job
| 53> ! ri-mp2 aug-cc-pvqz aug-cc-pvqz/c tightscf
| 54> %pal nprocs 16 end
| 55> %maxcore 3800
| 56> %base "QZ_Si-Si_110_A"
| 57>
| 58> *xyz 0 2
| 59> Si        -2.455768    0.075654   -0.046068
| 60> O        -0.851445    0.594787   -0.046458
| 61> H        -2.751077   -0.680348    1.191917
| 62> H        -3.195275    1.360862   -0.071463
| 63> C         0.103752   -0.359999   -0.034371
| 64> O        -0.192740   -1.537361   -0.055856
| 65> N         1.359424    0.127595   -0.000363
| 66> C         1.683200    1.535864    0.037182
| 67> H         0.778133    2.129542    0.006259
| 68> H         2.311441    1.799642   -0.817005
| 69> H         2.233724    1.773399    0.950955
| 70> C         2.473189   -0.793729    0.019300
| 71> H         2.094749   -1.809217   -0.019952
| 72> H         3.060092   -0.661761    0.931435
| 73> H         3.125627   -0.616658   -0.838811
| 74> *
| 75>
| 76>
| 77>
| 78>
| 79>                          ****END OF INPUT****
 Total Charge           Charge          ....    0
 Multiplicity           Mult            ....    2
 Number of Electrons    NEL             ....   63
MP2 TOTAL ENERGY:     -612.505760066 Eh
FINAL SINGLE POINT ENERGY      -612.505760066146
MP2 TOTAL ENERGY:     -612.827670424 Eh
FINAL SINGLE POINT ENERGY      -612.827670423693

CARTESIAN COORDINATES (ANGSTROEM)
---------------------------------
  Si    -2.455768    0.075654   -0.046068
  O     -0.851445    0.594787   -0.046458
  H     -2.751077   -0.680348    1.191917
  H     -3.195275    1.360862   -0.071463
  C      0.103752   -0.359999   -0.034371
  O     -0.192740   -1.537361   -0.055856
  N      1.359424    0.127595   -0.000363
  C      1.683200    1.535864    0.037182
  H      0.778133    2.129542    0.006259
  H      2.311441    1.799642   -0.817005
  H      2.233724    1.773399    0.950955
  C      2.473189   -0.793729    0.019300
  H      2.094749   -1.809217   -0.019952
  H      3.060092   -0.661761    0.931435
  H      3.125627   -0.616658   -0.838811

 Multiplicity           Mult            ....    2
 Number of Electrons    NEL             ....   63
 Basis Dimension        Dim             ....  932

ORBITAL ENERGIES
----------------
                 SPIN UP ORBITALS
  NO   OCC          E(Eh)            E(eV)
   0   1.0000     -68.809931     -1872.4134
   1   1.0000     -20.589145      -560.2591
   2   1.0000     -20.522450      -558.4443
   3   1.0000     -15.594482      -424.3474
   4   1.0000     -11.403499      -310.3050
   5   1.0000     -11.266083      -306.5657
   6   1.0000     -11.259771      -306.3939
   7   1.0000      -6.155394      -167.4968
   8   1.0000      -4.267321      -116.1197
   9   1.0000      -4.258525      -115.8804
  10   1.0000      -4.257726      -115.8586
  11   1.0000      -1.460635       -39.7459
  12   1.0000      -1.345441       -36.6113
  13   1.0000      -1.262861       -34.3642
  14   1.0000      -0.982603       -26.7380
  15   1.0000      -0.958134       -26.0722
  16   1.0000      -0.809224       -22.0201
  17   1.0000      -0.730748       -19.8847
  18   1.0000      -0.706486       -19.2245
  19   1.0000      -0.683509       -18.5992
  20   1.0000      -0.661615       -18.0035
  21   1.0000      -0.617010       -16.7897
  22   1.0000      -0.608210       -16.5502
  23   1.0000      -0.575836       -15.6693
  24   1.0000      -0.565147       -15.3784
  25   1.0000      -0.563110       -15.3230
  26   1.0000      -0.538479       -14.6528
  27   1.0000      -0.503445       -13.6994
  28   1.0000      -0.480129       -13.0650
  29   1.0000      -0.456252       -12.4152
  30   1.0000      -0.389716       -10.6047
  31   1.0000      -0.337828        -9.1928
  32   0.0000       0.022270         0.6060
  33   0.0000       0.030939         0.8419
  34   0.0000       0.034726         0.9449
  35   0.0000       0.035229         0.9586
  36   0.0000       0.046809         1.2737

                 SPIN DOWN ORBITALS
  NO   OCC          E(Eh)            E(eV)
   0   1.0000     -68.803998     -1872.2520
   1   1.0000     -20.586798      -560.1953
   2   1.0000     -20.522393      -558.4427
   3   1.0000     -15.594303      -424.3425
   4   1.0000     -11.403492      -310.3048
   5   1.0000     -11.266092      -306.5660
   6   1.0000     -11.259789      -306.3944
   7   1.0000      -6.145884      -167.2380
   8   1.0000      -4.254791      -115.7787
   9   1.0000      -4.254065      -115.7590
  10   1.0000      -4.245509      -115.5262
  11   1.0000      -1.457270       -39.6543
  12   1.0000      -1.342495       -36.5311
  13   1.0000      -1.262286       -34.3485
  14   1.0000      -0.982503       -26.7353
  15   1.0000      -0.957200       -26.0467
  16   1.0000      -0.801623       -21.8133
  17   1.0000      -0.729741       -19.8573
  18   1.0000      -0.696528       -18.9535
  19   1.0000      -0.680327       -18.5126
  20   1.0000      -0.641052       -17.4439
  21   1.0000      -0.610809       -16.6210
  22   1.0000      -0.602938       -16.4068
  23   1.0000      -0.572199       -15.5703
  24   1.0000      -0.565071       -15.3764
  25   1.0000      -0.555960       -15.1284
  26   1.0000      -0.536262       -14.5924
  27   1.0000      -0.495620       -13.4865
  28   1.0000      -0.468156       -12.7392
  29   1.0000      -0.454213       -12.3598
  30   1.0000      -0.387421       -10.5422
  31   0.0000       0.022390         0.6093
  32   0.0000       0.029610         0.8057
  33   0.0000       0.032077         0.8729
  34   0.0000       0.035201         0.9579
  35   0.0000       0.040679         1.1069

MULLIKEN ATOMIC CHARGES AND SPIN POPULATIONS
--------------------------------------------
   0 Si:    0.751752    0.956641
   1 O :   -0.718226   -0.046247
   2 H :   -0.157269    0.045352
   3 H :   -0.244755    0.047534
   4 C :    1.377576   -0.002913
   5 O :   -0.765585   -0.004788
   6 N :   -0.378045    0.003630
   7 C :   -0.862445   -0.000074
   8 H :    0.317922    0.000884
   9 H :    0.307790    0.000031
  10 H :    0.304372    0.000175
  11 C :   -0.786607   -0.000914
  12 H :    0.298031    0.000195
  13 H :    0.280602    0.000229
  14 H :    0.274887    0.000264
Sum of atomic charges         :   -0.0000000

LOEWDIN ATOMIC CHARGES AND SPIN POPULATIONS
-------------------------------------------
   0 Si:    0.750120    0.565812
   1 O :    0.579132    0.111917
   2 H :   -0.328917    0.127965
   3 H :   -0.362293    0.134901
   4 C :   -1.404949    0.038083
   5 O :    0.679807    0.016072
   6 N :    0.369642    0.003277
   7 C :    0.768395    0.000645
   8 H :   -0.353729    0.000168
   9 H :   -0.277103    0.000132
  10 H :   -0.275565    0.000089
  11 C :    0.760972    0.000581
  12 H :   -0.354704    0.000162
  13 H :   -0.274721    0.000082
  14 H :   -0.276087    0.000115

  Mayer bond orders larger than 0.100000
B(  0-Si,  1-O ) :   0.4416 B(  0-Si,  2-H ) :   0.9051 B(  0-Si,  3-H ) :   0.8726
B(  1-O ,  4-C ) :   0.9899 B(  4-C ,  5-O ) :   1.3535 B(  4-C ,  6-N ) :   1.3268
B(  5-O ,  6-N ) :   0.2032 B(  6-N ,  7-C ) :   0.7827 B(  6-N , 11-C ) :   0.8161
B(  7-C ,  8-H ) :   0.8902 B(  7-C ,  9-H ) :   0.9464 B(  7-C , 10-H ) :   0.9496
B( 11-C , 12-H ) :   0.9191 B( 11-C , 13-H ) :   0.9682 B( 11-C , 14-H ) :   0.9677

MP2 TOTAL ENERGY:     -612.930910602 Eh
FINAL SINGLE POINT ENERGY      -612.930910601828

DIPOLE MOMENT
-------------
                                X             Y             Z
Electronic contribution:     -7.05220      -2.35845      -1.28491
Nuclear contribution   :      7.80663       3.28038       1.33599
                        -----------------------------------------
Total Dipole Moment    :      0.75443       0.92192       0.05108
                        -----------------------------------------
Magnitude (a.u.)       :      1.19236
Magnitude (Debye)      :      3.03073

Rotational constants in cm-1:     0.162963     0.045317     0.036179
Rotational constants in MHz :  4885.520970  1358.556023  1084.628516

                             ****ORCA TERMINATED NORMALLY****
TOTAL RUN TIME: 0 days 4 hours 46 minutes 46 seconds 722 msec
