                         Program Version 5.0.4 -  RELEASE  -
|  1> ! ri-mp2 aug-cc-pvdz aug-cc-pvdz/c tightscf
|  2> %pal nprocs 16 end
|  3> %maxcore 3800
|  4> %base "DZ_B-F_26_AB"
|  5> %scf
|  6> STABPerform true
|  7> STABRestartUHFifUnstable true
|  8> end
|  9>
| 10> *xyz 0 1
| 11> F         1.554417   -1.395956    0.000005
| 12> F         2.186498    0.767940   -0.000004
| 13> B         1.234383   -0.126628   -0.000001
| 14> C        -0.292914    0.356579   -0.000005
| 15> O        -0.622327    1.511765   -0.000019
| 16> O        -1.152303   -0.665467    0.000011
| 17> C        -2.540133   -0.316947    0.000009
| 18> H        -3.080791   -1.257527    0.000023
| 19> H        -2.782019    0.267306   -0.885922
| 20> H        -2.782015    0.267329    0.885926
| 21> *
| 22>
| 23> $new_job
| 24> ! ri-mp2 aug-cc-pvtz aug-cc-pvtz/c tightscf
| 25> %pal nprocs 16 end
| 26> %maxcore 3800
| 27> %base "TZ_B-F_26_AB"
| 28>
| 29> *xyz 0 1
| 30> F         1.554417   -1.395956    0.000005
| 31> F         2.186498    0.767940   -0.000004
| 32> B         1.234383   -0.126628   -0.000001
| 33> C        -0.292914    0.356579   -0.000005
| 34> O        -0.622327    1.511765   -0.000019
| 35> O        -1.152303   -0.665467    0.000011
| 36> C        -2.540133   -0.316947    0.000009
| 37> H        -3.080791   -1.257527    0.000023
| 38> H        -2.782019    0.267306   -0.885922
| 39> H        -2.782015    0.267329    0.885926
| 40> *
| 41>
| 42> $new_job
| 43> ! ri-mp2 aug-cc-pvqz aug-cc-pvqz/c tightscf
| 44> %pal nprocs 16 end
| 45> %maxcore 3800
| 46> %base "QZ_B-F_26_AB"
| 47>
| 48> *xyz 0 1
| 49> F         1.554417   -1.395956    0.000005
| 50> F         2.186498    0.767940   -0.000004
| 51> B         1.234383   -0.126628   -0.000001
| 52> C        -0.292914    0.356579   -0.000005
| 53> O        -0.622327    1.511765   -0.000019
| 54> O        -1.152303   -0.665467    0.000011
| 55> C        -2.540133   -0.316947    0.000009
| 56> H        -3.080791   -1.257527    0.000023
| 57> H        -2.782019    0.267306   -0.885922
| 58> H        -2.782015    0.267329    0.885926
| 59> *
| 60>
| 61>
| 62>
| 63>
| 64>                          ****END OF INPUT****
 Total Charge           Charge          ....    0
 Multiplicity           Mult            ....    1
 Number of Electrons    NEL             ....   54
MP2 TOTAL ENERGY:     -452.095122642 Eh
FINAL SINGLE POINT ENERGY      -452.095122641771
MP2 TOTAL ENERGY:     -452.486071804 Eh
FINAL SINGLE POINT ENERGY      -452.486071804318

CARTESIAN COORDINATES (ANGSTROEM)
---------------------------------
  F      1.554417   -1.395956    0.000005
  F      2.186498    0.767940   -0.000004
  B      1.234383   -0.126628   -0.000001
  C     -0.292914    0.356579   -0.000005
  O     -0.622327    1.511765   -0.000019
  O     -1.152303   -0.665467    0.000011
  C     -2.540133   -0.316947    0.000009
  H     -3.080791   -1.257527    0.000023
  H     -2.782019    0.267306   -0.885922
  H     -2.782015    0.267329    0.885926

 Multiplicity           Mult            ....    1
 Number of Electrons    NEL             ....   54
 Basis Dimension        Dim             ....  698

ORBITAL ENERGIES
----------------

  NO   OCC          E(Eh)            E(eV)
   0   2.0000     -26.334439      -716.5965
   1   2.0000     -26.331902      -716.5275
   2   2.0000     -20.619560      -561.0867
   3   2.0000     -20.569325      -559.7198
   4   2.0000     -11.382153      -309.7241
   5   2.0000     -11.296219      -307.3858
   6   2.0000      -7.740381      -210.6265
   7   2.0000      -1.668371       -45.3987
   8   2.0000      -1.637166       -44.5496
   9   2.0000      -1.481792       -40.3216
  10   2.0000      -1.381700       -37.5980
  11   2.0000      -1.000974       -27.2379
  12   2.0000      -0.862458       -23.4687
  13   2.0000      -0.817686       -22.2504
  14   2.0000      -0.787386       -21.4259
  15   2.0000      -0.770301       -20.9610
  16   2.0000      -0.736686       -20.0462
  17   2.0000      -0.698286       -19.0013
  18   2.0000      -0.685877       -18.6637
  19   2.0000      -0.685372       -18.6499
  20   2.0000      -0.678787       -18.4707
  21   2.0000      -0.671686       -18.2775
  22   2.0000      -0.593630       -16.1535
  23   2.0000      -0.564973       -15.3737
  24   2.0000      -0.542392       -14.7592
  25   2.0000      -0.478117       -13.0102
  26   2.0000      -0.467469       -12.7205
  27   0.0000       0.023670         0.6441
  28   0.0000       0.032406         0.8818
  29   0.0000       0.036873         1.0034
  30   0.0000       0.037993         1.0338
  31   0.0000       0.049600         1.3497

MULLIKEN ATOMIC CHARGES
-----------------------
   0 F :   -0.764026
   1 F :   -0.749097
   2 B :    1.779159
   3 C :    0.752355
   4 O :   -0.700291
   5 O :   -0.682194
   6 C :   -0.638748
   7 H :    0.417161
   8 H :    0.292840
   9 H :    0.292840
Sum of atomic charges:    0.0000000

LOEWDIN ATOMIC CHARGES
----------------------
   0 F :    0.822318
   1 F :    0.823891
   2 B :   -1.769467
   3 C :   -0.986883
   4 O :    0.686157
   5 O :    0.803056
   6 C :    0.574894
   7 H :   -0.321328
   8 H :   -0.316319
   9 H :   -0.316319

  Mayer bond orders larger than 0.100000
B(  0-F ,  2-B ) :   0.4092 B(  1-F ,  2-B ) :   0.4072 B(  2-B ,  3-C ) :   0.8387
B(  3-C ,  4-O ) :   1.5503 B(  3-C ,  5-O ) :   1.0270 B(  5-O ,  6-C ) :   0.8428
B(  6-C ,  7-H ) :   0.8303 B(  6-C ,  8-H ) :   0.9111 B(  6-C ,  9-H ) :   0.9111

MP2 TOTAL ENERGY:     -452.612471716 Eh
FINAL SINGLE POINT ENERGY      -452.612471716435

DIPOLE MOMENT
-------------
                                X             Y             Z
Electronic contribution:     11.86680      -0.59715      -0.00002
Nuclear contribution   :    -12.56482       0.01195       0.00003
                        -----------------------------------------
Total Dipole Moment    :     -0.69802      -0.58519       0.00001
                        -----------------------------------------
Magnitude (a.u.)       :      0.91087
Magnitude (Debye)      :      2.31525

Rotational constants in cm-1:     0.171921     0.059288     0.044453
Rotational constants in MHz :  5154.057693  1777.420561  1332.670226

                             ****ORCA TERMINATED NORMALLY****
TOTAL RUN TIME: 0 days 0 hours 35 minutes 34 seconds 977 msec
