                         Program Version 5.0.4 -  RELEASE  -
|  1> ! ri-mp2 aug-cc-pvdz aug-cc-pvdz/c tightscf
|  2> %pal nprocs 16 end
|  3> %maxcore 3800
|  4> %base "DZ_B-B_57_AB"
|  5> %scf
|  6> STABPerform true
|  7> STABRestartUHFifUnstable true
|  8> end
|  9>
| 10> *xyz 0 1
| 11> B        -2.022773   -0.239336    0.013962
| 12> B        -0.632240    0.614830    0.010247
| 13> P         1.081533   -0.128238   -0.105740
| 14> H         1.008451   -1.303495    0.665208
| 15> H         1.824436    0.670736    0.782158
| 16> H        -0.657630    1.808252   -0.041681
| 17> H        -2.519812   -0.680440   -0.977568
| 18> H        -2.603369   -0.448945    1.036929
| 19> *
| 20>
| 21> $new_job
| 22> ! ri-mp2 aug-cc-pvtz aug-cc-pvtz/c tightscf
| 23> %pal nprocs 16 end
| 24> %maxcore 3800
| 25> %base "TZ_B-B_57_AB"
| 26>
| 27> *xyz 0 1
| 28> B        -2.022773   -0.239336    0.013962
| 29> B        -0.632240    0.614830    0.010247
| 30> P         1.081533   -0.128238   -0.105740
| 31> H         1.008451   -1.303495    0.665208
| 32> H         1.824436    0.670736    0.782158
| 33> H        -0.657630    1.808252   -0.041681
| 34> H        -2.519812   -0.680440   -0.977568
| 35> H        -2.603369   -0.448945    1.036929
| 36> *
| 37>
| 38> $new_job
| 39> ! ri-mp2 aug-cc-pvqz aug-cc-pvqz/c tightscf
| 40> %pal nprocs 16 end
| 41> %maxcore 3800
| 42> %base "QZ_B-B_57_AB"
| 43>
| 44> *xyz 0 1
| 45> B        -2.022773   -0.239336    0.013962
| 46> B        -0.632240    0.614830    0.010247
| 47> P         1.081533   -0.128238   -0.105740
| 48> H         1.008451   -1.303495    0.665208
| 49> H         1.824436    0.670736    0.782158
| 50> H        -0.657630    1.808252   -0.041681
| 51> H        -2.519812   -0.680440   -0.977568
| 52> H        -2.603369   -0.448945    1.036929
| 53> *
| 54>
| 55>
| 56>
| 57>
| 58>                          ****END OF INPUT****
 Total Charge           Charge          ....    0
 Multiplicity           Mult            ....    1
 Number of Electrons    NEL             ....   30
MP2 TOTAL ENERGY:     -393.270749674 Eh
FINAL SINGLE POINT ENERGY      -393.270749673862
MP2 TOTAL ENERGY:     -393.362016500 Eh
FINAL SINGLE POINT ENERGY      -393.362016499568

CARTESIAN COORDINATES (ANGSTROEM)
---------------------------------
  B     -2.022773   -0.239336    0.013962
  B     -0.632240    0.614830    0.010247
  P      1.081533   -0.128238   -0.105740
  H      1.008451   -1.303495    0.665208
  H      1.824436    0.670736    0.782158
  H     -0.657630    1.808252   -0.041681
  H     -2.519812   -0.680440   -0.977568
  H     -2.603369   -0.448945    1.036929

 Multiplicity           Mult            ....    1
 Number of Electrons    NEL             ....   30
 Basis Dimension        Dim             ....  474

ORBITAL ENERGIES
----------------

  NO   OCC          E(Eh)            E(eV)
   0   2.0000     -79.931370     -2175.0432
   1   2.0000      -7.596875      -206.7215
   2   2.0000      -7.593199      -206.6215
   3   2.0000      -7.477364      -203.4694
   4   2.0000      -5.371656      -146.1702
   5   2.0000      -5.371368      -146.1624
   6   2.0000      -5.371161      -146.1567
   7   2.0000      -0.866740       -23.5852
   8   2.0000      -0.726426       -19.7670
   9   2.0000      -0.619927       -16.8691
  10   2.0000      -0.542859       -14.7719
  11   2.0000      -0.499346       -13.5879
  12   2.0000      -0.472415       -12.8551
  13   2.0000      -0.439745       -11.9661
  14   2.0000      -0.361382        -9.8337
  15   0.0000       0.023924         0.6510
  16   0.0000       0.029192         0.7943
  17   0.0000       0.030777         0.8375
  18   0.0000       0.033906         0.9226
  19   0.0000       0.047414         1.2902

MULLIKEN ATOMIC CHARGES
-----------------------
   0 B :    0.347332
   1 B :    0.149997
   2 P :    0.139395
   3 H :   -0.063193
   4 H :   -0.058355
   5 H :   -0.163410
   6 H :   -0.174928
   7 H :   -0.176839
Sum of atomic charges:    0.0000000

LOEWDIN ATOMIC CHARGES
----------------------
   0 B :    0.375517
   1 B :   -0.278835
   2 P :    1.576230
   3 H :   -0.490515
   4 H :   -0.495085
   5 H :   -0.251060
   6 H :   -0.217564
   7 H :   -0.218689

  Mayer bond orders larger than 0.100000
B(  0-B ,  1-B ) :   1.0449 B(  0-B ,  6-H ) :   0.9629 B(  0-B ,  7-H ) :   0.9643
B(  1-B ,  2-P ) :   1.1092 B(  1-B ,  5-H ) :   0.8961 B(  2-P ,  3-H ) :   0.9157
B(  2-P ,  4-H ) :   0.9227

MP2 TOTAL ENERGY:     -393.390592161 Eh
FINAL SINGLE POINT ENERGY      -393.390592161375

DIPOLE MOMENT
-------------
                                X             Y             Z
Electronic contribution:      1.73869       0.18001      -1.22354
Nuclear contribution   :     -1.79732      -0.13133       1.51159
                        -----------------------------------------
Total Dipole Moment    :     -0.05863       0.04868       0.28804
                        -----------------------------------------
Magnitude (a.u.)       :      0.29795
Magnitude (Debye)      :      0.75734

Rotational constants in cm-1:     1.146942     0.158709     0.147663
Rotational constants in MHz : 34384.441499  4757.974335  4426.823412

                             ****ORCA TERMINATED NORMALLY****
TOTAL RUN TIME: 0 days 0 hours 8 minutes 2 seconds 760 msec
