                         Program Version 5.0.4 -  RELEASE  -
|  1> ! ri-mp2 aug-cc-pvdz aug-cc-pvdz/c tightscf
|  2> %pal nprocs 16 end
|  3> %maxcore 3800
|  4> %base "DZ_P-C_33_AB"
|  5> %scf
|  6> STABPerform true
|  7> STABRestartUHFifUnstable true
|  8> end
|  9>
| 10> *xyz 0 1
| 11> C         0.612930    0.001115   -0.366884
| 12> C        -0.091778   -1.259090    0.140957
| 13> C        -1.577230   -1.251306   -0.203090
| 14> C        -2.264743    0.006229    0.313703
| 15> C        -1.570111    1.262926   -0.195639
| 16> C        -0.084189    1.257189    0.149587
| 17> P         2.425617   -0.102378    0.009261
| 18> H         0.023771   -1.316580    1.229103
| 19> H         0.387088   -2.149936   -0.269956
| 20> H        -2.057953   -2.142533    0.205073
| 21> H        -1.692573   -1.304333   -1.290519
| 22> H        -2.244248    0.002984    1.408520
| 23> H        -3.316604    0.009304    0.021639
| 24> H        -2.045136    2.154533    0.218531
| 25> H        -1.686587    1.323825   -1.282631
| 26> H         0.401362    2.147472   -0.253937
| 27> H         0.035359    1.303770    1.237024
| 28> H         0.552722   -0.001901   -1.461782
| 29> H         2.339837    0.177562    1.395450
| 30> H         2.769436    1.229127   -0.327223
| 31> *
| 32>
| 33> $new_job
| 34> ! ri-mp2 aug-cc-pvtz aug-cc-pvtz/c tightscf
| 35> %pal nprocs 16 end
| 36> %maxcore 3800
| 37> %base "TZ_P-C_33_AB"
| 38>
| 39> *xyz 0 1
| 40> C         0.612930    0.001115   -0.366884
| 41> C        -0.091778   -1.259090    0.140957
| 42> C        -1.577230   -1.251306   -0.203090
| 43> C        -2.264743    0.006229    0.313703
| 44> C        -1.570111    1.262926   -0.195639
| 45> C        -0.084189    1.257189    0.149587
| 46> P         2.425617   -0.102378    0.009261
| 47> H         0.023771   -1.316580    1.229103
| 48> H         0.387088   -2.149936   -0.269956
| 49> H        -2.057953   -2.142533    0.205073
| 50> H        -1.692573   -1.304333   -1.290519
| 51> H        -2.244248    0.002984    1.408520
| 52> H        -3.316604    0.009304    0.021639
| 53> H        -2.045136    2.154533    0.218531
| 54> H        -1.686587    1.323825   -1.282631
| 55> H         0.401362    2.147472   -0.253937
| 56> H         0.035359    1.303770    1.237024
| 57> H         0.552722   -0.001901   -1.461782
| 58> H         2.339837    0.177562    1.395450
| 59> H         2.769436    1.229127   -0.327223
| 60> *
| 61>
| 62> $new_job
| 63> ! ri-mp2 aug-cc-pvqz aug-cc-pvqz/c tightscf
| 64> %pal nprocs 16 end
| 65> %maxcore 3800
| 66> %base "QZ_P-C_33_AB"
| 67>
| 68> *xyz 0 1
| 69> C         0.612930    0.001115   -0.366884
| 70> C        -0.091778   -1.259090    0.140957
| 71> C        -1.577230   -1.251306   -0.203090
| 72> C        -2.264743    0.006229    0.313703
| 73> C        -1.570111    1.262926   -0.195639
| 74> C        -0.084189    1.257189    0.149587
| 75> P         2.425617   -0.102378    0.009261
| 76> H         0.023771   -1.316580    1.229103
| 77> H         0.387088   -2.149936   -0.269956
| 78> H        -2.057953   -2.142533    0.205073
| 79> H        -1.692573   -1.304333   -1.290519
| 80> H        -2.244248    0.002984    1.408520
| 81> H        -3.316604    0.009304    0.021639
| 82> H        -2.045136    2.154533    0.218531
| 83> H        -1.686587    1.323825   -1.282631
| 84> H         0.401362    2.147472   -0.253937
| 85> H         0.035359    1.303770    1.237024
| 86> H         0.552722   -0.001901   -1.461782
| 87> H         2.339837    0.177562    1.395450
| 88> H         2.769436    1.229127   -0.327223
| 89> *
| 90>
| 91>
| 92>
| 93>
| 94>                          ****END OF INPUT****
 Total Charge           Charge          ....    0
 Multiplicity           Mult            ....    1
 Number of Electrons    NEL             ....   64
MP2 TOTAL ENERGY:     -576.562833917 Eh
FINAL SINGLE POINT ENERGY      -576.562833917092
MP2 TOTAL ENERGY:     -576.829383698 Eh
FINAL SINGLE POINT ENERGY      -576.829383698293

CARTESIAN COORDINATES (ANGSTROEM)
---------------------------------
  C      0.612930    0.001115   -0.366884
  C     -0.091778   -1.259090    0.140957
  C     -1.577230   -1.251306   -0.203090
  C     -2.264743    0.006229    0.313703
  C     -1.570111    1.262926   -0.195639
  C     -0.084189    1.257189    0.149587
  P      2.425617   -0.102378    0.009261
  H      0.023771   -1.316580    1.229103
  H      0.387088   -2.149936   -0.269956
  H     -2.057953   -2.142533    0.205073
  H     -1.692573   -1.304333   -1.290519
  H     -2.244248    0.002984    1.408520
  H     -3.316604    0.009304    0.021639
  H     -2.045136    2.154533    0.218531
  H     -1.686587    1.323825   -1.282631
  H      0.401362    2.147472   -0.253937
  H      0.035359    1.303770    1.237024
  H      0.552722   -0.001901   -1.461782
  H      2.339837    0.177562    1.395450
  H      2.769436    1.229127   -0.327223

 Multiplicity           Mult            ....    1
 Number of Electrons    NEL             ....   64
 Basis Dimension        Dim             .... 1162

ORBITAL ENERGIES
----------------

  NO   OCC          E(Eh)            E(eV)
   0   2.0000     -79.927298     -2174.9323
   1   2.0000     -11.230006      -305.5840
   2   2.0000     -11.220758      -305.3323
   3   2.0000     -11.218961      -305.2835
   4   2.0000     -11.216386      -305.2134
   5   2.0000     -11.215782      -305.1969
   6   2.0000     -11.214876      -305.1723
   7   2.0000      -7.470646      -203.2866
   8   2.0000      -5.364610      -145.9785
   9   2.0000      -5.364419      -145.9733
  10   2.0000      -5.363355      -145.9443
  11   2.0000      -1.124636       -30.6029
  12   2.0000      -1.017492       -27.6874
  13   2.0000      -1.009060       -27.4579
  14   2.0000      -0.864695       -23.5296
  15   2.0000      -0.836796       -22.7704
  16   2.0000      -0.783008       -21.3067
  17   2.0000      -0.755501       -20.5582
  18   2.0000      -0.647984       -17.6325
  19   2.0000      -0.609625       -16.5887
  20   2.0000      -0.604615       -16.4524
  21   2.0000      -0.593172       -16.1410
  22   2.0000      -0.537774       -14.6336
  23   2.0000      -0.530574       -14.4376
  24   2.0000      -0.515503       -14.0276
  25   2.0000      -0.498603       -13.5677
  26   2.0000      -0.487037       -13.2530
  27   2.0000      -0.477593       -12.9960
  28   2.0000      -0.456115       -12.4115
  29   2.0000      -0.437942       -11.9170
  30   2.0000      -0.421698       -11.4750
  31   2.0000      -0.352700        -9.5975
  32   0.0000       0.024829         0.6756
  33   0.0000       0.029936         0.8146
  34   0.0000       0.031283         0.8513
  35   0.0000       0.032928         0.8960
  36   0.0000       0.044917         1.2223

MULLIKEN ATOMIC CHARGES
-----------------------
   0 C :   -0.177195
   1 C :   -0.295074
   2 C :   -0.501590
   3 C :   -0.431862
   4 C :   -0.476270
   5 C :   -0.401901
   6 P :    0.201113
   7 H :    0.221424
   8 H :    0.264331
   9 H :    0.232952
  10 H :    0.144825
  11 H :    0.137718
  12 H :    0.251774
  13 H :    0.235308
  14 H :    0.146218
  15 H :    0.271815
  16 H :    0.197485
  17 H :    0.213336
  18 H :   -0.110256
  19 H :   -0.124152
Sum of atomic charges:    0.0000000

LOEWDIN ATOMIC CHARGES
----------------------
   0 C :   -0.103424
   1 C :    0.432719
   2 C :    0.534112
   3 C :    0.531224
   4 C :    0.535387
   5 C :    0.449005
   6 P :    1.548815
   7 H :   -0.277937
   8 H :   -0.279156
   9 H :   -0.257547
  10 H :   -0.262506
  11 H :   -0.262722
  12 H :   -0.258766
  13 H :   -0.257759
  14 H :   -0.262316
  15 H :   -0.279549
  16 H :   -0.282396
  17 H :   -0.342540
  18 H :   -0.446552
  19 H :   -0.458091

  Mayer bond orders larger than 0.100000
B(  0-C ,  1-C ) :   0.7409 B(  0-C ,  5-C ) :   0.8369 B(  0-C ,  6-P ) :   0.8284
B(  0-C , 17-H ) :   0.9226 B(  1-C ,  2-C ) :   0.8505 B(  1-C ,  6-P ) :  -0.1141
B(  1-C ,  7-H ) :   0.9365 B(  1-C ,  8-H ) :   0.9555 B(  2-C ,  3-C ) :   0.8994
B(  2-C ,  9-H ) :   0.9927 B(  2-C , 10-H ) :   1.0136 B(  3-C ,  4-C ) :   0.8904
B(  3-C , 11-H ) :   1.0190 B(  3-C , 12-H ) :   0.9507 B(  4-C ,  5-C ) :   0.8705
B(  4-C , 13-H ) :   0.9775 B(  4-C , 14-H ) :   1.0082 B(  5-C , 15-H ) :   0.9504
B(  5-C , 16-H ) :   0.9469 B(  6-P , 18-H ) :   0.9391 B(  6-P , 19-H ) :   0.9955

MP2 TOTAL ENERGY:     -576.910575517 Eh
FINAL SINGLE POINT ENERGY      -576.910575517462

DIPOLE MOMENT
-------------
                                X             Y             Z
Electronic contribution:      8.58936      -1.35590      -0.82855
Nuclear contribution   :     -9.15220       1.58421       0.84910
                        -----------------------------------------
Total Dipole Moment    :     -0.56284       0.22831       0.02055
                        -----------------------------------------
Magnitude (a.u.)       :      0.60773
Magnitude (Debye)      :      1.54473

Rotational constants in cm-1:     0.139955     0.045707     0.037045
Rotational constants in MHz :  4195.746044  1370.257781  1110.584675

                             ****ORCA TERMINATED NORMALLY****
TOTAL RUN TIME: 0 days 2 hours 24 minutes 17 seconds 909 msec
