                         Program Version 5.0.4 -  RELEASE  -
|  1> ! ri-mp2 aug-cc-pvdz aug-cc-pvdz/c tightscf
|  2> %pal nprocs 16 end
|  3> %maxcore 3800
|  4> %base "DZ_P-Cl_15_A"
|  5> %scf
|  6> STABPerform true
|  7> STABRestartUHFifUnstable true
|  8> end
|  9>
| 10> *xyz 0 2
| 11> P         0.297379    1.947198   -0.886772
| 12> C         0.409040    1.719521    0.912040
| 13> C         0.023740    0.457782    0.194402
| 14> C        -1.414940    0.050184    0.314871
| 15> O        -2.184004    0.530127    1.103252
| 16> O        -1.747076   -0.862989   -0.589278
| 17> C        -3.089725   -1.342929   -0.526614
| 18> C         1.016722   -0.655719    0.164330
| 19> O         0.770926   -1.807224    0.383823
| 20> O         2.250781   -0.200904   -0.095796
| 21> C         3.287515   -1.182517   -0.086958
| 22> H         1.396541    1.744857    1.353462
| 23> H        -0.376708    2.150126    1.521057
| 24> H        -3.792539   -0.527851   -0.689948
| 25> H        -3.284034   -1.792933    0.445045
| 26> H        -3.172594   -2.085291   -1.313778
| 27> H         3.093252   -1.944876   -0.838742
| 28> H         4.202802   -0.645324   -0.314487
| 29> H         3.353460   -1.656701    0.890546
| 30> *
| 31>
| 32> $new_job
| 33> ! ri-mp2 aug-cc-pvtz aug-cc-pvtz/c tightscf
| 34> %pal nprocs 16 end
| 35> %maxcore 3800
| 36> %base "TZ_P-Cl_15_A"
| 37>
| 38> *xyz 0 2
| 39> P         0.297379    1.947198   -0.886772
| 40> C         0.409040    1.719521    0.912040
| 41> C         0.023740    0.457782    0.194402
| 42> C        -1.414940    0.050184    0.314871
| 43> O        -2.184004    0.530127    1.103252
| 44> O        -1.747076   -0.862989   -0.589278
| 45> C        -3.089725   -1.342929   -0.526614
| 46> C         1.016722   -0.655719    0.164330
| 47> O         0.770926   -1.807224    0.383823
| 48> O         2.250781   -0.200904   -0.095796
| 49> C         3.287515   -1.182517   -0.086958
| 50> H         1.396541    1.744857    1.353462
| 51> H        -0.376708    2.150126    1.521057
| 52> H        -3.792539   -0.527851   -0.689948
| 53> H        -3.284034   -1.792933    0.445045
| 54> H        -3.172594   -2.085291   -1.313778
| 55> H         3.093252   -1.944876   -0.838742
| 56> H         4.202802   -0.645324   -0.314487
| 57> H         3.353460   -1.656701    0.890546
| 58> *
| 59>
| 60> $new_job
| 61> ! ri-mp2 aug-cc-pvqz aug-cc-pvqz/c tightscf
| 62> %pal nprocs 16 end
| 63> %maxcore 3800
| 64> %base "QZ_P-Cl_15_A"
| 65>
| 66> *xyz 0 2
| 67> P         0.297379    1.947198   -0.886772
| 68> C         0.409040    1.719521    0.912040
| 69> C         0.023740    0.457782    0.194402
| 70> C        -1.414940    0.050184    0.314871
| 71> O        -2.184004    0.530127    1.103252
| 72> O        -1.747076   -0.862989   -0.589278
| 73> C        -3.089725   -1.342929   -0.526614
| 74> C         1.016722   -0.655719    0.164330
| 75> O         0.770926   -1.807224    0.383823
| 76> O         2.250781   -0.200904   -0.095796
| 77> C         3.287515   -1.182517   -0.086958
| 78> H         1.396541    1.744857    1.353462
| 79> H        -0.376708    2.150126    1.521057
| 80> H        -3.792539   -0.527851   -0.689948
| 81> H        -3.284034   -1.792933    0.445045
| 82> H        -3.172594   -2.085291   -1.313778
| 83> H         3.093252   -1.944876   -0.838742
| 84> H         4.202802   -0.645324   -0.314487
| 85> H         3.353460   -1.656701    0.890546
| 86> *
| 87>
| 88>
| 89>
| 90>
| 91>                          ****END OF INPUT****
 Total Charge           Charge          ....    0
 Multiplicity           Mult            ....    2
 Number of Electrons    NEL             ....   91
MP2 TOTAL ENERGY:     -873.817012765 Eh
FINAL SINGLE POINT ENERGY      -873.817012765015
MP2 TOTAL ENERGY:     -874.312305674 Eh
FINAL SINGLE POINT ENERGY      -874.312305674293

CARTESIAN COORDINATES (ANGSTROEM)
---------------------------------
  P      0.297379    1.947198   -0.886772
  C      0.409040    1.719521    0.912040
  C      0.023740    0.457782    0.194402
  C     -1.414940    0.050184    0.314871
  O     -2.184004    0.530127    1.103252
  O     -1.747076   -0.862989   -0.589278
  C     -3.089725   -1.342929   -0.526614
  C      1.016722   -0.655719    0.164330
  O      0.770926   -1.807224    0.383823
  O      2.250781   -0.200904   -0.095796
  C      3.287515   -1.182517   -0.086958
  H      1.396541    1.744857    1.353462
  H     -0.376708    2.150126    1.521057
  H     -3.792539   -0.527851   -0.689948
  H     -3.284034   -1.792933    0.445045
  H     -3.172594   -2.085291   -1.313778
  H      3.093252   -1.944876   -0.838742
  H      4.202802   -0.645324   -0.314487
  H      3.353460   -1.656701    0.890546

 Multiplicity           Mult            ....    2
 Number of Electrons    NEL             ....   91
 Basis Dimension        Dim             .... 1252

ORBITAL ENERGIES
----------------
                 SPIN UP ORBITALS
  NO   OCC          E(Eh)            E(eV)
   0   1.0000     -79.974170     -2176.2078
   1   1.0000     -20.611909      -560.8786
   2   1.0000     -20.602395      -560.6197
   3   1.0000     -20.549351      -559.1763
   4   1.0000     -20.546830      -559.1077
   5   1.0000     -11.393404      -310.0303
   6   1.0000     -11.387664      -309.8741
   7   1.0000     -11.291836      -307.2665
   8   1.0000     -11.283149      -307.0301
   9   1.0000     -11.281411      -306.9828
  10   1.0000     -11.259441      -306.3850
  11   1.0000      -7.516892      -204.5450
  12   1.0000      -5.421224      -147.5190
  13   1.0000      -5.406808      -147.1267
  14   1.0000      -5.405888      -147.1017
  15   1.0000      -1.480211       -40.2786
  16   1.0000      -1.471049       -40.0293
  17   1.0000      -1.374120       -37.3917
  18   1.0000      -1.368636       -37.2425
  19   1.0000      -1.148941       -31.2643
  20   1.0000      -0.994338       -27.0573
  21   1.0000      -0.992586       -27.0096
  22   1.0000      -0.900503       -24.5039
  23   1.0000      -0.819204       -22.2917
  24   1.0000      -0.798003       -21.7148
  25   1.0000      -0.767538       -20.8858
  26   1.0000      -0.747063       -20.3286
  27   1.0000      -0.692555       -18.8454
  28   1.0000      -0.684449       -18.6248
  29   1.0000      -0.679433       -18.4883
  30   1.0000      -0.674088       -18.3429
  31   1.0000      -0.646218       -17.5845
  32   1.0000      -0.619537       -16.8585
  33   1.0000      -0.593867       -16.1600
  34   1.0000      -0.571795       -15.5593
  35   1.0000      -0.565060       -15.3761
  36   1.0000      -0.552931       -15.0460
  37   1.0000      -0.541390       -14.7320
  38   1.0000      -0.531484       -14.4624
  39   1.0000      -0.482289       -13.1238
  40   1.0000      -0.478589       -13.0231
  41   1.0000      -0.467210       -12.7134
  42   1.0000      -0.459392       -12.5007
  43   1.0000      -0.421704       -11.4752
  44   1.0000      -0.409776       -11.1506
  45   1.0000      -0.366575        -9.9750
  46   0.0000       0.023037         0.6269
  47   0.0000       0.029155         0.7934
  48   0.0000       0.031582         0.8594
  49   0.0000       0.037524         1.0211
  50   0.0000       0.044415         1.2086

                 SPIN DOWN ORBITALS
  NO   OCC          E(Eh)            E(eV)
   0   1.0000     -79.966630     -2176.0026
   1   1.0000     -20.611359      -560.8636
   2   1.0000     -20.602421      -560.6204
   3   1.0000     -20.549592      -559.1828
   4   1.0000     -20.546281      -559.0927
   5   1.0000     -11.392810      -310.0141
   6   1.0000     -11.387377      -309.8663
   7   1.0000     -11.291856      -307.2670
   8   1.0000     -11.283136      -307.0297
   9   1.0000     -11.282684      -307.0174
  10   1.0000     -11.260915      -306.4251
  11   1.0000      -7.507679      -204.2943
  12   1.0000      -5.402611      -147.0125
  13   1.0000      -5.400559      -146.9567
  14   1.0000      -5.386429      -146.5722
  15   1.0000      -1.479572       -40.2612
  16   1.0000      -1.470597       -40.0170
  17   1.0000      -1.373977       -37.3878
  18   1.0000      -1.367817       -37.2202
  19   1.0000      -1.141631       -31.0654
  20   1.0000      -0.992422       -27.0052
  21   1.0000      -0.991259       -26.9735
  22   1.0000      -0.898535       -24.4504
  23   1.0000      -0.816141       -22.2083
  24   1.0000      -0.769157       -20.9298
  25   1.0000      -0.757857       -20.6223
  26   1.0000      -0.742667       -20.2090
  27   1.0000      -0.691385       -18.8135
  28   1.0000      -0.682384       -18.5686
  29   1.0000      -0.678743       -18.4695
  30   1.0000      -0.672124       -18.2894
  31   1.0000      -0.634851       -17.2752
  32   1.0000      -0.613275       -16.6881
  33   1.0000      -0.585778       -15.9398
  34   1.0000      -0.566229       -15.4079
  35   1.0000      -0.559890       -15.2354
  36   1.0000      -0.551338       -15.0027
  37   1.0000      -0.539035       -14.6679
  38   1.0000      -0.531125       -14.4526
  39   1.0000      -0.480448       -13.0737
  40   1.0000      -0.476927       -12.9778
  41   1.0000      -0.464772       -12.6471
  42   1.0000      -0.456777       -12.4295
  43   1.0000      -0.413124       -11.2417
  44   1.0000      -0.401570       -10.9273
  45   0.0000       0.023003         0.6259
  46   0.0000       0.027749         0.7551
  47   0.0000       0.030400         0.8272
  48   0.0000       0.034565         0.9405
  49   0.0000       0.038970         1.0604

MULLIKEN ATOMIC CHARGES AND SPIN POPULATIONS
--------------------------------------------
   0 P :    0.451421    1.146179
   1 C :   -0.925264   -0.106233
   2 C :   -0.441380   -0.126926
   3 C :    1.589432    0.027382
   4 O :   -0.940096    0.013131
   5 O :   -0.746434   -0.002744
   6 C :   -0.795182   -0.000136
   7 C :    1.329212    0.032562
   8 O :   -0.890373   -0.006523
   9 O :   -0.772801   -0.018540
  10 C :   -0.792641   -0.004242
  11 H :    0.336310    0.025675
  12 H :    0.381824    0.020766
  13 H :    0.330140    0.000029
  14 H :    0.350651   -0.000133
  15 H :    0.431991    0.000055
  16 H :    0.332963   -0.000101
  17 H :    0.425408   -0.000240
  18 H :    0.344817    0.000040
Sum of atomic charges         :    0.0000000

LOEWDIN ATOMIC CHARGES AND SPIN POPULATIONS
-------------------------------------------
   0 P :    1.182168    0.609807
   1 C :    0.233232    0.148639
   2 C :   -0.726140    0.134658
   3 C :   -1.222404    0.025395
   4 O :    0.745735    0.011204
   5 O :    0.844257    0.000945
   6 C :    0.586962    0.000430
   7 C :   -1.176359    0.018318
   8 O :    0.739526   -0.002523
   9 O :    0.830189    0.023136
  10 C :    0.585927    0.002036
  11 H :   -0.354047    0.013065
  12 H :   -0.376286    0.014447
  13 H :   -0.314832    0.000059
  14 H :   -0.312065    0.000025
  15 H :   -0.319335    0.000078
  16 H :   -0.313903   -0.000007
  17 H :   -0.319651    0.000087
  18 H :   -0.312973    0.000200

  Mayer bond orders larger than 0.100000
B(  0-P ,  1-C ) :   1.0111 B(  0-P ,  2-C ) :   0.4476 B(  0-P ,  3-C ) :   0.1060
B(  1-C ,  2-C ) :   0.9385 B(  1-C , 11-H ) :   0.9229 B(  1-C , 12-H ) :   0.8471
B(  2-C ,  3-C ) :   1.0673 B(  2-C ,  4-O ) :   0.2520 B(  2-C ,  5-O ) :   0.1113
B(  2-C ,  7-C ) :   1.1732 B(  2-C ,  8-O ) :   0.2919 B(  3-C ,  4-O ) :   0.8947
B(  3-C ,  5-O ) :   0.8517 B(  3-C ,  6-C ) :  -0.1167 B(  3-C ,  7-C ) :  -0.1503
B(  4-O ,  5-O ) :   0.1159 B(  5-O ,  6-C ) :   0.9476 B(  6-C , 13-H ) :   0.9022
B(  6-C , 14-H ) :   0.8885 B(  6-C , 15-H ) :   0.8316 B(  7-C ,  8-O ) :   1.1033
B(  7-C ,  9-O ) :   0.8878 B(  7-C , 10-C ) :  -0.1401 B(  8-O ,  9-O ) :   0.1203
B(  9-O , 10-C ) :   0.9041 B( 10-C , 16-H ) :   0.9041 B( 10-C , 17-H ) :   0.8433
B( 10-C , 18-H ) :   0.9048

MP2 TOTAL ENERGY:     -874.472628940 Eh
FINAL SINGLE POINT ENERGY      -874.472628940409

DIPOLE MOMENT
-------------
                                X             Y             Z
Electronic contribution:     -0.32065       6.68517      -2.26947
Nuclear contribution   :      1.09573      -6.49004       1.86456
                        -----------------------------------------
Total Dipole Moment    :      0.77508       0.19513      -0.40491
                        -----------------------------------------
Magnitude (a.u.)       :      0.89597
Magnitude (Debye)      :      2.27739

Rotational constants in cm-1:     0.046034     0.025823     0.019396
Rotational constants in MHz :  1380.065344   774.154396   581.474281

                             ****ORCA TERMINATED NORMALLY****
TOTAL RUN TIME: 0 days 15 hours 10 minutes 31 seconds 47 msec
