                         Program Version 5.0.4 -  RELEASE  -
|  1> ! ri-mp2 aug-cc-pvdz aug-cc-pvdz/c tightscf
|  2> %pal nprocs 16 end
|  3> %maxcore 3800
|  4> %base "DZ_Si-S_20_AB"
|  5> %scf
|  6> STABPerform true
|  7> STABRestartUHFifUnstable true
|  8> end
|  9>
| 10> *xyz 0 1
| 11> C         1.845929   -0.241771    0.513635
| 12> C         2.499982    0.762671   -0.415248
| 13> H         1.857993    1.626728   -0.583978
| 14> H         2.714622    0.312493   -1.383790
| 15> S         0.306217   -0.974887   -0.144326
| 16> H         1.633691    0.198519    1.487430
| 17> Si        -1.088922    0.601532    0.189290
| 18> H         2.505112   -1.091647    0.684556
| 19> C        -2.783206   -0.059166   -0.205632
| 20> H        -2.839394   -0.386436   -1.244014
| 21> H        -3.536793    0.714804   -0.054467
| 22> H        -3.029900   -0.906734    0.433345
| 23> H         3.438475    1.119076    0.014061
| 24> H        -0.788752    1.782837   -0.653467
| 25> H        -0.985847    1.036706    1.602952
| 26> *
| 27>
| 28> $new_job
| 29> ! ri-mp2 aug-cc-pvtz aug-cc-pvtz/c tightscf
| 30> %pal nprocs 16 end
| 31> %maxcore 3800
| 32> %base "TZ_Si-S_20_AB"
| 33>
| 34> *xyz 0 1
| 35> C         1.845929   -0.241771    0.513635
| 36> C         2.499982    0.762671   -0.415248
| 37> H         1.857993    1.626728   -0.583978
| 38> H         2.714622    0.312493   -1.383790
| 39> S         0.306217   -0.974887   -0.144326
| 40> H         1.633691    0.198519    1.487430
| 41> Si        -1.088922    0.601532    0.189290
| 42> H         2.505112   -1.091647    0.684556
| 43> C        -2.783206   -0.059166   -0.205632
| 44> H        -2.839394   -0.386436   -1.244014
| 45> H        -3.536793    0.714804   -0.054467
| 46> H        -3.029900   -0.906734    0.433345
| 47> H         3.438475    1.119076    0.014061
| 48> H        -0.788752    1.782837   -0.653467
| 49> H        -0.985847    1.036706    1.602952
| 50> *
| 51>
| 52> $new_job
| 53> ! ri-mp2 aug-cc-pvqz aug-cc-pvqz/c tightscf
| 54> %pal nprocs 16 end
| 55> %maxcore 3800
| 56> %base "QZ_Si-S_20_AB"
| 57>
| 58> *xyz 0 1
| 59> C         1.845929   -0.241771    0.513635
| 60> C         2.499982    0.762671   -0.415248
| 61> H         1.857993    1.626728   -0.583978
| 62> H         2.714622    0.312493   -1.383790
| 63> S         0.306217   -0.974887   -0.144326
| 64> H         1.633691    0.198519    1.487430
| 65> Si        -1.088922    0.601532    0.189290
| 66> H         2.505112   -1.091647    0.684556
| 67> C        -2.783206   -0.059166   -0.205632
| 68> H        -2.839394   -0.386436   -1.244014
| 69> H        -3.536793    0.714804   -0.054467
| 70> H        -3.029900   -0.906734    0.433345
| 71> H         3.438475    1.119076    0.014061
| 72> H        -0.788752    1.782837   -0.653467
| 73> H        -0.985847    1.036706    1.602952
| 74> *
| 75>
| 76>
| 77>
| 78>
| 79>                          ****END OF INPUT****
 Total Charge           Charge          ....    0
 Multiplicity           Mult            ....    1
 Number of Electrons    NEL             ....   58
MP2 TOTAL ENERGY:     -806.642956626 Eh
FINAL SINGLE POINT ENERGY      -806.642956625900
MP2 TOTAL ENERGY:     -806.854750611 Eh
FINAL SINGLE POINT ENERGY      -806.854750611243

CARTESIAN COORDINATES (ANGSTROEM)
---------------------------------
  C      1.845929   -0.241771    0.513635
  C      2.499982    0.762671   -0.415248
  H      1.857993    1.626728   -0.583978
  H      2.714622    0.312493   -1.383790
  S      0.306217   -0.974887   -0.144326
  H      1.633691    0.198519    1.487430
  Si    -1.088922    0.601532    0.189290
  H      2.505112   -1.091647    0.684556
  C     -2.783206   -0.059166   -0.205632
  H     -2.839394   -0.386436   -1.244014
  H     -3.536793    0.714804   -0.054467
  H     -3.029900   -0.906734    0.433345
  H      3.438475    1.119076    0.014061
  H     -0.788752    1.782837   -0.653467
  H     -0.985847    1.036706    1.602952

 Multiplicity           Mult            ....    1
 Number of Electrons    NEL             ....   58
 Basis Dimension        Dim             ....  868

ORBITAL ENERGIES
----------------

  NO   OCC          E(Eh)            E(eV)
   0   2.0000     -91.928657     -2501.5059
   1   2.0000     -68.780460     -1871.6115
   2   2.0000     -11.260710      -306.4195
   3   2.0000     -11.221712      -305.3583
   4   2.0000     -11.208353      -304.9948
   5   2.0000      -8.933171      -243.0839
   6   2.0000      -6.614658      -179.9940
   7   2.0000      -6.613939      -179.9744
   8   2.0000      -6.613256      -179.9559
   9   2.0000      -6.127972      -166.7506
  10   2.0000      -4.234635      -115.2303
  11   2.0000      -4.234073      -115.2150
  12   2.0000      -4.233996      -115.2129
  13   2.0000      -1.067273       -29.0420
  14   2.0000      -0.959459       -26.1082
  15   2.0000      -0.929384       -25.2898
  16   2.0000      -0.817089       -22.2341
  17   2.0000      -0.680655       -18.5216
  18   2.0000      -0.624112       -16.9830
  19   2.0000      -0.592607       -16.1256
  20   2.0000      -0.568645       -15.4736
  21   2.0000      -0.563551       -15.3350
  22   2.0000      -0.540094       -14.6967
  23   2.0000      -0.516826       -14.0635
  24   2.0000      -0.480935       -13.0869
  25   2.0000      -0.473466       -12.8837
  26   2.0000      -0.446953       -12.1622
  27   2.0000      -0.410840       -11.1795
  28   2.0000      -0.350047        -9.5253
  29   0.0000       0.024004         0.6532
  30   0.0000       0.030469         0.8291
  31   0.0000       0.035019         0.9529
  32   0.0000       0.036530         0.9940
  33   0.0000       0.047120         1.2822

MULLIKEN ATOMIC CHARGES
-----------------------
   0 C :   -0.518740
   1 C :   -0.833475
   2 H :    0.272768
   3 H :    0.258480
   4 S :   -0.383131
   5 H :    0.275516
   6 Si:    1.092633
   7 H :    0.338350
   8 C :   -1.049140
   9 H :    0.240004
  10 H :    0.278369
  11 H :    0.245121
  12 H :    0.280390
  13 H :   -0.251624
  14 H :   -0.245521
Sum of atomic charges:   -0.0000000

LOEWDIN ATOMIC CHARGES
----------------------
   0 C :    0.058928
   1 C :    0.822574
   2 H :   -0.326307
   3 H :   -0.303189
   4 S :    1.195566
   5 H :   -0.379076
   6 Si:    0.322306
   7 H :   -0.381824
   8 C :    0.855609
   9 H :   -0.364115
  10 H :   -0.362267
  11 H :   -0.365294
  12 H :   -0.286011
  13 H :   -0.245113
  14 H :   -0.241786

  Mayer bond orders larger than 0.100000
B(  0-C ,  1-C ) :   0.9812 B(  0-C ,  4-S ) :   0.9354 B(  0-C ,  5-H ) :   0.9072
B(  0-C ,  7-H ) :   0.8223 B(  1-C ,  2-H ) :   0.9158 B(  1-C ,  3-H ) :   0.9438
B(  1-C , 12-H ) :   0.9204 B(  4-S ,  6-Si) :   0.8040 B(  6-Si,  8-C ) :   0.9238
B(  6-Si, 13-H ) :   0.7901 B(  6-Si, 14-H ) :   0.8058 B(  8-C ,  9-H ) :   0.9529
B(  8-C , 10-H ) :   0.9514 B(  8-C , 11-H ) :   0.9578

MP2 TOTAL ENERGY:     -806.919750580 Eh
FINAL SINGLE POINT ENERGY      -806.919750580478

DIPOLE MOMENT
-------------
                                X             Y             Z
Electronic contribution:     -0.94140      -4.12016      -0.12108
Nuclear contribution   :      1.05163       4.51044       0.30301
                        -----------------------------------------
Total Dipole Moment    :      0.11023       0.39027       0.18194
                        -----------------------------------------
Magnitude (a.u.)       :      0.44448
Magnitude (Debye)      :      1.12979

Rotational constants in cm-1:     0.220853     0.051714     0.045803
Rotational constants in MHz :  6621.002083  1550.349711  1373.145931

                             ****ORCA TERMINATED NORMALLY****
TOTAL RUN TIME: 0 days 1 hours 14 minutes 54 seconds 938 msec
