                         Program Version 5.0.4 -  RELEASE  -
|  1> ! ri-mp2 aug-cc-pvdz aug-cc-pvdz/c tightscf
|  2> %pal nprocs 16 end
|  3> %maxcore 3800
|  4> %base "DZ_Si-Si_53_AB"
|  5> %scf
|  6> STABPerform true
|  7> STABRestartUHFifUnstable true
|  8> end
|  9>
| 10> *xyz 0 1
| 11> Si        -1.088135    1.105229    0.506278
| 12> Si         0.956640    1.146447   -0.629234
| 13> C        -2.020101   -0.477415   -0.039432
| 14> O        -3.055800   -0.592937   -0.582805
| 15> H        -1.939602    2.255054    0.156178
| 16> H        -0.872717    1.008859    1.961102
| 17> F        -1.285480   -1.590301    0.268889
| 18> C         1.956482   -0.402546   -0.108657
| 19> H         1.740811    2.327287   -0.219330
| 20> H         0.789612    1.092636   -2.091120
| 21> O         2.364536   -1.286349   -0.766191
| 22> F         2.178220   -0.397838    1.241673
| 23> *
| 24>
| 25> $new_job
| 26> ! ri-mp2 aug-cc-pvtz aug-cc-pvtz/c tightscf
| 27> %pal nprocs 16 end
| 28> %maxcore 3800
| 29> %base "TZ_Si-Si_53_AB"
| 30>
| 31> *xyz 0 1
| 32> Si        -1.088135    1.105229    0.506278
| 33> Si         0.956640    1.146447   -0.629234
| 34> C        -2.020101   -0.477415   -0.039432
| 35> O        -3.055800   -0.592937   -0.582805
| 36> H        -1.939602    2.255054    0.156178
| 37> H        -0.872717    1.008859    1.961102
| 38> F        -1.285480   -1.590301    0.268889
| 39> C         1.956482   -0.402546   -0.108657
| 40> H         1.740811    2.327287   -0.219330
| 41> H         0.789612    1.092636   -2.091120
| 42> O         2.364536   -1.286349   -0.766191
| 43> F         2.178220   -0.397838    1.241673
| 44> *
| 45>
| 46> $new_job
| 47> ! ri-mp2 aug-cc-pvqz aug-cc-pvqz/c tightscf
| 48> %pal nprocs 16 end
| 49> %maxcore 3800
| 50> %base "QZ_Si-Si_53_AB"
| 51>
| 52> *xyz 0 1
| 53> Si        -1.088135    1.105229    0.506278
| 54> Si         0.956640    1.146447   -0.629234
| 55> C        -2.020101   -0.477415   -0.039432
| 56> O        -3.055800   -0.592937   -0.582805
| 57> H        -1.939602    2.255054    0.156178
| 58> H        -0.872717    1.008859    1.961102
| 59> F        -1.285480   -1.590301    0.268889
| 60> C         1.956482   -0.402546   -0.108657
| 61> H         1.740811    2.327287   -0.219330
| 62> H         0.789612    1.092636   -2.091120
| 63> O         2.364536   -1.286349   -0.766191
| 64> F         2.178220   -0.397838    1.241673
| 65> *
| 66>
| 67>
| 68>
| 69>
| 70>                          ****END OF INPUT****
 Total Charge           Charge          ....    0
 Multiplicity           Mult            ....    1
 Number of Electrons    NEL             ....   78
MP2 TOTAL ENERGY:    -1005.843779294 Eh
FINAL SINGLE POINT ENERGY     -1005.843779294342
MP2 TOTAL ENERGY:    -1006.264194469 Eh
FINAL SINGLE POINT ENERGY     -1006.264194468840

CARTESIAN COORDINATES (ANGSTROEM)
---------------------------------
  Si    -1.088135    1.105229    0.506278
  Si     0.956640    1.146447   -0.629234
  C     -2.020101   -0.477415   -0.039432
  O     -3.055800   -0.592937   -0.582805
  H     -1.939602    2.255054    0.156178
  H     -0.872717    1.008859    1.961102
  F     -1.285480   -1.590301    0.268889
  C      1.956482   -0.402546   -0.108657
  H      1.740811    2.327287   -0.219330
  H      0.789612    1.092636   -2.091120
  O      2.364536   -1.286349   -0.766191
  F      2.178220   -0.397838    1.241673

 Multiplicity           Mult            ....    1
 Number of Electrons    NEL             ....   78
 Basis Dimension        Dim             ....  832

ORBITAL ENERGIES
----------------

  NO   OCC          E(Eh)            E(eV)
   0   2.0000     -68.823692     -1872.7879
   1   2.0000     -68.823642     -1872.7865
   2   2.0000     -26.330650      -716.4934
   3   2.0000     -26.329054      -716.4500
   4   2.0000     -20.601258      -560.5887
   5   2.0000     -20.598691      -560.5189
   6   2.0000     -11.418324      -310.7084
   7   2.0000     -11.416452      -310.6574
   8   2.0000      -6.174529      -168.0175
   9   2.0000      -6.174355      -168.0127
  10   2.0000      -4.280938      -116.4903
  11   2.0000      -4.280677      -116.4832
  12   2.0000      -4.280587      -116.4807
  13   2.0000      -4.280307      -116.4731
  14   2.0000      -4.280232      -116.4710
  15   2.0000      -4.280100      -116.4674
  16   2.0000      -1.653422       -44.9919
  17   2.0000      -1.651719       -44.9456
  18   2.0000      -1.449698       -39.4483
  19   2.0000      -1.447427       -39.3865
  20   2.0000      -0.903528       -24.5862
  21   2.0000      -0.888934       -24.1891
  22   2.0000      -0.811100       -22.0711
  23   2.0000      -0.782987       -21.3062
  24   2.0000      -0.728510       -19.8238
  25   2.0000      -0.726122       -19.7588
  26   2.0000      -0.722128       -19.6501
  27   2.0000      -0.718663       -19.5558
  28   2.0000      -0.710049       -19.3214
  29   2.0000      -0.676738       -18.4150
  30   2.0000      -0.604247       -16.4424
  31   2.0000      -0.595502       -16.2044
  32   2.0000      -0.563618       -15.3368
  33   2.0000      -0.560639       -15.2558
  34   2.0000      -0.538185       -14.6448
  35   2.0000      -0.528560       -14.3828
  36   2.0000      -0.490465       -13.3462
  37   2.0000      -0.476187       -12.9577
  38   2.0000      -0.444886       -12.1060
  39   0.0000       0.017672         0.4809
  40   0.0000       0.024531         0.6675
  41   0.0000       0.032994         0.8978
  42   0.0000       0.037621         1.0237
  43   0.0000       0.046154         1.2559

MULLIKEN ATOMIC CHARGES
-----------------------
   0 Si:    0.766495
   1 Si:    0.762085
   2 C :    0.858004
   3 O :   -0.673210
   4 H :   -0.183333
   5 H :   -0.152172
   6 F :   -0.619756
   7 C :    0.896648
   8 H :   -0.180969
   9 H :   -0.155119
  10 O :   -0.691692
  11 F :   -0.626982
Sum of atomic charges:    0.0000000

LOEWDIN ATOMIC CHARGES
----------------------
   0 Si:    0.707468
   1 Si:    0.705112
   2 C :   -1.340733
   3 O :    0.555139
   4 H :   -0.274171
   5 H :   -0.268976
   6 F :    0.626595
   7 C :   -1.346770
   8 H :   -0.274468
   9 H :   -0.270031
  10 O :    0.558404
  11 F :    0.622431

  Mayer bond orders larger than 0.100000
B(  0-Si,  1-Si) :   0.8089 B(  0-Si,  2-C ) :   0.6538 B(  0-Si,  4-H ) :   0.8299
B(  0-Si,  5-H ) :   0.8111 B(  1-Si,  7-C ) :   0.6432 B(  1-Si,  8-H ) :   0.8194
B(  1-Si,  9-H ) :   0.8406 B(  2-C ,  3-O ) :   1.7172 B(  2-C ,  6-F ) :   0.6347
B(  7-C , 10-O ) :   1.7058 B(  7-C , 11-F ) :   0.5854

MP2 TOTAL ENERGY:    -1006.405380777 Eh
FINAL SINGLE POINT ENERGY     -1006.405380776947

DIPOLE MOMENT
-------------
                                X             Y             Z
Electronic contribution:      1.14697      -6.14407       1.80948
Nuclear contribution   :     -1.10800       8.05587      -1.61364
                        -----------------------------------------
Total Dipole Moment    :      0.03897       1.91181       0.19584
                        -----------------------------------------
Magnitude (a.u.)       :      1.92221
Magnitude (Debye)      :      4.88586

Rotational constants in cm-1:     0.069194     0.028338     0.024288
Rotational constants in MHz :  2074.390798   849.552192   728.144686

                             ****ORCA TERMINATED NORMALLY****
TOTAL RUN TIME: 0 days 0 hours 53 minutes 8 seconds 577 msec
