                         Program Version 5.0.4 -  RELEASE  -
|  1> ! ri-mp2 aug-cc-pvdz aug-cc-pvdz/c tightscf
|  2> %pal nprocs 16 end
|  3> %maxcore 3800
|  4> %base "DZ_B-B_30_AB"
|  5> %scf
|  6> STABPerform true
|  7> STABRestartUHFifUnstable true
|  8> end
|  9>
| 10> *xyz 0 1
| 11> B        -1.535295   -0.160193    0.000001
| 12> B         0.003385    0.470488    0.000002
| 13> N         1.210498   -0.218631   -0.000002
| 14> H         1.287573   -1.221153   -0.000002
| 15> H         2.102424    0.245842   -0.000004
| 16> H         0.079480    1.672111   -0.000003
| 17> H        -2.141703   -0.358937    1.011073
| 18> H        -2.141708   -0.358924   -1.011069
| 19> *
| 20>
| 21> $new_job
| 22> ! ri-mp2 aug-cc-pvtz aug-cc-pvtz/c tightscf
| 23> %pal nprocs 16 end
| 24> %maxcore 3800
| 25> %base "TZ_B-B_30_AB"
| 26>
| 27> *xyz 0 1
| 28> B        -1.535295   -0.160193    0.000001
| 29> B         0.003385    0.470488    0.000002
| 30> N         1.210498   -0.218631   -0.000002
| 31> H         1.287573   -1.221153   -0.000002
| 32> H         2.102424    0.245842   -0.000004
| 33> H         0.079480    1.672111   -0.000003
| 34> H        -2.141703   -0.358937    1.011073
| 35> H        -2.141708   -0.358924   -1.011069
| 36> *
| 37>
| 38> $new_job
| 39> ! ri-mp2 aug-cc-pvqz aug-cc-pvqz/c tightscf
| 40> %pal nprocs 16 end
| 41> %maxcore 3800
| 42> %base "QZ_B-B_30_AB"
| 43>
| 44> *xyz 0 1
| 45> B        -1.535295   -0.160193    0.000001
| 46> B         0.003385    0.470488    0.000002
| 47> N         1.210498   -0.218631   -0.000002
| 48> H         1.287573   -1.221153   -0.000002
| 49> H         2.102424    0.245842   -0.000004
| 50> H         0.079480    1.672111   -0.000003
| 51> H        -2.141703   -0.358937    1.011073
| 52> H        -2.141708   -0.358924   -1.011069
| 53> *
| 54>
| 55>
| 56>
| 57>
| 58>                          ****END OF INPUT****
 Total Charge           Charge          ....    0
 Multiplicity           Mult            ....    1
 Number of Electrons    NEL             ....   22
MP2 TOTAL ENERGY:     -107.094690973 Eh
FINAL SINGLE POINT ENERGY      -107.094690972513
MP2 TOTAL ENERGY:     -107.194611441 Eh
FINAL SINGLE POINT ENERGY      -107.194611440566

CARTESIAN COORDINATES (ANGSTROEM)
---------------------------------
  B     -1.535295   -0.160193    0.000001
  B      0.003385    0.470488    0.000002
  N      1.210498   -0.218631   -0.000002
  H      1.287573   -1.221153   -0.000002
  H      2.102424    0.245842   -0.000004
  H      0.079480    1.672111   -0.000003
  H     -2.141703   -0.358937    1.011073
  H     -2.141708   -0.358924   -1.011069

 Multiplicity           Mult            ....    1
 Number of Electrons    NEL             ....   22
 Basis Dimension        Dim             ....  470

ORBITAL ENERGIES
----------------

  NO   OCC          E(Eh)            E(eV)
   0   2.0000     -15.553914      -423.2435
   1   2.0000      -7.579124      -206.2384
   2   2.0000      -7.567585      -205.9244
   3   2.0000      -1.159267       -31.5453
   4   2.0000      -0.735183       -20.0053
   5   2.0000      -0.686997       -18.6941
   6   2.0000      -0.651887       -17.7387
   7   2.0000      -0.530135       -14.4257
   8   2.0000      -0.486147       -13.2287
   9   2.0000      -0.432368       -11.7653
  10   2.0000      -0.411621       -11.2008
  11   0.0000       0.021453         0.5838
  12   0.0000       0.030402         0.8273
  13   0.0000       0.033883         0.9220
  14   0.0000       0.036616         0.9964
  15   0.0000       0.047122         1.2822

MULLIKEN ATOMIC CHARGES
-----------------------
   0 B :    0.338962
   1 B :    0.491393
   2 N :   -0.666944
   3 H :    0.254666
   4 H :    0.233838
   5 H :   -0.288816
   6 H :   -0.181550
   7 H :   -0.181549
Sum of atomic charges:    0.0000000

LOEWDIN ATOMIC CHARGES
----------------------
   0 B :    0.484659
   1 B :   -0.144812
   2 N :    1.313271
   3 H :   -0.503633
   4 H :   -0.508579
   5 H :   -0.195621
   6 H :   -0.222642
   7 H :   -0.222643

  Mayer bond orders larger than 0.100000
B(  0-B ,  1-B ) :   1.0244 B(  0-B ,  6-H ) :   0.9659 B(  0-B ,  7-H ) :   0.9659
B(  1-B ,  2-N ) :   1.1904 B(  1-B ,  5-H ) :   0.8738 B(  2-N ,  3-H ) :   0.9668
B(  2-N ,  4-H ) :   0.9744

MP2 TOTAL ENERGY:     -107.225933737 Eh
FINAL SINGLE POINT ENERGY      -107.225933736685

DIPOLE MOMENT
-------------
                                X             Y             Z
Electronic contribution:      0.16866      -0.05300       0.00001
Nuclear contribution   :      0.43443      -0.27674      -0.00001
                        -----------------------------------------
Total Dipole Moment    :      0.60309      -0.32974      -0.00000
                        -----------------------------------------
Magnitude (a.u.)       :      0.68734
Magnitude (Debye)      :      1.74709

Rotational constants in cm-1:     1.679401     0.265705     0.243042
Rotational constants in MHz : 50347.164031  7965.627878  7286.203826

                             ****ORCA TERMINATED NORMALLY****
TOTAL RUN TIME: 0 days 0 hours 7 minutes 26 seconds 511 msec
