                         Program Version 5.0.4 -  RELEASE  -
|  1> ! ri-mp2 aug-cc-pvdz aug-cc-pvdz/c tightscf
|  2> %pal nprocs 16 end
|  3> %maxcore 3800
|  4> %base "DZ_P-O_27_A"
|  5> %scf
|  6> STABPerform true
|  7> STABRestartUHFifUnstable true
|  8> end
|  9>
| 10> *xyz 0 2
| 11> O         1.881824   -0.023718   -0.000004
| 12> O         0.832645    0.760729   -0.000078
| 13> C        -0.356803   -0.005790    0.000002
| 14> F        -1.335564    0.871415   -0.000086
| 15> F        -0.419713   -0.761228    1.074885
| 16> F        -0.419717   -0.761447   -1.074727
| 17> *
| 18>
| 19> $new_job
| 20> ! ri-mp2 aug-cc-pvtz aug-cc-pvtz/c tightscf
| 21> %pal nprocs 16 end
| 22> %maxcore 3800
| 23> %base "TZ_P-O_27_A"
| 24>
| 25> *xyz 0 2
| 26> O         1.881824   -0.023718   -0.000004
| 27> O         0.832645    0.760729   -0.000078
| 28> C        -0.356803   -0.005790    0.000002
| 29> F        -1.335564    0.871415   -0.000086
| 30> F        -0.419713   -0.761228    1.074885
| 31> F        -0.419717   -0.761447   -1.074727
| 32> *
| 33>
| 34> $new_job
| 35> ! ri-mp2 aug-cc-pvqz aug-cc-pvqz/c tightscf
| 36> %pal nprocs 16 end
| 37> %maxcore 3800
| 38> %base "QZ_P-O_27_A"
| 39>
| 40> *xyz 0 2
| 41> O         1.881824   -0.023718   -0.000004
| 42> O         0.832645    0.760729   -0.000078
| 43> C        -0.356803   -0.005790    0.000002
| 44> F        -1.335564    0.871415   -0.000086
| 45> F        -0.419713   -0.761228    1.074885
| 46> F        -0.419717   -0.761447   -1.074727
| 47> *
| 48>
| 49>
| 50>
| 51>
| 52>                          ****END OF INPUT****
 Total Charge           Charge          ....    0
 Multiplicity           Mult            ....    2
 Number of Electrons    NEL             ....   49
MP2 TOTAL ENERGY:     -486.942585865 Eh
FINAL SINGLE POINT ENERGY      -486.942585864998
MP2 TOTAL ENERGY:     -487.345697379 Eh
FINAL SINGLE POINT ENERGY      -487.345697378999

CARTESIAN COORDINATES (ANGSTROEM)
---------------------------------
  O      1.881824   -0.023718   -0.000004
  O      0.832645    0.760729   -0.000078
  C     -0.356803   -0.005790    0.000002
  F     -1.335564    0.871415   -0.000086
  F     -0.419713   -0.761228    1.074885
  F     -0.419717   -0.761447   -1.074727

 Multiplicity           Mult            ....    2
 Number of Electrons    NEL             ....   49
 Basis Dimension        Dim             ....  480

ORBITAL ENERGIES
----------------
                 SPIN UP ORBITALS
  NO   OCC          E(Eh)            E(eV)
   0   1.0000     -26.377930      -717.7800
   1   1.0000     -26.376288      -717.7353
   2   1.0000     -26.376264      -717.7346
   3   1.0000     -20.727128      -564.0138
   4   1.0000     -20.717896      -563.7626
   5   1.0000     -11.590503      -315.3936
   6   1.0000      -1.790017       -48.7088
   7   1.0000      -1.684851       -45.8471
   8   1.0000      -1.682728       -45.7894
   9   1.0000      -1.632192       -44.4142
  10   1.0000      -1.273752       -34.6606
  11   1.0000      -0.993995       -27.0480
  12   1.0000      -0.887474       -24.1494
  13   1.0000      -0.882708       -24.0197
  14   1.0000      -0.874558       -23.7979
  15   1.0000      -0.805449       -21.9174
  16   1.0000      -0.761341       -20.7172
  17   1.0000      -0.741457       -20.1761
  18   1.0000      -0.723655       -19.6917
  19   1.0000      -0.707917       -19.2634
  20   1.0000      -0.704285       -19.1646
  21   1.0000      -0.693400       -18.8684
  22   1.0000      -0.689031       -18.7495
  23   1.0000      -0.565363       -15.3843
  24   1.0000      -0.555252       -15.1092
  25   0.0000       0.056890         1.5481
  26   0.0000       0.062762         1.7078
  27   0.0000       0.064298         1.7496
  28   0.0000       0.064420         1.7530
  29   0.0000       0.109022         2.9666

                 SPIN DOWN ORBITALS
  NO   OCC          E(Eh)            E(eV)
   0   1.0000     -26.378094      -717.7844
   1   1.0000     -26.376257      -717.7344
   2   1.0000     -26.376234      -717.7338
   3   1.0000     -20.711272      -563.5824
   4   1.0000     -20.686164      -562.8991
   5   1.0000     -11.590962      -315.4061
   6   1.0000      -1.788918       -48.6789
   7   1.0000      -1.685029       -45.8520
   8   1.0000      -1.682570       -45.7851
   9   1.0000      -1.575170       -42.8626
  10   1.0000      -1.181322       -32.1454
  11   1.0000      -0.984870       -26.7997
  12   1.0000      -0.881671       -23.9915
  13   1.0000      -0.880026       -23.9467
  14   1.0000      -0.861064       -23.4307
  15   1.0000      -0.758078       -20.6284
  16   1.0000      -0.754224       -20.5235
  17   1.0000      -0.715796       -19.4778
  18   1.0000      -0.708903       -19.2902
  19   1.0000      -0.698181       -18.9985
  20   1.0000      -0.688840       -18.7443
  21   1.0000      -0.680751       -18.5242
  22   1.0000      -0.615125       -16.7384
  23   1.0000      -0.521864       -14.2006
  24   0.0000       0.056990         1.5508
  25   0.0000       0.059898         1.6299
  26   0.0000       0.063080         1.7165
  27   0.0000       0.064843         1.7645
  28   0.0000       0.074309         2.0220

MULLIKEN ATOMIC CHARGES AND SPIN POPULATIONS
--------------------------------------------
   0 O :   -0.089858    0.959201
   1 O :   -0.251481    0.048470
   2 C :    1.914441   -0.012595
   3 F :   -0.534576   -0.001250
   4 F :   -0.519263    0.003087
   5 F :   -0.519263    0.003087
Sum of atomic charges         :    0.0000000

LOEWDIN ATOMIC CHARGES AND SPIN POPULATIONS
-------------------------------------------
   0 O :    0.291794    0.798882
   1 O :    0.153331    0.204390
   2 C :   -2.694666    0.000892
   3 F :    0.748798   -0.002614
   4 F :    0.750371   -0.000775
   5 F :    0.750371   -0.000775

  Mayer bond orders larger than 0.100000
B(  0-O ,  1-O ) :   1.0034 B(  1-O ,  2-C ) :   0.8100 B(  2-C ,  3-F ) :   0.6530
B(  2-C ,  4-F ) :   0.6358 B(  2-C ,  5-F ) :   0.6358

MP2 TOTAL ENERGY:     -487.479151071 Eh
FINAL SINGLE POINT ENERGY      -487.479151070914

DIPOLE MOMENT
-------------
                                X             Y             Z
Electronic contribution:     -2.08345      -0.62973       0.00007
Nuclear contribution   :      1.99607       0.59660      -0.00007
                        -----------------------------------------
Total Dipole Moment    :     -0.08739      -0.03314       0.00000
                        -----------------------------------------
Magnitude (a.u.)       :      0.09346
Magnitude (Debye)      :      0.23755

Rotational constants in cm-1:     0.188137     0.109672     0.108391
Rotational constants in MHz :  5640.211321  3287.889080  3249.490132

                             ****ORCA TERMINATED NORMALLY****
TOTAL RUN TIME: 0 days 0 hours 22 minutes 27 seconds 229 msec
