                         Program Version 5.0.4 -  RELEASE  -
|  1> ! ri-mp2 aug-cc-pvdz aug-cc-pvdz/c tightscf
|  2> %pal nprocs 16 end
|  3> %maxcore 3800
|  4> %base "DZ_P-O_11_AB"
|  5> %scf
|  6> STABPerform true
|  7> STABRestartUHFifUnstable true
|  8> end
|  9>
| 10> *xyz 0 1
| 11> C        -1.555931   -0.027029    0.243966
| 12> O        -0.360739   -0.296074   -0.538617
| 13> P         1.060044    0.096543    0.004557
| 14> O         1.283115    1.455147    0.472986
| 15> O         1.297669   -1.006803    1.135607
| 16> C        -2.084028    1.339857   -0.124360
| 17> H        -2.349637    1.368205   -1.181677
| 18> H        -1.333219    2.103385    0.070546
| 19> C        -2.521189   -1.151088   -0.042125
| 20> H        -1.273894   -0.045446    1.299314
| 21> H        -3.440094   -1.008771    0.526675
| 22> H        -2.087804   -2.111541    0.233069
| 23> H        -2.771285   -1.171797   -1.103301
| 24> H        -2.974639    1.565496    0.463069
| 25> H         1.857631   -0.669719    1.843851
| 26> O         1.986445   -0.311724   -1.206792
| 27> H         1.787248   -1.172768   -1.590278
| 28> *
| 29>
| 30> $new_job
| 31> ! ri-mp2 aug-cc-pvtz aug-cc-pvtz/c tightscf
| 32> %pal nprocs 16 end
| 33> %maxcore 3800
| 34> %base "TZ_P-O_11_AB"
| 35>
| 36> *xyz 0 1
| 37> C        -1.555931   -0.027029    0.243966
| 38> O        -0.360739   -0.296074   -0.538617
| 39> P         1.060044    0.096543    0.004557
| 40> O         1.283115    1.455147    0.472986
| 41> O         1.297669   -1.006803    1.135607
| 42> C        -2.084028    1.339857   -0.124360
| 43> H        -2.349637    1.368205   -1.181677
| 44> H        -1.333219    2.103385    0.070546
| 45> C        -2.521189   -1.151088   -0.042125
| 46> H        -1.273894   -0.045446    1.299314
| 47> H        -3.440094   -1.008771    0.526675
| 48> H        -2.087804   -2.111541    0.233069
| 49> H        -2.771285   -1.171797   -1.103301
| 50> H        -2.974639    1.565496    0.463069
| 51> H         1.857631   -0.669719    1.843851
| 52> O         1.986445   -0.311724   -1.206792
| 53> H         1.787248   -1.172768   -1.590278
| 54> *
| 55>
| 56> $new_job
| 57> ! ri-mp2 aug-cc-pvqz aug-cc-pvqz/c tightscf
| 58> %pal nprocs 16 end
| 59> %maxcore 3800
| 60> %base "QZ_P-O_11_AB"
| 61>
| 62> *xyz 0 1
| 63> C        -1.555931   -0.027029    0.243966
| 64> O        -0.360739   -0.296074   -0.538617
| 65> P         1.060044    0.096543    0.004557
| 66> O         1.283115    1.455147    0.472986
| 67> O         1.297669   -1.006803    1.135607
| 68> C        -2.084028    1.339857   -0.124360
| 69> H        -2.349637    1.368205   -1.181677
| 70> H        -1.333219    2.103385    0.070546
| 71> C        -2.521189   -1.151088   -0.042125
| 72> H        -1.273894   -0.045446    1.299314
| 73> H        -3.440094   -1.008771    0.526675
| 74> H        -2.087804   -2.111541    0.233069
| 75> H        -2.771285   -1.171797   -1.103301
| 76> H        -2.974639    1.565496    0.463069
| 77> H         1.857631   -0.669719    1.843851
| 78> O         1.986445   -0.311724   -1.206792
| 79> H         1.787248   -1.172768   -1.590278
| 80> *
| 81>
| 82>
| 83>
| 84>
| 85>                          ****END OF INPUT****
 Total Charge           Charge          ....    0
 Multiplicity           Mult            ....    1
 Number of Electrons    NEL             ....   74
MP2 TOTAL ENERGY:     -760.564047020 Eh
FINAL SINGLE POINT ENERGY      -760.564047020438
MP2 TOTAL ENERGY:     -761.020259714 Eh
FINAL SINGLE POINT ENERGY      -761.020259713575

CARTESIAN COORDINATES (ANGSTROEM)
---------------------------------
  C     -1.555931   -0.027029    0.243966
  O     -0.360739   -0.296074   -0.538617
  P      1.060044    0.096543    0.004557
  O      1.283115    1.455147    0.472986
  O      1.297669   -1.006803    1.135607
  C     -2.084028    1.339857   -0.124360
  H     -2.349637    1.368205   -1.181677
  H     -1.333219    2.103385    0.070546
  C     -2.521189   -1.151088   -0.042125
  H     -1.273894   -0.045446    1.299314
  H     -3.440094   -1.008771    0.526675
  H     -2.087804   -2.111541    0.233069
  H     -2.771285   -1.171797   -1.103301
  H     -2.974639    1.565496    0.463069
  H      1.857631   -0.669719    1.843851
  O      1.986445   -0.311724   -1.206792
  H      1.787248   -1.172768   -1.590278

 Multiplicity           Mult            ....    1
 Number of Electrons    NEL             ....   74
 Basis Dimension        Dim             .... 1058

ORBITAL ENERGIES
----------------

  NO   OCC          E(Eh)            E(eV)
   0   2.0000     -80.088996     -2179.3324
   1   2.0000     -20.600220      -560.5605
   2   2.0000     -20.600132      -560.5581
   3   2.0000     -20.587956      -560.2268
   4   2.0000     -20.503793      -557.9366
   5   2.0000     -11.306199      -307.6573
   6   2.0000     -11.226795      -305.4966
   7   2.0000     -11.218508      -305.2711
   8   2.0000      -7.607355      -207.0067
   9   2.0000      -5.506265      -149.8331
  10   2.0000      -5.506041      -149.8270
  11   2.0000      -5.504853      -149.7947
  12   2.0000      -1.462238       -39.7895
  13   2.0000      -1.388919       -37.7944
  14   2.0000      -1.388129       -37.7729
  15   2.0000      -1.299310       -35.3560
  16   2.0000      -1.073803       -29.2197
  17   2.0000      -0.953251       -25.9393
  18   2.0000      -0.864817       -23.5329
  19   2.0000      -0.812246       -22.1023
  20   2.0000      -0.776194       -21.1213
  21   2.0000      -0.728709       -19.8292
  22   2.0000      -0.664283       -18.0761
  23   2.0000      -0.652656       -17.7597
  24   2.0000      -0.641380       -17.4528
  25   2.0000      -0.617655       -16.8073
  26   2.0000      -0.595665       -16.2089
  27   2.0000      -0.574472       -15.6322
  28   2.0000      -0.568114       -15.4592
  29   2.0000      -0.553931       -15.0732
  30   2.0000      -0.546096       -14.8600
  31   2.0000      -0.532144       -14.4804
  32   2.0000      -0.525687       -14.3047
  33   2.0000      -0.501072       -13.6349
  34   2.0000      -0.482667       -13.1340
  35   2.0000      -0.471837       -12.8393
  36   2.0000      -0.457451       -12.4479
  37   0.0000       0.021269         0.5787
  38   0.0000       0.030410         0.8275
  39   0.0000       0.031008         0.8438
  40   0.0000       0.036199         0.9850
  41   0.0000       0.045067         1.2263

MULLIKEN ATOMIC CHARGES
-----------------------
   0 C :    0.565110
   1 O :   -0.987612
   2 P :    2.646158
   3 O :   -1.172719
   4 O :   -0.906013
   5 C :   -0.949697
   6 H :    0.229985
   7 H :    0.301484
   8 C :   -0.891681
   9 H :    0.318356
  10 H :    0.290501
  11 H :    0.238178
  12 H :    0.229190
  13 H :    0.300341
  14 H :    0.388555
  15 O :   -0.984486
  16 H :    0.384348
Sum of atomic charges:    0.0000000

LOEWDIN ATOMIC CHARGES
----------------------
   0 C :   -0.292466
   1 O :    0.701021
   2 P :   -0.999937
   3 O :    0.320103
   4 O :    1.106987
   5 C :    0.908271
   6 H :   -0.279899
   7 H :   -0.305860
   8 C :    0.906664
   9 H :   -0.316445
  10 H :   -0.279237
  11 H :   -0.280994
  12 H :   -0.284128
  13 H :   -0.275341
  14 H :   -0.864118
  15 O :    1.089099
  16 H :   -0.853719

  Mayer bond orders larger than 0.100000
B(  0-C ,  1-O ) :   0.4348 B(  0-C ,  5-C ) :   0.7684 B(  0-C ,  8-C ) :   0.6735
B(  0-C ,  9-H ) :   0.8645 B(  1-O ,  2-P ) :   0.8709 B(  2-P ,  3-O ) :   1.3300
B(  2-P ,  4-O ) :   0.6612 B(  2-P , 15-O ) :   0.4633 B(  4-O , 14-H ) :   0.9062
B(  5-C ,  6-H ) :   0.9536 B(  5-C ,  7-H ) :   0.9368 B(  5-C ,  8-C ) :   0.1082
B(  5-C , 13-H ) :   0.9521 B(  8-C , 10-H ) :   0.9854 B(  8-C , 11-H ) :   0.9867
B(  8-C , 12-H ) :   0.9707 B( 15-O , 16-H ) :   0.8480

MP2 TOTAL ENERGY:     -761.165269998 Eh
FINAL SINGLE POINT ENERGY      -761.165269997939

DIPOLE MOMENT
-------------
                                X             Y             Z
Electronic contribution:     12.64207      -0.05476      -0.37187
Nuclear contribution   :    -13.42293      -1.22772       0.55043
                        -----------------------------------------
Total Dipole Moment    :     -0.78085      -1.28248       0.17855
                        -----------------------------------------
Magnitude (a.u.)       :      1.51207
Magnitude (Debye)      :      3.84339

Rotational constants in cm-1:     0.097848     0.039924     0.036124
Rotational constants in MHz :  2933.402242  1196.881326  1082.984488

                             ****ORCA TERMINATED NORMALLY****
TOTAL RUN TIME: 0 days 3 hours 21 minutes 24 seconds 892 msec
