                         Program Version 5.0.4 -  RELEASE  -
|  1> ! ri-mp2 aug-cc-pvdz aug-cc-pvdz/c tightscf
|  2> %pal nprocs 16 end
|  3> %maxcore 3800
|  4> %base "DZ_S-Cl_10_AB"
|  5> %scf
|  6> STABPerform true
|  7> STABRestartUHFifUnstable true
|  8> end
|  9>
| 10> *xyz 0 1
| 11> Cl        -2.538447    0.038176    0.210176
| 12> S        -0.970725   -1.077393   -0.476809
| 13> Si         0.572315    0.043998    0.461675
| 14> Cl         2.257567   -1.005049    0.010205
| 15> Cl         0.700968    1.937427   -0.264162
| 16> H         0.377696    0.122900    1.909766
| 17> *
| 18>
| 19> $new_job
| 20> ! ri-mp2 aug-cc-pvtz aug-cc-pvtz/c tightscf
| 21> %pal nprocs 16 end
| 22> %maxcore 3800
| 23> %base "TZ_S-Cl_10_AB"
| 24>
| 25> *xyz 0 1
| 26> Cl        -2.538447    0.038176    0.210176
| 27> S        -0.970725   -1.077393   -0.476809
| 28> Si         0.572315    0.043998    0.461675
| 29> Cl         2.257567   -1.005049    0.010205
| 30> Cl         0.700968    1.937427   -0.264162
| 31> H         0.377696    0.122900    1.909766
| 32> *
| 33>
| 34> $new_job
| 35> ! ri-mp2 aug-cc-pvqz aug-cc-pvqz/c tightscf
| 36> %pal nprocs 16 end
| 37> %maxcore 3800
| 38> %base "QZ_S-Cl_10_AB"
| 39>
| 40> *xyz 0 1
| 41> Cl        -2.538447    0.038176    0.210176
| 42> S        -0.970725   -1.077393   -0.476809
| 43> Si         0.572315    0.043998    0.461675
| 44> Cl         2.257567   -1.005049    0.010205
| 45> Cl         0.700968    1.937427   -0.264162
| 46> H         0.377696    0.122900    1.909766
| 47> *
| 48>
| 49>
| 50>
| 51>
| 52>                          ****END OF INPUT****
 Total Charge           Charge          ....    0
 Multiplicity           Mult            ....    1
 Number of Electrons    NEL             ....   82
MP2 TOTAL ENERGY:    -2066.353573886 Eh
FINAL SINGLE POINT ENERGY     -2066.353573885640
MP2 TOTAL ENERGY:    -2066.632388439 Eh
FINAL SINGLE POINT ENERGY     -2066.632388438503

CARTESIAN COORDINATES (ANGSTROEM)
---------------------------------
  Cl    -2.538447    0.038176    0.210176
  S     -0.970725   -1.077393   -0.476809
  Si     0.572315    0.043998    0.461675
  Cl     2.257567   -1.005049    0.010205
  Cl     0.700968    1.937427   -0.264162
  H      0.377696    0.122900    1.909766

 Multiplicity           Mult            ....    1
 Number of Electrons    NEL             ....   82
 Basis Dimension        Dim             ....  466

ORBITAL ENERGIES
----------------

  NO   OCC          E(Eh)            E(eV)
   0   2.0000    -104.873187     -2853.7445
   1   2.0000    -104.856565     -2853.2922
   2   2.0000    -104.851716     -2853.1602
   3   2.0000     -92.020462     -2504.0041
   4   2.0000     -68.893611     -1874.6905
   5   2.0000     -10.597137      -288.3628
   6   2.0000     -10.584049      -288.0066
   7   2.0000     -10.579262      -287.8764
   8   2.0000      -9.020637      -245.4640
   9   2.0000      -8.064162      -219.4370
  10   2.0000      -8.062111      -219.3812
  11   2.0000      -8.061960      -219.3771
  12   2.0000      -8.050821      -219.0740
  13   2.0000      -8.049632      -219.0416
  14   2.0000      -8.049607      -219.0410
  15   2.0000      -8.046028      -218.9435
  16   2.0000      -8.044834      -218.9111
  17   2.0000      -8.044803      -218.9102
  18   2.0000      -6.701789      -182.3650
  19   2.0000      -6.700217      -182.3222
  20   2.0000      -6.699274      -182.2965
  21   2.0000      -6.231735      -169.5741
  22   2.0000      -4.339147      -118.0742
  23   2.0000      -4.338542      -118.0577
  24   2.0000      -4.337488      -118.0291
  25   2.0000      -1.161836       -31.6152
  26   2.0000      -1.138135       -30.9702
  27   2.0000      -1.111890       -30.2561
  28   2.0000      -0.939491       -25.5649
  29   2.0000      -0.720513       -19.6061
  30   2.0000      -0.590570       -16.0702
  31   2.0000      -0.580641       -15.8000
  32   2.0000      -0.577473       -15.7138
  33   2.0000      -0.540265       -14.7014
  34   2.0000      -0.529633       -14.4121
  35   2.0000      -0.504518       -13.7286
  36   2.0000      -0.493036       -13.4162
  37   2.0000      -0.484520       -13.1845
  38   2.0000      -0.477906       -13.0045
  39   2.0000      -0.438642       -11.9361
  40   2.0000      -0.392187       -10.6720
  41   0.0000       0.030581         0.8321
  42   0.0000       0.034690         0.9440
  43   0.0000       0.039422         1.0727
  44   0.0000       0.040948         1.1143
  45   0.0000       0.053879         1.4661

MULLIKEN ATOMIC CHARGES
-----------------------
   0 Cl:   -0.281349
   1 S :   -0.101515
   2 Si:    1.659126
   3 Cl:   -0.569144
   4 Cl:   -0.528157
   5 H :   -0.178960
Sum of atomic charges:   -0.0000000

LOEWDIN ATOMIC CHARGES
----------------------
   0 Cl:    0.428979
   1 S :    0.148368
   2 Si:   -1.897122
   3 Cl:    0.845789
   4 Cl:    0.853025
   5 H :   -0.379039

  Mayer bond orders larger than 0.100000
B(  0-Cl,  1-S ) :   0.9495 B(  1-S ,  2-Si) :   0.8133 B(  2-Si,  3-Cl) :   0.5624
B(  2-Si,  4-Cl) :   0.6081 B(  2-Si,  5-H ) :   0.9434

MP2 TOTAL ENERGY:    -2066.726436591 Eh
FINAL SINGLE POINT ENERGY     -2066.726436591267

DIPOLE MOMENT
-------------
                                X             Y             Z
Electronic contribution:      0.30729       1.04442      -1.51004
Nuclear contribution   :     -0.20970      -1.13544       1.80107
                        -----------------------------------------
Total Dipole Moment    :      0.09760      -0.09102       0.29103
                        -----------------------------------------
Magnitude (a.u.)       :      0.32017
Magnitude (Debye)      :      0.81381

Rotational constants in cm-1:     0.074206     0.034609     0.025073
Rotational constants in MHz :  2224.634572  1037.552252   751.673329

                             ****ORCA TERMINATED NORMALLY****
TOTAL RUN TIME: 0 days 0 hours 13 minutes 15 seconds 995 msec
