                         Program Version 5.0.4 -  RELEASE  -
|  1> ! ri-mp2 aug-cc-pvdz aug-cc-pvdz/c tightscf
|  2> %pal nprocs 16 end
|  3> %maxcore 3800
|  4> %base "DZ_S-Cl_30_A"
|  5> %scf
|  6> STABPerform true
|  7> STABRestartUHFifUnstable true
|  8> end
|  9>
| 10> *xyz 0 2
| 11> S        -1.735832   -0.316291   -0.000001
| 12> C        -0.088292    0.269329    0.000000
| 13> O         0.153766    1.442962    0.000002
| 14> O         0.805472   -0.710702   -0.000001
| 15> C         2.180245   -0.297241    0.000000
| 16> H         2.757135   -1.215851   -0.000001
| 17> H         2.395278    0.292954    0.888154
| 18> H         2.395278    0.292956   -0.888152
| 19> *
| 20>
| 21> $new_job
| 22> ! ri-mp2 aug-cc-pvtz aug-cc-pvtz/c tightscf
| 23> %pal nprocs 16 end
| 24> %maxcore 3800
| 25> %base "TZ_S-Cl_30_A"
| 26>
| 27> *xyz 0 2
| 28> S        -1.735832   -0.316291   -0.000001
| 29> C        -0.088292    0.269329    0.000000
| 30> O         0.153766    1.442962    0.000002
| 31> O         0.805472   -0.710702   -0.000001
| 32> C         2.180245   -0.297241    0.000000
| 33> H         2.757135   -1.215851   -0.000001
| 34> H         2.395278    0.292954    0.888154
| 35> H         2.395278    0.292956   -0.888152
| 36> *
| 37>
| 38> $new_job
| 39> ! ri-mp2 aug-cc-pvqz aug-cc-pvqz/c tightscf
| 40> %pal nprocs 16 end
| 41> %maxcore 3800
| 42> %base "QZ_S-Cl_30_A"
| 43>
| 44> *xyz 0 2
| 45> S        -1.735832   -0.316291   -0.000001
| 46> C        -0.088292    0.269329    0.000000
| 47> O         0.153766    1.442962    0.000002
| 48> O         0.805472   -0.710702   -0.000001
| 49> C         2.180245   -0.297241    0.000000
| 50> H         2.757135   -1.215851   -0.000001
| 51> H         2.395278    0.292954    0.888154
| 52> H         2.395278    0.292956   -0.888152
| 53> *
| 54>
| 55>
| 56>
| 57>
| 58>                          ****END OF INPUT****
 Total Charge           Charge          ....    0
 Multiplicity           Mult            ....    2
 Number of Electrons    NEL             ....   47
MP2 TOTAL ENERGY:     -625.535588945 Eh
FINAL SINGLE POINT ENERGY      -625.535588945348
MP2 TOTAL ENERGY:     -625.777474742 Eh
FINAL SINGLE POINT ENERGY      -625.777474742047

CARTESIAN COORDINATES (ANGSTROEM)
---------------------------------
  S     -1.735832   -0.316291   -0.000001
  C     -0.088292    0.269329    0.000000
  O      0.153766    1.442962    0.000002
  O      0.805472   -0.710702   -0.000001
  C      2.180245   -0.297241    0.000000
  H      2.757135   -1.215851   -0.000001
  H      2.395278    0.292954    0.888154
  H      2.395278    0.292956   -0.888152

 Multiplicity           Mult            ....    2
 Number of Electrons    NEL             ....   47
 Basis Dimension        Dim             ....  542

ORBITAL ENERGIES
----------------
                 SPIN UP ORBITALS
  NO   OCC          E(Eh)            E(eV)
   0   1.0000     -92.008604     -2503.6814
   1   1.0000     -20.625892      -561.2591
   2   1.0000     -20.561719      -559.5128
   3   1.0000     -11.417724      -310.6921
   4   1.0000     -11.300576      -307.5043
   5   1.0000      -9.011274      -245.2092
   6   1.0000      -6.707419      -182.5182
   7   1.0000      -6.688298      -181.9978
   8   1.0000      -6.686994      -181.9624
   9   1.0000      -1.490656       -40.5628
  10   1.0000      -1.389014       -37.7970
  11   1.0000      -1.064932       -28.9783
  12   1.0000      -0.972015       -26.4499
  13   1.0000      -0.795901       -21.6576
  14   1.0000      -0.704246       -19.1635
  15   1.0000      -0.696867       -18.9627
  16   1.0000      -0.694339       -18.8939
  17   1.0000      -0.594686       -16.1822
  18   1.0000      -0.579923       -15.7805
  19   1.0000      -0.547433       -14.8964
  20   1.0000      -0.491895       -13.3851
  21   1.0000      -0.487577       -13.2676
  22   1.0000      -0.454691       -12.3728
  23   1.0000      -0.414702       -11.2846
  24   0.0000       0.024206         0.6587
  25   0.0000       0.041571         1.1312
  26   0.0000       0.042625         1.1599
  27   0.0000       0.043647         1.1877
  28   0.0000       0.064772         1.7625

                 SPIN DOWN ORBITALS
  NO   OCC          E(Eh)            E(eV)
   0   1.0000     -91.999172     -2503.4247
   1   1.0000     -20.625552      -561.2498
   2   1.0000     -20.560017      -559.4665
   3   1.0000     -11.418651      -310.7173
   4   1.0000     -11.300442      -307.5007
   5   1.0000      -9.000838      -244.9252
   6   1.0000      -6.683555      -181.8688
   7   1.0000      -6.681381      -181.8096
   8   1.0000      -6.664745      -181.3569
   9   1.0000      -1.488964       -40.5168
  10   1.0000      -1.385368       -37.6978
  11   1.0000      -1.027149       -27.9501
  12   1.0000      -0.934262       -25.4226
  13   1.0000      -0.788899       -21.4670
  14   1.0000      -0.696821       -18.9615
  15   1.0000      -0.695165       -18.9164
  16   1.0000      -0.676534       -18.4094
  17   1.0000      -0.584058       -15.8930
  18   1.0000      -0.578786       -15.7496
  19   1.0000      -0.543936       -14.8012
  20   1.0000      -0.486746       -13.2450
  21   1.0000      -0.455472       -12.3940
  22   1.0000      -0.394637       -10.7386
  23   0.0000      -0.004027        -0.1096
  24   0.0000       0.024316         0.6617
  25   0.0000       0.042222         1.1489
  26   0.0000       0.042650         1.1606
  27   0.0000       0.044743         1.2175

MULLIKEN ATOMIC CHARGES AND SPIN POPULATIONS
--------------------------------------------
   0 S :    0.208691    1.104778
   1 C :    0.609435   -0.118148
   2 O :   -0.648919    0.017422
   3 O :   -0.554137   -0.006021
   4 C :   -0.606914    0.002240
   5 H :    0.427268    0.000131
   6 H :    0.282288   -0.000201
   7 H :    0.282288   -0.000201
Sum of atomic charges         :    0.0000000

LOEWDIN ATOMIC CHARGES AND SPIN POPULATIONS
-------------------------------------------
   0 S :    0.990376    0.743698
   1 C :   -1.844324    0.203185
   2 O :    0.548920    0.032381
   3 O :    0.698964    0.018662
   4 C :    0.566775    0.001688
   5 H :   -0.324475    0.000124
   6 H :   -0.318118    0.000132
   7 H :   -0.318119    0.000132

  Mayer bond orders larger than 0.100000
B(  0-S ,  1-C ) :   0.8858 B(  1-C ,  2-O ) :   1.6483 B(  1-C ,  3-O ) :   1.0438
B(  2-O ,  3-O ) :   0.1005 B(  3-O ,  4-C ) :   0.7899 B(  4-C ,  5-H ) :   0.8162
B(  4-C ,  6-H ) :   0.9253 B(  4-C ,  7-H ) :   0.9253

MP2 TOTAL ENERGY:     -625.856901821 Eh
FINAL SINGLE POINT ENERGY      -625.856901821052

DIPOLE MOMENT
-------------
                                X             Y             Z
Electronic contribution:     -6.79706      -0.09674      -0.00000
Nuclear contribution   :      7.37940      -0.58970       0.00000
                        -----------------------------------------
Total Dipole Moment    :      0.58235      -0.68644      -0.00000
                        -----------------------------------------
Magnitude (a.u.)       :      0.90018
Magnitude (Debye)      :      2.28807

Rotational constants in cm-1:     0.338831     0.091238     0.072870
Rotational constants in MHz : 10157.892032  2735.233218  2184.589708

                             ****ORCA TERMINATED NORMALLY****
TOTAL RUN TIME: 0 days 0 hours 26 minutes 42 seconds 306 msec
