                         Program Version 5.0.4 -  RELEASE  -
|  1> ! ri-mp2 aug-cc-pvdz aug-cc-pvdz/c tightscf
|  2> %pal nprocs 16 end
|  3> %maxcore 3800
|  4> %base "DZ_S-Cl_43_AB"
|  5> %scf
|  6> STABPerform true
|  7> STABRestartUHFifUnstable true
|  8> end
|  9>
| 10> *xyz 0 1
| 11> Cl         1.953840   -0.834298   -0.000008
| 12> S         0.976721    0.960201   -0.000002
| 13> C        -0.769523    0.557280    0.000004
| 14> O        -1.482157    1.531926    0.000008
| 15> N        -1.144181   -0.724469    0.000001
| 16> C        -2.539277   -1.112370    0.000008
| 17> H        -0.428712   -1.431258    0.000000
| 18> H        -2.776919   -1.697216   -0.888483
| 19> H        -3.140941   -0.208108   -0.000023
| 20> H        -2.776929   -1.697161    0.888532
| 21> *
| 22>
| 23> $new_job
| 24> ! ri-mp2 aug-cc-pvtz aug-cc-pvtz/c tightscf
| 25> %pal nprocs 16 end
| 26> %maxcore 3800
| 27> %base "TZ_S-Cl_43_AB"
| 28>
| 29> *xyz 0 1
| 30> Cl         1.953840   -0.834298   -0.000008
| 31> S         0.976721    0.960201   -0.000002
| 32> C        -0.769523    0.557280    0.000004
| 33> O        -1.482157    1.531926    0.000008
| 34> N        -1.144181   -0.724469    0.000001
| 35> C        -2.539277   -1.112370    0.000008
| 36> H        -0.428712   -1.431258    0.000000
| 37> H        -2.776919   -1.697216   -0.888483
| 38> H        -3.140941   -0.208108   -0.000023
| 39> H        -2.776929   -1.697161    0.888532
| 40> *
| 41>
| 42> $new_job
| 43> ! ri-mp2 aug-cc-pvqz aug-cc-pvqz/c tightscf
| 44> %pal nprocs 16 end
| 45> %maxcore 3800
| 46> %base "QZ_S-Cl_43_AB"
| 47>
| 48> *xyz 0 1
| 49> Cl         1.953840   -0.834298   -0.000008
| 50> S         0.976721    0.960201   -0.000002
| 51> C        -0.769523    0.557280    0.000004
| 52> O        -1.482157    1.531926    0.000008
| 53> N        -1.144181   -0.724469    0.000001
| 54> C        -2.539277   -1.112370    0.000008
| 55> H        -0.428712   -1.431258    0.000000
| 56> H        -2.776919   -1.697216   -0.888483
| 57> H        -3.140941   -0.208108   -0.000023
| 58> H        -2.776929   -1.697161    0.888532
| 59> *
| 60>
| 61>
| 62>
| 63>
| 64>                          ****END OF INPUT****
 Total Charge           Charge          ....    0
 Multiplicity           Mult            ....    1
 Number of Electrons    NEL             ....   64
MP2 TOTAL ENERGY:    -1065.383681336 Eh
FINAL SINGLE POINT ENERGY     -1065.383681336192
MP2 TOTAL ENERGY:    -1065.680650576 Eh
FINAL SINGLE POINT ENERGY     -1065.680650575880

CARTESIAN COORDINATES (ANGSTROEM)
---------------------------------
  Cl     1.953840   -0.834298   -0.000008
  S      0.976721    0.960201   -0.000002
  C     -0.769523    0.557280    0.000004
  O     -1.482157    1.531926    0.000008
  N     -1.144181   -0.724469    0.000001
  C     -2.539277   -1.112370    0.000008
  H     -0.428712   -1.431258    0.000000
  H     -2.776919   -1.697216   -0.888483
  H     -3.140941   -0.208108   -0.000023
  H     -2.776929   -1.697161    0.888532

 Multiplicity           Mult            ....    1
 Number of Electrons    NEL             ....   64
 Basis Dimension        Dim             ....  672

ORBITAL ENERGIES
----------------

  NO   OCC          E(Eh)            E(eV)
   0   2.0000    -104.873020     -2853.7400
   1   2.0000     -92.031747     -2504.3112
   2   2.0000     -20.545447      -559.0700
   3   2.0000     -15.610875      -424.7935
   4   2.0000     -11.398430      -310.1670
   5   2.0000     -11.276484      -306.8487
   6   2.0000     -10.597460      -288.3715
   7   2.0000      -9.030112      -245.7218
   8   2.0000      -8.064437      -219.4445
   9   2.0000      -8.062615      -219.3949
  10   2.0000      -8.062370      -219.3882
  11   2.0000      -6.711188      -182.6207
  12   2.0000      -6.709384      -182.5716
  13   2.0000      -6.708223      -182.5400
  14   2.0000      -1.420256       -38.6471
  15   2.0000      -1.266901       -34.4741
  16   2.0000      -1.160572       -31.5808
  17   2.0000      -1.004654       -27.3380
  18   2.0000      -0.941248       -25.6127
  19   2.0000      -0.815784       -22.1986
  20   2.0000      -0.713245       -19.4084
  21   2.0000      -0.674772       -18.3615
  22   2.0000      -0.653580       -17.7848
  23   2.0000      -0.607496       -16.5308
  24   2.0000      -0.580273       -15.7900
  25   2.0000      -0.571030       -15.5385
  26   2.0000      -0.534431       -14.5426
  27   2.0000      -0.525567       -14.3014
  28   2.0000      -0.497755       -13.5446
  29   2.0000      -0.432671       -11.7736
  30   2.0000      -0.421274       -11.4634
  31   2.0000      -0.384840       -10.4720
  32   0.0000       0.021406         0.5825
  33   0.0000       0.035248         0.9591
  34   0.0000       0.037351         1.0164
  35   0.0000       0.046979         1.2784
  36   0.0000       0.054382         1.4798

MULLIKEN ATOMIC CHARGES
-----------------------
   0 Cl:   -0.321824
   1 S :    0.339329
   2 C :    0.531286
   3 O :   -0.703981
   4 N :   -0.394165
   5 C :   -0.680011
   6 H :    0.384398
   7 H :    0.276608
   8 H :    0.291749
   9 H :    0.276611
Sum of atomic charges:    0.0000000

LOEWDIN ATOMIC CHARGES
----------------------
   0 Cl:    0.533458
   1 S :    0.437885
   2 C :   -1.424055
   3 O :    0.576543
   4 N :    0.689110
   5 C :    0.786681
   6 H :   -0.686136
   7 H :   -0.282443
   8 H :   -0.348598
   9 H :   -0.282443

  Mayer bond orders larger than 0.100000
B(  0-Cl,  1-S ) :   0.9664 B(  1-S ,  2-C ) :   1.0545 B(  1-S ,  4-N ) :  -0.1370
B(  2-C ,  3-O ) :   1.5012 B(  2-C ,  4-N ) :   1.1213 B(  3-O ,  4-N ) :   0.1704
B(  4-N ,  5-C ) :   0.7971 B(  4-N ,  6-H ) :   0.9176 B(  5-C ,  7-H ) :   0.9491
B(  5-C ,  8-H ) :   0.9251 B(  5-C ,  9-H ) :   0.9491

MP2 TOTAL ENERGY:    -1065.778213958 Eh
FINAL SINGLE POINT ENERGY     -1065.778213957657

DIPOLE MOMENT
-------------
                                X             Y             Z
Electronic contribution:     11.32192       2.31371      -0.00004
Nuclear contribution   :    -11.46612      -3.68505       0.00004
                        -----------------------------------------
Total Dipole Moment    :     -0.14420      -1.37134      -0.00000
                        -----------------------------------------
Magnitude (a.u.)       :      1.37890
Magnitude (Debye)      :      3.50488

Rotational constants in cm-1:     0.133520     0.050934     0.037128
Rotational constants in MHz :  4002.823792  1526.973773  1113.070849

                             ****ORCA TERMINATED NORMALLY****
TOTAL RUN TIME: 0 days 0 hours 32 minutes 43 seconds 338 msec
