                         Program Version 5.0.4 -  RELEASE  -
|  1> ! ri-mp2 aug-cc-pvdz aug-cc-pvdz/c tightscf
|  2> %pal nprocs 16 end
|  3> %maxcore 3800
|  4> %base "DZ_B-Si_25_A"
|  5> %scf
|  6> STABPerform true
|  7> STABRestartUHFifUnstable true
|  8> end
|  9>
| 10> *xyz 0 2
| 11> N         0.947676    0.000000    0.414188
| 12> F         1.685098   -1.095037   -0.039151
| 13> F         1.685098    1.095037   -0.039151
| 14> Si        -0.670021    0.000000   -0.439073
| 15> C        -1.476180    1.563509    0.176643
| 16> H        -1.519591    1.559652    1.268113
| 17> H        -2.493336    1.639744   -0.208606
| 18> H        -0.922588    2.444971   -0.143155
| 19> C        -1.476180   -1.563509    0.176643
| 20> H        -1.519591   -1.559652    1.268113
| 21> H        -0.922588   -2.444971   -0.143155
| 22> H        -2.493336   -1.639744   -0.208606
| 23> *
| 24>
| 25> $new_job
| 26> ! ri-mp2 aug-cc-pvtz aug-cc-pvtz/c tightscf
| 27> %pal nprocs 16 end
| 28> %maxcore 3800
| 29> %base "TZ_B-Si_25_A"
| 30>
| 31> *xyz 0 2
| 32> N         0.947676    0.000000    0.414188
| 33> F         1.685098   -1.095037   -0.039151
| 34> F         1.685098    1.095037   -0.039151
| 35> Si        -0.670021    0.000000   -0.439073
| 36> C        -1.476180    1.563509    0.176643
| 37> H        -1.519591    1.559652    1.268113
| 38> H        -2.493336    1.639744   -0.208606
| 39> H        -0.922588    2.444971   -0.143155
| 40> C        -1.476180   -1.563509    0.176643
| 41> H        -1.519591   -1.559652    1.268113
| 42> H        -0.922588   -2.444971   -0.143155
| 43> H        -2.493336   -1.639744   -0.208606
| 44> *
| 45>
| 46> $new_job
| 47> ! ri-mp2 aug-cc-pvqz aug-cc-pvqz/c tightscf
| 48> %pal nprocs 16 end
| 49> %maxcore 3800
| 50> %base "QZ_B-Si_25_A"
| 51>
| 52> *xyz 0 2
| 53> N         0.947676    0.000000    0.414188
| 54> F         1.685098   -1.095037   -0.039151
| 55> F         1.685098    1.095037   -0.039151
| 56> Si        -0.670021    0.000000   -0.439073
| 57> C        -1.476180    1.563509    0.176643
| 58> H        -1.519591    1.559652    1.268113
| 59> H        -2.493336    1.639744   -0.208606
| 60> H        -0.922588    2.444971   -0.143155
| 61> C        -1.476180   -1.563509    0.176643
| 62> H        -1.519591   -1.559652    1.268113
| 63> H        -0.922588   -2.444971   -0.143155
| 64> H        -2.493336   -1.639744   -0.208606
| 65> *
| 66>
| 67>
| 68>
| 69>
| 70>                          ****END OF INPUT****
 Total Charge           Charge          ....    0
 Multiplicity           Mult            ....    2
 Number of Electrons    NEL             ....   57
MP2 TOTAL ENERGY:     -622.340167757 Eh
FINAL SINGLE POINT ENERGY      -622.340167757262
MP2 TOTAL ENERGY:     -622.663237267 Eh
FINAL SINGLE POINT ENERGY      -622.663237266849

CARTESIAN COORDINATES (ANGSTROEM)
---------------------------------
  N      0.947676    0.000000    0.414188
  F      1.685098   -1.095037   -0.039151
  F      1.685098    1.095037   -0.039151
  Si    -0.670021    0.000000   -0.439073
  C     -1.476180    1.563509    0.176643
  H     -1.519591    1.559652    1.268113
  H     -2.493336    1.639744   -0.208606
  H     -0.922588    2.444971   -0.143155
  C     -1.476180   -1.563509    0.176643
  H     -1.519591   -1.559652    1.268113
  H     -0.922588   -2.444971   -0.143155
  H     -2.493336   -1.639744   -0.208606

 Multiplicity           Mult            ....    2
 Number of Electrons    NEL             ....   57
 Basis Dimension        Dim             ....  760

ORBITAL ENERGIES
----------------
                 SPIN UP ORBITALS
  NO   OCC          E(Eh)            E(eV)
   0   1.0000     -68.808915     -1872.3858
   1   1.0000     -26.322223      -716.2641
   2   1.0000     -26.322205      -716.2636
   3   1.0000     -15.721277      -427.7977
   4   1.0000     -11.225693      -305.4666
   5   1.0000     -11.225686      -305.4664
   6   1.0000      -6.157615      -167.5572
   7   1.0000      -4.269556      -116.1805
   8   1.0000      -4.260647      -115.9381
   9   1.0000      -4.259707      -115.9125
  10   1.0000      -1.667156       -45.3656
  11   1.0000      -1.586666       -43.1754
  12   1.0000      -1.078844       -29.3568
  13   1.0000      -0.980911       -26.6920
  14   1.0000      -0.954987       -25.9865
  15   1.0000      -0.781531       -21.2665
  16   1.0000      -0.743381       -20.2284
  17   1.0000      -0.740529       -20.1508
  18   1.0000      -0.668935       -18.2027
  19   1.0000      -0.649049       -17.6615
  20   1.0000      -0.626318       -17.0430
  21   1.0000      -0.599398       -16.3104
  22   1.0000      -0.587264       -15.9803
  23   1.0000      -0.571303       -15.5460
  24   1.0000      -0.568593       -15.4722
  25   1.0000      -0.547097       -14.8873
  26   1.0000      -0.473932       -12.8963
  27   1.0000      -0.455423       -12.3927
  28   1.0000      -0.343834        -9.3562
  29   0.0000       0.020101         0.5470
  30   0.0000       0.033194         0.9033
  31   0.0000       0.034656         0.9430
  32   0.0000       0.038669         1.0522
  33   0.0000       0.051842         1.4107

                 SPIN DOWN ORBITALS
  NO   OCC          E(Eh)            E(eV)
   0   1.0000     -68.803241     -1872.2314
   1   1.0000     -26.322228      -716.2642
   2   1.0000     -26.322209      -716.2637
   3   1.0000     -15.719265      -427.7430
   4   1.0000     -11.224088      -305.4230
   5   1.0000     -11.224079      -305.4227
   6   1.0000      -6.148633      -167.3128
   7   1.0000      -4.257153      -115.8430
   8   1.0000      -4.256210      -115.8174
   9   1.0000      -4.247712      -115.5861
  10   1.0000      -1.666179       -45.3390
  11   1.0000      -1.586470       -43.1700
  12   1.0000      -1.073968       -29.2242
  13   1.0000      -0.972662       -26.4675
  14   1.0000      -0.949824       -25.8460
  15   1.0000      -0.771311       -20.9884
  16   1.0000      -0.742950       -20.2167
  17   1.0000      -0.739409       -20.1203
  18   1.0000      -0.669105       -18.2073
  19   1.0000      -0.633453       -17.2371
  20   1.0000      -0.626357       -17.0440
  21   1.0000      -0.587552       -15.9881
  22   1.0000      -0.579509       -15.7692
  23   1.0000      -0.568077       -15.4582
  24   1.0000      -0.564456       -15.3596
  25   1.0000      -0.535300       -14.5663
  26   1.0000      -0.461800       -12.5662
  27   1.0000      -0.439925       -11.9710
  28   0.0000       0.014137         0.3847
  29   0.0000       0.033628         0.9151
  30   0.0000       0.033642         0.9154
  31   0.0000       0.036474         0.9925
  32   0.0000       0.047677         1.2974

MULLIKEN ATOMIC CHARGES AND SPIN POPULATIONS
--------------------------------------------
   0 N :    0.238447    0.032443
   1 F :   -0.433065   -0.003595
   2 F :   -0.433065   -0.003595
   3 Si:    1.207296    0.880700
   4 C :   -1.076077    0.038443
   5 H :    0.237924    0.024423
   6 H :    0.252651   -0.005216
   7 H :    0.295695   -0.010628
   8 C :   -1.076078    0.038443
   9 H :    0.237924    0.024423
  10 H :    0.295696   -0.010628
  11 H :    0.252651   -0.005216
Sum of atomic charges         :   -0.0000000

LOEWDIN ATOMIC CHARGES AND SPIN POPULATIONS
-------------------------------------------
   0 N :   -0.731402    0.115931
   1 F :    0.393116    0.010309
   2 F :    0.393116    0.010309
   3 Si:    0.315914    0.517301
   4 C :    0.903143    0.124738
   5 H :   -0.351978    0.018600
   6 H :   -0.366216    0.014177
   7 H :   -0.370322    0.015560
   8 C :    0.903143    0.124738
   9 H :   -0.351978    0.018600
  10 H :   -0.370322    0.015560
  11 H :   -0.366216    0.014177

  Mayer bond orders larger than 0.100000
B(  0-N ,  1-F ) :   0.6809 B(  0-N ,  2-F ) :   0.6809 B(  0-N ,  3-Si) :   0.6355
B(  3-Si,  4-C ) :   0.8708 B(  3-Si,  8-C ) :   0.8708 B(  4-C ,  5-H ) :   0.9483
B(  4-C ,  6-H ) :   0.9641 B(  4-C ,  7-H ) :   0.9354 B(  8-C ,  9-H ) :   0.9483
B(  8-C , 10-H ) :   0.9354 B(  8-C , 11-H ) :   0.9641

MP2 TOTAL ENERGY:     -622.766644197 Eh
FINAL SINGLE POINT ENERGY      -622.766644196954

DIPOLE MOMENT
-------------
                                X             Y             Z
Electronic contribution:     11.36850      -0.00000      -1.96534
Nuclear contribution   :    -12.78196       0.00000       1.88440
                        -----------------------------------------
Total Dipole Moment    :     -1.41346      -0.00000      -0.08095
                        -----------------------------------------
Magnitude (a.u.)       :      1.41577
Magnitude (Debye)      :      3.59861

Rotational constants in cm-1:     0.121640     0.078502     0.051165
Rotational constants in MHz :  3646.680503  2353.427588  1533.886515

                             ****ORCA TERMINATED NORMALLY****
TOTAL RUN TIME: 0 days 2 hours 13 minutes 22 seconds 825 msec
