                         Program Version 5.0.4 -  RELEASE  -
|  1> ! ri-mp2 aug-cc-pvdz aug-cc-pvdz/c tightscf
|  2> %pal nprocs 16 end
|  3> %maxcore 3800
|  4> %base "DZ_B-B_62_AB"
|  5> %scf
|  6> STABPerform true
|  7> STABRestartUHFifUnstable true
|  8> end
|  9>
| 10> *xyz 0 1
| 11> B        -1.471564   -0.214477    0.000003
| 12> B        -0.000000    0.468933   -0.000033
| 13> B         1.471563   -0.214479    0.000027
| 14> H         2.042417   -0.468217    1.017327
| 15> H         2.042440   -0.468352   -1.017227
| 16> H         0.000010    1.673255   -0.000115
| 17> H        -2.042423   -0.468359   -1.017259
| 18> H        -2.042436   -0.468209    1.017295
| 19> *
| 20>
| 21> $new_job
| 22> ! ri-mp2 aug-cc-pvtz aug-cc-pvtz/c tightscf
| 23> %pal nprocs 16 end
| 24> %maxcore 3800
| 25> %base "TZ_B-B_62_AB"
| 26>
| 27> *xyz 0 1
| 28> B        -1.471564   -0.214477    0.000003
| 29> B        -0.000000    0.468933   -0.000033
| 30> B         1.471563   -0.214479    0.000027
| 31> H         2.042417   -0.468217    1.017327
| 32> H         2.042440   -0.468352   -1.017227
| 33> H         0.000010    1.673255   -0.000115
| 34> H        -2.042423   -0.468359   -1.017259
| 35> H        -2.042436   -0.468209    1.017295
| 36> *
| 37>
| 38> $new_job
| 39> ! ri-mp2 aug-cc-pvqz aug-cc-pvqz/c tightscf
| 40> %pal nprocs 16 end
| 41> %maxcore 3800
| 42> %base "QZ_B-B_62_AB"
| 43>
| 44> *xyz 0 1
| 45> B        -1.471564   -0.214477    0.000003
| 46> B        -0.000000    0.468933   -0.000033
| 47> B         1.471563   -0.214479    0.000027
| 48> H         2.042417   -0.468217    1.017327
| 49> H         2.042440   -0.468352   -1.017227
| 50> H         0.000010    1.673255   -0.000115
| 51> H        -2.042423   -0.468359   -1.017259
| 52> H        -2.042436   -0.468209    1.017295
| 53> *
| 54>
| 55>
| 56>
| 57>
| 58>                          ****END OF INPUT****
 Total Charge           Charge          ....    0
 Multiplicity           Mult            ....    1
 Number of Electrons    NEL             ....   20
MP2 TOTAL ENERGY:      -77.134192499 Eh
FINAL SINGLE POINT ENERGY       -77.134192499319
MP2 TOTAL ENERGY:      -77.206793943 Eh
FINAL SINGLE POINT ENERGY       -77.206793943261

CARTESIAN COORDINATES (ANGSTROEM)
---------------------------------
  B     -1.471564   -0.214477    0.000003
  B     -0.000000    0.468933   -0.000033
  B      1.471563   -0.214479    0.000027
  H      2.042417   -0.468217    1.017327
  H      2.042440   -0.468352   -1.017227
  H      0.000010    1.673255   -0.000115
  H     -2.042423   -0.468359   -1.017259
  H     -2.042436   -0.468209    1.017295

 Multiplicity           Mult            ....    1
 Number of Electrons    NEL             ....   20
 Basis Dimension        Dim             ....  470

ORBITAL ENERGIES
----------------

  NO   OCC          E(Eh)            E(eV)
   0   2.0000      -7.589270      -206.5145
   1   2.0000      -7.589248      -206.5139
   2   2.0000      -7.567094      -205.9111
   3   2.0000      -0.763920       -20.7873
   4   2.0000      -0.683539       -18.6001
   5   2.0000      -0.593493       -16.1498
   6   2.0000      -0.502066       -13.6619
   7   2.0000      -0.486248       -13.2315
   8   2.0000      -0.455244       -12.3878
   9   2.0000      -0.421887       -11.4801
  10   0.0000       0.024058         0.6546
  11   0.0000       0.029194         0.7944
  12   0.0000       0.029793         0.8107
  13   0.0000       0.031533         0.8581
  14   0.0000       0.042205         1.1485

MULLIKEN ATOMIC CHARGES
-----------------------
   0 B :    0.244359
   1 B :    0.380236
   2 B :    0.244361
   3 H :   -0.175432
   4 H :   -0.175433
   5 H :   -0.167227
   6 H :   -0.175432
   7 H :   -0.175432
Sum of atomic charges:    0.0000000

LOEWDIN ATOMIC CHARGES
----------------------
   0 B :    0.456424
   1 B :    0.116896
   2 B :    0.456424
   3 H :   -0.208636
   4 H :   -0.208636
   5 H :   -0.195201
   6 H :   -0.208636
   7 H :   -0.208636

  Mayer bond orders larger than 0.100000
B(  0-B ,  1-B ) :   1.0033 B(  0-B ,  6-H ) :   0.9603 B(  0-B ,  7-H ) :   0.9603
B(  1-B ,  2-B ) :   1.0033 B(  1-B ,  5-H ) :   0.8870 B(  2-B ,  3-H ) :   0.9603
B(  2-B ,  4-H ) :   0.9603

MP2 TOTAL ENERGY:      -77.228541817 Eh
FINAL SINGLE POINT ENERGY       -77.228541816757

DIPOLE MOMENT
-------------
                                X             Y             Z
Electronic contribution:     -0.00001       0.27036      -0.00003
Nuclear contribution   :      0.00001      -0.23266       0.00002
                        -----------------------------------------
Total Dipole Moment    :      0.00000       0.03769      -0.00000
                        -----------------------------------------
Magnitude (a.u.)       :      0.03769
Magnitude (Debye)      :      0.09581

Rotational constants in cm-1:     1.498577     0.248601     0.238391
Rotational constants in MHz : 44926.213199  7452.856701  7146.787188

                             ****ORCA TERMINATED NORMALLY****
TOTAL RUN TIME: 0 days 0 hours 9 minutes 29 seconds 649 msec
