                         Program Version 5.0.4 -  RELEASE  -
|  1> ! ri-mp2 aug-cc-pvdz aug-cc-pvdz/c tightscf
|  2> %pal nprocs 16 end
|  3> %maxcore 3800
|  4> %base "DZ_S-S_17_AB"
|  5> %scf
|  6> STABPerform true
|  7> STABRestartUHFifUnstable true
|  8> end
|  9>
| 10> *xyz 0 1
| 11> S        -0.908046   -1.262014   -0.458457
| 12> S         0.908049   -1.262015    0.458452
| 13> C         1.664710    0.122003   -0.381656
| 14> C        -1.664715    0.121989    0.381668
| 15> O        -1.141646    0.833566    1.171282
| 16> O         1.141633    0.833595   -1.171252
| 17> C         3.144635    0.337571    0.015657
| 18> C        -3.144634    0.337570   -0.015660
| 19> F        -3.344294    1.596825   -0.372361
| 20> F        -3.925641    0.054279    1.022691
| 21> F        -3.495098   -0.454854   -1.032507
| 22> F         3.344326    1.596836    0.372301
| 23> F         3.925630    0.054215   -1.022685
| 24> F         3.495086   -0.454817    1.032538
| 25> *
| 26>
| 27> $new_job
| 28> ! ri-mp2 aug-cc-pvtz aug-cc-pvtz/c tightscf
| 29> %pal nprocs 16 end
| 30> %maxcore 3800
| 31> %base "TZ_S-S_17_AB"
| 32>
| 33> *xyz 0 1
| 34> S        -0.908046   -1.262014   -0.458457
| 35> S         0.908049   -1.262015    0.458452
| 36> C         1.664710    0.122003   -0.381656
| 37> C        -1.664715    0.121989    0.381668
| 38> O        -1.141646    0.833566    1.171282
| 39> O         1.141633    0.833595   -1.171252
| 40> C         3.144635    0.337571    0.015657
| 41> C        -3.144634    0.337570   -0.015660
| 42> F        -3.344294    1.596825   -0.372361
| 43> F        -3.925641    0.054279    1.022691
| 44> F        -3.495098   -0.454854   -1.032507
| 45> F         3.344326    1.596836    0.372301
| 46> F         3.925630    0.054215   -1.022685
| 47> F         3.495086   -0.454817    1.032538
| 48> *
| 49>
| 50> $new_job
| 51> ! ri-mp2 aug-cc-pvqz aug-cc-pvqz/c tightscf
| 52> %pal nprocs 16 end
| 53> %maxcore 3800
| 54> %base "QZ_S-S_17_AB"
| 55>
| 56> *xyz 0 1
| 57> S        -0.908046   -1.262014   -0.458457
| 58> S         0.908049   -1.262015    0.458452
| 59> C         1.664710    0.122003   -0.381656
| 60> C        -1.664715    0.121989    0.381668
| 61> O        -1.141646    0.833566    1.171282
| 62> O         1.141633    0.833595   -1.171252
| 63> C         3.144635    0.337571    0.015657
| 64> C        -3.144634    0.337570   -0.015660
| 65> F        -3.344294    1.596825   -0.372361
| 66> F        -3.925641    0.054279    1.022691
| 67> F        -3.495098   -0.454854   -1.032507
| 68> F         3.344326    1.596836    0.372301
| 69> F         3.925630    0.054215   -1.022685
| 70> F         3.495086   -0.454817    1.032538
| 71> *
| 72>
| 73>
| 74>
| 75>
| 76>                          ****END OF INPUT****
 Total Charge           Charge          ....    0
 Multiplicity           Mult            ....    1
 Number of Electrons    NEL             ....  126
MP2 TOTAL ENERGY:    -1695.400979815 Eh
FINAL SINGLE POINT ENERGY     -1695.400979815432
MP2 TOTAL ENERGY:    -1696.246257373 Eh
FINAL SINGLE POINT ENERGY     -1696.246257372846

CARTESIAN COORDINATES (ANGSTROEM)
---------------------------------
  S     -0.908046   -1.262014   -0.458457
  S      0.908049   -1.262015    0.458452
  C      1.664710    0.122003   -0.381656
  C     -1.664715    0.121989    0.381668
  O     -1.141646    0.833566    1.171282
  O      1.141633    0.833595   -1.171252
  C      3.144635    0.337571    0.015657
  C     -3.144634    0.337570   -0.015660
  F     -3.344294    1.596825   -0.372361
  F     -3.925641    0.054279    1.022691
  F     -3.495098   -0.454854   -1.032507
  F      3.344326    1.596836    0.372301
  F      3.925630    0.054215   -1.022685
  F      3.495086   -0.454817    1.032538

 Multiplicity           Mult            ....    1
 Number of Electrons    NEL             ....  126
 Basis Dimension        Dim             .... 1128

ORBITAL ENERGIES
----------------

  NO   OCC          E(Eh)            E(eV)
   0   2.0000     -92.045146     -2504.6758
   1   2.0000     -92.045144     -2504.6757
   2   2.0000     -26.374429      -717.6847
   3   2.0000     -26.374429      -717.6847
   4   2.0000     -26.370124      -717.5676
   5   2.0000     -26.370124      -717.5675
   6   2.0000     -26.369119      -717.5402
   7   2.0000     -26.369119      -717.5402
   8   2.0000     -20.621124      -561.1293
   9   2.0000     -20.621123      -561.1293
  10   2.0000     -11.548215      -314.2429
  11   2.0000     -11.548214      -314.2429
  12   2.0000     -11.421272      -310.7886
  13   2.0000     -11.421271      -310.7886
  14   2.0000      -9.046294      -246.1622
  15   2.0000      -9.046081      -246.1564
  16   2.0000      -6.727432      -183.0627
  17   2.0000      -6.727079      -183.0531
  18   2.0000      -6.726031      -183.0246
  19   2.0000      -6.725900      -183.0210
  20   2.0000      -6.725161      -183.0009
  21   2.0000      -6.725154      -183.0007
  22   2.0000      -1.769497       -48.1505
  23   2.0000      -1.769493       -48.1504
  24   2.0000      -1.673589       -45.5407
  25   2.0000      -1.673588       -45.5407
  26   2.0000      -1.670950       -45.4689
  27   2.0000      -1.670949       -45.4688
  28   2.0000      -1.478381       -40.2288
  29   2.0000      -1.474492       -40.1230
  30   2.0000      -1.145189       -31.1622
  31   2.0000      -1.076117       -29.2826
  32   2.0000      -1.044953       -28.4346
  33   2.0000      -0.981549       -26.7093
  34   2.0000      -0.916704       -24.9448
  35   2.0000      -0.884847       -24.0779
  36   2.0000      -0.862439       -23.4681
  37   2.0000      -0.861195       -23.4343
  38   2.0000      -0.861185       -23.4340
  39   2.0000      -0.858194       -23.3527
  40   2.0000      -0.778506       -21.1842
  41   2.0000      -0.762152       -20.7392
  42   2.0000      -0.750080       -20.4107
  43   2.0000      -0.745573       -20.2881
  44   2.0000      -0.745518       -20.2866
  45   2.0000      -0.738988       -20.1089
  46   2.0000      -0.708938       -19.2912
  47   2.0000      -0.701197       -19.0805
  48   2.0000      -0.700961       -19.0741
  49   2.0000      -0.699798       -19.0425
  50   2.0000      -0.690877       -18.7997
  51   2.0000      -0.682843       -18.5811
  52   2.0000      -0.682836       -18.5809
  53   2.0000      -0.675605       -18.3842
  54   2.0000      -0.674084       -18.3428
  55   2.0000      -0.653751       -17.7895
  56   2.0000      -0.612999       -16.6805
  57   2.0000      -0.602316       -16.3898
  58   2.0000      -0.530958       -14.4481
  59   2.0000      -0.483159       -13.1474
  60   2.0000      -0.482870       -13.1396
  61   2.0000      -0.441417       -12.0116
  62   2.0000      -0.421617       -11.4728
  63   0.0000       0.034012         0.9255
  64   0.0000       0.041127         1.1191
  65   0.0000       0.049233         1.3397
  66   0.0000       0.050472         1.3734
  67   0.0000       0.060231         1.6390

MULLIKEN ATOMIC CHARGES
-----------------------
   0 S :    0.208337
   1 S :    0.208339
   2 C :    0.149786
   3 C :    0.149787
   4 O :   -0.666407
   5 O :   -0.666407
   6 C :    2.099668
   7 C :    2.099668
   8 F :   -0.582408
   9 F :   -0.574435
  10 F :   -0.634543
  11 F :   -0.582411
  12 F :   -0.574434
  13 F :   -0.634541
Sum of atomic charges:    0.0000000

LOEWDIN ATOMIC CHARGES
----------------------
   0 S :    0.744568
   1 S :    0.744569
   2 C :   -1.313769
   3 C :   -1.313770
   4 O :    0.620331
   5 O :    0.620331
   6 C :   -2.322440
   7 C :   -2.322439
   8 F :    0.770630
   9 F :    0.760863
  10 F :    0.739817
  11 F :    0.770631
  12 F :    0.760863
  13 F :    0.739816

  Mayer bond orders larger than 0.100000
B(  0-S ,  1-S ) :   1.1168 B(  0-S ,  3-C ) :   0.9466 B(  1-S ,  2-C ) :   0.9466
B(  2-C ,  5-O ) :   1.6113 B(  2-C ,  6-C ) :   0.8888 B(  2-C , 11-F ) :   0.1153
B(  2-C , 12-F ) :   0.1189 B(  3-C ,  4-O ) :   1.6113 B(  3-C ,  7-C ) :   0.8888
B(  3-C ,  8-F ) :   0.1153 B(  3-C ,  9-F ) :   0.1189 B(  6-C , 11-F ) :   0.4177
B(  6-C , 12-F ) :   0.4346 B(  6-C , 13-F ) :   0.4566 B(  7-C ,  8-F ) :   0.4177
B(  7-C ,  9-F ) :   0.4346 B(  7-C , 10-F ) :   0.4566

MP2 TOTAL ENERGY:    -1696.527847124 Eh
FINAL SINGLE POINT ENERGY     -1696.527847123887

DIPOLE MOMENT
-------------
                                X             Y             Z
Electronic contribution:      0.00001       1.10690      -0.00003
Nuclear contribution   :     -0.00001      -2.07041       0.00002
                        -----------------------------------------
Total Dipole Moment    :      0.00000      -0.96351      -0.00001
                        -----------------------------------------
Magnitude (a.u.)       :      0.96351
Magnitude (Debye)      :      2.44905

Rotational constants in cm-1:     0.044517     0.008346     0.008006
Rotational constants in MHz :  1334.578572   250.220389   240.012896

                             ****ORCA TERMINATED NORMALLY****
TOTAL RUN TIME: 0 days 2 hours 17 minutes 41 seconds 237 msec
