                         Program Version 5.0.4 -  RELEASE  -
|  1> ! ri-mp2 aug-cc-pvdz aug-cc-pvdz/c tightscf
|  2> %pal nprocs 16 end
|  3> %maxcore 3800
|  4> %base "DZ_B-S_28_AB"
|  5>
|  6> *xyz 0 1
|  7> C        -1.384929    0.398249    0.000000
|  8> S         0.148565   -0.567061    0.000001
|  9> H        -1.964134    0.146515    0.885138
| 10> H        -1.964138    0.146508   -0.885133
| 11> H        -1.157492    1.460100   -0.000004
| 12> B         1.448363    0.600936   -0.000004
| 13> H         2.549477    0.157356    0.000003
| 14> H         1.227008    1.768327   -0.000001
| 15> *
| 16>
| 17> $new_job
| 18> ! ri-mp2 aug-cc-pvtz aug-cc-pvtz/c tightscf
| 19> %pal nprocs 16 end
| 20> %maxcore 3800
| 21> %base "TZ_B-S_28_AB"
| 22>
| 23> *xyz 0 1
| 24> C        -1.384929    0.398249    0.000000
| 25> S         0.148565   -0.567061    0.000001
| 26> H        -1.964134    0.146515    0.885138
| 27> H        -1.964138    0.146508   -0.885133
| 28> H        -1.157492    1.460100   -0.000004
| 29> B         1.448363    0.600936   -0.000004
| 30> H         2.549477    0.157356    0.000003
| 31> H         1.227008    1.768327   -0.000001
| 32> *
| 33>
| 34> $new_job
| 35> ! ri-mp2 aug-cc-pvqz aug-cc-pvqz/c tightscf
| 36> %pal nprocs 16 end
| 37> %maxcore 3800
| 38> %base "QZ_B-S_28_AB"
| 39>
| 40> *xyz 0 1
| 41> C        -1.384929    0.398249    0.000000
| 42> S         0.148565   -0.567061    0.000001
| 43> H        -1.964134    0.146515    0.885138
| 44> H        -1.964138    0.146508   -0.885133
| 45> H        -1.157492    1.460100   -0.000004
| 46> B         1.448363    0.600936   -0.000004
| 47> H         2.549477    0.157356    0.000003
| 48> H         1.227008    1.768327   -0.000001
| 49> *
| 50>
| 51>
| 52>
| 53>
| 54>                          ****END OF INPUT****
 Total Charge           Charge          ....    0
 Multiplicity           Mult            ....    1
 Number of Electrons    NEL             ....   32
MP2 TOTAL ENERGY:     -463.396952186 Eh
FINAL SINGLE POINT ENERGY      -463.396952185670
MP2 TOTAL ENERGY:     -463.515234128 Eh
FINAL SINGLE POINT ENERGY      -463.515234128216

CARTESIAN COORDINATES (ANGSTROEM)
---------------------------------
  C     -1.384929    0.398249    0.000000
  S      0.148565   -0.567061    0.000001
  H     -1.964134    0.146515    0.885138
  H     -1.964138    0.146508   -0.885133
  H     -1.157492    1.460100   -0.000004
  B      1.448363    0.600936   -0.000004
  H      2.549477    0.157356    0.000003
  H      1.227008    1.768327   -0.000001

 Multiplicity           Mult            ....    1
 Number of Electrons    NEL             ....   32
 Basis Dimension        Dim             ....  474

ORBITAL ENERGIES
----------------

  NO   OCC          E(Eh)            E(eV)
   0   2.0000     -91.951838     -2502.1367
   1   2.0000     -11.258125      -306.3492
   2   2.0000      -8.956516      -243.7192
   3   2.0000      -7.613112      -207.1633
   4   2.0000      -6.637970      -180.6283
   5   2.0000      -6.636988      -180.6016
   6   2.0000      -6.636972      -180.6012
   7   2.0000      -1.048163       -28.5220
   8   2.0000      -0.884543       -24.0697
   9   2.0000      -0.674968       -18.3668
  10   2.0000      -0.596167       -16.2225
  11   2.0000      -0.595877       -16.2146
  12   2.0000      -0.539101       -14.6697
  13   2.0000      -0.481391       -13.0993
  14   2.0000      -0.427743       -11.6395
  15   2.0000      -0.381055       -10.3690
  16   0.0000       0.024975         0.6796
  17   0.0000       0.033676         0.9164
  18   0.0000       0.034438         0.9371
  19   0.0000       0.036219         0.9856
  20   0.0000       0.052570         1.4305

MULLIKEN ATOMIC CHARGES
-----------------------
   0 C :   -0.911145
   1 S :    0.102892
   2 H :    0.287422
   3 H :    0.287421
   4 H :    0.339280
   5 B :    0.303489
   6 H :   -0.238618
   7 H :   -0.170740
Sum of atomic charges:   -0.0000000

LOEWDIN ATOMIC CHARGES
----------------------
   0 C :    0.540047
   1 S :    1.390425
   2 H :   -0.376359
   3 H :   -0.376360
   4 H :   -0.402521
   5 B :   -0.202438
   6 H :   -0.308619
   7 H :   -0.264174

  Mayer bond orders larger than 0.100000
B(  0-C ,  1-S ) :   0.9569 B(  0-C ,  2-H ) :   0.9111 B(  0-C ,  3-H ) :   0.9111
B(  0-C ,  4-H ) :   0.8719 B(  1-S ,  5-B ) :   1.4786 B(  5-B ,  6-H ) :   0.9410
B(  5-B ,  7-H ) :   0.9378

MP2 TOTAL ENERGY:     -463.551891215 Eh
FINAL SINGLE POINT ENERGY      -463.551891215429

DIPOLE MOMENT
-------------
                                X             Y             Z
Electronic contribution:      1.95019      -2.84321      -0.00001
Nuclear contribution   :     -2.48830       3.22157       0.00001
                        -----------------------------------------
Total Dipole Moment    :     -0.53811       0.37836      -0.00000
                        -----------------------------------------
Magnitude (a.u.)       :      0.65781
Magnitude (Debye)      :      1.67202

Rotational constants in cm-1:     0.736464     0.258936     0.198712
Rotational constants in MHz : 22078.622862  7762.699290  5957.230463

                             ****ORCA TERMINATED NORMALLY****
TOTAL RUN TIME: 0 days 0 hours 2 minutes 16 seconds 563 msec
