                         Program Version 5.0.4 -  RELEASE  -
|  1> ! ri-mp2 aug-cc-pvdz aug-cc-pvdz/c tightscf
|  2> %pal nprocs 16 end
|  3> %maxcore 3800
|  4> %base "DZ_B-Cl_19_AB"
|  5> %scf
|  6> STABPerform true
|  7> STABRestartUHFifUnstable true
|  8> end
|  9>
| 10> *xyz 0 1
| 11> Cl        -0.864255    1.664553    0.120939
| 12> Cl        -2.502589   -0.777630   -0.444305
| 13> B        -1.020425   -0.080194    0.179797
| 14> C         0.068812   -0.986367    0.820524
| 15> C         1.503924   -0.465913    0.834735
| 16> H        -0.280344   -1.138121    1.852125
| 17> C         2.128821   -0.412215   -0.552200
| 18> H         2.114521   -1.107575    1.475118
| 19> H         1.531444    0.530066    1.282725
| 20> C         3.556071    0.109900   -0.535903
| 21> H         1.518110    0.220858   -1.202101
| 22> H         2.107007   -1.413259   -0.993037
| 23> H         3.596566    1.123803   -0.133823
| 24> H         3.985017    0.132274   -1.537913
| 25> H         4.196807   -0.517867    0.086329
| 26> H         0.023592   -1.979323    0.365883
| 27> *
| 28>
| 29> $new_job
| 30> ! ri-mp2 aug-cc-pvtz aug-cc-pvtz/c tightscf
| 31> %pal nprocs 16 end
| 32> %maxcore 3800
| 33> %base "TZ_B-Cl_19_AB"
| 34>
| 35> *xyz 0 1
| 36> Cl        -0.864255    1.664553    0.120939
| 37> Cl        -2.502589   -0.777630   -0.444305
| 38> B        -1.020425   -0.080194    0.179797
| 39> C         0.068812   -0.986367    0.820524
| 40> C         1.503924   -0.465913    0.834735
| 41> H        -0.280344   -1.138121    1.852125
| 42> C         2.128821   -0.412215   -0.552200
| 43> H         2.114521   -1.107575    1.475118
| 44> H         1.531444    0.530066    1.282725
| 45> C         3.556071    0.109900   -0.535903
| 46> H         1.518110    0.220858   -1.202101
| 47> H         2.107007   -1.413259   -0.993037
| 48> H         3.596566    1.123803   -0.133823
| 49> H         3.985017    0.132274   -1.537913
| 50> H         4.196807   -0.517867    0.086329
| 51> H         0.023592   -1.979323    0.365883
| 52> *
| 53>
| 54> $new_job
| 55> ! ri-mp2 aug-cc-pvqz aug-cc-pvqz/c tightscf
| 56> %pal nprocs 16 end
| 57> %maxcore 3800
| 58> %base "QZ_B-Cl_19_AB"
| 59>
| 60> *xyz 0 1
| 61> Cl        -0.864255    1.664553    0.120939
| 62> Cl        -2.502589   -0.777630   -0.444305
| 63> B        -1.020425   -0.080194    0.179797
| 64> C         0.068812   -0.986367    0.820524
| 65> C         1.503924   -0.465913    0.834735
| 66> H        -0.280344   -1.138121    1.852125
| 67> C         2.128821   -0.412215   -0.552200
| 68> H         2.114521   -1.107575    1.475118
| 69> H         1.531444    0.530066    1.282725
| 70> C         3.556071    0.109900   -0.535903
| 71> H         1.518110    0.220858   -1.202101
| 72> H         2.107007   -1.413259   -0.993037
| 73> H         3.596566    1.123803   -0.133823
| 74> H         3.985017    0.132274   -1.537913
| 75> H         4.196807   -0.517867    0.086329
| 76> H         0.023592   -1.979323    0.365883
| 77> *
| 78>
| 79>
| 80>
| 81>
| 82>                          ****END OF INPUT****
 Total Charge           Charge          ....    0
 Multiplicity           Mult            ....    1
 Number of Electrons    NEL             ....   72
MP2 TOTAL ENERGY:    -1101.502902787 Eh
FINAL SINGLE POINT ENERGY     -1101.502902786511
MP2 TOTAL ENERGY:    -1101.796159678 Eh
FINAL SINGLE POINT ENERGY     -1101.796159678141

CARTESIAN COORDINATES (ANGSTROEM)
---------------------------------
  Cl    -0.864255    1.664553    0.120939
  Cl    -2.502589   -0.777630   -0.444305
  B     -1.020425   -0.080194    0.179797
  C      0.068812   -0.986367    0.820524
  C      1.503924   -0.465913    0.834735
  H     -0.280344   -1.138121    1.852125
  C      2.128821   -0.412215   -0.552200
  H      2.114521   -1.107575    1.475118
  H      1.531444    0.530066    1.282725
  C      3.556071    0.109900   -0.535903
  H      1.518110    0.220858   -1.202101
  H      2.107007   -1.413259   -0.993037
  H      3.596566    1.123803   -0.133823
  H      3.985017    0.132274   -1.537913
  H      4.196807   -0.517867    0.086329
  H      0.023592   -1.979323    0.365883

 Multiplicity           Mult            ....    1
 Number of Electrons    NEL             ....   72
 Basis Dimension        Dim             ....  982

ORBITAL ENERGIES
----------------

  NO   OCC          E(Eh)            E(eV)
   0   2.0000    -104.838375     -2852.7972
   1   2.0000    -104.837418     -2852.7712
   2   2.0000     -11.225908      -305.4725
   3   2.0000     -11.221554      -305.3540
   4   2.0000     -11.219252      -305.2914
   5   2.0000     -11.213214      -305.1271
   6   2.0000     -10.566363      -287.5253
   7   2.0000     -10.565316      -287.4969
   8   2.0000      -8.033179      -218.5939
   9   2.0000      -8.032153      -218.5660
  10   2.0000      -8.032133      -218.5655
  11   2.0000      -8.031886      -218.5587
  12   2.0000      -8.031099      -218.5373
  13   2.0000      -8.030834      -218.5301
  14   2.0000      -7.704799      -209.6582
  15   2.0000      -1.144905       -31.1544
  16   2.0000      -1.097472       -29.8637
  17   2.0000      -1.082341       -29.4520
  18   2.0000      -0.996246       -27.1092
  19   2.0000      -0.879879       -23.9427
  20   2.0000      -0.802186       -21.8286
  21   2.0000      -0.678913       -18.4742
  22   2.0000      -0.643696       -17.5158
  23   2.0000      -0.604400       -16.4466
  24   2.0000      -0.599573       -16.3152
  25   2.0000      -0.582325       -15.8459
  26   2.0000      -0.561707       -15.2848
  27   2.0000      -0.528752       -14.3881
  28   2.0000      -0.517232       -14.0746
  29   2.0000      -0.504425       -13.7261
  30   2.0000      -0.486864       -13.2482
  31   2.0000      -0.474400       -12.9091
  32   2.0000      -0.468649       -12.7526
  33   2.0000      -0.463165       -12.6034
  34   2.0000      -0.450402       -12.2561
  35   2.0000      -0.444074       -12.0839
  36   0.0000       0.023711         0.6452
  37   0.0000       0.029356         0.7988
  38   0.0000       0.031971         0.8700
  39   0.0000       0.032799         0.8925
  40   0.0000       0.046048         1.2530

MULLIKEN ATOMIC CHARGES
-----------------------
   0 Cl:   -0.327309
   1 Cl:   -0.271746
   2 B :    0.668791
   3 C :   -0.556088
   4 C :   -0.488485
   5 H :    0.237448
   6 C :   -0.374269
   7 H :    0.256007
   8 H :    0.289116
   9 C :   -0.836139
  10 H :    0.239956
  11 H :    0.220963
  12 H :    0.226327
  13 H :    0.257556
  14 H :    0.225268
  15 H :    0.232605
Sum of atomic charges:   -0.0000000

LOEWDIN ATOMIC CHARGES
----------------------
   0 Cl:    1.321948
   1 Cl:    1.279338
   2 B :   -2.289307
   3 C :    0.441475
   4 C :    0.444624
   5 H :   -0.304222
   6 C :    0.482538
   7 H :   -0.264211
   8 H :   -0.306253
   9 C :    0.931186
  10 H :   -0.295996
  11 H :   -0.266819
  12 H :   -0.281080
  13 H :   -0.280387
  14 H :   -0.282241
  15 H :   -0.330595

  Mayer bond orders larger than 0.100000
B(  0-Cl,  2-B ) :   0.9150 B(  1-Cl,  2-B ) :   0.9156 B(  2-B ,  3-C ) :   1.0535
B(  3-C ,  4-C ) :   0.9519 B(  3-C ,  5-H ) :   0.9305 B(  3-C , 15-H ) :   0.8979
B(  4-C ,  6-C ) :   0.8455 B(  4-C ,  7-H ) :   0.8978 B(  4-C ,  8-H ) :   0.8893
B(  6-C ,  9-C ) :   0.9179 B(  6-C , 10-H ) :   0.8850 B(  6-C , 11-H ) :   0.9032
B(  6-C , 13-H ) :  -0.1024 B(  9-C , 12-H ) :   0.9557 B(  9-C , 13-H ) :   1.0210
B(  9-C , 14-H ) :   0.9663

MP2 TOTAL ENERGY:    -1101.889750020 Eh
FINAL SINGLE POINT ENERGY     -1101.889750019868

DIPOLE MOMENT
-------------
                                X             Y             Z
Electronic contribution:    -23.26100       4.87567      -1.22634
Nuclear contribution   :     23.79635      -5.21417       1.47370
                        -----------------------------------------
Total Dipole Moment    :      0.53535      -0.33850       0.24736
                        -----------------------------------------
Magnitude (a.u.)       :      0.67998
Magnitude (Debye)      :      1.72836

Rotational constants in cm-1:     0.088714     0.028417     0.024212
Rotational constants in MHz :  2659.568339   851.910371   725.847286

                             ****ORCA TERMINATED NORMALLY****
TOTAL RUN TIME: 0 days 2 hours 22 minutes 37 seconds 365 msec
