                         Program Version 5.0.4 -  RELEASE  -
|  1> ! ri-mp2 aug-cc-pvdz aug-cc-pvdz/c tightscf
|  2> %pal nprocs 16 end
|  3> %maxcore 3800
|  4> %base "DZ_Si-Cl_11_AB"
|  5> %scf
|  6> STABPerform true
|  7> STABRestartUHFifUnstable true
|  8> end
|  9>
| 10> *xyz 0 1
| 11> C        -1.606076   -1.585308   -0.193513
| 12> Si        -0.293680   -0.408734    0.387787
| 13> C         1.366051   -0.757517   -0.379770
| 14> H        -2.571392   -1.343783    0.250937
| 15> H        -1.349663   -2.608979    0.086401
| 16> H        -1.712299   -1.544657   -1.278036
| 17> C         2.483945    0.188032    0.056328
| 18> H         2.631018    0.157947    1.137061
| 19> H         2.254761    1.218898   -0.213793
| 20> H         3.432695   -0.074904   -0.412252
| 21> Cl        -0.865863    1.517324   -0.127454
| 22> H         1.249325   -0.733266   -1.466777
| 23> H         1.623864   -1.791520   -0.127204
| 24> H        -0.190629   -0.423206    1.863104
| 25> *
| 26>
| 27> $new_job
| 28> ! ri-mp2 aug-cc-pvtz aug-cc-pvtz/c tightscf
| 29> %pal nprocs 16 end
| 30> %maxcore 3800
| 31> %base "TZ_Si-Cl_11_AB"
| 32>
| 33> *xyz 0 1
| 34> C        -1.606076   -1.585308   -0.193513
| 35> Si        -0.293680   -0.408734    0.387787
| 36> C         1.366051   -0.757517   -0.379770
| 37> H        -2.571392   -1.343783    0.250937
| 38> H        -1.349663   -2.608979    0.086401
| 39> H        -1.712299   -1.544657   -1.278036
| 40> C         2.483945    0.188032    0.056328
| 41> H         2.631018    0.157947    1.137061
| 42> H         2.254761    1.218898   -0.213793
| 43> H         3.432695   -0.074904   -0.412252
| 44> Cl        -0.865863    1.517324   -0.127454
| 45> H         1.249325   -0.733266   -1.466777
| 46> H         1.623864   -1.791520   -0.127204
| 47> H        -0.190629   -0.423206    1.863104
| 48> *
| 49>
| 50> $new_job
| 51> ! ri-mp2 aug-cc-pvqz aug-cc-pvqz/c tightscf
| 52> %pal nprocs 16 end
| 53> %maxcore 3800
| 54> %base "QZ_Si-Cl_11_AB"
| 55>
| 56> *xyz 0 1
| 57> C        -1.606076   -1.585308   -0.193513
| 58> Si        -0.293680   -0.408734    0.387787
| 59> C         1.366051   -0.757517   -0.379770
| 60> H        -2.571392   -1.343783    0.250937
| 61> H        -1.349663   -2.608979    0.086401
| 62> H        -1.712299   -1.544657   -1.278036
| 63> C         2.483945    0.188032    0.056328
| 64> H         2.631018    0.157947    1.137061
| 65> H         2.254761    1.218898   -0.213793
| 66> H         3.432695   -0.074904   -0.412252
| 67> Cl        -0.865863    1.517324   -0.127454
| 68> H         1.249325   -0.733266   -1.466777
| 69> H         1.623864   -1.791520   -0.127204
| 70> H        -0.190629   -0.423206    1.863104
| 71> *
| 72>
| 73>
| 74>
| 75>
| 76>                          ****END OF INPUT****
 Total Charge           Charge          ....    0
 Multiplicity           Mult            ....    1
 Number of Electrons    NEL             ....   58
MP2 TOTAL ENERGY:     -868.073861123 Eh
FINAL SINGLE POINT ENERGY      -868.073861122688
MP2 TOTAL ENERGY:     -868.295129613 Eh
FINAL SINGLE POINT ENERGY      -868.295129612602

CARTESIAN COORDINATES (ANGSTROEM)
---------------------------------
  C     -1.606076   -1.585308   -0.193513
  Si    -0.293680   -0.408734    0.387787
  C      1.366051   -0.757517   -0.379770
  H     -2.571392   -1.343783    0.250937
  H     -1.349663   -2.608979    0.086401
  H     -1.712299   -1.544657   -1.278036
  C      2.483945    0.188032    0.056328
  H      2.631018    0.157947    1.137061
  H      2.254761    1.218898   -0.213793
  H      3.432695   -0.074904   -0.412252
  Cl    -0.865863    1.517324   -0.127454
  H      1.249325   -0.733266   -1.466777
  H      1.623864   -1.791520   -0.127204
  H     -0.190629   -0.423206    1.863104

 Multiplicity           Mult            ....    1
 Number of Electrons    NEL             ....   58
 Basis Dimension        Dim             ....  822

ORBITAL ENERGIES
----------------

  NO   OCC          E(Eh)            E(eV)
   0   2.0000    -104.811803     -2852.0742
   1   2.0000     -68.794991     -1872.0069
   2   2.0000     -11.220377      -305.3220
   3   2.0000     -11.215147      -305.1797
   4   2.0000     -11.211361      -305.0766
   5   2.0000     -10.539418      -286.7922
   6   2.0000      -8.006213      -217.8601
   7   2.0000      -8.005184      -217.8321
   8   2.0000      -8.005181      -217.8321
   9   2.0000      -6.141307      -167.1134
  10   2.0000      -4.248463      -115.6066
  11   2.0000      -4.247239      -115.5733
  12   2.0000      -4.246818      -115.5618
  13   2.0000      -1.084927       -29.5224
  14   2.0000      -1.027225       -27.9522
  15   2.0000      -0.955748       -26.0072
  16   2.0000      -0.850891       -23.1539
  17   2.0000      -0.675796       -18.3894
  18   2.0000      -0.616096       -16.7648
  19   2.0000      -0.581698       -15.8288
  20   2.0000      -0.572215       -15.5708
  21   2.0000      -0.568579       -15.4718
  22   2.0000      -0.523572       -14.2471
  23   2.0000      -0.508726       -13.8431
  24   2.0000      -0.490410       -13.3447
  25   2.0000      -0.487533       -13.2665
  26   2.0000      -0.470257       -12.7963
  27   2.0000      -0.433080       -11.7847
  28   2.0000      -0.419143       -11.4055
  29   0.0000       0.022257         0.6056
  30   0.0000       0.032073         0.8727
  31   0.0000       0.034626         0.9422
  32   0.0000       0.036555         0.9947
  33   0.0000       0.048738         1.3262

MULLIKEN ATOMIC CHARGES
-----------------------
   0 C :   -1.088256
   1 Si:    1.633001
   2 C :   -0.554078
   3 H :    0.278147
   4 H :    0.246924
   5 H :    0.224182
   6 C :   -0.883856
   7 H :    0.240915
   8 H :    0.252145
   9 H :    0.274402
  10 Cl:   -0.742778
  11 H :    0.198830
  12 H :    0.223335
  13 H :   -0.302913
Sum of atomic charges:   -0.0000000

LOEWDIN ATOMIC CHARGES
----------------------
   0 C :    0.893047
   1 Si:   -0.289450
   2 C :    0.473313
   3 H :   -0.363740
   4 H :   -0.351327
   5 H :   -0.357460
   6 C :    0.838616
   7 H :   -0.297957
   8 H :   -0.314542
   9 H :   -0.285038
  10 Cl:    0.960682
  11 H :   -0.341535
  12 H :   -0.336545
  13 H :   -0.228064

  Mayer bond orders larger than 0.100000
B(  0-C ,  1-Si) :   0.8526 B(  0-C ,  3-H ) :   0.9426 B(  0-C ,  4-H ) :   0.9437
B(  0-C ,  5-H ) :   0.9703 B(  1-Si,  2-C ) :   0.7934 B(  1-Si, 10-Cl) :   0.1997
B(  1-Si, 13-H ) :   0.8514 B(  2-C ,  6-C ) :   0.9483 B(  2-C , 11-H ) :   0.9440
B(  2-C , 12-H ) :   0.8961 B(  6-C ,  7-H ) :   0.9411 B(  6-C ,  8-H ) :   0.9324
B(  6-C ,  9-H ) :   0.9738

MP2 TOTAL ENERGY:     -868.364053616 Eh
FINAL SINGLE POINT ENERGY      -868.364053616350

DIPOLE MOMENT
-------------
                                X             Y             Z
Electronic contribution:     -6.37766       8.47560      -0.05424
Nuclear contribution   :      6.64159      -9.31373      -0.00176
                        -----------------------------------------
Total Dipole Moment    :      0.26392      -0.83813      -0.05600
                        -----------------------------------------
Magnitude (a.u.)       :      0.88049
Magnitude (Debye)      :      2.23802

Rotational constants in cm-1:     0.109600     0.078976     0.050253
Rotational constants in MHz :  3285.740198  2367.642755  1506.552445

                             ****ORCA TERMINATED NORMALLY****
TOTAL RUN TIME: 0 days 1 hours 30 minutes 8 seconds 653 msec
