                         Program Version 5.0.4 -  RELEASE  -
|  1> ! ri-mp2 aug-cc-pvdz aug-cc-pvdz/c tightscf
|  2> %pal nprocs 16 end
|  3> %maxcore 3800
|  4> %base "DZ_B-F_24_A"
|  5> %scf
|  6> STABPerform true
|  7> STABRestartUHFifUnstable true
|  8> end
|  9>
| 10> *xyz 0 2
| 11> F        -2.370748   -0.055440   -0.088357
| 12> B        -1.283927   -0.481021   -0.625115
| 13> S         0.385015    0.068466    0.102501
| 14> O         0.422715    1.486043    0.207190
| 15> O         0.626165   -0.795591    1.218573
| 16> O         1.427336   -0.314651   -1.032869
| 17> H         1.786410   -1.197802   -0.862384
| 18> *
| 19>
| 20> $new_job
| 21> ! ri-mp2 aug-cc-pvtz aug-cc-pvtz/c tightscf
| 22> %pal nprocs 16 end
| 23> %maxcore 3800
| 24> %base "TZ_B-F_24_A"
| 25>
| 26> *xyz 0 2
| 27> F        -2.370748   -0.055440   -0.088357
| 28> B        -1.283927   -0.481021   -0.625115
| 29> S         0.385015    0.068466    0.102501
| 30> O         0.422715    1.486043    0.207190
| 31> O         0.626165   -0.795591    1.218573
| 32> O         1.427336   -0.314651   -1.032869
| 33> H         1.786410   -1.197802   -0.862384
| 34> *
| 35>
| 36> $new_job
| 37> ! ri-mp2 aug-cc-pvqz aug-cc-pvqz/c tightscf
| 38> %pal nprocs 16 end
| 39> %maxcore 3800
| 40> %base "QZ_B-F_24_A"
| 41>
| 42> *xyz 0 2
| 43> F        -2.370748   -0.055440   -0.088357
| 44> B        -1.283927   -0.481021   -0.625115
| 45> S         0.385015    0.068466    0.102501
| 46> O         0.422715    1.486043    0.207190
| 47> O         0.626165   -0.795591    1.218573
| 48> O         1.427336   -0.314651   -1.032869
| 49> H         1.786410   -1.197802   -0.862384
| 50> *
| 51>
| 52>
| 53>
| 54>
| 55>                          ****END OF INPUT****
 Total Charge           Charge          ....    0
 Multiplicity           Mult            ....    2
 Number of Electrons    NEL             ....   55
MP2 TOTAL ENERGY:     -747.770791868 Eh
FINAL SINGLE POINT ENERGY      -747.770791867664
MP2 TOTAL ENERGY:     -748.165594873 Eh
FINAL SINGLE POINT ENERGY      -748.165594872549

CARTESIAN COORDINATES (ANGSTROEM)
---------------------------------
  F     -2.370748   -0.055440   -0.088357
  B     -1.283927   -0.481021   -0.625115
  S      0.385015    0.068466    0.102501
  O      0.422715    1.486043    0.207190
  O      0.626165   -0.795591    1.218573
  O      1.427336   -0.314651   -1.032869
  H      1.786410   -1.197802   -0.862384

 Multiplicity           Mult            ....    2
 Number of Electrons    NEL             ....   55
 Basis Dimension        Dim             ....  530

ORBITAL ENERGIES
----------------
                 SPIN UP ORBITALS
  NO   OCC          E(Eh)            E(eV)
   0   1.0000     -92.220699     -2509.4528
   1   1.0000     -26.378660      -717.7998
   2   1.0000     -20.649060      -561.8895
   3   1.0000     -20.580727      -560.0301
   4   1.0000     -20.577383      -559.9390
   5   1.0000      -9.187468      -250.0037
   6   1.0000      -7.767269      -211.3581
   7   1.0000      -6.873649      -187.0415
   8   1.0000      -6.872655      -187.0145
   9   1.0000      -6.871417      -186.9808
  10   1.0000      -1.699963       -46.2583
  11   1.0000      -1.535256       -41.7764
  12   1.0000      -1.415798       -38.5258
  13   1.0000      -1.386680       -37.7335
  14   1.0000      -0.948792       -25.8180
  15   1.0000      -0.861889       -23.4532
  16   1.0000      -0.809329       -22.0230
  17   1.0000      -0.760764       -20.7014
  18   1.0000      -0.745243       -20.2791
  19   1.0000      -0.739925       -20.1344
  20   1.0000      -0.709038       -19.2939
  21   1.0000      -0.653265       -17.7762
  22   1.0000      -0.593756       -16.1569
  23   1.0000      -0.552054       -15.0221
  24   1.0000      -0.545086       -14.8325
  25   1.0000      -0.533890       -14.5279
  26   1.0000      -0.509691       -13.8694
  27   1.0000      -0.409288       -11.1373
  28   0.0000       0.018917         0.5148
  29   0.0000       0.021800         0.5932
  30   0.0000       0.032152         0.8749
  31   0.0000       0.041178         1.1205
  32   0.0000       0.049231         1.3396

                 SPIN DOWN ORBITALS
  NO   OCC          E(Eh)            E(eV)
   0   1.0000     -92.219359     -2509.4163
   1   1.0000     -26.375831      -717.7228
   2   1.0000     -20.649340      -561.8971
   3   1.0000     -20.579784      -560.0044
   4   1.0000     -20.575257      -559.8812
   5   1.0000      -9.185532      -249.9510
   6   1.0000      -7.745959      -210.7783
   7   1.0000      -6.872298      -187.0047
   8   1.0000      -6.870814      -186.9644
   9   1.0000      -6.868858      -186.9111
  10   1.0000      -1.692131       -46.0452
  11   1.0000      -1.532498       -41.7014
  12   1.0000      -1.414150       -38.4810
  13   1.0000      -1.382188       -37.6112
  14   1.0000      -0.934283       -25.4231
  15   1.0000      -0.852724       -23.2038
  16   1.0000      -0.793862       -21.6021
  17   1.0000      -0.747981       -20.3536
  18   1.0000      -0.744758       -20.2659
  19   1.0000      -0.724915       -19.7259
  20   1.0000      -0.705702       -19.2031
  21   1.0000      -0.647864       -17.6293
  22   1.0000      -0.593565       -16.1517
  23   1.0000      -0.550053       -14.9677
  24   1.0000      -0.532178       -14.4813
  25   1.0000      -0.508500       -13.8370
  26   1.0000      -0.492266       -13.3952
  27   0.0000       0.006595         0.1795
  28   0.0000       0.027320         0.7434
  29   0.0000       0.032808         0.8928
  30   0.0000       0.039852         1.0844
  31   0.0000       0.043196         1.1754

MULLIKEN ATOMIC CHARGES AND SPIN POPULATIONS
--------------------------------------------
   0 F :   -0.662036   -0.012653
   1 B :    0.841383    0.940764
   2 S :    2.419104    0.018146
   3 O :   -1.126623    0.040902
   4 O :   -1.090939    0.020085
   5 O :   -0.734388   -0.008704
   6 H :    0.353498    0.001460
Sum of atomic charges         :   -0.0000000

LOEWDIN ATOMIC CHARGES AND SPIN POPULATIONS
-------------------------------------------
   0 F :    0.716592    0.149233
   1 B :   -0.809849    0.611675
   2 S :   -0.553192    0.154546
   3 O :    0.256668    0.042113
   4 O :    0.273120    0.026743
   5 O :    0.999954    0.011922
   6 H :   -0.883293    0.003769

  Mayer bond orders larger than 0.100000
B(  0-F ,  1-B ) :   0.4718 B(  1-B ,  2-S ) :   0.8714 B(  2-S ,  3-O ) :   1.2091
B(  2-S ,  4-O ) :   1.2685 B(  2-S ,  5-O ) :   0.7126 B(  5-O ,  6-H ) :   0.8890

MP2 TOTAL ENERGY:     -748.295339366 Eh
FINAL SINGLE POINT ENERGY      -748.295339365627

DIPOLE MOMENT
-------------
                                X             Y             Z
Electronic contribution:     -5.07698      -0.41587      -0.74957
Nuclear contribution   :      4.83474      -0.70025      -0.25003
                        -----------------------------------------
Total Dipole Moment    :     -0.24223      -1.11612      -0.99960
                        -----------------------------------------
Magnitude (a.u.)       :      1.51776
Magnitude (Debye)      :      3.85784

Rotational constants in cm-1:     0.171920     0.076304     0.074774
Rotational constants in MHz :  5154.028996  2287.528385  2241.658798

                             ****ORCA TERMINATED NORMALLY****
TOTAL RUN TIME: 0 days 0 hours 32 minutes 50 seconds 343 msec
