                         Program Version 5.0.4 -  RELEASE  -
|  1> ! ri-mp2 aug-cc-pvdz aug-cc-pvdz/c tightscf
|  2> %pal nprocs 16 end
|  3> %maxcore 3800
|  4> %base "DZ_S-S_5_AB"
|  5> %scf
|  6> STABPerform true
|  7> STABRestartUHFifUnstable true
|  8> end
|  9>
| 10> *xyz 0 1
| 11> C         2.005661    0.791726   -0.109399
| 12> O         1.158098    1.521458   -0.520165
| 13> S         1.838012   -1.005426   -0.070072
| 14> S        -0.032404   -1.252358   -0.814694
| 15> C        -1.050393   -0.689211    0.563888
| 16> O        -0.597568   -0.299473    1.595061
| 17> C         3.310061    1.244431    0.480829
| 18> H         3.137767    1.482763    1.531490
| 19> H         3.635852    2.146943   -0.031581
| 20> H         4.078923    0.476013    0.422789
| 21> C        -2.521678   -0.727037    0.238093
| 22> C        -3.140156    0.667846    0.336294
| 23> H        -2.982433   -1.398542    0.965555
| 24> H        -2.680418   -1.150423   -0.755705
| 25> C        -2.602043    1.632332   -0.709833
| 26> H        -2.951786    1.056271    1.338056
| 27> H        -4.222119    0.567379    0.233015
| 28> H        -1.525541    1.776287   -0.610023
| 29> H        -3.078816    2.607906   -0.616379
| 30> H        -2.794121    1.263539   -1.719356
| 31> *
| 32>
| 33> $new_job
| 34> ! ri-mp2 aug-cc-pvtz aug-cc-pvtz/c tightscf
| 35> %pal nprocs 16 end
| 36> %maxcore 3800
| 37> %base "TZ_S-S_5_AB"
| 38>
| 39> *xyz 0 1
| 40> C         2.005661    0.791726   -0.109399
| 41> O         1.158098    1.521458   -0.520165
| 42> S         1.838012   -1.005426   -0.070072
| 43> S        -0.032404   -1.252358   -0.814694
| 44> C        -1.050393   -0.689211    0.563888
| 45> O        -0.597568   -0.299473    1.595061
| 46> C         3.310061    1.244431    0.480829
| 47> H         3.137767    1.482763    1.531490
| 48> H         3.635852    2.146943   -0.031581
| 49> H         4.078923    0.476013    0.422789
| 50> C        -2.521678   -0.727037    0.238093
| 51> C        -3.140156    0.667846    0.336294
| 52> H        -2.982433   -1.398542    0.965555
| 53> H        -2.680418   -1.150423   -0.755705
| 54> C        -2.602043    1.632332   -0.709833
| 55> H        -2.951786    1.056271    1.338056
| 56> H        -4.222119    0.567379    0.233015
| 57> H        -1.525541    1.776287   -0.610023
| 58> H        -3.078816    2.607906   -0.616379
| 59> H        -2.794121    1.263539   -1.719356
| 60> *
| 61>
| 62> $new_job
| 63> ! ri-mp2 aug-cc-pvqz aug-cc-pvqz/c tightscf
| 64> %pal nprocs 16 end
| 65> %maxcore 3800
| 66> %base "QZ_S-S_5_AB"
| 67>
| 68> *xyz 0 1
| 69> C         2.005661    0.791726   -0.109399
| 70> O         1.158098    1.521458   -0.520165
| 71> S         1.838012   -1.005426   -0.070072
| 72> S        -0.032404   -1.252358   -0.814694
| 73> C        -1.050393   -0.689211    0.563888
| 74> O        -0.597568   -0.299473    1.595061
| 75> C         3.310061    1.244431    0.480829
| 76> H         3.137767    1.482763    1.531490
| 77> H         3.635852    2.146943   -0.031581
| 78> H         4.078923    0.476013    0.422789
| 79> C        -2.521678   -0.727037    0.238093
| 80> C        -3.140156    0.667846    0.336294
| 81> H        -2.982433   -1.398542    0.965555
| 82> H        -2.680418   -1.150423   -0.755705
| 83> C        -2.602043    1.632332   -0.709833
| 84> H        -2.951786    1.056271    1.338056
| 85> H        -4.222119    0.567379    0.233015
| 86> H        -1.525541    1.776287   -0.610023
| 87> H        -3.078816    2.607906   -0.616379
| 88> H        -2.794121    1.263539   -1.719356
| 89> *
| 90>
| 91>
| 92>
| 93>
| 94>                          ****END OF INPUT****
 Total Charge           Charge          ....    0
 Multiplicity           Mult            ....    1
 Number of Electrons    NEL             ....   94
MP2 TOTAL ENERGY:    -1179.418920526 Eh
FINAL SINGLE POINT ENERGY     -1179.418920525977
MP2 TOTAL ENERGY:    -1179.862363024 Eh
FINAL SINGLE POINT ENERGY     -1179.862363024200

CARTESIAN COORDINATES (ANGSTROEM)
---------------------------------
  C      2.005661    0.791726   -0.109399
  O      1.158098    1.521458   -0.520165
  S      1.838012   -1.005426   -0.070072
  S     -0.032404   -1.252358   -0.814694
  C     -1.050393   -0.689211    0.563888
  O     -0.597568   -0.299473    1.595061
  C      3.310061    1.244431    0.480829
  H      3.137767    1.482763    1.531490
  H      3.635852    2.146943   -0.031581
  H      4.078923    0.476013    0.422789
  C     -2.521678   -0.727037    0.238093
  C     -3.140156    0.667846    0.336294
  H     -2.982433   -1.398542    0.965555
  H     -2.680418   -1.150423   -0.755705
  C     -2.602043    1.632332   -0.709833
  H     -2.951786    1.056271    1.338056
  H     -4.222119    0.567379    0.233015
  H     -1.525541    1.776287   -0.610023
  H     -3.078816    2.607906   -0.616379
  H     -2.794121    1.263539   -1.719356

 Multiplicity           Mult            ....    1
 Number of Electrons    NEL             ....   94
 Basis Dimension        Dim             .... 1268

ORBITAL ENERGIES
----------------

  NO   OCC          E(Eh)            E(eV)
   0   2.0000     -91.995184     -2503.3162
   1   2.0000     -91.994584     -2503.2999
   2   2.0000     -20.565365      -559.6120
   3   2.0000     -20.562363      -559.5303
   4   2.0000     -11.371320      -309.4293
   5   2.0000     -11.365340      -309.2666
   6   2.0000     -11.251079      -306.1574
   7   2.0000     -11.248199      -306.0790
   8   2.0000     -11.231389      -305.6216
   9   2.0000     -11.209299      -305.0205
  10   2.0000      -8.996865      -244.8171
  11   2.0000      -8.996249      -244.8004
  12   2.0000      -6.678165      -181.7221
  13   2.0000      -6.677465      -181.7031
  14   2.0000      -6.676741      -181.6833
  15   2.0000      -6.676098      -181.6659
  16   2.0000      -6.676083      -181.6654
  17   2.0000      -6.675468      -181.6487
  18   2.0000      -1.422577       -38.7103
  19   2.0000      -1.417780       -38.5798
  20   2.0000      -1.102860       -30.0103
  21   2.0000      -1.082723       -29.4624
  22   2.0000      -1.034961       -28.1627
  23   2.0000      -0.978290       -26.6206
  24   2.0000      -0.917260       -24.9599
  25   2.0000      -0.830490       -22.5988
  26   2.0000      -0.758977       -20.6528
  27   2.0000      -0.728841       -19.8328
  28   2.0000      -0.678795       -18.4710
  29   2.0000      -0.662463       -18.0265
  30   2.0000      -0.650953       -17.7133
  31   2.0000      -0.634412       -17.2632
  32   2.0000      -0.627740       -17.0817
  33   2.0000      -0.614503       -16.7215
  34   2.0000      -0.597911       -16.2700
  35   2.0000      -0.572391       -15.5756
  36   2.0000      -0.558536       -15.1985
  37   2.0000      -0.549043       -14.9402
  38   2.0000      -0.528247       -14.3743
  39   2.0000      -0.505670       -13.7600
  40   2.0000      -0.487363       -13.2618
  41   2.0000      -0.486338       -13.2339
  42   2.0000      -0.474219       -12.9041
  43   2.0000      -0.433341       -11.7918
  44   2.0000      -0.426587       -11.6080
  45   2.0000      -0.391424       -10.6512
  46   2.0000      -0.372147       -10.1266
  47   0.0000       0.025380         0.6906
  48   0.0000       0.025694         0.6992
  49   0.0000       0.034783         0.9465
  50   0.0000       0.037056         1.0083
  51   0.0000       0.043506         1.1839

MULLIKEN ATOMIC CHARGES
-----------------------
   0 C :    0.641585
   1 O :   -0.846245
   2 S :    0.037561
   3 S :   -0.002291
   4 C :    0.723753
   5 O :   -0.903670
   6 C :   -0.812196
   7 H :    0.312399
   8 H :    0.305853
   9 H :    0.285431
  10 C :   -0.384476
  11 C :   -0.457424
  12 H :    0.355974
  13 H :    0.261891
  14 C :   -0.872156
  15 H :    0.263984
  16 H :    0.273909
  17 H :    0.355217
  18 H :    0.256155
  19 H :    0.204746
Sum of atomic charges:   -0.0000000

LOEWDIN ATOMIC CHARGES
----------------------
   0 C :   -1.165908
   1 O :    0.638332
   2 S :    0.753462
   3 S :    0.775153
   4 C :   -1.174662
   5 O :    0.657470
   6 C :    0.777127
   7 H :   -0.301898
   8 H :   -0.313865
   9 H :   -0.345955
  10 C :    0.361099
  11 C :    0.490093
  12 H :   -0.286825
  13 H :   -0.344861
  14 C :    0.915193
  15 H :   -0.284982
  16 H :   -0.270003
  17 H :   -0.323296
  18 H :   -0.276194
  19 H :   -0.279480

  Mayer bond orders larger than 0.100000
B(  0-C ,  1-O ) :   1.4129 B(  0-C ,  2-S ) :   0.9199 B(  0-C ,  6-C ) :   0.8082
B(  2-S ,  3-S ) :   1.1116 B(  3-S ,  4-C ) :   0.9235 B(  4-C ,  5-O ) :   1.2881
B(  4-C , 10-C ) :   0.8239 B(  6-C ,  7-H ) :   0.8649 B(  6-C ,  8-H ) :   0.9580
B(  6-C ,  9-H ) :   0.9726 B( 10-C , 11-C ) :   0.9787 B( 10-C , 12-H ) :   0.8334
B( 10-C , 13-H ) :   0.9432 B( 11-C , 14-C ) :   0.9682 B( 11-C , 15-H ) :   0.8786
B( 11-C , 16-H ) :   0.8815 B( 14-C , 17-H ) :   0.8261 B( 14-C , 18-H ) :   1.0174
B( 14-C , 19-H ) :   0.9676

MP2 TOTAL ENERGY:    -1180.005095695 Eh
FINAL SINGLE POINT ENERGY     -1180.005095694727

DIPOLE MOMENT
-------------
                                X             Y             Z
Electronic contribution:      9.42973      -8.99852      -0.91484
Nuclear contribution   :     -9.33832       8.83077       0.79434
                        -----------------------------------------
Total Dipole Moment    :      0.09142      -0.16774      -0.12049
                        -----------------------------------------
Magnitude (a.u.)       :      0.22586
Magnitude (Debye)      :      0.57410

Rotational constants in cm-1:     0.054275     0.021124     0.018186
Rotational constants in MHz :  1627.109878   633.294506   545.207325

                             ****ORCA TERMINATED NORMALLY****
TOTAL RUN TIME: 0 days 3 hours 47 minutes 2 seconds 944 msec
