                         Program Version 5.0.4 -  RELEASE  -
|  1> ! ri-mp2 aug-cc-pvdz aug-cc-pvdz/c tightscf
|  2> %pal nprocs 16 end
|  3> %maxcore 3800
|  4> %base "DZ_B-Si_4_AB"
|  5> %scf
|  6> STABPerform true
|  7> STABRestartUHFifUnstable true
|  8> end
|  9>
| 10> *xyz 0 1
| 11> Si         0.342655   -1.058383   -0.214239
| 12> B        -1.308979    0.110174   -0.046613
| 13> O        -2.414495   -0.200824    0.693959
| 14> O        -1.328004    1.289907   -0.721087
| 15> C         1.903370   -0.035869   -0.413760
| 16> C         2.152841    0.928119    0.745376
| 17> H         2.246082    0.396447    1.694159
| 18> H         1.334612    1.642834    0.846651
| 19> H         3.070084    1.500436    0.600215
| 20> H         1.818348    0.520686   -1.350425
| 21> H         2.753225   -0.711548   -0.535794
| 22> H        -2.356947   -1.029222    1.174804
| 23> H        -2.150877    1.779346   -0.596925
| 24> H         0.182750   -1.979089   -1.369492
| 25> H         0.453168   -1.919562    0.996543
| 26> *
| 27>
| 28> $new_job
| 29> ! ri-mp2 aug-cc-pvtz aug-cc-pvtz/c tightscf
| 30> %pal nprocs 16 end
| 31> %maxcore 3800
| 32> %base "TZ_B-Si_4_AB"
| 33>
| 34> *xyz 0 1
| 35> Si         0.342655   -1.058383   -0.214239
| 36> B        -1.308979    0.110174   -0.046613
| 37> O        -2.414495   -0.200824    0.693959
| 38> O        -1.328004    1.289907   -0.721087
| 39> C         1.903370   -0.035869   -0.413760
| 40> C         2.152841    0.928119    0.745376
| 41> H         2.246082    0.396447    1.694159
| 42> H         1.334612    1.642834    0.846651
| 43> H         3.070084    1.500436    0.600215
| 44> H         1.818348    0.520686   -1.350425
| 45> H         2.753225   -0.711548   -0.535794
| 46> H        -2.356947   -1.029222    1.174804
| 47> H        -2.150877    1.779346   -0.596925
| 48> H         0.182750   -1.979089   -1.369492
| 49> H         0.453168   -1.919562    0.996543
| 50> *
| 51>
| 52> $new_job
| 53> ! ri-mp2 aug-cc-pvqz aug-cc-pvqz/c tightscf
| 54> %pal nprocs 16 end
| 55> %maxcore 3800
| 56> %base "QZ_B-Si_4_AB"
| 57>
| 58> *xyz 0 1
| 59> Si         0.342655   -1.058383   -0.214239
| 60> B        -1.308979    0.110174   -0.046613
| 61> O        -2.414495   -0.200824    0.693959
| 62> O        -1.328004    1.289907   -0.721087
| 63> C         1.903370   -0.035869   -0.413760
| 64> C         2.152841    0.928119    0.745376
| 65> H         2.246082    0.396447    1.694159
| 66> H         1.334612    1.642834    0.846651
| 67> H         3.070084    1.500436    0.600215
| 68> H         1.818348    0.520686   -1.350425
| 69> H         2.753225   -0.711548   -0.535794
| 70> H        -2.356947   -1.029222    1.174804
| 71> H        -2.150877    1.779346   -0.596925
| 72> H         0.182750   -1.979089   -1.369492
| 73> H         0.453168   -1.919562    0.996543
| 74> *
| 75>
| 76>
| 77>
| 78>
| 79>                          ****END OF INPUT****
 Total Charge           Charge          ....    0
 Multiplicity           Mult            ....    1
 Number of Electrons    NEL             ....   56
MP2 TOTAL ENERGY:     -545.352324162 Eh
FINAL SINGLE POINT ENERGY      -545.352324162260
MP2 TOTAL ENERGY:     -545.622908104 Eh
FINAL SINGLE POINT ENERGY      -545.622908104228

CARTESIAN COORDINATES (ANGSTROEM)
---------------------------------
  Si     0.342655   -1.058383   -0.214239
  B     -1.308979    0.110174   -0.046613
  O     -2.414495   -0.200824    0.693959
  O     -1.328004    1.289907   -0.721087
  C      1.903370   -0.035869   -0.413760
  C      2.152841    0.928119    0.745376
  H      2.246082    0.396447    1.694159
  H      1.334612    1.642834    0.846651
  H      3.070084    1.500436    0.600215
  H      1.818348    0.520686   -1.350425
  H      2.753225   -0.711548   -0.535794
  H     -2.356947   -1.029222    1.174804
  H     -2.150877    1.779346   -0.596925
  H      0.182750   -1.979089   -1.369492
  H      0.453168   -1.919562    0.996543

 Multiplicity           Mult            ....    1
 Number of Electrons    NEL             ....   56
 Basis Dimension        Dim             ....  898

ORBITAL ENERGIES
----------------

  NO   OCC          E(Eh)            E(eV)
   0   2.0000     -68.744618     -1870.6362
   1   2.0000     -20.574022      -559.8476
   2   2.0000     -20.566911      -559.6541
   3   2.0000     -11.214870      -305.1721
   4   2.0000     -11.205044      -304.9047
   5   2.0000      -7.636171      -207.7908
   6   2.0000      -6.096549      -165.8955
   7   2.0000      -4.202934      -114.3676
   8   2.0000      -4.202643      -114.3597
   9   2.0000      -4.202231      -114.3485
  10   2.0000      -1.389250       -37.8034
  11   2.0000      -1.347477       -36.6667
  12   2.0000      -1.019665       -27.7465
  13   2.0000      -0.844429       -22.9781
  14   2.0000      -0.776714       -21.1355
  15   2.0000      -0.741415       -20.1749
  16   2.0000      -0.685821       -18.6621
  17   2.0000      -0.610208       -16.6046
  18   2.0000      -0.602124       -16.3846
  19   2.0000      -0.580030       -15.7834
  20   2.0000      -0.568739       -15.4762
  21   2.0000      -0.564560       -15.3624
  22   2.0000      -0.514590       -14.0027
  23   2.0000      -0.505264       -13.7489
  24   2.0000      -0.493486       -13.4284
  25   2.0000      -0.460410       -12.5284
  26   2.0000      -0.428292       -11.6544
  27   2.0000      -0.403666       -10.9843
  28   0.0000       0.022359         0.6084
  29   0.0000       0.030378         0.8266
  30   0.0000       0.033064         0.8997
  31   0.0000       0.035949         0.9782
  32   0.0000       0.045903         1.2491

MULLIKEN ATOMIC CHARGES
-----------------------
   0 Si:    0.684250
   1 B :    1.333459
   2 O :   -1.132500
   3 O :   -0.969017
   4 C :   -0.487129
   5 C :   -0.936799
   6 H :    0.244999
   7 H :    0.272740
   8 H :    0.325651
   9 H :    0.216809
  10 H :    0.280602
  11 H :    0.347015
  12 H :    0.326529
  13 H :   -0.270644
  14 H :   -0.235966
Sum of atomic charges:    0.0000000

LOEWDIN ATOMIC CHARGES
----------------------
   0 Si:    0.908442
   1 B :   -1.194291
   2 O :    1.306941
   3 O :    1.285321
   4 C :    0.478618
   5 C :    0.849821
   6 H :   -0.294910
   7 H :   -0.301213
   8 H :   -0.281971
   9 H :   -0.338534
  10 H :   -0.340444
  11 H :   -0.818198
  12 H :   -0.801160
  13 H :   -0.232749
  14 H :   -0.225672

  Mayer bond orders larger than 0.100000
B(  0-Si,  1-B ) :   0.7705 B(  0-Si,  2-O ) :  -0.1096 B(  0-Si,  4-C ) :   0.7538
B(  0-Si, 13-H ) :   0.7318 B(  0-Si, 14-H ) :   0.7696 B(  1-B ,  2-O ) :   0.4484
B(  1-B ,  3-O ) :   0.4528 B(  2-O ,  3-O ) :  -0.1123 B(  2-O , 11-H ) :   0.9188
B(  3-O , 12-H ) :   0.9538 B(  4-C ,  5-C ) :   0.9604 B(  4-C ,  9-H ) :   0.9103
B(  4-C , 10-H ) :   0.9060 B(  5-C ,  6-H ) :   0.9388 B(  5-C ,  7-H ) :   0.9159
B(  5-C ,  8-H ) :   0.9232

MP2 TOTAL ENERGY:     -545.709039731 Eh
FINAL SINGLE POINT ENERGY      -545.709039730793

DIPOLE MOMENT
-------------
                                X             Y             Z
Electronic contribution:     -8.56153      -0.27367      -1.23048
Nuclear contribution   :      8.42023       0.19517       1.52707
                        -----------------------------------------
Total Dipole Moment    :     -0.14131      -0.07850       0.29659
                        -----------------------------------------
Magnitude (a.u.)       :      0.33778
Magnitude (Debye)      :      0.85857

Rotational constants in cm-1:     0.136207     0.053256     0.045959
Rotational constants in MHz :  4083.377242  1596.560284  1377.812597

                             ****ORCA TERMINATED NORMALLY****
TOTAL RUN TIME: 0 days 1 hours 3 minutes 6 seconds 653 msec
