                         Program Version 5.0.4 -  RELEASE  -
|  1> ! ri-mp2 aug-cc-pvdz aug-cc-pvdz/c tightscf
|  2> %pal nprocs 16 end
|  3> %maxcore 3800
|  4> %base "DZ_Si-Si_157_A"
|  5> %scf
|  6> STABPerform true
|  7> STABRestartUHFifUnstable true
|  8> end
|  9>
| 10> *xyz 0 2
| 11> Si         2.420857   -0.557698    0.115951
| 12> C         0.789576    0.352018   -0.234062
| 13> H         3.500634    0.427882    0.302058
| 14> H         2.286869   -1.519985    1.226898
| 15> O         0.697128    1.476114   -0.610874
| 16> O        -0.302348   -0.494512   -0.108691
| 17> C        -1.566964   -0.002482    0.186672
| 18> O        -1.738266    0.978102    0.829937
| 19> C        -2.613966   -0.911080   -0.367905
| 20> H        -2.412493   -1.939096   -0.070071
| 21> H        -2.579350   -0.872275   -1.457080
| 22> H        -3.591647   -0.597126   -0.016321
| 23> *
| 24>
| 25> $new_job
| 26> ! ri-mp2 aug-cc-pvtz aug-cc-pvtz/c tightscf
| 27> %pal nprocs 16 end
| 28> %maxcore 3800
| 29> %base "TZ_Si-Si_157_A"
| 30>
| 31> *xyz 0 2
| 32> Si         2.420857   -0.557698    0.115951
| 33> C         0.789576    0.352018   -0.234062
| 34> H         3.500634    0.427882    0.302058
| 35> H         2.286869   -1.519985    1.226898
| 36> O         0.697128    1.476114   -0.610874
| 37> O        -0.302348   -0.494512   -0.108691
| 38> C        -1.566964   -0.002482    0.186672
| 39> O        -1.738266    0.978102    0.829937
| 40> C        -2.613966   -0.911080   -0.367905
| 41> H        -2.412493   -1.939096   -0.070071
| 42> H        -2.579350   -0.872275   -1.457080
| 43> H        -3.591647   -0.597126   -0.016321
| 44> *
| 45>
| 46> $new_job
| 47> ! ri-mp2 aug-cc-pvqz aug-cc-pvqz/c tightscf
| 48> %pal nprocs 16 end
| 49> %maxcore 3800
| 50> %base "QZ_Si-Si_157_A"
| 51>
| 52> *xyz 0 2
| 53> Si         2.420857   -0.557698    0.115951
| 54> C         0.789576    0.352018   -0.234062
| 55> H         3.500634    0.427882    0.302058
| 56> H         2.286869   -1.519985    1.226898
| 57> O         0.697128    1.476114   -0.610874
| 58> O        -0.302348   -0.494512   -0.108691
| 59> C        -1.566964   -0.002482    0.186672
| 60> O        -1.738266    0.978102    0.829937
| 61> C        -2.613966   -0.911080   -0.367905
| 62> H        -2.412493   -1.939096   -0.070071
| 63> H        -2.579350   -0.872275   -1.457080
| 64> H        -3.591647   -0.597126   -0.016321
| 65> *
| 66>
| 67>
| 68>
| 69>
| 70>                          ****END OF INPUT****
 Total Charge           Charge          ....    0
 Multiplicity           Mult            ....    2
 Number of Electrons    NEL             ....   61
MP2 TOTAL ENERGY:     -631.123431846 Eh
FINAL SINGLE POINT ENERGY      -631.123431845517
MP2 TOTAL ENERGY:     -631.444009852 Eh
FINAL SINGLE POINT ENERGY      -631.444009852111

CARTESIAN COORDINATES (ANGSTROEM)
---------------------------------
  Si     2.420857   -0.557698    0.115951
  C      0.789576    0.352018   -0.234062
  H      3.500634    0.427882    0.302058
  H      2.286869   -1.519985    1.226898
  O      0.697128    1.476114   -0.610874
  O     -0.302348   -0.494512   -0.108691
  C     -1.566964   -0.002482    0.186672
  O     -1.738266    0.978102    0.829937
  C     -2.613966   -0.911080   -0.367905
  H     -2.412493   -1.939096   -0.070071
  H     -2.579350   -0.872275   -1.457080
  H     -3.591647   -0.597126   -0.016321

 Multiplicity           Mult            ....    2
 Number of Electrons    NEL             ....   61
 Basis Dimension        Dim             ....  794

ORBITAL ENERGIES
----------------
                 SPIN UP ORBITALS
  NO   OCC          E(Eh)            E(eV)
   0   1.0000     -68.810911     -1872.4401
   1   1.0000     -20.624436      -561.2194
   2   1.0000     -20.575823      -559.8966
   3   1.0000     -20.563191      -559.5529
   4   1.0000     -11.398621      -310.1722
   5   1.0000     -11.385939      -309.8272
   6   1.0000     -11.252407      -306.1936
   7   1.0000      -6.161920      -167.6744
   8   1.0000      -4.274974      -116.3280
   9   1.0000      -4.264751      -116.0498
  10   1.0000      -4.264502      -116.0430
  11   1.0000      -1.498356       -40.7723
  12   1.0000      -1.426474       -38.8163
  13   1.0000      -1.378148       -37.5013
  14   1.0000      -1.045874       -28.4597
  15   1.0000      -0.914528       -24.8856
  16   1.0000      -0.785504       -21.3746
  17   1.0000      -0.740576       -20.1521
  18   1.0000      -0.706239       -19.2178
  19   1.0000      -0.691675       -18.8214
  20   1.0000      -0.674992       -18.3675
  21   1.0000      -0.618322       -16.8254
  22   1.0000      -0.609959       -16.5978
  23   1.0000      -0.590566       -16.0701
  24   1.0000      -0.568991       -15.4830
  25   1.0000      -0.544205       -14.8086
  26   1.0000      -0.519148       -14.1267
  27   1.0000      -0.494791       -13.4639
  28   1.0000      -0.481876       -13.1125
  29   1.0000      -0.436106       -11.8670
  30   1.0000      -0.357087        -9.7168
  31   0.0000       0.019776         0.5381
  32   0.0000       0.029376         0.7994
  33   0.0000       0.035077         0.9545
  34   0.0000       0.038611         1.0507
  35   0.0000       0.044210         1.2030

                 SPIN DOWN ORBITALS
  NO   OCC          E(Eh)            E(eV)
   0   1.0000     -68.804981     -1872.2787
   1   1.0000     -20.624468      -561.2203
   2   1.0000     -20.570898      -559.7626
   3   1.0000     -20.563203      -559.5532
   4   1.0000     -11.398740      -310.1755
   5   1.0000     -11.387842      -309.8789
   6   1.0000     -11.252405      -306.1935
   7   1.0000      -6.152900      -167.4289
   8   1.0000      -4.260603      -115.9369
   9   1.0000      -4.260432      -115.9322
  10   1.0000      -4.251740      -115.6957
  11   1.0000      -1.497255       -40.7424
  12   1.0000      -1.421097       -38.6700
  13   1.0000      -1.374276       -37.3960
  14   1.0000      -1.045751       -28.4563
  15   1.0000      -0.911770       -24.8105
  16   1.0000      -0.763865       -20.7858
  17   1.0000      -0.736882       -20.0516
  18   1.0000      -0.704786       -19.1782
  19   1.0000      -0.689569       -18.7641
  20   1.0000      -0.661160       -17.9911
  21   1.0000      -0.616543       -16.7770
  22   1.0000      -0.600683       -16.3454
  23   1.0000      -0.589456       -16.0399
  24   1.0000      -0.567294       -15.4369
  25   1.0000      -0.532123       -14.4798
  26   1.0000      -0.512473       -13.9451
  27   1.0000      -0.482272       -13.1233
  28   1.0000      -0.480645       -13.0790
  29   1.0000      -0.430151       -11.7050
  30   0.0000       0.007546         0.2053
  31   0.0000       0.021605         0.5879
  32   0.0000       0.030068         0.8182
  33   0.0000       0.036585         0.9955
  34   0.0000       0.041024         1.1163

MULLIKEN ATOMIC CHARGES AND SPIN POPULATIONS
--------------------------------------------
   0 Si:    0.820570    0.968736
   1 C :    0.502322   -0.080583
   2 H :   -0.212851    0.002673
   3 H :   -0.173791    0.002073
   4 O :   -0.671957    0.111186
   5 O :   -0.605145   -0.001189
   6 C :    0.898857   -0.003441
   7 O :   -0.686035    0.000407
   8 C :   -0.769630   -0.000265
   9 H :    0.300170    0.000089
  10 H :    0.285021    0.000175
  11 H :    0.312470    0.000140
Sum of atomic charges         :   -0.0000000

LOEWDIN ATOMIC CHARGES AND SPIN POPULATIONS
-------------------------------------------
   0 Si:    1.068315    0.522866
   1 C :   -1.213212    0.138468
   2 H :   -0.355242    0.128015
   3 H :   -0.355037    0.132003
   4 O :    0.594461    0.075137
   5 O :    0.686106    0.005167
   6 C :   -1.087295   -0.001090
   7 O :    0.712814   -0.000642
   8 C :    0.867668   -0.000028
   9 H :   -0.303980    0.000034
  10 H :   -0.297115    0.000054
  11 H :   -0.317484    0.000017

  Mayer bond orders larger than 0.100000
B(  0-Si,  1-C ) :   0.8020 B(  0-Si,  2-H ) :   0.9253 B(  0-Si,  3-H ) :   0.8804
B(  1-C ,  4-O ) :   1.5830 B(  1-C ,  5-O ) :   0.9606 B(  5-O ,  6-C ) :   0.9039
B(  6-C ,  7-O ) :   1.5033 B(  6-C ,  8-C ) :   0.9478 B(  8-C ,  9-H ) :   0.9115
B(  8-C , 10-H ) :   0.9016 B(  8-C , 11-H ) :   0.9602

MP2 TOTAL ENERGY:     -631.549779478 Eh
FINAL SINGLE POINT ENERGY      -631.549779477752

DIPOLE MOMENT
-------------
                                X             Y             Z
Electronic contribution:      3.04803       2.74508      -0.21087
Nuclear contribution   :     -2.89851      -4.33765      -0.01938
                        -----------------------------------------
Total Dipole Moment    :      0.14952      -1.59258      -0.23025
                        -----------------------------------------
Magnitude (a.u.)       :      1.61607
Magnitude (Debye)      :      4.10771

Rotational constants in cm-1:     0.160227     0.041263     0.036171
Rotational constants in MHz :  4803.493438  1237.037311  1084.370534

                             ****ORCA TERMINATED NORMALLY****
TOTAL RUN TIME: 0 days 1 hours 54 minutes 7 seconds 998 msec
