                         Program Version 5.0.4 -  RELEASE  -
|  1> ! ri-mp2 aug-cc-pvdz aug-cc-pvdz/c tightscf
|  2> %pal nprocs 16 end
|  3> %maxcore 3800
|  4> %base "DZ_Si-Cl_78_A"
|  5> %scf
|  6> STABPerform true
|  7> STABRestartUHFifUnstable true
|  8> end
|  9>
| 10> *xyz 0 2
| 11> Si         0.593895   -0.036279    0.000000
| 12> F         0.593895   -0.980404    1.271927
| 13> F         0.593895   -0.980404   -1.271927
| 14> Cl        -1.117921    1.067951    0.000000
| 15> *
| 16>
| 17> $new_job
| 18> ! ri-mp2 aug-cc-pvtz aug-cc-pvtz/c tightscf
| 19> %pal nprocs 16 end
| 20> %maxcore 3800
| 21> %base "TZ_Si-Cl_78_A"
| 22>
| 23> *xyz 0 2
| 24> Si         0.593895   -0.036279    0.000000
| 25> F         0.593895   -0.980404    1.271927
| 26> F         0.593895   -0.980404   -1.271927
| 27> Cl        -1.117921    1.067951    0.000000
| 28> *
| 29>
| 30> $new_job
| 31> ! ri-mp2 aug-cc-pvqz aug-cc-pvqz/c tightscf
| 32> %pal nprocs 16 end
| 33> %maxcore 3800
| 34> %base "QZ_Si-Cl_78_A"
| 35>
| 36> *xyz 0 2
| 37> Si         0.593895   -0.036279    0.000000
| 38> F         0.593895   -0.980404    1.271927
| 39> F         0.593895   -0.980404   -1.271927
| 40> Cl        -1.117921    1.067951    0.000000
| 41> *
| 42>
| 43>
| 44>
| 45>
| 46>                          ****END OF INPUT****
 Total Charge           Charge          ....    0
 Multiplicity           Mult            ....    2
 Number of Electrons    NEL             ....   49
MP2 TOTAL ENERGY:     -948.102851214 Eh
FINAL SINGLE POINT ENERGY      -948.102851213825
MP2 TOTAL ENERGY:     -948.373029056 Eh
FINAL SINGLE POINT ENERGY      -948.373029055760

CARTESIAN COORDINATES (ANGSTROEM)
---------------------------------
  Si     0.593895   -0.036279    0.000000
  F      0.593895   -0.980404    1.271927
  F      0.593895   -0.980404   -1.271927
  Cl    -1.117921    1.067951    0.000000

 Multiplicity           Mult            ....    2
 Number of Electrons    NEL             ....   49
 Basis Dimension        Dim             ....  328

ORBITAL ENERGIES
----------------
                 SPIN UP ORBITALS
  NO   OCC          E(Eh)            E(eV)
   0   1.0000    -104.859509     -2853.3723
   1   1.0000     -68.913078     -1875.2202
   2   1.0000     -26.321338      -716.2400
   3   1.0000     -26.321330      -716.2398
   4   1.0000     -10.586827      -288.0822
   5   1.0000      -8.055633      -219.2049
   6   1.0000      -8.052088      -219.1085
   7   1.0000      -8.051892      -219.1031
   8   1.0000      -6.248883      -170.0408
   9   1.0000      -4.359063      -118.6161
  10   1.0000      -4.352405      -118.4350
  11   1.0000      -4.352201      -118.4294
  12   1.0000      -1.638341       -44.5815
  13   1.0000      -1.619031       -44.0561
  14   1.0000      -1.133777       -30.8516
  15   1.0000      -0.820890       -22.3376
  16   1.0000      -0.751465       -20.4484
  17   1.0000      -0.723166       -19.6783
  18   1.0000      -0.717624       -19.5275
  19   1.0000      -0.691181       -18.8080
  20   1.0000      -0.671742       -18.2790
  21   1.0000      -0.609168       -16.5763
  22   1.0000      -0.511534       -13.9196
  23   1.0000      -0.501829       -13.6555
  24   1.0000      -0.405432       -11.0324
  25   0.0000       0.039320         1.0700
  26   0.0000       0.041181         1.1206
  27   0.0000       0.041933         1.1411
  28   0.0000       0.045746         1.2448
  29   0.0000       0.095709         2.6044

                 SPIN DOWN ORBITALS
  NO   OCC          E(Eh)            E(eV)
   0   1.0000    -104.857920     -2853.3291
   1   1.0000     -68.906379     -1875.0379
   2   1.0000     -26.317895      -716.1463
   3   1.0000     -26.317884      -716.1460
   4   1.0000     -10.585072      -288.0344
   5   1.0000      -8.051350      -219.0884
   6   1.0000      -8.051030      -219.0797
   7   1.0000      -8.049241      -219.0310
   8   1.0000      -6.237040      -169.7185
   9   1.0000      -4.348029      -118.3159
  10   1.0000      -4.347932      -118.3132
  11   1.0000      -4.339805      -118.0921
  12   1.0000      -1.628073       -44.3021
  13   1.0000      -1.608776       -43.7770
  14   1.0000      -1.120918       -30.5017
  15   1.0000      -0.800392       -21.7798
  16   1.0000      -0.735758       -20.0210
  17   1.0000      -0.715456       -19.4685
  18   1.0000      -0.702527       -19.1167
  19   1.0000      -0.680130       -18.5073
  20   1.0000      -0.668650       -18.1949
  21   1.0000      -0.580637       -15.7999
  22   1.0000      -0.500329       -13.6146
  23   1.0000      -0.499409       -13.5896
  24   0.0000       0.004445         0.1209
  25   0.0000       0.042440         1.1549
  26   0.0000       0.042814         1.1650
  27   0.0000       0.044782         1.2186
  28   0.0000       0.062886         1.7112

MULLIKEN ATOMIC CHARGES AND SPIN POPULATIONS
--------------------------------------------
   0 Si:    1.834036    0.919025
   1 F :   -0.682040    0.002561
   2 F :   -0.682040    0.002561
   3 Cl:   -0.469955    0.075853
Sum of atomic charges         :    0.0000000

LOEWDIN ATOMIC CHARGES AND SPIN POPULATIONS
-------------------------------------------
   0 Si:   -1.320699    0.618757
   1 F :    0.276564    0.111632
   2 F :    0.276564    0.111632
   3 Cl:    0.767571    0.157979

  Mayer bond orders larger than 0.100000
B(  0-Si,  1-F ) :   0.4554 B(  0-Si,  2-F ) :   0.4554 B(  0-Si,  3-Cl) :   0.8006

MP2 TOTAL ENERGY:     -948.464631675 Eh
FINAL SINGLE POINT ENERGY      -948.464631675437

DIPOLE MOMENT
-------------
                                X             Y             Z
Electronic contribution:     -0.05195       0.02682      -0.00000
Nuclear contribution   :      0.35371       0.37233       0.00000
                        -----------------------------------------
Total Dipole Moment    :      0.30175       0.39915      -0.00000
                        -----------------------------------------
Magnitude (a.u.)       :      0.50037
Magnitude (Debye)      :      1.27185

Rotational constants in cm-1:     0.245929     0.116577     0.084713
Rotational constants in MHz :  7372.764271  3494.889411  2539.618322

                             ****ORCA TERMINATED NORMALLY****
TOTAL RUN TIME: 0 days 0 hours 7 minutes 35 seconds 146 msec
