                         Program Version 5.0.4 -  RELEASE  -
|  1> ! ri-mp2 aug-cc-pvdz aug-cc-pvdz/c tightscf
|  2> %pal nprocs 16 end
|  3> %maxcore 3800
|  4> %base "DZ_B-Cl_5_AB"
|  5> %scf
|  6> STABPerform true
|  7> STABRestartUHFifUnstable true
|  8> end
|  9>
| 10> *xyz 0 1
| 11> Cl        -1.827218   -0.636719   -0.000003
| 12> Cl         0.192242    1.635051   -0.000002
| 13> N         0.868047   -1.037830    0.000003
| 14> B        -0.141938   -0.098056    0.000004
| 15> C         2.301537   -0.821809    0.000004
| 16> H         0.587605   -2.005872    0.000004
| 17> H         2.507920    0.244282   -0.000004
| 18> H         2.761604   -1.262059   -0.885801
| 19> H         2.761602   -1.262046    0.885816
| 20> *
| 21>
| 22> $new_job
| 23> ! ri-mp2 aug-cc-pvtz aug-cc-pvtz/c tightscf
| 24> %pal nprocs 16 end
| 25> %maxcore 3800
| 26> %base "TZ_B-Cl_5_AB"
| 27>
| 28> *xyz 0 1
| 29> Cl        -1.827218   -0.636719   -0.000003
| 30> Cl         0.192242    1.635051   -0.000002
| 31> N         0.868047   -1.037830    0.000003
| 32> B        -0.141938   -0.098056    0.000004
| 33> C         2.301537   -0.821809    0.000004
| 34> H         0.587605   -2.005872    0.000004
| 35> H         2.507920    0.244282   -0.000004
| 36> H         2.761604   -1.262059   -0.885801
| 37> H         2.761602   -1.262046    0.885816
| 38> *
| 39>
| 40> $new_job
| 41> ! ri-mp2 aug-cc-pvqz aug-cc-pvqz/c tightscf
| 42> %pal nprocs 16 end
| 43> %maxcore 3800
| 44> %base "QZ_B-Cl_5_AB"
| 45>
| 46> *xyz 0 1
| 47> Cl        -1.827218   -0.636719   -0.000003
| 48> Cl         0.192242    1.635051   -0.000002
| 49> N         0.868047   -1.037830    0.000003
| 50> B        -0.141938   -0.098056    0.000004
| 51> C         2.301537   -0.821809    0.000004
| 52> H         0.587605   -2.005872    0.000004
| 53> H         2.507920    0.244282   -0.000004
| 54> H         2.761604   -1.262059   -0.885801
| 55> H         2.761602   -1.262046    0.885816
| 56> *
| 57>
| 58>
| 59>
| 60>
| 61>                          ****END OF INPUT****
 Total Charge           Charge          ....    0
 Multiplicity           Mult            ....    1
 Number of Electrons    NEL             ....   56
MP2 TOTAL ENERGY:    -1039.195604916 Eh
FINAL SINGLE POINT ENERGY     -1039.195604915950
MP2 TOTAL ENERGY:    -1039.425587132 Eh
FINAL SINGLE POINT ENERGY     -1039.425587132482

CARTESIAN COORDINATES (ANGSTROEM)
---------------------------------
  Cl    -1.827218   -0.636719   -0.000003
  Cl     0.192242    1.635051   -0.000002
  N      0.868047   -1.037830    0.000003
  B     -0.141938   -0.098056    0.000004
  C      2.301537   -0.821809    0.000004
  H      0.587605   -2.005872    0.000004
  H      2.507920    0.244282   -0.000004
  H      2.761604   -1.262059   -0.885801
  H      2.761602   -1.262046    0.885816

 Multiplicity           Mult            ....    1
 Number of Electrons    NEL             ....   56
 Basis Dimension        Dim             ....  592

ORBITAL ENERGIES
----------------

  NO   OCC          E(Eh)            E(eV)
   0   2.0000    -104.829692     -2852.5610
   1   2.0000    -104.827389     -2852.4983
   2   2.0000     -15.578745      -423.9192
   3   2.0000     -11.268630      -306.6350
   4   2.0000     -10.557539      -287.2852
   5   2.0000     -10.555139      -287.2199
   6   2.0000      -8.024436      -218.3560
   7   2.0000      -8.023298      -218.3251
   8   2.0000      -8.023178      -218.3218
   9   2.0000      -8.022043      -218.2909
  10   2.0000      -8.020889      -218.2595
  11   2.0000      -8.020784      -218.2566
  12   2.0000      -7.699375      -209.5106
  13   2.0000      -1.227274       -33.3958
  14   2.0000      -1.120066       -30.4785
  15   2.0000      -1.088761       -29.6267
  16   2.0000      -0.939227       -25.5577
  17   2.0000      -0.741478       -20.1766
  18   2.0000      -0.659623       -17.9492
  19   2.0000      -0.619917       -16.8688
  20   2.0000      -0.617053       -16.7909
  21   2.0000      -0.551683       -15.0121
  22   2.0000      -0.538585       -14.6556
  23   2.0000      -0.516246       -14.0478
  24   2.0000      -0.476465       -12.9653
  25   2.0000      -0.460072       -12.5192
  26   2.0000      -0.444772       -12.1029
  27   2.0000      -0.412111       -11.2141
  28   0.0000       0.021374         0.5816
  29   0.0000       0.034851         0.9484
  30   0.0000       0.035728         0.9722
  31   0.0000       0.041141         1.1195
  32   0.0000       0.053553         1.4572

MULLIKEN ATOMIC CHARGES
-----------------------
   0 Cl:   -0.271009
   1 Cl:   -0.244507
   2 N :   -0.542329
   3 B :    0.703495
   4 C :   -0.731072
   5 H :    0.176304
   6 H :    0.314204
   7 H :    0.297457
   8 H :    0.297458
Sum of atomic charges:    0.0000000

LOEWDIN ATOMIC CHARGES
----------------------
   0 Cl:    1.220080
   1 Cl:    1.263428
   2 N :    0.744103
   3 B :   -2.461384
   4 C :    0.735785
   5 H :   -0.562907
   6 H :   -0.374405
   7 H :   -0.282350
   8 H :   -0.282351

  Mayer bond orders larger than 0.100000
B(  0-Cl,  2-N ) :   0.1269 B(  0-Cl,  3-B ) :   0.9257 B(  1-Cl,  2-N ) :   0.1334
B(  1-Cl,  3-B ) :   0.9467 B(  2-N ,  3-B ) :   1.3286 B(  2-N ,  4-C ) :   0.8801
B(  2-N ,  5-H ) :   1.0499 B(  4-C ,  6-H ) :   0.9154 B(  4-C ,  7-H ) :   0.9301
B(  4-C ,  8-H ) :   0.9301

MP2 TOTAL ENERGY:    -1039.501541665 Eh
FINAL SINGLE POINT ENERGY     -1039.501541665235

DIPOLE MOMENT
-------------
                                X             Y             Z
Electronic contribution:     -9.48487       4.56338      -0.00001
Nuclear contribution   :     10.42375      -5.30823       0.00002
                        -----------------------------------------
Total Dipole Moment    :      0.93889      -0.74486       0.00001
                        -----------------------------------------
Magnitude (a.u.)       :      1.19847
Magnitude (Debye)      :      3.04626

Rotational constants in cm-1:     0.120635     0.077337     0.047546
Rotational constants in MHz :  3616.555505  2318.507681  1425.398907

                             ****ORCA TERMINATED NORMALLY****
TOTAL RUN TIME: 0 days 0 hours 21 minutes 54 seconds 4 msec
