                         Program Version 5.0.4 -  RELEASE  -
|  1> ! ri-mp2 aug-cc-pvdz aug-cc-pvdz/c tightscf
|  2> %pal nprocs 16 end
|  3> %maxcore 3800
|  4> %base "DZ_S-F_8_A"
|  5> %scf
|  6> STABPerform true
|  7> STABRestartUHFifUnstable true
|  8> end
|  9>
| 10> *xyz 0 2
| 11> S         1.118251   -0.127677    0.000006
| 12> C        -0.506215    0.546835    0.000003
| 13> F        -1.511415   -0.397830   -0.000015
| 14> H        -0.625991    1.171155   -0.889532
| 15> H        -0.626006    1.171137    0.889548
| 16> *
| 17>
| 18> $new_job
| 19> ! ri-mp2 aug-cc-pvtz aug-cc-pvtz/c tightscf
| 20> %pal nprocs 16 end
| 21> %maxcore 3800
| 22> %base "TZ_S-F_8_A"
| 23>
| 24> *xyz 0 2
| 25> S         1.118251   -0.127677    0.000006
| 26> C        -0.506215    0.546835    0.000003
| 27> F        -1.511415   -0.397830   -0.000015
| 28> H        -0.625991    1.171155   -0.889532
| 29> H        -0.626006    1.171137    0.889548
| 30> *
| 31>
| 32> $new_job
| 33> ! ri-mp2 aug-cc-pvqz aug-cc-pvqz/c tightscf
| 34> %pal nprocs 16 end
| 35> %maxcore 3800
| 36> %base "QZ_S-F_8_A"
| 37>
| 38> *xyz 0 2
| 39> S         1.118251   -0.127677    0.000006
| 40> C        -0.506215    0.546835    0.000003
| 41> F        -1.511415   -0.397830   -0.000015
| 42> H        -0.625991    1.171155   -0.889532
| 43> H        -0.626006    1.171137    0.889548
| 44> *
| 45>
| 46>
| 47>
| 48>
| 49>                          ****END OF INPUT****
 Total Charge           Charge          ....    0
 Multiplicity           Mult            ....    2
 Number of Electrons    NEL             ....   33
MP2 TOTAL ENERGY:     -536.452396221 Eh
FINAL SINGLE POINT ENERGY      -536.452396221067
MP2 TOTAL ENERGY:     -536.619300927 Eh
FINAL SINGLE POINT ENERGY      -536.619300927405

CARTESIAN COORDINATES (ANGSTROEM)
---------------------------------
  S      1.118251   -0.127677    0.000006
  C     -0.506215    0.546835    0.000003
  F     -1.511415   -0.397830   -0.000015
  H     -0.625991    1.171155   -0.889532
  H     -0.626006    1.171137    0.889548

 Multiplicity           Mult            ....    2
 Number of Electrons    NEL             ....   33
 Basis Dimension        Dim             ....  336

ORBITAL ENERGIES
----------------
                 SPIN UP ORBITALS
  NO   OCC          E(Eh)            E(eV)
   0   1.0000     -91.990479     -2503.1882
   1   1.0000     -26.293344      -715.4783
   2   1.0000     -11.354444      -308.9701
   3   1.0000      -8.993184      -244.7170
   4   1.0000      -6.689035      -182.0179
   5   1.0000      -6.670555      -181.5150
   6   1.0000      -6.669136      -181.4764
   7   1.0000      -1.607670       -43.7469
   8   1.0000      -1.072249       -29.1774
   9   1.0000      -0.882489       -24.0138
  10   1.0000      -0.729042       -19.8382
  11   1.0000      -0.712498       -19.3880
  12   1.0000      -0.668729       -18.1970
  13   1.0000      -0.578181       -15.7331
  14   1.0000      -0.509881       -13.8746
  15   1.0000      -0.448865       -12.2142
  16   1.0000      -0.403390       -10.9768
  17   0.0000       0.026366         0.7175
  18   0.0000       0.038486         1.0473
  19   0.0000       0.048056         1.3077
  20   0.0000       0.071600         1.9483
  21   0.0000       0.084076         2.2878

                 SPIN DOWN ORBITALS
  NO   OCC          E(Eh)            E(eV)
   0   1.0000     -91.981326     -2502.9391
   1   1.0000     -26.293597      -715.4851
   2   1.0000     -11.355569      -309.0008
   3   1.0000      -8.983101      -244.4426
   4   1.0000      -6.665642      -181.3813
   5   1.0000      -6.663836      -181.3322
   6   1.0000      -6.647621      -180.8910
   7   1.0000      -1.608217       -43.7618
   8   1.0000      -1.034095       -28.1392
   9   1.0000      -0.830860       -22.6089
  10   1.0000      -0.721430       -19.6311
  11   1.0000      -0.711622       -19.3642
  12   1.0000      -0.656954       -17.8766
  13   1.0000      -0.557885       -15.1808
  14   1.0000      -0.498239       -13.5578
  15   1.0000      -0.383331       -10.4310
  16   0.0000       0.003855         0.1049
  17   0.0000       0.026647         0.7251
  18   0.0000       0.040413         1.0997
  19   0.0000       0.048885         1.3302
  20   0.0000       0.071867         1.9556

MULLIKEN ATOMIC CHARGES AND SPIN POPULATIONS
--------------------------------------------
   0 S :    0.077568    1.053181
   1 C :   -0.089807   -0.109820
   2 F :   -0.564337   -0.002199
   3 H :    0.288288    0.029419
   4 H :    0.288289    0.029419
Sum of atomic charges         :    0.0000000

LOEWDIN ATOMIC CHARGES AND SPIN POPULATIONS
-------------------------------------------
   0 S :    1.018913    0.746242
   1 C :   -0.713911    0.202968
   2 F :    0.668890   -0.000784
   3 H :   -0.486946    0.025787
   4 H :   -0.486946    0.025787

  Mayer bond orders larger than 0.100000
B(  0-S ,  1-C ) :   1.0861 B(  1-C ,  2-F ) :   0.6204 B(  1-C ,  3-H ) :   0.8698
B(  1-C ,  4-H ) :   0.8698

MP2 TOTAL ENERGY:     -536.673320902 Eh
FINAL SINGLE POINT ENERGY      -536.673320901855

DIPOLE MOMENT
-------------
                                X             Y             Z
Electronic contribution:     -0.07032      -1.90394      -0.00002
Nuclear contribution   :      0.19631       2.60830       0.00003
                        -----------------------------------------
Total Dipole Moment    :      0.12599       0.70436       0.00001
                        -----------------------------------------
Magnitude (a.u.)       :      0.71554
Magnitude (Debye)      :      1.81875

Rotational constants in cm-1:     1.489954     0.189401     0.173560
Rotational constants in MHz : 44667.691538  5678.109021  5203.196701

                             ****ORCA TERMINATED NORMALLY****
TOTAL RUN TIME: 0 days 0 hours 5 minutes 24 seconds 145 msec
