                         Program Version 5.0.4 -  RELEASE  -
|  1> ! ri-mp2 aug-cc-pvdz aug-cc-pvdz/c tightscf
|  2> %pal nprocs 16 end
|  3> %maxcore 3800
|  4> %base "DZ_S-Cl_36_AB"
|  5> %scf
|  6> STABPerform true
|  7> STABRestartUHFifUnstable true
|  8> end
|  9>
| 10> *xyz 0 1
| 11> Cl         1.544560   -0.480071    0.029333
| 12> S         0.033353    0.878854   -0.161782
| 13> O        -1.200322    0.179471    0.569689
| 14> O        -1.932021   -0.720440   -0.320398
| 15> H        -1.732437   -1.572708    0.095532
| 16> *
| 17>
| 18> $new_job
| 19> ! ri-mp2 aug-cc-pvtz aug-cc-pvtz/c tightscf
| 20> %pal nprocs 16 end
| 21> %maxcore 3800
| 22> %base "TZ_S-Cl_36_AB"
| 23>
| 24> *xyz 0 1
| 25> Cl         1.544560   -0.480071    0.029333
| 26> S         0.033353    0.878854   -0.161782
| 27> O        -1.200322    0.179471    0.569689
| 28> O        -1.932021   -0.720440   -0.320398
| 29> H        -1.732437   -1.572708    0.095532
| 30> *
| 31>
| 32> $new_job
| 33> ! ri-mp2 aug-cc-pvqz aug-cc-pvqz/c tightscf
| 34> %pal nprocs 16 end
| 35> %maxcore 3800
| 36> %base "QZ_S-Cl_36_AB"
| 37>
| 38> *xyz 0 1
| 39> Cl         1.544560   -0.480071    0.029333
| 40> S         0.033353    0.878854   -0.161782
| 41> O        -1.200322    0.179471    0.569689
| 42> O        -1.932021   -0.720440   -0.320398
| 43> H        -1.732437   -1.572708    0.095532
| 44> *
| 45>
| 46>
| 47>
| 48>
| 49>                          ****END OF INPUT****
 Total Charge           Charge          ....    0
 Multiplicity           Mult            ....    1
 Number of Electrons    NEL             ....   50
MP2 TOTAL ENERGY:    -1007.915111452 Eh
FINAL SINGLE POINT ENERGY     -1007.915111452190
MP2 TOTAL ENERGY:    -1008.162565114 Eh
FINAL SINGLE POINT ENERGY     -1008.162565113936

CARTESIAN COORDINATES (ANGSTROEM)
---------------------------------
  Cl     1.544560   -0.480071    0.029333
  S      0.033353    0.878854   -0.161782
  O     -1.200322    0.179471    0.569689
  O     -1.932021   -0.720440   -0.320398
  H     -1.732437   -1.572708    0.095532

 Multiplicity           Mult            ....    1
 Number of Electrons    NEL             ....   50
 Basis Dimension        Dim             ....  374

ORBITAL ENERGIES
----------------

  NO   OCC          E(Eh)            E(eV)
   0   2.0000    -104.864556     -2853.5096
   1   2.0000     -92.071302     -2505.3875
   2   2.0000     -20.687908      -562.9466
   3   2.0000     -20.660720      -562.2068
   4   2.0000     -10.589137      -288.1451
   5   2.0000      -9.063838      -246.6396
   6   2.0000      -8.056054      -219.2164
   7   2.0000      -8.054284      -219.1682
   8   2.0000      -8.053985      -219.1601
   9   2.0000      -6.744727      -183.5334
  10   2.0000      -6.743264      -183.4935
  11   2.0000      -6.741551      -183.4469
  12   2.0000      -1.519701       -41.3532
  13   2.0000      -1.287428       -35.0327
  14   2.0000      -1.137869       -30.9630
  15   2.0000      -0.906074       -24.6555
  16   2.0000      -0.754122       -20.5207
  17   2.0000      -0.684506       -18.6264
  18   2.0000      -0.678385       -18.4598
  19   2.0000      -0.596702       -16.2371
  20   2.0000      -0.533912       -14.5285
  21   2.0000      -0.520221       -14.1559
  22   2.0000      -0.492906       -13.4126
  23   2.0000      -0.480634       -13.0787
  24   2.0000      -0.379514       -10.3271
  25   0.0000       0.027598         0.7510
  26   0.0000       0.045348         1.2340
  27   0.0000       0.062136         1.6908
  28   0.0000       0.070331         1.9138
  29   0.0000       0.086699         2.3592

MULLIKEN ATOMIC CHARGES
-----------------------
   0 Cl:   -0.224017
   1 S :    0.662287
   2 O :   -0.485307
   3 O :   -0.306389
   4 H :    0.353425
Sum of atomic charges:   -0.0000000

LOEWDIN ATOMIC CHARGES
----------------------
   0 Cl:    0.384425
   1 S :   -0.050969
   2 O :   -0.214887
   3 O :    0.813718
   4 H :   -0.932287

  Mayer bond orders larger than 0.100000
B(  0-Cl,  1-S ) :   0.9778 B(  1-S ,  2-O ) :   0.9079 B(  2-O ,  3-O ) :   0.8051
B(  3-O ,  4-H ) :   0.9051

MP2 TOTAL ENERGY:    -1008.243805259 Eh
FINAL SINGLE POINT ENERGY     -1008.243805258558

DIPOLE MOMENT
-------------
                                X             Y             Z
Electronic contribution:      3.69728       0.49098       0.00231
Nuclear contribution   :     -3.72982      -0.86089       0.05838
                        -----------------------------------------
Total Dipole Moment    :     -0.03253      -0.36991       0.06068
                        -----------------------------------------
Magnitude (a.u.)       :      0.37626
Magnitude (Debye)      :      0.95638

Rotational constants in cm-1:     0.325215     0.094662     0.078593
Rotational constants in MHz :  9749.690601  2837.896584  2356.166568

                             ****ORCA TERMINATED NORMALLY****
TOTAL RUN TIME: 0 days 0 hours 4 minutes 52 seconds 356 msec
