                         Program Version 5.0.4 -  RELEASE  -
|  1> ! ri-mp2 aug-cc-pvdz aug-cc-pvdz/c tightscf
|  2> %pal nprocs 16 end
|  3> %maxcore 3800
|  4> %base "DZ_B-Si_34_AB"
|  5> %scf
|  6> STABPerform true
|  7> STABRestartUHFifUnstable true
|  8> end
|  9>
| 10> *xyz 0 1
| 11> B         2.179080    1.338482   -0.000114
| 12> C        -0.373494   -0.687646    0.000057
| 13> C        -1.190958    0.075387   -1.077910
| 14> C        -1.190954    0.075562    1.077902
| 15> C        -2.238094    0.415232   -0.000030
| 16> H        -0.673948    0.970451    1.428966
| 17> H        -1.521314   -0.492516    1.945915
| 18> H        -3.058757   -0.302047    0.000030
| 19> H        -2.654793    1.421527   -0.000111
| 20> H        -1.521320   -0.492833   -1.945830
| 21> H        -0.673952    0.970219   -1.429121
| 22> Si         1.492981   -0.547656    0.000042
| 23> H        -0.666080   -1.739850    0.000143
| 24> H         2.053889   -1.235592   -1.195115
| 25> H         2.053893   -1.235391    1.195314
| 26> H         3.353531    1.540680   -0.000138
| 27> H         1.472725    2.298916   -0.000188
| 28> *
| 29>
| 30> $new_job
| 31> ! ri-mp2 aug-cc-pvtz aug-cc-pvtz/c tightscf
| 32> %pal nprocs 16 end
| 33> %maxcore 3800
| 34> %base "TZ_B-Si_34_AB"
| 35>
| 36> *xyz 0 1
| 37> B         2.179080    1.338482   -0.000114
| 38> C        -0.373494   -0.687646    0.000057
| 39> C        -1.190958    0.075387   -1.077910
| 40> C        -1.190954    0.075562    1.077902
| 41> C        -2.238094    0.415232   -0.000030
| 42> H        -0.673948    0.970451    1.428966
| 43> H        -1.521314   -0.492516    1.945915
| 44> H        -3.058757   -0.302047    0.000030
| 45> H        -2.654793    1.421527   -0.000111
| 46> H        -1.521320   -0.492833   -1.945830
| 47> H        -0.673952    0.970219   -1.429121
| 48> Si         1.492981   -0.547656    0.000042
| 49> H        -0.666080   -1.739850    0.000143
| 50> H         2.053889   -1.235592   -1.195115
| 51> H         2.053893   -1.235391    1.195314
| 52> H         3.353531    1.540680   -0.000138
| 53> H         1.472725    2.298916   -0.000188
| 54> *
| 55>
| 56> $new_job
| 57> ! ri-mp2 aug-cc-pvqz aug-cc-pvqz/c tightscf
| 58> %pal nprocs 16 end
| 59> %maxcore 3800
| 60> %base "QZ_B-Si_34_AB"
| 61>
| 62> *xyz 0 1
| 63> B         2.179080    1.338482   -0.000114
| 64> C        -0.373494   -0.687646    0.000057
| 65> C        -1.190958    0.075387   -1.077910
| 66> C        -1.190954    0.075562    1.077902
| 67> C        -2.238094    0.415232   -0.000030
| 68> H        -0.673948    0.970451    1.428966
| 69> H        -1.521314   -0.492516    1.945915
| 70> H        -3.058757   -0.302047    0.000030
| 71> H        -2.654793    1.421527   -0.000111
| 72> H        -1.521320   -0.492833   -1.945830
| 73> H        -0.673952    0.970219   -1.429121
| 74> Si         1.492981   -0.547656    0.000042
| 75> H        -0.666080   -1.739850    0.000143
| 76> H         2.053889   -1.235592   -1.195115
| 77> H         2.053893   -1.235391    1.195314
| 78> H         3.353531    1.540680   -0.000138
| 79> H         1.472725    2.298916   -0.000188
| 80> *
| 81>
| 82>
| 83>
| 84>
| 85>                          ****END OF INPUT****
 Total Charge           Charge          ....    0
 Multiplicity           Mult            ....    1
 Number of Electrons    NEL             ....   54
MP2 TOTAL ENERGY:     -472.212952644 Eh
FINAL SINGLE POINT ENERGY      -472.212952644172
MP2 TOTAL ENERGY:     -472.421341081 Eh
FINAL SINGLE POINT ENERGY      -472.421341080716

CARTESIAN COORDINATES (ANGSTROEM)
---------------------------------
  B      2.179080    1.338482   -0.000114
  C     -0.373494   -0.687646    0.000057
  C     -1.190958    0.075387   -1.077910
  C     -1.190954    0.075562    1.077902
  C     -2.238094    0.415232   -0.000030
  H     -0.673948    0.970451    1.428966
  H     -1.521314   -0.492516    1.945915
  H     -3.058757   -0.302047    0.000030
  H     -2.654793    1.421527   -0.000111
  H     -1.521320   -0.492833   -1.945830
  H     -0.673952    0.970219   -1.429121
  Si     1.492981   -0.547656    0.000042
  H     -0.666080   -1.739850    0.000143
  H      2.053889   -1.235592   -1.195115
  H      2.053893   -1.235391    1.195314
  H      3.353531    1.540680   -0.000138
  H      1.472725    2.298916   -0.000188

 Multiplicity           Mult            ....    1
 Number of Electrons    NEL             ....   54
 Basis Dimension        Dim             ....  990

ORBITAL ENERGIES
----------------

  NO   OCC          E(Eh)            E(eV)
   0   2.0000     -68.742778     -1870.5861
   1   2.0000     -11.221604      -305.3554
   2   2.0000     -11.221549      -305.3539
   3   2.0000     -11.217749      -305.2505
   4   2.0000     -11.208702      -305.0043
   5   2.0000      -7.605518      -206.9567
   6   2.0000      -6.094808      -165.8481
   7   2.0000      -4.201233      -114.3214
   8   2.0000      -4.200966      -114.3141
   9   2.0000      -4.200375      -114.2980
  10   2.0000      -1.127180       -30.6721
  11   2.0000      -0.899352       -24.4726
  12   2.0000      -0.895824       -24.3766
  13   2.0000      -0.756232       -20.5781
  14   2.0000      -0.729701       -19.8562
  15   2.0000      -0.652814       -17.7640
  16   2.0000      -0.650977       -17.7140
  17   2.0000      -0.596703       -16.2371
  18   2.0000      -0.543033       -14.7767
  19   2.0000      -0.526910       -14.3379
  20   2.0000      -0.507237       -13.8026
  21   2.0000      -0.490371       -13.3437
  22   2.0000      -0.461463       -12.5570
  23   2.0000      -0.454087       -12.3563
  24   2.0000      -0.434694       -11.8286
  25   2.0000      -0.405841       -11.0435
  26   2.0000      -0.393912       -10.7189
  27   0.0000       0.023131         0.6294
  28   0.0000       0.027822         0.7571
  29   0.0000       0.028067         0.7637
  30   0.0000       0.029491         0.8025
  31   0.0000       0.038689         1.0528

MULLIKEN ATOMIC CHARGES
-----------------------
   0 B :    0.389228
   1 C :   -0.228654
   2 C :   -0.673430
   3 C :   -0.673432
   4 C :   -0.560572
   5 H :    0.255384
   6 H :    0.373030
   7 H :    0.223323
   8 H :    0.294104
   9 H :    0.373029
  10 H :    0.255383
  11 Si:    0.649557
  12 H :    0.375308
  13 H :   -0.266679
  14 H :   -0.266679
  15 H :   -0.346927
  16 H :   -0.171973
Sum of atomic charges:    0.0000000

LOEWDIN ATOMIC CHARGES
----------------------
   0 B :    0.372834
   1 C :    0.095966
   2 C :    0.483862
   3 C :    0.483862
   4 C :    0.546509
   5 H :   -0.287345
   6 H :   -0.249504
   7 H :   -0.267817
   8 H :   -0.252579
   9 H :   -0.249503
  10 H :   -0.287345
  11 Si:    0.890915
  12 H :   -0.328323
  13 H :   -0.228551
  14 H :   -0.228550
  15 H :   -0.255670
  16 H :   -0.238761

  Mayer bond orders larger than 0.100000
B(  0-B , 11-Si) :   0.8168 B(  0-B , 15-H ) :   0.8756 B(  0-B , 16-H ) :   0.8871
B(  1-C ,  2-C ) :   0.9035 B(  1-C ,  3-C ) :   0.9035 B(  1-C ,  4-C ) :  -0.1806
B(  1-C , 11-Si) :   0.7906 B(  1-C , 12-H ) :   0.8329 B(  2-C ,  4-C ) :   1.0997
B(  2-C ,  9-H ) :   0.8126 B(  2-C , 10-H ) :   0.8999 B(  3-C ,  4-C ) :   1.0997
B(  3-C ,  5-H ) :   0.8999 B(  3-C ,  6-H ) :   0.8126 B(  4-C ,  7-H ) :   0.9224
B(  4-C ,  8-H ) :   0.8829 B( 11-Si, 13-H ) :   0.7945 B( 11-Si, 14-H ) :   0.7945

MP2 TOTAL ENERGY:     -472.485463622 Eh
FINAL SINGLE POINT ENERGY      -472.485463622185

DIPOLE MOMENT
-------------
                                X             Y             Z
Electronic contribution:      3.47626      -0.59728       0.00004
Nuclear contribution   :     -3.80995       0.68101      -0.00005
                        -----------------------------------------
Total Dipole Moment    :     -0.33368       0.08373      -0.00001
                        -----------------------------------------
Magnitude (a.u.)       :      0.34403
Magnitude (Debye)      :      0.87445

Rotational constants in cm-1:     0.174549     0.056790     0.054673
Rotational constants in MHz :  5232.834844  1702.526213  1639.047398

                             ****ORCA TERMINATED NORMALLY****
TOTAL RUN TIME: 0 days 1 hours 51 minutes 32 seconds 389 msec
