                         Program Version 5.0.4 -  RELEASE  -
|  1> ! ri-mp2 aug-cc-pvdz aug-cc-pvdz/c tightscf
|  2> %pal nprocs 16 end
|  3> %maxcore 3800
|  4> %base "DZ_B-B_11_AB"
|  5> %scf
|  6> STABPerform true
|  7> STABRestartUHFifUnstable true
|  8> end
|  9>
| 10> *xyz 0 1
| 11> B        -0.840315    0.000004   -0.000004
| 12> B         0.840311    0.000004    0.000001
| 13> Cl         1.715212    0.768319   -1.294901
| 14> Cl        -1.715194   -1.294910   -0.768323
| 15> Cl         1.715189   -0.768320    1.294912
| 16> Cl        -1.715207    1.294909    0.768313
| 17> *
| 18>
| 19> $new_job
| 20> ! ri-mp2 aug-cc-pvtz aug-cc-pvtz/c tightscf
| 21> %pal nprocs 16 end
| 22> %maxcore 3800
| 23> %base "TZ_B-B_11_AB"
| 24>
| 25> *xyz 0 1
| 26> B        -0.840315    0.000004   -0.000004
| 27> B         0.840311    0.000004    0.000001
| 28> Cl         1.715212    0.768319   -1.294901
| 29> Cl        -1.715194   -1.294910   -0.768323
| 30> Cl         1.715189   -0.768320    1.294912
| 31> Cl        -1.715207    1.294909    0.768313
| 32> *
| 33>
| 34> $new_job
| 35> ! ri-mp2 aug-cc-pvqz aug-cc-pvqz/c tightscf
| 36> %pal nprocs 16 end
| 37> %maxcore 3800
| 38> %base "QZ_B-B_11_AB"
| 39>
| 40> *xyz 0 1
| 41> B        -0.840315    0.000004   -0.000004
| 42> B         0.840311    0.000004    0.000001
| 43> Cl         1.715212    0.768319   -1.294901
| 44> Cl        -1.715194   -1.294910   -0.768323
| 45> Cl         1.715189   -0.768320    1.294912
| 46> Cl        -1.715207    1.294909    0.768313
| 47> *
| 48>
| 49>
| 50>
| 51>
| 52>                          ****END OF INPUT****
 Total Charge           Charge          ....    0
 Multiplicity           Mult            ....    1
 Number of Electrons    NEL             ....   78
MP2 TOTAL ENERGY:    -1888.299392270 Eh
FINAL SINGLE POINT ENERGY     -1888.299392269590
MP2 TOTAL ENERGY:    -1888.576474249 Eh
FINAL SINGLE POINT ENERGY     -1888.576474249308

CARTESIAN COORDINATES (ANGSTROEM)
---------------------------------
  B     -0.840315    0.000004   -0.000004
  B      0.840311    0.000004    0.000001
  Cl     1.715212    0.768319   -1.294901
  Cl    -1.715194   -1.294910   -0.768323
  Cl     1.715189   -0.768320    1.294912
  Cl    -1.715207    1.294909    0.768313

 Multiplicity           Mult            ....    1
 Number of Electrons    NEL             ....   78
 Basis Dimension        Dim             ....  496

ORBITAL ENERGIES
----------------

  NO   OCC          E(Eh)            E(eV)
   0   2.0000    -104.858173     -2853.3359
   1   2.0000    -104.858172     -2853.3359
   2   2.0000    -104.858172     -2853.3359
   3   2.0000    -104.858172     -2853.3359
   4   2.0000     -10.585841      -288.0554
   5   2.0000     -10.585841      -288.0554
   6   2.0000     -10.585833      -288.0552
   7   2.0000     -10.585833      -288.0551
   8   2.0000      -8.052618      -219.1229
   9   2.0000      -8.052618      -219.1229
  10   2.0000      -8.052617      -219.1229
  11   2.0000      -8.052617      -219.1228
  12   2.0000      -8.051560      -219.0941
  13   2.0000      -8.051560      -219.0941
  14   2.0000      -8.051559      -219.0941
  15   2.0000      -8.051559      -219.0940
  16   2.0000      -8.051266      -219.0861
  17   2.0000      -8.051266      -219.0861
  18   2.0000      -8.051265      -219.0861
  19   2.0000      -8.051265      -219.0861
  20   2.0000      -7.719391      -210.0553
  21   2.0000      -7.718626      -210.0345
  22   2.0000      -1.166198       -31.7338
  23   2.0000      -1.153570       -31.3902
  24   2.0000      -1.116669       -30.3861
  25   2.0000      -1.116669       -30.3861
  26   2.0000      -0.751441       -20.4478
  27   2.0000      -0.668122       -18.1805
  28   2.0000      -0.602094       -16.3838
  29   2.0000      -0.592139       -16.1129
  30   2.0000      -0.592139       -16.1129
  31   2.0000      -0.529646       -14.4124
  32   2.0000      -0.529646       -14.4124
  33   2.0000      -0.513958       -13.9855
  34   2.0000      -0.486186       -13.2298
  35   2.0000      -0.478000       -13.0070
  36   2.0000      -0.471491       -12.8299
  37   2.0000      -0.471491       -12.8299
  38   2.0000      -0.430669       -11.7191
  39   0.0000       0.030964         0.8426
  40   0.0000       0.031213         0.8493
  41   0.0000       0.039101         1.0640
  42   0.0000       0.039101         1.0640
  43   0.0000       0.050902         1.3851

MULLIKEN ATOMIC CHARGES
-----------------------
   0 B :    0.451341
   1 B :    0.451342
   2 Cl:   -0.225672
   3 Cl:   -0.225671
   4 Cl:   -0.225671
   5 Cl:   -0.225670
Sum of atomic charges:    0.0000000

LOEWDIN ATOMIC CHARGES
----------------------
   0 B :   -2.503130
   1 B :   -2.503131
   2 Cl:    1.251564
   3 Cl:    1.251566
   4 Cl:    1.251566
   5 Cl:    1.251566

  Mayer bond orders larger than 0.100000
B(  0-B ,  1-B ) :   0.9832 B(  0-B ,  3-Cl) :   1.0252 B(  0-B ,  5-Cl) :   1.0252
B(  1-B ,  2-Cl) :   1.0252 B(  1-B ,  4-Cl) :   1.0252

MP2 TOTAL ENERGY:    -1888.671809365 Eh
FINAL SINGLE POINT ENERGY     -1888.671809365473

DIPOLE MOMENT
-------------
                                X             Y             Z
Electronic contribution:     -0.00001       0.00001      -0.00000
Nuclear contribution   :      0.00000      -0.00000       0.00000
                        -----------------------------------------
Total Dipole Moment    :     -0.00000       0.00000       0.00000
                        -----------------------------------------
Magnitude (a.u.)       :      0.00001
Magnitude (Debye)      :      0.00002

Rotational constants in cm-1:     0.052434     0.028417     0.028417
Rotational constants in MHz :  1571.932389   851.932158   851.931129

                             ****ORCA TERMINATED NORMALLY****
TOTAL RUN TIME: 0 days 0 hours 15 minutes 45 seconds 335 msec
