                         Program Version 5.0.4 -  RELEASE  -
|  1> ! ri-mp2 aug-cc-pvdz aug-cc-pvdz/c tightscf
|  2> %pal nprocs 16 end
|  3> %maxcore 3800
|  4> %base "DZ_Si-S_18_AB"
|  5> %scf
|  6> STABPerform true
|  7> STABRestartUHFifUnstable true
|  8> end
|  9>
| 10> *xyz 0 1
| 11> Si        -0.393731   -0.024690    0.691401
| 12> C         0.772127    1.395162    0.297755
| 13> C         1.780453    0.749747   -0.667703
| 14> H         1.277835    1.708347    1.215513
| 15> H         0.288639    2.275046   -0.123754
| 16> C         2.071070   -0.673630   -0.181960
| 17> H         2.697266    1.335466   -0.751297
| 18> H         1.343459    0.702372   -1.669227
| 19> C         0.733759   -1.394833    0.070013
| 20> H         2.636249   -0.618854    0.752798
| 21> H         2.694293   -1.216693   -0.893953
| 22> H         0.335786   -1.792484   -0.866577
| 23> H         0.832425   -2.236354    0.754199
| 24> S        -2.196898   -0.066140   -0.472271
| 25> H        -2.832042    0.885506    0.225407
| 26> H        -0.755758   -0.097141    2.124985
| 27> *
| 28>
| 29> $new_job
| 30> ! ri-mp2 aug-cc-pvtz aug-cc-pvtz/c tightscf
| 31> %pal nprocs 16 end
| 32> %maxcore 3800
| 33> %base "TZ_Si-S_18_AB"
| 34>
| 35> *xyz 0 1
| 36> Si        -0.393731   -0.024690    0.691401
| 37> C         0.772127    1.395162    0.297755
| 38> C         1.780453    0.749747   -0.667703
| 39> H         1.277835    1.708347    1.215513
| 40> H         0.288639    2.275046   -0.123754
| 41> C         2.071070   -0.673630   -0.181960
| 42> H         2.697266    1.335466   -0.751297
| 43> H         1.343459    0.702372   -1.669227
| 44> C         0.733759   -1.394833    0.070013
| 45> H         2.636249   -0.618854    0.752798
| 46> H         2.694293   -1.216693   -0.893953
| 47> H         0.335786   -1.792484   -0.866577
| 48> H         0.832425   -2.236354    0.754199
| 49> S        -2.196898   -0.066140   -0.472271
| 50> H        -2.832042    0.885506    0.225407
| 51> H        -0.755758   -0.097141    2.124985
| 52> *
| 53>
| 54> $new_job
| 55> ! ri-mp2 aug-cc-pvqz aug-cc-pvqz/c tightscf
| 56> %pal nprocs 16 end
| 57> %maxcore 3800
| 58> %base "QZ_Si-S_18_AB"
| 59>
| 60> *xyz 0 1
| 61> Si        -0.393731   -0.024690    0.691401
| 62> C         0.772127    1.395162    0.297755
| 63> C         1.780453    0.749747   -0.667703
| 64> H         1.277835    1.708347    1.215513
| 65> H         0.288639    2.275046   -0.123754
| 66> C         2.071070   -0.673630   -0.181960
| 67> H         2.697266    1.335466   -0.751297
| 68> H         1.343459    0.702372   -1.669227
| 69> C         0.733759   -1.394833    0.070013
| 70> H         2.636249   -0.618854    0.752798
| 71> H         2.694293   -1.216693   -0.893953
| 72> H         0.335786   -1.792484   -0.866577
| 73> H         0.832425   -2.236354    0.754199
| 74> S        -2.196898   -0.066140   -0.472271
| 75> H        -2.832042    0.885506    0.225407
| 76> H        -0.755758   -0.097141    2.124985
| 77> *
| 78>
| 79>
| 80>
| 81>
| 82>                          ****END OF INPUT****
 Total Charge           Charge          ....    0
 Multiplicity           Mult            ....    1
 Number of Electrons    NEL             ....   64
MP2 TOTAL ENERGY:     -844.655161190 Eh
FINAL SINGLE POINT ENERGY      -844.655161189907
MP2 TOTAL ENERGY:     -844.896789200 Eh
FINAL SINGLE POINT ENERGY      -844.896789200470

CARTESIAN COORDINATES (ANGSTROEM)
---------------------------------
  Si    -0.393731   -0.024690    0.691401
  C      0.772127    1.395162    0.297755
  C      1.780453    0.749747   -0.667703
  H      1.277835    1.708347    1.215513
  H      0.288639    2.275046   -0.123754
  C      2.071070   -0.673630   -0.181960
  H      2.697266    1.335466   -0.751297
  H      1.343459    0.702372   -1.669227
  C      0.733759   -1.394833    0.070013
  H      2.636249   -0.618854    0.752798
  H      2.694293   -1.216693   -0.893953
  H      0.335786   -1.792484   -0.866577
  H      0.832425   -2.236354    0.754199
  S     -2.196898   -0.066140   -0.472271
  H     -2.832042    0.885506    0.225407
  H     -0.755758   -0.097141    2.124985

 Multiplicity           Mult            ....    1
 Number of Electrons    NEL             ....   64
 Basis Dimension        Dim             ....  948

ORBITAL ENERGIES
----------------

  NO   OCC          E(Eh)            E(eV)
   0   2.0000     -91.939604     -2501.8038
   1   2.0000     -68.777522     -1871.5315
   2   2.0000     -11.224611      -305.4372
   3   2.0000     -11.223489      -305.4067
   4   2.0000     -11.206292      -304.9387
   5   2.0000     -11.204537      -304.8910
   6   2.0000      -8.944372      -243.3887
   7   2.0000      -6.625923      -180.3005
   8   2.0000      -6.625095      -180.2780
   9   2.0000      -6.624320      -180.2569
  10   2.0000      -6.125434      -166.6815
  11   2.0000      -4.232155      -115.1628
  12   2.0000      -4.231412      -115.1426
  13   2.0000      -4.231045      -115.1326
  14   2.0000      -1.089103       -29.6360
  15   2.0000      -0.966180       -26.2911
  16   2.0000      -0.962848       -26.2004
  17   2.0000      -0.878002       -23.8916
  18   2.0000      -0.778715       -21.1899
  19   2.0000      -0.671395       -18.2696
  20   2.0000      -0.635168       -17.2838
  21   2.0000      -0.613045       -16.6818
  22   2.0000      -0.582249       -15.8438
  23   2.0000      -0.554301       -15.0833
  24   2.0000      -0.512559       -13.9474
  25   2.0000      -0.494415       -13.4537
  26   2.0000      -0.479955       -13.0602
  27   2.0000      -0.468609       -12.7515
  28   2.0000      -0.450057       -12.2467
  29   2.0000      -0.428208       -11.6521
  30   2.0000      -0.418729       -11.3942
  31   2.0000      -0.365476        -9.9451
  32   0.0000       0.022467         0.6114
  33   0.0000       0.030567         0.8318
  34   0.0000       0.032573         0.8864
  35   0.0000       0.034390         0.9358
  36   0.0000       0.046673         1.2700

MULLIKEN ATOMIC CHARGES
-----------------------
   0 Si:    1.051940
   1 C :   -0.702774
   2 C :   -0.458553
   3 H :    0.212693
   4 H :    0.288193
   5 C :   -0.411120
   6 H :    0.316320
   7 H :    0.207389
   8 C :   -0.734407
   9 H :    0.189892
  10 H :    0.310366
  11 H :    0.180028
  12 H :    0.302671
  13 S :   -0.491163
  14 H :    0.051703
  15 H :   -0.313176
Sum of atomic charges:   -0.0000000

LOEWDIN ATOMIC CHARGES
----------------------
   0 Si:    0.018529
   1 C :    0.534726
   2 C :    0.450914
   3 H :   -0.327898
   4 H :   -0.327337
   5 C :    0.458681
   6 H :   -0.260159
   7 H :   -0.276050
   8 C :    0.525619
   9 H :   -0.274889
  10 H :   -0.260981
  11 H :   -0.342020
  12 H :   -0.320568
  13 S :    1.495376
  14 H :   -0.879314
  15 H :   -0.214629

  Mayer bond orders larger than 0.100000
B(  0-Si,  1-C ) :   0.8030 B(  0-Si,  8-C ) :   0.8255 B(  0-Si, 13-S ) :   0.7498
B(  0-Si, 15-H ) :   0.8361 B(  1-C ,  2-C ) :   0.9549 B(  1-C ,  3-H ) :   0.9438
B(  1-C ,  4-H ) :   0.9491 B(  1-C ,  5-C ) :  -0.1202 B(  2-C ,  5-C ) :   0.9255
B(  2-C ,  6-H ) :   0.8360 B(  2-C ,  7-H ) :   0.9607 B(  2-C ,  8-C ) :  -0.1211
B(  5-C ,  8-C ) :   0.9555 B(  5-C ,  9-H ) :   0.9778 B(  5-C , 10-H ) :   0.8373
B(  8-C , 11-H ) :   0.9801 B(  8-C , 12-H ) :   0.9265 B( 13-S , 14-H ) :   1.0622

MP2 TOTAL ENERGY:     -844.971381942 Eh
FINAL SINGLE POINT ENERGY      -844.971381941823

DIPOLE MOMENT
-------------
                                X             Y             Z
Electronic contribution:     -8.25499      -0.72945      -0.46887
Nuclear contribution   :      8.75010       0.96421       0.75276
                        -----------------------------------------
Total Dipole Moment    :      0.49511       0.23476       0.28389
                        -----------------------------------------
Magnitude (a.u.)       :      0.61712
Magnitude (Debye)      :      1.56860

Rotational constants in cm-1:     0.140447     0.050167     0.044718
Rotational constants in MHz :  4210.488461  1503.957253  1340.610075

                             ****ORCA TERMINATED NORMALLY****
TOTAL RUN TIME: 0 days 1 hours 54 minutes 24 seconds 641 msec
