                         Program Version 5.0.4 -  RELEASE  -
|  1> ! ri-mp2 aug-cc-pvdz aug-cc-pvdz/c tightscf
|  2> %pal nprocs 16 end
|  3> %maxcore 3800
|  4> %base "DZ_S-F_49_AB"
|  5> %scf
|  6> STABPerform true
|  7> STABRestartUHFifUnstable true
|  8> end
|  9>
| 10> *xyz 0 1
| 11> F         1.537132   -1.148342   -0.000018
| 12> S         1.296680    0.452820    0.000014
| 13> C        -0.463792    0.611436   -0.000004
| 14> O        -0.870932    1.736346   -0.000003
| 15> S        -1.517721   -0.796821   -0.000002
| 16> H        -0.547316   -1.720299    0.000016
| 17> *
| 18>
| 19> $new_job
| 20> ! ri-mp2 aug-cc-pvtz aug-cc-pvtz/c tightscf
| 21> %pal nprocs 16 end
| 22> %maxcore 3800
| 23> %base "TZ_S-F_49_AB"
| 24>
| 25> *xyz 0 1
| 26> F         1.537132   -1.148342   -0.000018
| 27> S         1.296680    0.452820    0.000014
| 28> C        -0.463792    0.611436   -0.000004
| 29> O        -0.870932    1.736346   -0.000003
| 30> S        -1.517721   -0.796821   -0.000002
| 31> H        -0.547316   -1.720299    0.000016
| 32> *
| 33>
| 34> $new_job
| 35> ! ri-mp2 aug-cc-pvqz aug-cc-pvqz/c tightscf
| 36> %pal nprocs 16 end
| 37> %maxcore 3800
| 38> %base "QZ_S-F_49_AB"
| 39>
| 40> *xyz 0 1
| 41> F         1.537132   -1.148342   -0.000018
| 42> S         1.296680    0.452820    0.000014
| 43> C        -0.463792    0.611436   -0.000004
| 44> O        -0.870932    1.736346   -0.000003
| 45> S        -1.517721   -0.796821   -0.000002
| 46> H        -0.547316   -1.720299    0.000016
| 47> *
| 48>
| 49>
| 50>
| 51>
| 52>                          ****END OF INPUT****
 Total Charge           Charge          ....    0
 Multiplicity           Mult            ....    1
 Number of Electrons    NEL             ....   56
MP2 TOTAL ENERGY:    -1008.619789074 Eh
FINAL SINGLE POINT ENERGY     -1008.619789073711
MP2 TOTAL ENERGY:    -1008.899214672 Eh
FINAL SINGLE POINT ENERGY     -1008.899214672189

CARTESIAN COORDINATES (ANGSTROEM)
---------------------------------
  F      1.537132   -1.148342   -0.000018
  S      1.296680    0.452820    0.000014
  C     -0.463792    0.611436   -0.000004
  O     -0.870932    1.736346   -0.000003
  S     -1.517721   -0.796821   -0.000002
  H     -0.547316   -1.720299    0.000016

 Multiplicity           Mult            ....    1
 Number of Electrons    NEL             ....   56
 Basis Dimension        Dim             ....  454

ORBITAL ENERGIES
----------------

  NO   OCC          E(Eh)            E(eV)
   0   2.0000     -92.074361     -2505.4707
   1   2.0000     -92.008038     -2503.6660
   2   2.0000     -26.348003      -716.9656
   3   2.0000     -20.588222      -560.2340
   4   2.0000     -11.417567      -310.6878
   5   2.0000      -9.069105      -246.7829
   6   2.0000      -9.011306      -245.2101
   7   2.0000      -6.750392      -183.6875
   8   2.0000      -6.748354      -183.6321
   9   2.0000      -6.747033      -183.5961
  10   2.0000      -6.692594      -182.1147
  11   2.0000      -6.691720      -182.0910
  12   2.0000      -6.690786      -182.0655
  13   2.0000      -1.648836       -44.8671
  14   2.0000      -1.447707       -39.3941
  15   2.0000      -1.083270       -29.4773
  16   2.0000      -1.014284       -27.6001
  17   2.0000      -0.801332       -21.8054
  18   2.0000      -0.745960       -20.2986
  19   2.0000      -0.730127       -19.8678
  20   2.0000      -0.717011       -19.5109
  21   2.0000      -0.657182       -17.8828
  22   2.0000      -0.610512       -16.6129
  23   2.0000      -0.596386       -16.2285
  24   2.0000      -0.543314       -14.7843
  25   2.0000      -0.440988       -11.9999
  26   2.0000      -0.422087       -11.4856
  27   2.0000      -0.412242       -11.2177
  28   0.0000       0.025809         0.7023
  29   0.0000       0.046539         1.2664
  30   0.0000       0.056432         1.5356
  31   0.0000       0.063979         1.7410
  32   0.0000       0.067376         1.8334

MULLIKEN ATOMIC CHARGES
-----------------------
   0 F :   -0.613351
   1 S :    0.735614
   2 C :    0.173221
   3 O :   -0.576572
   4 S :    0.168042
   5 H :    0.113046
Sum of atomic charges:   -0.0000000

LOEWDIN ATOMIC CHARGES
----------------------
   0 F :    0.098684
   1 S :    0.596271
   2 C :   -1.725172
   3 O :    0.443688
   4 S :    1.500489
   5 H :   -0.913959

  Mayer bond orders larger than 0.100000
B(  0-F ,  1-S ) :   0.6040 B(  1-S ,  2-C ) :   1.0143 B(  1-S ,  3-O ) :   0.1111
B(  2-C ,  3-O ) :   1.6327 B(  2-C ,  4-S ) :   1.0053 B(  4-S ,  5-H ) :   1.0119

MP2 TOTAL ENERGY:    -1008.993567105 Eh
FINAL SINGLE POINT ENERGY     -1008.993567105228

DIPOLE MOMENT
-------------
                                X             Y             Z
Electronic contribution:      2.24568      -0.28204      -0.00002
Nuclear contribution   :     -1.94359      -0.51418       0.00003
                        -----------------------------------------
Total Dipole Moment    :      0.30210      -0.79622       0.00001
                        -----------------------------------------
Magnitude (a.u.)       :      0.85160
Magnitude (Debye)      :      2.16460

Rotational constants in cm-1:     0.156664     0.089807     0.057084
Rotational constants in MHz :  4696.677789  2692.338207  1711.330043

                             ****ORCA TERMINATED NORMALLY****
TOTAL RUN TIME: 0 days 0 hours 8 minutes 37 seconds 234 msec
