                         Program Version 5.0.4 -  RELEASE  -
|  1> ! ri-mp2 aug-cc-pvdz aug-cc-pvdz/c tightscf
|  2> %pal nprocs 16 end
|  3> %maxcore 3800
|  4> %base "DZ_S-S_23_AB"
|  5> %scf
|  6> STABPerform true
|  7> STABRestartUHFifUnstable true
|  8> end
|  9>
| 10> *xyz 0 1
| 11> C         1.018938    2.661545    0.343210
| 12> C         1.420153    1.243670    0.692049
| 13> H         1.510138    2.991210   -0.571835
| 14> H         1.294253    3.344842    1.148571
| 15> H        -0.058201    2.730496    0.195018
| 16> C        -1.018938   -2.661545    0.343210
| 17> C        -1.420153   -1.243670    0.692049
| 18> H        -1.294253   -3.344842    1.148571
| 19> H         0.058201   -2.730496    0.195018
| 20> H        -1.510138   -2.991210   -0.571835
| 21> S         1.018938    0.017967   -0.588615
| 22> H         0.973714    0.921800    1.632391
| 23> H         2.503046    1.154667    0.802139
| 24> S        -1.018938   -0.017967   -0.588615
| 25> H        -0.973714   -0.921800    1.632391
| 26> H        -2.503046   -1.154667    0.802139
| 27> *
| 28>
| 29> $new_job
| 30> ! ri-mp2 aug-cc-pvtz aug-cc-pvtz/c tightscf
| 31> %pal nprocs 16 end
| 32> %maxcore 3800
| 33> %base "TZ_S-S_23_AB"
| 34>
| 35> *xyz 0 1
| 36> C         1.018938    2.661545    0.343210
| 37> C         1.420153    1.243670    0.692049
| 38> H         1.510138    2.991210   -0.571835
| 39> H         1.294253    3.344842    1.148571
| 40> H        -0.058201    2.730496    0.195018
| 41> C        -1.018938   -2.661545    0.343210
| 42> C        -1.420153   -1.243670    0.692049
| 43> H        -1.294253   -3.344842    1.148571
| 44> H         0.058201   -2.730496    0.195018
| 45> H        -1.510138   -2.991210   -0.571835
| 46> S         1.018938    0.017967   -0.588615
| 47> H         0.973714    0.921800    1.632391
| 48> H         2.503046    1.154667    0.802139
| 49> S        -1.018938   -0.017967   -0.588615
| 50> H        -0.973714   -0.921800    1.632391
| 51> H        -2.503046   -1.154667    0.802139
| 52> *
| 53>
| 54> $new_job
| 55> ! ri-mp2 aug-cc-pvqz aug-cc-pvqz/c tightscf
| 56> %pal nprocs 16 end
| 57> %maxcore 3800
| 58> %base "QZ_S-S_23_AB"
| 59>
| 60> *xyz 0 1
| 61> C         1.018938    2.661545    0.343210
| 62> C         1.420153    1.243670    0.692049
| 63> H         1.510138    2.991210   -0.571835
| 64> H         1.294253    3.344842    1.148571
| 65> H        -0.058201    2.730496    0.195018
| 66> C        -1.018938   -2.661545    0.343210
| 67> C        -1.420153   -1.243670    0.692049
| 68> H        -1.294253   -3.344842    1.148571
| 69> H         0.058201   -2.730496    0.195018
| 70> H        -1.510138   -2.991210   -0.571835
| 71> S         1.018938    0.017967   -0.588615
| 72> H         0.973714    0.921800    1.632391
| 73> H         2.503046    1.154667    0.802139
| 74> S        -1.018938   -0.017967   -0.588615
| 75> H        -0.973714   -0.921800    1.632391
| 76> H        -2.503046   -1.154667    0.802139
| 77> *
| 78>
| 79>
| 80>
| 81>
| 82>                          ****END OF INPUT****
 Total Charge           Charge          ....    0
 Multiplicity           Mult            ....    1
 Number of Electrons    NEL             ....   66
MP2 TOTAL ENERGY:     -953.272553024 Eh
FINAL SINGLE POINT ENERGY      -953.272553024050
MP2 TOTAL ENERGY:     -953.536568910 Eh
FINAL SINGLE POINT ENERGY      -953.536568910113

CARTESIAN COORDINATES (ANGSTROEM)
---------------------------------
  C      1.018938    2.661545    0.343210
  C      1.420153    1.243670    0.692049
  H      1.510138    2.991210   -0.571835
  H      1.294253    3.344842    1.148571
  H     -0.058201    2.730496    0.195018
  C     -1.018938   -2.661545    0.343210
  C     -1.420153   -1.243670    0.692049
  H     -1.294253   -3.344842    1.148571
  H      0.058201   -2.730496    0.195018
  H     -1.510138   -2.991210   -0.571835
  S      1.018938    0.017967   -0.588615
  H      0.973714    0.921800    1.632391
  H      2.503046    1.154667    0.802139
  S     -1.018938   -0.017967   -0.588615
  H     -0.973714   -0.921800    1.632391
  H     -2.503046   -1.154667    0.802139

 Multiplicity           Mult            ....    1
 Number of Electrons    NEL             ....   66
 Basis Dimension        Dim             ....  948

ORBITAL ENERGIES
----------------

  NO   OCC          E(Eh)            E(eV)
   0   2.0000     -91.963638     -2502.4578
   1   2.0000     -91.963635     -2502.4577
   2   2.0000     -11.258871      -306.3694
   3   2.0000     -11.258870      -306.3694
   4   2.0000     -11.218985      -305.2841
   5   2.0000     -11.218985      -305.2841
   6   2.0000      -8.964448      -243.9350
   7   2.0000      -8.964241      -243.9294
   8   2.0000      -6.645959      -180.8457
   9   2.0000      -6.645567      -180.8351
  10   2.0000      -6.644559      -180.8076
  11   2.0000      -6.644481      -180.8055
  12   2.0000      -6.643815      -180.7874
  13   2.0000      -6.643813      -180.7874
  14   2.0000      -1.100019       -29.9330
  15   2.0000      -1.057016       -28.7629
  16   2.0000      -0.979175       -26.6447
  17   2.0000      -0.900064       -24.4920
  18   2.0000      -0.838491       -22.8165
  19   2.0000      -0.759890       -20.6777
  20   2.0000      -0.641491       -17.4559
  21   2.0000      -0.622573       -16.9411
  22   2.0000      -0.596006       -16.2182
  23   2.0000      -0.587260       -15.9802
  24   2.0000      -0.553103       -15.0507
  25   2.0000      -0.533572       -14.5192
  26   2.0000      -0.521423       -14.1886
  27   2.0000      -0.506510       -13.7828
  28   2.0000      -0.491661       -13.3788
  29   2.0000      -0.464482       -12.6392
  30   2.0000      -0.431960       -11.7542
  31   2.0000      -0.352629        -9.5955
  32   2.0000      -0.344896        -9.3851
  33   0.0000       0.025134         0.6839
  34   0.0000       0.030101         0.8191
  35   0.0000       0.033361         0.9078
  36   0.0000       0.037322         1.0156
  37   0.0000       0.045918         1.2495

MULLIKEN ATOMIC CHARGES
-----------------------
   0 C :   -0.873232
   1 C :   -0.497381
   2 H :    0.264297
   3 H :    0.297381
   4 H :    0.278406
   5 C :   -0.873232
   6 C :   -0.497381
   7 H :    0.297381
   8 H :    0.278406
   9 H :    0.264297
  10 S :   -0.109441
  11 H :    0.299761
  12 H :    0.340208
  13 S :   -0.109441
  14 H :    0.299761
  15 H :    0.340208
Sum of atomic charges:   -0.0000000

LOEWDIN ATOMIC CHARGES
----------------------
   0 C :    0.810038
   1 C :    0.060487
   2 H :   -0.307449
   3 H :   -0.289854
   4 H :   -0.336949
   5 C :    0.810038
   6 C :    0.060487
   7 H :   -0.289854
   8 H :   -0.336949
   9 H :   -0.307449
  10 S :    0.828619
  11 H :   -0.377090
  12 H :   -0.387802
  13 S :    0.828619
  14 H :   -0.377090
  15 H :   -0.387802

  Mayer bond orders larger than 0.100000
B(  0-C ,  1-C ) :   0.9801 B(  0-C ,  2-H ) :   0.9436 B(  0-C ,  3-H ) :   0.9117
B(  0-C ,  4-H ) :   0.9173 B(  1-C , 10-S ) :   0.8880 B(  1-C , 11-H ) :   0.8652
B(  1-C , 12-H ) :   0.8183 B(  5-C ,  6-C ) :   0.9801 B(  5-C ,  7-H ) :   0.9117
B(  5-C ,  8-H ) :   0.9173 B(  5-C ,  9-H ) :   0.9436 B(  6-C , 13-S ) :   0.8880
B(  6-C , 14-H ) :   0.8652 B(  6-C , 15-H ) :   0.8183 B( 10-S , 13-S ) :   1.2032

MP2 TOTAL ENERGY:     -953.617728630 Eh
FINAL SINGLE POINT ENERGY      -953.617728630335

DIPOLE MOMENT
-------------
                                X             Y             Z
Electronic contribution:     -0.00000      -0.00000      -5.64912
Nuclear contribution   :     -0.00000       0.00000       6.53904
                        -----------------------------------------
Total Dipole Moment    :     -0.00000      -0.00000       0.88992
                        -----------------------------------------
Magnitude (a.u.)       :      0.88992
Magnitude (Debye)      :      2.26200

Rotational constants in cm-1:     0.143587     0.041623     0.039217
Rotational constants in MHz :  4304.642667  1247.833799  1175.707012

                             ****ORCA TERMINATED NORMALLY****
TOTAL RUN TIME: 0 days 1 hours 55 minutes 56 seconds 965 msec
