                         Program Version 5.0.4 -  RELEASE  -
|  1> ! ri-mp2 aug-cc-pvdz aug-cc-pvdz/c tightscf
|  2> %pal nprocs 16 end
|  3> %maxcore 3800
|  4> %base "DZ_S-F_74_AB"
|  5> %scf
|  6> STABPerform true
|  7> STABRestartUHFifUnstable true
|  8> end
|  9>
| 10> *xyz 0 1
| 11> F         2.522107   -0.140461    1.018311
| 12> S         2.056457    0.204592   -0.483256
| 13> O         0.514920    0.621632   -0.216768
| 14> C        -0.446720   -0.404202   -0.140686
| 15> O        -0.155168   -1.560974   -0.223567
| 16> N        -1.671333    0.117951    0.038014
| 17> C        -1.977212    1.531055    0.128488
| 18> H        -1.074687    2.124333    0.062173
| 19> H        -2.470882    1.741743    1.079549
| 20> H        -2.653694    1.819150   -0.679383
| 21> C        -2.796818   -0.786528    0.149763
| 22> H        -3.298369   -0.644641    1.109257
| 23> H        -2.442970   -1.808851    0.076214
| 24> H        -3.515869   -0.593939   -0.649323
| 25> *
| 26>
| 27> $new_job
| 28> ! ri-mp2 aug-cc-pvtz aug-cc-pvtz/c tightscf
| 29> %pal nprocs 16 end
| 30> %maxcore 3800
| 31> %base "TZ_S-F_74_AB"
| 32>
| 33> *xyz 0 1
| 34> F         2.522107   -0.140461    1.018311
| 35> S         2.056457    0.204592   -0.483256
| 36> O         0.514920    0.621632   -0.216768
| 37> C        -0.446720   -0.404202   -0.140686
| 38> O        -0.155168   -1.560974   -0.223567
| 39> N        -1.671333    0.117951    0.038014
| 40> C        -1.977212    1.531055    0.128488
| 41> H        -1.074687    2.124333    0.062173
| 42> H        -2.470882    1.741743    1.079549
| 43> H        -2.653694    1.819150   -0.679383
| 44> C        -2.796818   -0.786528    0.149763
| 45> H        -3.298369   -0.644641    1.109257
| 46> H        -2.442970   -1.808851    0.076214
| 47> H        -3.515869   -0.593939   -0.649323
| 48> *
| 49>
| 50> $new_job
| 51> ! ri-mp2 aug-cc-pvqz aug-cc-pvqz/c tightscf
| 52> %pal nprocs 16 end
| 53> %maxcore 3800
| 54> %base "QZ_S-F_74_AB"
| 55>
| 56> *xyz 0 1
| 57> F         2.522107   -0.140461    1.018311
| 58> S         2.056457    0.204592   -0.483256
| 59> O         0.514920    0.621632   -0.216768
| 60> C        -0.446720   -0.404202   -0.140686
| 61> O        -0.155168   -1.560974   -0.223567
| 62> N        -1.671333    0.117951    0.038014
| 63> C        -1.977212    1.531055    0.128488
| 64> H        -1.074687    2.124333    0.062173
| 65> H        -2.470882    1.741743    1.079549
| 66> H        -2.653694    1.819150   -0.679383
| 67> C        -2.796818   -0.786528    0.149763
| 68> H        -3.298369   -0.644641    1.109257
| 69> H        -2.442970   -1.808851    0.076214
| 70> H        -3.515869   -0.593939   -0.649323
| 71> *
| 72>
| 73>
| 74>
| 75>
| 76>                          ****END OF INPUT****
 Total Charge           Charge          ....    0
 Multiplicity           Mult            ....    1
 Number of Electrons    NEL             ....   72
MP2 TOTAL ENERGY:     -819.592506251 Eh
FINAL SINGLE POINT ENERGY      -819.592506250536
MP2 TOTAL ENERGY:     -820.016283895 Eh
FINAL SINGLE POINT ENERGY      -820.016283894958

CARTESIAN COORDINATES (ANGSTROEM)
---------------------------------
  F      2.522107   -0.140461    1.018311
  S      2.056457    0.204592   -0.483256
  O      0.514920    0.621632   -0.216768
  C     -0.446720   -0.404202   -0.140686
  O     -0.155168   -1.560974   -0.223567
  N     -1.671333    0.117951    0.038014
  C     -1.977212    1.531055    0.128488
  H     -1.074687    2.124333    0.062173
  H     -2.470882    1.741743    1.079549
  H     -2.653694    1.819150   -0.679383
  C     -2.796818   -0.786528    0.149763
  H     -3.298369   -0.644641    1.109257
  H     -2.442970   -1.808851    0.076214
  H     -3.515869   -0.593939   -0.649323

 Multiplicity           Mult            ....    1
 Number of Electrons    NEL             ....   72
 Basis Dimension        Dim             ....  920

ORBITAL ENERGIES
----------------

  NO   OCC          E(Eh)            E(eV)
   0   2.0000     -92.078710     -2505.5891
   1   2.0000     -26.315693      -716.0864
   2   2.0000     -20.640595      -561.6591
   3   2.0000     -20.539911      -558.9194
   4   2.0000     -15.608425      -424.7268
   5   2.0000     -11.418116      -310.7027
   6   2.0000     -11.275679      -306.8268
   7   2.0000     -11.269377      -306.6553
   8   2.0000      -9.067204      -246.7312
   9   2.0000      -6.748465      -183.6351
  10   2.0000      -6.746879      -183.5919
  11   2.0000      -6.744653      -183.5313
  12   2.0000      -1.620602       -44.0988
  13   2.0000      -1.483188       -40.3596
  14   2.0000      -1.384150       -37.6646
  15   2.0000      -1.278015       -34.7766
  16   2.0000      -1.008772       -27.4501
  17   2.0000      -0.989038       -26.9131
  18   2.0000      -0.928754       -25.2727
  19   2.0000      -0.795178       -21.6379
  20   2.0000      -0.746244       -20.3063
  21   2.0000      -0.717727       -19.5303
  22   2.0000      -0.714487       -19.4422
  23   2.0000      -0.694712       -18.9041
  24   2.0000      -0.679371       -18.4866
  25   2.0000      -0.656672       -17.8689
  26   2.0000      -0.623273       -16.9601
  27   2.0000      -0.613019       -16.6811
  28   2.0000      -0.580896       -15.8070
  29   2.0000      -0.574401       -15.6302
  30   2.0000      -0.563226       -15.3262
  31   2.0000      -0.547405       -14.8956
  32   2.0000      -0.517232       -14.0746
  33   2.0000      -0.472514       -12.8578
  34   2.0000      -0.399351       -10.8669
  35   2.0000      -0.374196       -10.1824
  36   0.0000       0.020509         0.5581
  37   0.0000       0.032521         0.8849
  38   0.0000       0.034419         0.9366
  39   0.0000       0.041815         1.1378
  40   0.0000       0.053469         1.4550

MULLIKEN ATOMIC CHARGES
-----------------------
   0 F :   -0.600930
   1 S :    0.799888
   2 O :   -0.617835
   3 C :    1.290219
   4 O :   -0.703297
   5 N :   -0.364636
   6 C :   -0.819148
   7 H :    0.345727
   8 H :    0.298612
   9 H :    0.304136
  10 C :   -0.798994
  11 H :    0.288355
  12 H :    0.293795
  13 H :    0.284107
Sum of atomic charges:    0.0000000

LOEWDIN ATOMIC CHARGES
----------------------
   0 F :    0.067001
   1 S :    0.342598
   2 O :    0.233500
   3 C :   -1.382707
   4 O :    0.667775
   5 N :    0.357424
   6 C :    0.768423
   7 H :   -0.362257
   8 H :   -0.277968
   9 H :   -0.276093
  10 C :    0.762427
  11 H :   -0.275103
  12 H :   -0.350935
  13 H :   -0.274085

  Mayer bond orders larger than 0.100000
B(  0-F ,  1-S ) :   0.6692 B(  1-S ,  2-O ) :   0.8015 B(  2-O ,  3-C ) :   0.9659
B(  2-O ,  5-N ) :  -0.1108 B(  3-C ,  4-O ) :   1.4100 B(  3-C ,  5-N ) :   1.3334
B(  4-O ,  5-N ) :   0.2441 B(  5-N ,  6-C ) :   0.7752 B(  5-N , 10-C ) :   0.7963
B(  6-C ,  7-H ) :   0.8923 B(  6-C ,  8-H ) :   0.9488 B(  6-C ,  9-H ) :   0.9468
B( 10-C , 11-H ) :   0.9581 B( 10-C , 12-H ) :   0.9309 B( 10-C , 13-H ) :   0.9625

MP2 TOTAL ENERGY:     -820.153869105 Eh
FINAL SINGLE POINT ENERGY      -820.153869104583

DIPOLE MOMENT
-------------
                                X             Y             Z
Electronic contribution:     16.17391      -1.69713      -0.23806
Nuclear contribution   :    -17.50700       2.67839       0.00098
                        -----------------------------------------
Total Dipole Moment    :     -1.33309       0.98125      -0.23708
                        -----------------------------------------
Magnitude (a.u.)       :      1.67218
Magnitude (Debye)      :      4.25034

Rotational constants in cm-1:     0.127427     0.032554     0.028832
Rotational constants in MHz :  3820.178541   975.940328   864.357512

                             ****ORCA TERMINATED NORMALLY****
TOTAL RUN TIME: 0 days 1 hours 30 minutes 3 seconds 252 msec
