                         Program Version 5.0.4 -  RELEASE  -
|  1> ! ri-mp2 aug-cc-pvdz aug-cc-pvdz/c tightscf
|  2> %pal nprocs 16 end
|  3> %maxcore 3800
|  4> %base "DZ_S-S_17_A"
|  5> %scf
|  6> STABPerform true
|  7> STABRestartUHFifUnstable true
|  8> end
|  9>
| 10> *xyz 0 2
| 11> S         1.934148   -0.464729    0.000000
| 12> C         0.531720    0.572433    0.000000
| 13> O         0.608075    1.762829    0.000003
| 14> C        -0.844560   -0.133091   -0.000001
| 15> F        -0.701080   -1.462417   -0.000009
| 16> F        -1.534682    0.214380   -1.079638
| 17> F        -1.534675    0.214368    1.079645
| 18> *
| 19>
| 20> $new_job
| 21> ! ri-mp2 aug-cc-pvtz aug-cc-pvtz/c tightscf
| 22> %pal nprocs 16 end
| 23> %maxcore 3800
| 24> %base "TZ_S-S_17_A"
| 25>
| 26> *xyz 0 2
| 27> S         1.934148   -0.464729    0.000000
| 28> C         0.531720    0.572433    0.000000
| 29> O         0.608075    1.762829    0.000003
| 30> C        -0.844560   -0.133091   -0.000001
| 31> F        -0.701080   -1.462417   -0.000009
| 32> F        -1.534682    0.214380   -1.079638
| 33> F        -1.534675    0.214368    1.079645
| 34> *
| 35>
| 36> $new_job
| 37> ! ri-mp2 aug-cc-pvqz aug-cc-pvqz/c tightscf
| 38> %pal nprocs 16 end
| 39> %maxcore 3800
| 40> %base "QZ_S-S_17_A"
| 41>
| 42> *xyz 0 2
| 43> S         1.934148   -0.464729    0.000000
| 44> C         0.531720    0.572433    0.000000
| 45> O         0.608075    1.762829    0.000003
| 46> C        -0.844560   -0.133091   -0.000001
| 47> F        -0.701080   -1.462417   -0.000009
| 48> F        -1.534682    0.214380   -1.079638
| 49> F        -1.534675    0.214368    1.079645
| 50> *
| 51>
| 52>
| 53>
| 54>
| 55>                          ****END OF INPUT****
 Total Charge           Charge          ....    0
 Multiplicity           Mult            ....    2
 Number of Electrons    NEL             ....   63
MP2 TOTAL ENERGY:     -847.649580653 Eh
FINAL SINGLE POINT ENERGY      -847.649580653367
MP2 TOTAL ENERGY:     -848.066292756 Eh
FINAL SINGLE POINT ENERGY      -848.066292755685

CARTESIAN COORDINATES (ANGSTROEM)
---------------------------------
  S      1.934148   -0.464729    0.000000
  C      0.531720    0.572433    0.000000
  O      0.608075    1.762829    0.000003
  C     -0.844560   -0.133091   -0.000001
  F     -0.701080   -1.462417   -0.000009
  F     -1.534682    0.214380   -1.079638
  F     -1.534675    0.214368    1.079645

 Multiplicity           Mult            ....    2
 Number of Electrons    NEL             ....   63
 Basis Dimension        Dim             ....  564

ORBITAL ENERGIES
----------------
                 SPIN UP ORBITALS
  NO   OCC          E(Eh)            E(eV)
   0   1.0000     -92.037914     -2504.4790
   1   1.0000     -26.371136      -717.5951
   2   1.0000     -26.366445      -717.4674
   3   1.0000     -26.366424      -717.4669
   4   1.0000     -20.608205      -560.7778
   5   1.0000     -11.543863      -314.1245
   6   1.0000     -11.413870      -310.5872
   7   1.0000      -9.040512      -246.0048
   8   1.0000      -6.736636      -183.3132
   9   1.0000      -6.717366      -182.7888
  10   1.0000      -6.716254      -182.7586
  11   1.0000      -1.765806       -48.0500
  12   1.0000      -1.670259       -45.4501
  13   1.0000      -1.667430       -45.3731
  14   1.0000      -1.462580       -39.7988
  15   1.0000      -1.102810       -30.0090
  16   1.0000      -1.022157       -27.8143
  17   1.0000      -0.901551       -24.5325
  18   1.0000      -0.857551       -23.3351
  19   1.0000      -0.857487       -23.3334
  20   1.0000      -0.760506       -20.6944
  21   1.0000      -0.742177       -20.1957
  22   1.0000      -0.741584       -20.1795
  23   1.0000      -0.698735       -19.0135
  24   1.0000      -0.697532       -18.9808
  25   1.0000      -0.679699       -18.4956
  26   1.0000      -0.669518       -18.2185
  27   1.0000      -0.657334       -17.8870
  28   1.0000      -0.603511       -16.4224
  29   1.0000      -0.506837       -13.7917
  30   1.0000      -0.471610       -12.8332
  31   1.0000      -0.439629       -11.9629
  32   0.0000       0.037860         1.0302
  33   0.0000       0.052485         1.4282
  34   0.0000       0.062018         1.6876
  35   0.0000       0.065308         1.7771
  36   0.0000       0.068668         1.8686

                 SPIN DOWN ORBITALS
  NO   OCC          E(Eh)            E(eV)
   0   1.0000     -92.028292     -2504.2171
   1   1.0000     -26.370638      -717.5816
   2   1.0000     -26.366383      -717.4658
   3   1.0000     -26.366362      -717.4652
   4   1.0000     -20.607613      -560.7617
   5   1.0000     -11.543643      -314.1185
   6   1.0000     -11.414690      -310.6095
   7   1.0000      -9.029868      -245.7152
   8   1.0000      -6.712467      -182.6555
   9   1.0000      -6.710243      -182.5950
  10   1.0000      -6.693484      -182.1390
  11   1.0000      -1.765309       -48.0365
  12   1.0000      -1.669343       -45.4251
  13   1.0000      -1.667277       -45.3689
  14   1.0000      -1.459800       -39.7232
  15   1.0000      -1.070541       -29.1309
  16   1.0000      -0.985855       -26.8265
  17   1.0000      -0.888738       -24.1838
  18   1.0000      -0.857362       -23.3300
  19   1.0000      -0.855739       -23.2858
  20   1.0000      -0.750050       -20.4099
  21   1.0000      -0.741657       -20.1815
  22   1.0000      -0.735827       -20.0229
  23   1.0000      -0.697352       -18.9759
  24   1.0000      -0.696120       -18.9424
  25   1.0000      -0.679510       -18.4904
  26   1.0000      -0.660855       -17.9828
  27   1.0000      -0.640436       -17.4271
  28   1.0000      -0.603880       -16.4324
  29   1.0000      -0.465050       -12.6547
  30   1.0000      -0.419640       -11.4190
  31   0.0000      -0.027000        -0.7347
  32   0.0000       0.039134         1.0649
  33   0.0000       0.053473         1.4551
  34   0.0000       0.064456         1.7539
  35   0.0000       0.065132         1.7723

MULLIKEN ATOMIC CHARGES AND SPIN POPULATIONS
--------------------------------------------
   0 S :    0.217319    1.116232
   1 C :    0.216134   -0.116384
   2 O :   -0.571289   -0.003669
   3 C :    1.871401    0.007866
   4 F :   -0.608658   -0.004784
   5 F :   -0.562454    0.000370
   6 F :   -0.562453    0.000370
Sum of atomic charges         :    0.0000000

LOEWDIN ATOMIC CHARGES AND SPIN POPULATIONS
-------------------------------------------
   0 S :    1.042416    0.740643
   1 C :   -1.490269    0.197458
   2 O :    0.560255    0.017028
   3 C :   -2.357718    0.022263
   4 F :    0.728170    0.019414
   5 F :    0.758573    0.001597
   6 F :    0.758573    0.001597

  Mayer bond orders larger than 0.100000
B(  0-S ,  1-C ) :   0.9706 B(  1-C ,  2-O ) :   1.6794 B(  1-C ,  3-C ) :   0.9472
B(  3-C ,  4-F ) :   0.4908 B(  3-C ,  5-F ) :   0.5166 B(  3-C ,  6-F ) :   0.5166

MP2 TOTAL ENERGY:     -848.205259153 Eh
FINAL SINGLE POINT ENERGY      -848.205259153031

DIPOLE MOMENT
-------------
                                X             Y             Z
Electronic contribution:     -2.89227      -1.65825      -0.00000
Nuclear contribution   :      3.36742       0.97439       0.00000
                        -----------------------------------------
Total Dipole Moment    :      0.47514      -0.68386      -0.00000
                        -----------------------------------------
Magnitude (a.u.)       :      0.83272
Magnitude (Debye)      :      2.11662

Rotational constants in cm-1:     0.114330     0.060029     0.049626
Rotational constants in MHz :  3427.535580  1799.612790  1487.742858

                             ****ORCA TERMINATED NORMALLY****
TOTAL RUN TIME: 0 days 0 hours 42 minutes 37 seconds 234 msec
