                         Program Version 5.0.4 -  RELEASE  -
|  1> ! ri-mp2 aug-cc-pvdz aug-cc-pvdz/c tightscf
|  2> %pal nprocs 16 end
|  3> %maxcore 3800
|  4> %base "DZ_P-C_78_AB"
|  5>
|  6> *xyz 0 1
|  7> C        -0.104741   -0.201659   -0.079957
|  8> P        -1.882834   -0.563997   -0.298750
|  9> N        -2.614687    0.802030    0.370183
| 10> H        -2.510553    1.045184    1.341860
| 11> H        -3.492578    1.087851   -0.024818
| 12> C         0.385950    1.094611   -0.168400
| 13> C         1.747758    1.338142   -0.091883
| 14> C         2.636891    0.289413    0.065081
| 15> C         2.156192   -1.007956    0.148852
| 16> C         0.796755   -1.250016    0.077559
| 17> H         0.432764   -2.268351    0.153774
| 18> H        -0.307084    1.916543   -0.290418
| 19> H         2.115087    2.354187   -0.156438
| 20> H         3.700088    0.480411    0.124748
| 21> H         2.843667   -1.833938    0.276549
| 22> H        -1.948895   -1.511350    0.757192
| 23> *
| 24>
| 25> $new_job
| 26> ! ri-mp2 aug-cc-pvtz aug-cc-pvtz/c tightscf
| 27> %pal nprocs 16 end
| 28> %maxcore 3800
| 29> %base "TZ_P-C_78_AB"
| 30>
| 31> *xyz 0 1
| 32> C        -0.104741   -0.201659   -0.079957
| 33> P        -1.882834   -0.563997   -0.298750
| 34> N        -2.614687    0.802030    0.370183
| 35> H        -2.510553    1.045184    1.341860
| 36> H        -3.492578    1.087851   -0.024818
| 37> C         0.385950    1.094611   -0.168400
| 38> C         1.747758    1.338142   -0.091883
| 39> C         2.636891    0.289413    0.065081
| 40> C         2.156192   -1.007956    0.148852
| 41> C         0.796755   -1.250016    0.077559
| 42> H         0.432764   -2.268351    0.153774
| 43> H        -0.307084    1.916543   -0.290418
| 44> H         2.115087    2.354187   -0.156438
| 45> H         3.700088    0.480411    0.124748
| 46> H         2.843667   -1.833938    0.276549
| 47> H        -1.948895   -1.511350    0.757192
| 48> *
| 49>
| 50> $new_job
| 51> ! ri-mp2 aug-cc-pvqz aug-cc-pvqz/c tightscf
| 52> %pal nprocs 16 end
| 53> %maxcore 3800
| 54> %base "QZ_P-C_78_AB"
| 55>
| 56> *xyz 0 1
| 57> C        -0.104741   -0.201659   -0.079957
| 58> P        -1.882834   -0.563997   -0.298750
| 59> N        -2.614687    0.802030    0.370183
| 60> H        -2.510553    1.045184    1.341860
| 61> H        -3.492578    1.087851   -0.024818
| 62> C         0.385950    1.094611   -0.168400
| 63> C         1.747758    1.338142   -0.091883
| 64> C         2.636891    0.289413    0.065081
| 65> C         2.156192   -1.007956    0.148852
| 66> C         0.796755   -1.250016    0.077559
| 67> H         0.432764   -2.268351    0.153774
| 68> H        -0.307084    1.916543   -0.290418
| 69> H         2.115087    2.354187   -0.156438
| 70> H         3.700088    0.480411    0.124748
| 71> H         2.843667   -1.833938    0.276549
| 72> H        -1.948895   -1.511350    0.757192
| 73> *
| 74>
| 75>
| 76>
| 77>
| 78>                          ****END OF INPUT****
 Total Charge           Charge          ....    0
 Multiplicity           Mult            ....    1
 Number of Electrons    NEL             ....   66
MP2 TOTAL ENERGY:     -628.207186581 Eh
FINAL SINGLE POINT ENERGY      -628.207186580642
MP2 TOTAL ENERGY:     -628.509569039 Eh
FINAL SINGLE POINT ENERGY      -628.509569039483

CARTESIAN COORDINATES (ANGSTROEM)
---------------------------------
  C     -0.104741   -0.201659   -0.079957
  P     -1.882834   -0.563997   -0.298750
  N     -2.614687    0.802030    0.370183
  H     -2.510553    1.045184    1.341860
  H     -3.492578    1.087851   -0.024818
  C      0.385950    1.094611   -0.168400
  C      1.747758    1.338142   -0.091883
  C      2.636891    0.289413    0.065081
  C      2.156192   -1.007956    0.148852
  C      0.796755   -1.250016    0.077559
  H      0.432764   -2.268351    0.153774
  H     -0.307084    1.916543   -0.290418
  H      2.115087    2.354187   -0.156438
  H      3.700088    0.480411    0.124748
  H      2.843667   -1.833938    0.276549
  H     -1.948895   -1.511350    0.757192

 Multiplicity           Mult            ....    1
 Number of Electrons    NEL             ....   66
 Basis Dimension        Dim             .... 1012

ORBITAL ENERGIES
----------------

  NO   OCC          E(Eh)            E(eV)
   0   2.0000     -79.954880     -2175.6829
   1   2.0000     -15.551862      -423.1877
   2   2.0000     -11.233502      -305.6791
   3   2.0000     -11.232492      -305.6516
   4   2.0000     -11.231625      -305.6281
   5   2.0000     -11.231103      -305.6139
   6   2.0000     -11.229710      -305.5760
   7   2.0000     -11.228650      -305.5471
   8   2.0000      -7.493271      -203.9023
   9   2.0000      -5.387746      -146.6080
  10   2.0000      -5.387209      -146.5934
  11   2.0000      -5.386580      -146.5763
  12   2.0000      -1.171146       -31.8685
  13   2.0000      -1.151498       -31.3339
  14   2.0000      -1.021588       -27.7988
  15   2.0000      -1.016451       -27.6591
  16   2.0000      -0.855187       -23.2708
  17   2.0000      -0.826928       -22.5018
  18   2.0000      -0.779214       -21.2035
  19   2.0000      -0.696947       -18.9649
  20   2.0000      -0.677946       -18.4478
  21   2.0000      -0.633647       -17.2424
  22   2.0000      -0.627352       -17.0711
  23   2.0000      -0.589270       -16.0348
  24   2.0000      -0.576951       -15.6996
  25   2.0000      -0.559275       -15.2187
  26   2.0000      -0.513250       -13.9663
  27   2.0000      -0.492805       -13.4099
  28   2.0000      -0.483232       -13.1494
  29   2.0000      -0.410578       -11.1724
  30   2.0000      -0.384393       -10.4599
  31   2.0000      -0.338702        -9.2165
  32   2.0000      -0.310885        -8.4596
  33   0.0000       0.023630         0.6430
  34   0.0000       0.027741         0.7549
  35   0.0000       0.030597         0.8326
  36   0.0000       0.040234         1.0948
  37   0.0000       0.041468         1.1284

MULLIKEN ATOMIC CHARGES
-----------------------
   0 C :   -0.070993
   1 P :    0.700750
   2 N :   -0.912879
   3 H :    0.262755
   4 H :    0.234442
   5 C :   -0.364728
   6 C :   -0.288279
   7 C :   -0.337868
   8 C :   -0.324081
   9 C :   -0.362576
  10 H :    0.326219
  11 H :    0.420327
  12 H :    0.248924
  13 H :    0.353787
  14 H :    0.245682
  15 H :   -0.131483
Sum of atomic charges:   -0.0000000

LOEWDIN ATOMIC CHARGES
----------------------
   0 C :   -0.283791
   1 P :    1.076303
   2 N :    1.002717
   3 H :   -0.569443
   4 H :   -0.607764
   5 C :    0.243932
   6 C :    0.332789
   7 C :    0.329668
   8 C :    0.329827
   9 C :    0.229367
  10 H :   -0.342957
  11 H :   -0.356097
  12 H :   -0.321948
  13 H :   -0.323392
  14 H :   -0.321810
  15 H :   -0.417402

  Mayer bond orders larger than 0.100000
B(  0-C ,  1-P ) :   0.8838 B(  0-C ,  5-C ) :   0.8902 B(  0-C ,  6-C ) :  -0.2799
B(  0-C ,  8-C ) :  -0.2816 B(  0-C ,  9-C ) :   0.7773 B(  0-C , 10-H ) :  -0.1270
B(  0-C , 11-H ) :  -0.1346 B(  1-P ,  2-N ) :   0.7897 B(  1-P ,  5-C ) :  -0.1404
B(  1-P ,  9-C ) :  -0.1598 B(  1-P , 15-H ) :   0.9310 B(  2-N ,  3-H ) :   0.9519
B(  2-N ,  4-H ) :   1.0233 B(  5-C ,  6-C ) :   1.2390 B(  5-C ,  8-C ) :   0.1084
B(  5-C , 11-H ) :   0.8931 B(  5-C , 12-H ) :  -0.1254 B(  6-C ,  7-C ) :   1.1648
B(  6-C ,  9-C ) :   0.1402 B(  6-C , 12-H ) :   1.1144 B(  7-C ,  8-C ) :   1.1458
B(  7-C ,  9-C ) :   0.1269 B(  7-C , 13-H ) :   0.9772 B(  8-C ,  9-C ) :   1.3590
B(  8-C , 14-H ) :   1.1182 B(  9-C , 10-H ) :   0.9493 B(  9-C , 14-H ) :  -0.1350

MP2 TOTAL ENERGY:     -628.605608659 Eh
FINAL SINGLE POINT ENERGY      -628.605608659004

DIPOLE MOMENT
-------------
                                X             Y             Z
Electronic contribution:     -2.70286      -1.52259      -1.90200
Nuclear contribution   :      2.58614       1.79560       2.44629
                        -----------------------------------------
Total Dipole Moment    :     -0.11671       0.27301       0.54428
                        -----------------------------------------
Magnitude (a.u.)       :      0.62000
Magnitude (Debye)      :      1.57592

Rotational constants in cm-1:     0.142912     0.037585     0.030634
Rotational constants in MHz :  4284.390454  1126.759230   918.398796

                             ****ORCA TERMINATED NORMALLY****
TOTAL RUN TIME: 0 days 0 hours 30 minutes 28 seconds 22 msec
