                         Program Version 5.0.4 -  RELEASE  -
|  1> ! ri-mp2 aug-cc-pvdz aug-cc-pvdz/c tightscf
|  2> %pal nprocs 16 end
|  3> %maxcore 3800
|  4> %base "DZ_S-Cl_28_AB"
|  5> %scf
|  6> STABPerform true
|  7> STABRestartUHFifUnstable true
|  8> end
|  9>
| 10> *xyz 0 1
| 11> Cl         2.142041   -0.397362   -0.020191
| 12> S         0.744319    1.056503    0.077759
| 13> S        -0.995573   -0.057286   -0.117149
| 14> O        -1.989100    0.949898   -0.030545
| 15> O        -0.900882   -0.976484   -1.196655
| 16> O        -1.063945   -0.901683    1.218416
| 17> H        -0.763235   -1.806161    1.043764
| 18> *
| 19>
| 20> $new_job
| 21> ! ri-mp2 aug-cc-pvtz aug-cc-pvtz/c tightscf
| 22> %pal nprocs 16 end
| 23> %maxcore 3800
| 24> %base "TZ_S-Cl_28_AB"
| 25>
| 26> *xyz 0 1
| 27> Cl         2.142041   -0.397362   -0.020191
| 28> S         0.744319    1.056503    0.077759
| 29> S        -0.995573   -0.057286   -0.117149
| 30> O        -1.989100    0.949898   -0.030545
| 31> O        -0.900882   -0.976484   -1.196655
| 32> O        -1.063945   -0.901683    1.218416
| 33> H        -0.763235   -1.806161    1.043764
| 34> *
| 35>
| 36> $new_job
| 37> ! ri-mp2 aug-cc-pvqz aug-cc-pvqz/c tightscf
| 38> %pal nprocs 16 end
| 39> %maxcore 3800
| 40> %base "QZ_S-Cl_28_AB"
| 41>
| 42> *xyz 0 1
| 43> Cl         2.142041   -0.397362   -0.020191
| 44> S         0.744319    1.056503    0.077759
| 45> S        -0.995573   -0.057286   -0.117149
| 46> O        -1.989100    0.949898   -0.030545
| 47> O        -0.900882   -0.976484   -1.196655
| 48> O        -1.063945   -0.901683    1.218416
| 49> H        -0.763235   -1.806161    1.043764
| 50> *
| 51>
| 52>
| 53>
| 54>
| 55>                          ****END OF INPUT****
 Total Charge           Charge          ....    0
 Multiplicity           Mult            ....    1
 Number of Electrons    NEL             ....   74
MP2 TOTAL ENERGY:    -1480.696663775 Eh
FINAL SINGLE POINT ENERGY     -1480.696663775159
MP2 TOTAL ENERGY:    -1481.104749323 Eh
FINAL SINGLE POINT ENERGY     -1481.104749322727

CARTESIAN COORDINATES (ANGSTROEM)
---------------------------------
  Cl     2.142041   -0.397362   -0.020191
  S      0.744319    1.056503    0.077759
  S     -0.995573   -0.057286   -0.117149
  O     -1.989100    0.949898   -0.030545
  O     -0.900882   -0.976484   -1.196655
  O     -1.063945   -0.901683    1.218416
  H     -0.763235   -1.806161    1.043764

 Multiplicity           Mult            ....    1
 Number of Electrons    NEL             ....   74
 Basis Dimension        Dim             ....  538

ORBITAL ENERGIES
----------------

  NO   OCC          E(Eh)            E(eV)
   0   2.0000    -104.894351     -2854.3204
   1   2.0000     -92.253161     -2510.3361
   2   2.0000     -92.066390     -2505.2538
   3   2.0000     -20.661755      -562.2349
   4   2.0000     -20.593145      -560.3680
   5   2.0000     -20.591201      -560.3151
   6   2.0000     -10.618409      -288.9416
   7   2.0000      -9.216172      -250.7848
   8   2.0000      -9.064135      -246.6476
   9   2.0000      -8.085429      -220.0157
  10   2.0000      -8.083356      -219.9593
  11   2.0000      -8.083115      -219.9528
  12   2.0000      -6.902358      -187.8227
  13   2.0000      -6.901744      -187.8060
  14   2.0000      -6.900693      -187.7774
  15   2.0000      -6.744773      -183.5346
  16   2.0000      -6.743542      -183.5011
  17   2.0000      -6.742006      -183.4593
  18   2.0000      -1.552574       -42.2477
  19   2.0000      -1.430018       -38.9128
  20   2.0000      -1.402151       -38.1545
  21   2.0000      -1.189111       -32.3574
  22   2.0000      -1.011988       -27.5376
  23   2.0000      -0.891751       -24.2658
  24   2.0000      -0.778088       -21.1728
  25   2.0000      -0.735748       -20.0207
  26   2.0000      -0.722760       -19.6673
  27   2.0000      -0.665371       -18.1057
  28   2.0000      -0.612964       -16.6796
  29   2.0000      -0.587837       -15.9959
  30   2.0000      -0.571546       -15.5526
  31   2.0000      -0.551700       -15.0125
  32   2.0000      -0.542042       -14.7497
  33   2.0000      -0.535236       -14.5645
  34   2.0000      -0.519253       -14.1296
  35   2.0000      -0.468808       -12.7569
  36   2.0000      -0.414103       -11.2683
  37   0.0000       0.021492         0.5848
  38   0.0000       0.034270         0.9325
  39   0.0000       0.044892         1.2216
  40   0.0000       0.066087         1.7983
  41   0.0000       0.069904         1.9022

MULLIKEN ATOMIC CHARGES
-----------------------
   0 Cl:   -0.229266
   1 S :    0.294725
   2 S :    2.459569
   3 O :   -1.098203
   4 O :   -1.058382
   5 O :   -0.723012
   6 H :    0.354570
Sum of atomic charges:    0.0000000

LOEWDIN ATOMIC CHARGES
----------------------
   0 Cl:    0.446081
   1 S :    0.156081
   2 S :   -1.121987
   3 O :    0.209446
   4 O :    0.231264
   5 O :    0.975879
   6 H :   -0.896764

  Mayer bond orders larger than 0.100000
B(  0-Cl,  1-S ) :   0.9697 B(  1-S ,  2-S ) :   0.9555 B(  2-S ,  3-O ) :   1.2771
B(  2-S ,  4-O ) :   1.2701 B(  2-S ,  5-O ) :   0.6873 B(  5-O ,  6-H ) :   0.8889

MP2 TOTAL ENERGY:    -1481.239797168 Eh
FINAL SINGLE POINT ENERGY     -1481.239797167508

DIPOLE MOMENT
-------------
                                X             Y             Z
Electronic contribution:      4.53261       0.68534      -0.39060
Nuclear contribution   :     -3.63147      -1.20023       1.00435
                        -----------------------------------------
Total Dipole Moment    :      0.90114      -0.51489       0.61375
                        -----------------------------------------
Magnitude (a.u.)       :      1.20575
Magnitude (Debye)      :      3.06479

Rotational constants in cm-1:     0.124092     0.047427     0.042715
Rotational constants in MHz :  3720.199140  1421.825772  1280.572986

                             ****ORCA TERMINATED NORMALLY****
TOTAL RUN TIME: 0 days 0 hours 16 minutes 26 seconds 655 msec
