                         Program Version 5.0.4 -  RELEASE  -
|  1> ! ri-mp2 aug-cc-pvdz aug-cc-pvdz/c tightscf
|  2> %pal nprocs 16 end
|  3> %maxcore 3800
|  4> %base "DZ_Si-Cl_2_AB"
|  5>
|  6> *xyz 0 1
|  7> C        -1.404565    0.914979    0.854283
|  8> C        -2.762749    0.655554    0.765486
|  9> C        -3.223146   -0.321894   -0.098520
| 10> C        -2.324375   -1.040036   -0.872027
| 11> C        -0.970357   -0.776223   -0.781245
| 12> C        -0.487492    0.206714    0.082180
| 13> H        -1.056061    1.677769    1.540289
| 14> H        -3.460851    1.214554    1.374557
| 15> Si         1.323252    0.606124    0.177486
| 16> H        -0.279397   -1.353512   -1.384264
| 17> Cl         2.380466   -1.119481    0.615333
| 18> C         1.984895    1.281835   -1.417932
| 19> H        -2.681707   -1.808611   -1.544646
| 20> H        -4.283033   -0.528666   -0.167936
| 21> H         1.825636    0.574548   -2.232484
| 22> H         3.053646    1.483128   -1.345480
| 23> H         1.473177    2.211832   -1.671628
| 24> H         1.541866    1.548826    1.292800
| 25> *
| 26>
| 27> $new_job
| 28> ! ri-mp2 aug-cc-pvtz aug-cc-pvtz/c tightscf
| 29> %pal nprocs 16 end
| 30> %maxcore 3800
| 31> %base "TZ_Si-Cl_2_AB"
| 32>
| 33> *xyz 0 1
| 34> C        -1.404565    0.914979    0.854283
| 35> C        -2.762749    0.655554    0.765486
| 36> C        -3.223146   -0.321894   -0.098520
| 37> C        -2.324375   -1.040036   -0.872027
| 38> C        -0.970357   -0.776223   -0.781245
| 39> C        -0.487492    0.206714    0.082180
| 40> H        -1.056061    1.677769    1.540289
| 41> H        -3.460851    1.214554    1.374557
| 42> Si         1.323252    0.606124    0.177486
| 43> H        -0.279397   -1.353512   -1.384264
| 44> Cl         2.380466   -1.119481    0.615333
| 45> C         1.984895    1.281835   -1.417932
| 46> H        -2.681707   -1.808611   -1.544646
| 47> H        -4.283033   -0.528666   -0.167936
| 48> H         1.825636    0.574548   -2.232484
| 49> H         3.053646    1.483128   -1.345480
| 50> H         1.473177    2.211832   -1.671628
| 51> H         1.541866    1.548826    1.292800
| 52> *
| 53>
| 54> $new_job
| 55> ! ri-mp2 aug-cc-pvqz aug-cc-pvqz/c tightscf
| 56> %pal nprocs 16 end
| 57> %maxcore 3800
| 58> %base "QZ_Si-Cl_2_AB"
| 59>
| 60> *xyz 0 1
| 61> C        -1.404565    0.914979    0.854283
| 62> C        -2.762749    0.655554    0.765486
| 63> C        -3.223146   -0.321894   -0.098520
| 64> C        -2.324375   -1.040036   -0.872027
| 65> C        -0.970357   -0.776223   -0.781245
| 66> C        -0.487492    0.206714    0.082180
| 67> H        -1.056061    1.677769    1.540289
| 68> H        -3.460851    1.214554    1.374557
| 69> Si         1.323252    0.606124    0.177486
| 70> H        -0.279397   -1.353512   -1.384264
| 71> Cl         2.380466   -1.119481    0.615333
| 72> C         1.984895    1.281835   -1.417932
| 73> H        -2.681707   -1.808611   -1.544646
| 74> H        -4.283033   -0.528666   -0.167936
| 75> H         1.825636    0.574548   -2.232484
| 76> H         3.053646    1.483128   -1.345480
| 77> H         1.473177    2.211832   -1.671628
| 78> H         1.541866    1.548826    1.292800
| 79> *
| 80>
| 81>
| 82>
| 83>
| 84>                          ****END OF INPUT****
 Total Charge           Charge          ....    0
 Multiplicity           Mult            ....    1
 Number of Electrons    NEL             ....   82
MP2 TOTAL ENERGY:    -1020.065264821 Eh
FINAL SINGLE POINT ENERGY     -1020.065264820715
MP2 TOTAL ENERGY:    -1020.408404778 Eh
FINAL SINGLE POINT ENERGY     -1020.408404778486

CARTESIAN COORDINATES (ANGSTROEM)
---------------------------------
  C     -1.404565    0.914979    0.854283
  C     -2.762749    0.655554    0.765486
  C     -3.223146   -0.321894   -0.098520
  C     -2.324375   -1.040036   -0.872027
  C     -0.970357   -0.776223   -0.781245
  C     -0.487492    0.206714    0.082180
  H     -1.056061    1.677769    1.540289
  H     -3.460851    1.214554    1.374557
  Si     1.323252    0.606124    0.177486
  H     -0.279397   -1.353512   -1.384264
  Cl     2.380466   -1.119481    0.615333
  C      1.984895    1.281835   -1.417932
  H     -2.681707   -1.808611   -1.544646
  H     -4.283033   -0.528666   -0.167936
  H      1.825636    0.574548   -2.232484
  H      3.053646    1.483128   -1.345480
  H      1.473177    2.211832   -1.671628
  H      1.541866    1.548826    1.292800

 Multiplicity           Mult            ....    1
 Number of Electrons    NEL             ....   82
 Basis Dimension        Dim             .... 1142

ORBITAL ENERGIES
----------------

  NO   OCC          E(Eh)            E(eV)
   0   2.0000    -104.813496     -2852.1202
   1   2.0000     -68.801431     -1872.1821
   2   2.0000     -11.243707      -305.9568
   3   2.0000     -11.243012      -305.9379
   4   2.0000     -11.242392      -305.9210
   5   2.0000     -11.237669      -305.7925
   6   2.0000     -11.237465      -305.7870
   7   2.0000     -11.225493      -305.4612
   8   2.0000     -11.211293      -305.0748
   9   2.0000     -10.541111      -286.8382
  10   2.0000      -8.007899      -217.9060
  11   2.0000      -8.006855      -217.8776
  12   2.0000      -8.006840      -217.8772
  13   2.0000      -6.147271      -167.2758
  14   2.0000      -4.254465      -115.7699
  15   2.0000      -4.253401      -115.7409
  16   2.0000      -4.252887      -115.7270
  17   2.0000      -1.162214       -31.6254
  18   2.0000      -1.085740       -29.5445
  19   2.0000      -1.025104       -27.8945
  20   2.0000      -1.023150       -27.8413
  21   2.0000      -0.955263       -25.9940
  22   2.0000      -0.833915       -22.6920
  23   2.0000      -0.830856       -22.6088
  24   2.0000      -0.726208       -19.7611
  25   2.0000      -0.673330       -18.3222
  26   2.0000      -0.634980       -17.2787
  27   2.0000      -0.630457       -17.1556
  28   2.0000      -0.596134       -16.2216
  29   2.0000      -0.577718       -15.7205
  30   2.0000      -0.572852       -15.5881
  31   2.0000      -0.550855       -14.9895
  32   2.0000      -0.521522       -14.1913
  33   2.0000      -0.504631       -13.7317
  34   2.0000      -0.498797       -13.5730
  35   2.0000      -0.492774       -13.4091
  36   2.0000      -0.477580       -12.9956
  37   2.0000      -0.438423       -11.9301
  38   2.0000      -0.430456       -11.7133
  39   2.0000      -0.347262        -9.4495
  40   2.0000      -0.345622        -9.4049
  41   0.0000       0.020344         0.5536
  42   0.0000       0.027513         0.7487
  43   0.0000       0.028662         0.7799
  44   0.0000       0.038583         1.0499
  45   0.0000       0.040040         1.0895

MULLIKEN ATOMIC CHARGES
-----------------------
   0 C :   -0.695101
   1 C :   -0.226278
   2 C :   -0.398665
   3 C :   -0.115668
   4 C :   -0.516556
   5 C :    0.030485
   6 H :    0.285275
   7 H :    0.266827
   8 Si:    1.907598
   9 H :    0.284036
  10 Cl:   -0.758590
  11 C :   -1.132033
  12 H :    0.257181
  13 H :    0.355628
  14 H :    0.231274
  15 H :    0.316583
  16 H :    0.265703
  17 H :   -0.357699
Sum of atomic charges:   -0.0000000

LOEWDIN ATOMIC CHARGES
----------------------
   0 C :    0.252415
   1 C :    0.341738
   2 C :    0.337580
   3 C :    0.343646
   4 C :    0.246834
   5 C :   -0.122863
   6 H :   -0.343550
   7 H :   -0.319686
   8 Si:   -0.323779
   9 H :   -0.336556
  10 Cl:    0.960634
  11 C :    0.895873
  12 H :   -0.318961
  13 H :   -0.318080
  14 H :   -0.357724
  15 H :   -0.361058
  16 H :   -0.348051
  17 H :   -0.228413

  Mayer bond orders larger than 0.100000
B(  0-C ,  1-C ) :   1.3705 B(  0-C ,  2-C ) :   0.1934 B(  0-C ,  3-C ) :   0.1415
B(  0-C ,  4-C ) :   0.1267 B(  0-C ,  5-C ) :   0.7917 B(  0-C ,  6-H ) :   0.9779
B(  0-C ,  7-H ) :  -0.1494 B(  1-C ,  2-C ) :   1.1343 B(  1-C ,  3-C ) :  -0.1103
B(  1-C ,  4-C ) :   0.1311 B(  1-C ,  5-C ) :  -0.3490 B(  1-C ,  7-H ) :   1.0972
B(  2-C ,  3-C ) :   1.1247 B(  2-C ,  4-C ) :   0.1608 B(  2-C , 13-H ) :   0.9700
B(  3-C ,  4-C ) :   1.2638 B(  3-C ,  5-C ) :  -0.3285 B(  3-C , 12-H ) :   1.1018
B(  4-C ,  5-C ) :   0.9140 B(  4-C ,  8-Si) :  -0.1614 B(  4-C ,  9-H ) :   0.9550
B(  4-C , 12-H ) :  -0.1551 B(  5-C ,  6-H ) :  -0.1114 B(  5-C ,  8-Si) :   1.0676
B(  5-C ,  9-H ) :  -0.1430 B(  5-C , 17-H ) :  -0.1902 B(  8-Si, 10-Cl) :   0.1035
B(  8-Si, 11-C ) :   0.7156 B(  8-Si, 17-H ) :   0.7928 B( 11-C , 14-H ) :   0.9598
B( 11-C , 15-H ) :   0.9196 B( 11-C , 16-H ) :   0.9410

MP2 TOTAL ENERGY:    -1020.517993014 Eh
FINAL SINGLE POINT ENERGY     -1020.517993014213

DIPOLE MOMENT
-------------
                                X             Y             Z
Electronic contribution:      6.58394      -5.95377       4.55086
Nuclear contribution   :     -7.22664       6.47179      -4.94367
                        -----------------------------------------
Total Dipole Moment    :     -0.64270       0.51801      -0.39281
                        -----------------------------------------
Magnitude (a.u.)       :      0.91417
Magnitude (Debye)      :      2.32363

Rotational constants in cm-1:     0.076236     0.022083     0.020957
Rotational constants in MHz :  2285.496207   662.018201   628.262385

                             ****ORCA TERMINATED NORMALLY****
TOTAL RUN TIME: 0 days 0 hours 39 minutes 17 seconds 149 msec
