                         Program Version 5.0.4 -  RELEASE  -
|  1> ! ri-mp2 aug-cc-pvdz aug-cc-pvdz/c tightscf
|  2> %pal nprocs 16 end
|  3> %maxcore 3800
|  4> %base "DZ_Si-Si_4_AB"
|  5> %scf
|  6> STABPerform true
|  7> STABRestartUHFifUnstable true
|  8> end
|  9>
| 10> *xyz 0 1
| 11> Si        -1.047069   -1.080263   -0.422978
| 12> Si         1.064707   -0.935750    0.580371
| 13> C         2.246689    0.212600   -0.328744
| 14> H         1.643345   -2.301865    0.635082
| 15> H         0.917555   -0.462707    1.981305
| 16> C        -1.948307    0.567706   -0.544368
| 17> H        -1.871542   -2.027809    0.370329
| 18> H        -0.894634   -1.657853   -1.783166
| 19> C        -2.117085    1.288386    0.791971
| 20> H        -1.413837    1.205862   -1.252277
| 21> H        -2.926052    0.378150   -0.994661
| 22> H        -1.152874    1.542059    1.234872
| 23> H        -2.651064    0.668430    1.514026
| 24> H        -2.678879    2.216356    0.677852
| 25> C         1.826271    1.681715   -0.320225
| 26> H         2.353612   -0.143236   -1.356701
| 27> H         3.233156    0.105384    0.129314
| 28> H         0.868369    1.829495   -0.820610
| 29> H         2.558436    2.310119   -0.828902
| 30> H         1.722059    2.059358    0.698223
| 31> *
| 32>
| 33> $new_job
| 34> ! ri-mp2 aug-cc-pvtz aug-cc-pvtz/c tightscf
| 35> %pal nprocs 16 end
| 36> %maxcore 3800
| 37> %base "TZ_Si-Si_4_AB"
| 38>
| 39> *xyz 0 1
| 40> Si        -1.047069   -1.080263   -0.422978
| 41> Si         1.064707   -0.935750    0.580371
| 42> C         2.246689    0.212600   -0.328744
| 43> H         1.643345   -2.301865    0.635082
| 44> H         0.917555   -0.462707    1.981305
| 45> C        -1.948307    0.567706   -0.544368
| 46> H        -1.871542   -2.027809    0.370329
| 47> H        -0.894634   -1.657853   -1.783166
| 48> C        -2.117085    1.288386    0.791971
| 49> H        -1.413837    1.205862   -1.252277
| 50> H        -2.926052    0.378150   -0.994661
| 51> H        -1.152874    1.542059    1.234872
| 52> H        -2.651064    0.668430    1.514026
| 53> H        -2.678879    2.216356    0.677852
| 54> C         1.826271    1.681715   -0.320225
| 55> H         2.353612   -0.143236   -1.356701
| 56> H         3.233156    0.105384    0.129314
| 57> H         0.868369    1.829495   -0.820610
| 58> H         2.558436    2.310119   -0.828902
| 59> H         1.722059    2.059358    0.698223
| 60> *
| 61>
| 62> $new_job
| 63> ! ri-mp2 aug-cc-pvqz aug-cc-pvqz/c tightscf
| 64> %pal nprocs 16 end
| 65> %maxcore 3800
| 66> %base "QZ_Si-Si_4_AB"
| 67>
| 68> *xyz 0 1
| 69> Si        -1.047069   -1.080263   -0.422978
| 70> Si         1.064707   -0.935750    0.580371
| 71> C         2.246689    0.212600   -0.328744
| 72> H         1.643345   -2.301865    0.635082
| 73> H         0.917555   -0.462707    1.981305
| 74> C        -1.948307    0.567706   -0.544368
| 75> H        -1.871542   -2.027809    0.370329
| 76> H        -0.894634   -1.657853   -1.783166
| 77> C        -2.117085    1.288386    0.791971
| 78> H        -1.413837    1.205862   -1.252277
| 79> H        -2.926052    0.378150   -0.994661
| 80> H        -1.152874    1.542059    1.234872
| 81> H        -2.651064    0.668430    1.514026
| 82> H        -2.678879    2.216356    0.677852
| 83> C         1.826271    1.681715   -0.320225
| 84> H         2.353612   -0.143236   -1.356701
| 85> H         3.233156    0.105384    0.129314
| 86> H         0.868369    1.829495   -0.820610
| 87> H         2.558436    2.310119   -0.828902
| 88> H         1.722059    2.059358    0.698223
| 89> *
| 90>
| 91>
| 92>
| 93>
| 94>                          ****END OF INPUT****
 Total Charge           Charge          ....    0
 Multiplicity           Mult            ....    1
 Number of Electrons    NEL             ....   66
MP2 TOTAL ENERGY:     -738.329959379 Eh
FINAL SINGLE POINT ENERGY      -738.329959378817
MP2 TOTAL ENERGY:     -738.563334768 Eh
FINAL SINGLE POINT ENERGY      -738.563334768034

CARTESIAN COORDINATES (ANGSTROEM)
---------------------------------
  Si    -1.047069   -1.080263   -0.422978
  Si     1.064707   -0.935750    0.580371
  C      2.246689    0.212600   -0.328744
  H      1.643345   -2.301865    0.635082
  H      0.917555   -0.462707    1.981305
  C     -1.948307    0.567706   -0.544368
  H     -1.871542   -2.027809    0.370329
  H     -0.894634   -1.657853   -1.783166
  C     -2.117085    1.288386    0.791971
  H     -1.413837    1.205862   -1.252277
  H     -2.926052    0.378150   -0.994661
  H     -1.152874    1.542059    1.234872
  H     -2.651064    0.668430    1.514026
  H     -2.678879    2.216356    0.677852
  C      1.826271    1.681715   -0.320225
  H      2.353612   -0.143236   -1.356701
  H      3.233156    0.105384    0.129314
  H      0.868369    1.829495   -0.820610
  H      2.558436    2.310119   -0.828902
  H      1.722059    2.059358    0.698223

 Multiplicity           Mult            ....    1
 Number of Electrons    NEL             ....   66
 Basis Dimension        Dim             .... 1132

ORBITAL ENERGIES
----------------

  NO   OCC          E(Eh)            E(eV)
   0   2.0000     -68.751654     -1870.8276
   1   2.0000     -68.751513     -1870.8238
   2   2.0000     -11.220804      -305.3336
   3   2.0000     -11.219126      -305.2879
   4   2.0000     -11.210980      -305.0663
   5   2.0000     -11.210851      -305.0628
   6   2.0000      -6.102703      -166.0630
   7   2.0000      -6.102514      -166.0578
   8   2.0000      -4.209074      -114.5347
   9   2.0000      -4.208899      -114.5300
  10   2.0000      -4.208790      -114.5270
  11   2.0000      -4.208521      -114.5197
  12   2.0000      -4.208368      -114.5155
  13   2.0000      -4.208142      -114.5094
  14   2.0000      -1.027126       -27.9495
  15   2.0000      -1.022566       -27.8254
  16   2.0000      -0.851221       -23.1629
  17   2.0000      -0.847592       -23.0642
  18   2.0000      -0.718474       -19.5507
  19   2.0000      -0.649257       -17.6672
  20   2.0000      -0.616082       -16.7644
  21   2.0000      -0.602035       -16.3822
  22   2.0000      -0.579643       -15.7729
  23   2.0000      -0.573020       -15.5927
  24   2.0000      -0.522957       -14.2304
  25   2.0000      -0.517620       -14.0852
  26   2.0000      -0.500381       -13.6161
  27   2.0000      -0.498205       -13.5569
  28   2.0000      -0.468910       -12.7597
  29   2.0000      -0.460498       -12.5308
  30   2.0000      -0.433761       -11.8032
  31   2.0000      -0.421986       -11.4828
  32   2.0000      -0.376909       -10.2562
  33   0.0000       0.022837         0.6214
  34   0.0000       0.029116         0.7923
  35   0.0000       0.032398         0.8816
  36   0.0000       0.032837         0.8935
  37   0.0000       0.044014         1.1977

MULLIKEN ATOMIC CHARGES
-----------------------
   0 Si:    0.886863
   1 Si:    1.152441
   2 C :   -0.624199
   3 H :   -0.560822
   4 H :   -0.317116
   5 C :   -0.536218
   6 H :   -0.349709
   7 H :   -0.344140
   8 C :   -0.991977
   9 H :    0.193361
  10 H :    0.232164
  11 H :    0.319572
  12 H :    0.231407
  13 H :    0.328035
  14 C :   -0.877848
  15 H :    0.222117
  16 H :    0.238258
  17 H :    0.335724
  18 H :    0.269045
  19 H :    0.193044
Sum of atomic charges:    0.0000000

LOEWDIN ATOMIC CHARGES
----------------------
   0 Si:    0.774862
   1 Si:    0.770152
   2 C :    0.463512
   3 H :   -0.256118
   4 H :   -0.239662
   5 C :    0.456671
   6 H :   -0.248283
   7 H :   -0.251909
   8 C :    0.841987
   9 H :   -0.356063
  10 H :   -0.341336
  11 H :   -0.311663
  12 H :   -0.292113
  13 H :   -0.279408
  14 C :    0.846439
  15 H :   -0.342520
  16 H :   -0.344155
  17 H :   -0.317568
  18 H :   -0.278843
  19 H :   -0.293981

  Mayer bond orders larger than 0.100000
B(  0-Si,  1-Si) :   0.9366 B(  0-Si,  5-C ) :   0.7476 B(  0-Si,  6-H ) :   0.7479
B(  0-Si,  7-H ) :   0.7579 B(  1-Si,  2-C ) :   0.7682 B(  1-Si,  3-H ) :   0.5510
B(  1-Si,  4-H ) :   0.7687 B(  2-C , 14-C ) :   0.9625 B(  2-C , 15-H ) :   0.9175
B(  2-C , 16-H ) :   0.9413 B(  5-C ,  8-C ) :   0.9367 B(  5-C ,  9-H ) :   0.8946
B(  5-C , 10-H ) :   0.9746 B(  8-C , 11-H ) :   0.8706 B(  8-C , 12-H ) :   0.9727
B(  8-C , 13-H ) :   0.9262 B( 14-C , 17-H ) :   0.8732 B( 14-C , 18-H ) :   0.9954
B( 14-C , 19-H ) :   0.9609

MP2 TOTAL ENERGY:     -738.633674962 Eh
FINAL SINGLE POINT ENERGY      -738.633674962143

DIPOLE MOMENT
-------------
                                X             Y             Z
Electronic contribution:      0.35852      -5.66823      -0.37191
Nuclear contribution   :     -0.30737       6.12193       0.20441
                        -----------------------------------------
Total Dipole Moment    :      0.05115       0.45371      -0.16750
                        -----------------------------------------
Magnitude (a.u.)       :      0.48634
Magnitude (Debye)      :      1.23617

Rotational constants in cm-1:     0.085683     0.045579     0.035579
Rotational constants in MHz :  2568.714087  1366.417870  1066.631601

                             ****ORCA TERMINATED NORMALLY****
TOTAL RUN TIME: 0 days 2 hours 56 minutes 6 seconds 772 msec
