                         Program Version 5.0.4 -  RELEASE  -
|  1> ! ri-mp2 aug-cc-pvdz aug-cc-pvdz/c tightscf
|  2> %pal nprocs 16 end
|  3> %maxcore 3800
|  4> %base "DZ_Si-Cl_76_AB"
|  5> %scf
|  6> STABPerform true
|  7> STABRestartUHFifUnstable true
|  8> end
|  9>
| 10> *xyz 0 1
| 11> Si         0.649181    0.000000    0.476830
| 12> C        -0.297639   -1.481852   -0.129267
| 13> C        -1.798325   -1.284533    0.139313
| 14> H         0.063702   -2.402518    0.331576
| 15> H        -0.125525   -1.582657   -1.204811
| 16> C        -2.366071    0.000000   -0.463816
| 17> H        -1.981387   -1.277329    1.218750
| 18> H        -2.352315   -2.140057   -0.252737
| 19> C        -1.798325    1.284533    0.139314
| 20> H        -3.450127    0.000000   -0.333209
| 21> H        -2.187054    0.000000   -1.544285
| 22> C        -0.297639    1.481852   -0.129266
| 23> H        -1.981387    1.277328    1.218751
| 24> H        -2.352315    2.140057   -0.252735
| 25> H        -0.125525    1.582658   -1.204811
| 26> H         0.063702    2.402518    0.331577
| 27> Cl         2.584514    0.000000   -0.251400
| 28> H         0.750963   -0.000001    1.952450
| 29> *
| 30>
| 31> $new_job
| 32> ! ri-mp2 aug-cc-pvtz aug-cc-pvtz/c tightscf
| 33> %pal nprocs 16 end
| 34> %maxcore 3800
| 35> %base "TZ_Si-Cl_76_AB"
| 36>
| 37> *xyz 0 1
| 38> Si         0.649181    0.000000    0.476830
| 39> C        -0.297639   -1.481852   -0.129267
| 40> C        -1.798325   -1.284533    0.139313
| 41> H         0.063702   -2.402518    0.331576
| 42> H        -0.125525   -1.582657   -1.204811
| 43> C        -2.366071    0.000000   -0.463816
| 44> H        -1.981387   -1.277329    1.218750
| 45> H        -2.352315   -2.140057   -0.252737
| 46> C        -1.798325    1.284533    0.139314
| 47> H        -3.450127    0.000000   -0.333209
| 48> H        -2.187054    0.000000   -1.544285
| 49> C        -0.297639    1.481852   -0.129266
| 50> H        -1.981387    1.277328    1.218751
| 51> H        -2.352315    2.140057   -0.252735
| 52> H        -0.125525    1.582658   -1.204811
| 53> H         0.063702    2.402518    0.331577
| 54> Cl         2.584514    0.000000   -0.251400
| 55> H         0.750963   -0.000001    1.952450
| 56> *
| 57>
| 58> $new_job
| 59> ! ri-mp2 aug-cc-pvqz aug-cc-pvqz/c tightscf
| 60> %pal nprocs 16 end
| 61> %maxcore 3800
| 62> %base "QZ_Si-Cl_76_AB"
| 63>
| 64> *xyz 0 1
| 65> Si         0.649181    0.000000    0.476830
| 66> C        -0.297639   -1.481852   -0.129267
| 67> C        -1.798325   -1.284533    0.139313
| 68> H         0.063702   -2.402518    0.331576
| 69> H        -0.125525   -1.582657   -1.204811
| 70> C        -2.366071    0.000000   -0.463816
| 71> H        -1.981387   -1.277329    1.218750
| 72> H        -2.352315   -2.140057   -0.252737
| 73> C        -1.798325    1.284533    0.139314
| 74> H        -3.450127    0.000000   -0.333209
| 75> H        -2.187054    0.000000   -1.544285
| 76> C        -0.297639    1.481852   -0.129266
| 77> H        -1.981387    1.277328    1.218751
| 78> H        -2.352315    2.140057   -0.252735
| 79> H        -0.125525    1.582658   -1.204811
| 80> H         0.063702    2.402518    0.331577
| 81> Cl         2.584514    0.000000   -0.251400
| 82> H         0.750963   -0.000001    1.952450
| 83> *
| 84>
| 85>
| 86>
| 87>
| 88>                          ****END OF INPUT****
 Total Charge           Charge          ....    0
 Multiplicity           Mult            ....    1
 Number of Electrons    NEL             ....   72
MP2 TOTAL ENERGY:     -945.262769473 Eh
FINAL SINGLE POINT ENERGY      -945.262769473204
MP2 TOTAL ENERGY:     -945.550179765 Eh
FINAL SINGLE POINT ENERGY      -945.550179765426

CARTESIAN COORDINATES (ANGSTROEM)
---------------------------------
  Si     0.649181    0.000000    0.476830
  C     -0.297639   -1.481852   -0.129267
  C     -1.798325   -1.284533    0.139313
  H      0.063702   -2.402518    0.331576
  H     -0.125525   -1.582657   -1.204811
  C     -2.366071    0.000000   -0.463816
  H     -1.981387   -1.277329    1.218750
  H     -2.352315   -2.140057   -0.252737
  C     -1.798325    1.284533    0.139314
  H     -3.450127    0.000000   -0.333209
  H     -2.187054    0.000000   -1.544285
  C     -0.297639    1.481852   -0.129266
  H     -1.981387    1.277328    1.218751
  H     -2.352315    2.140057   -0.252735
  H     -0.125525    1.582658   -1.204811
  H      0.063702    2.402518    0.331577
  Cl     2.584514    0.000000   -0.251400
  H      0.750963   -0.000001    1.952450

 Multiplicity           Mult            ....    1
 Number of Electrons    NEL             ....   72
 Basis Dimension        Dim             .... 1074

ORBITAL ENERGIES
----------------

  NO   OCC          E(Eh)            E(eV)
   0   2.0000    -104.813794     -2852.1283
   1   2.0000     -68.790209     -1871.8768
   2   2.0000     -11.229478      -305.5696
   3   2.0000     -11.229459      -305.5691
   4   2.0000     -11.223409      -305.4045
   5   2.0000     -11.209658      -305.0303
   6   2.0000     -11.209649      -305.0301
   7   2.0000     -10.541332      -286.8442
   8   2.0000      -8.008132      -217.9123
   9   2.0000      -8.007086      -217.8839
  10   2.0000      -8.007076      -217.8836
  11   2.0000      -6.137166      -167.0008
  12   2.0000      -4.244301      -115.4933
  13   2.0000      -4.242975      -115.4572
  14   2.0000      -4.242702      -115.4498
  15   2.0000      -1.101211       -29.9655
  16   2.0000      -1.081445       -29.4276
  17   2.0000      -1.012973       -27.5644
  18   2.0000      -0.941123       -25.6093
  19   2.0000      -0.835977       -22.7481
  20   2.0000      -0.784027       -21.3345
  21   2.0000      -0.688440       -18.7334
  22   2.0000      -0.638209       -17.3665
  23   2.0000      -0.607010       -16.5176
  24   2.0000      -0.602163       -16.3857
  25   2.0000      -0.571049       -15.5390
  26   2.0000      -0.547411       -14.8958
  27   2.0000      -0.515281       -14.0215
  28   2.0000      -0.507509       -13.8100
  29   2.0000      -0.493788       -13.4367
  30   2.0000      -0.492017       -13.3885
  31   2.0000      -0.470191       -12.7945
  32   2.0000      -0.463493       -12.6123
  33   2.0000      -0.460568       -12.5327
  34   2.0000      -0.424050       -11.5390
  35   2.0000      -0.400510       -10.8984
  36   0.0000       0.021547         0.5863
  37   0.0000       0.029475         0.8020
  38   0.0000       0.031080         0.8457
  39   0.0000       0.032916         0.8957
  40   0.0000       0.045404         1.2355

MULLIKEN ATOMIC CHARGES
-----------------------
   0 Si:    1.501953
   1 C :   -0.643803
   2 C :   -0.468908
   3 H :    0.241087
   4 H :    0.166023
   5 C :   -0.377281
   6 H :    0.221394
   7 H :    0.270027
   8 C :   -0.468908
   9 H :    0.239381
  10 H :    0.206069
  11 C :   -0.643802
  12 H :    0.221394
  13 H :    0.270027
  14 H :    0.166023
  15 H :    0.241087
  16 Cl:   -0.803340
  17 H :   -0.338423
Sum of atomic charges:    0.0000000

LOEWDIN ATOMIC CHARGES
----------------------
   0 Si:   -0.293978
   1 C :    0.519659
   2 C :    0.471371
   3 H :   -0.327262
   4 H :   -0.335146
   5 C :    0.510380
   6 H :   -0.275589
   7 H :   -0.265126
   8 C :    0.471371
   9 H :   -0.263913
  10 H :   -0.265603
  11 C :    0.519658
  12 H :   -0.275589
  13 H :   -0.265126
  14 H :   -0.335144
  15 H :   -0.327262
  16 Cl:    0.953943
  17 H :   -0.216643

  Mayer bond orders larger than 0.100000
B(  0-Si,  1-C ) :   0.8207 B(  0-Si, 11-C ) :   0.8207 B(  0-Si, 16-Cl) :   0.1608
B(  0-Si, 17-H ) :   0.7903 B(  1-C ,  2-C ) :   0.9226 B(  1-C ,  3-H ) :   0.9792
B(  1-C ,  4-H ) :   0.9731 B(  2-C ,  5-C ) :   0.8494 B(  2-C ,  6-H ) :   0.9380
B(  2-C ,  7-H ) :   0.9282 B(  5-C ,  8-C ) :   0.8494 B(  5-C ,  9-H ) :   0.9566
B(  5-C , 10-H ) :   0.9507 B(  8-C , 11-C ) :   0.9226 B(  8-C , 12-H ) :   0.9380
B(  8-C , 13-H ) :   0.9282 B( 11-C , 14-H ) :   0.9731 B( 11-C , 15-H ) :   0.9792

MP2 TOTAL ENERGY:     -945.639859659 Eh
FINAL SINGLE POINT ENERGY      -945.639859659473

DIPOLE MOMENT
-------------
                                X             Y             Z
Electronic contribution:     16.53676       0.00000      -0.56816
Nuclear contribution   :    -17.48395      -0.00000       0.59360
                        -----------------------------------------
Total Dipole Moment    :     -0.94719       0.00000       0.02544
                        -----------------------------------------
Magnitude (a.u.)       :      0.94754
Magnitude (Debye)      :      2.40845

Rotational constants in cm-1:     0.115250     0.037075     0.030561
Rotational constants in MHz :  3455.103371  1111.487581   916.195128

                             ****ORCA TERMINATED NORMALLY****
TOTAL RUN TIME: 0 days 5 hours 41 minutes 45 seconds 742 msec
