                         Program Version 5.0.4 -  RELEASE  -
|  1> ! ri-mp2 aug-cc-pvdz aug-cc-pvdz/c tightscf
|  2> %pal nprocs 16 end
|  3> %maxcore 3800
|  4> %base "DZ_P-Si_8_AB"
|  5> %scf
|  6> STABPerform true
|  7> STABRestartUHFifUnstable true
|  8> end
|  9>
| 10> *xyz 0 1
| 11> Si         0.839560    0.718755   -0.450073
| 12> P        -1.093207   -0.370522   -0.012183
| 13> O        -1.166770   -1.805376   -0.326533
| 14> O        -2.260739    0.461259   -0.747694
| 15> C         2.214040   -0.217639    0.398885
| 16> C         2.419496   -1.642549   -0.118196
| 17> H         1.998004   -0.228456    1.470761
| 18> H         3.132665    0.365800    0.284786
| 19> H         2.686649   -1.643028   -1.175882
| 20> H         1.513331   -2.239053   -0.013022
| 21> C         0.671291    2.482624    0.123835
| 22> H         1.574153    3.050409   -0.105773
| 23> H         0.507207    2.521434    1.200857
| 24> H        -0.171446    2.972166   -0.363975
| 25> H         3.220794   -2.145628    0.423925
| 26> H        -2.719060   -0.090581   -1.393149
| 27> O        -1.316282   -0.012012    1.534068
| 28> H        -1.949699   -0.594584    1.972916
| 29> H         0.973039    0.641207   -1.923546
| 30> *
| 31>
| 32> $new_job
| 33> ! ri-mp2 aug-cc-pvtz aug-cc-pvtz/c tightscf
| 34> %pal nprocs 16 end
| 35> %maxcore 3800
| 36> %base "TZ_P-Si_8_AB"
| 37>
| 38> *xyz 0 1
| 39> Si         0.839560    0.718755   -0.450073
| 40> P        -1.093207   -0.370522   -0.012183
| 41> O        -1.166770   -1.805376   -0.326533
| 42> O        -2.260739    0.461259   -0.747694
| 43> C         2.214040   -0.217639    0.398885
| 44> C         2.419496   -1.642549   -0.118196
| 45> H         1.998004   -0.228456    1.470761
| 46> H         3.132665    0.365800    0.284786
| 47> H         2.686649   -1.643028   -1.175882
| 48> H         1.513331   -2.239053   -0.013022
| 49> C         0.671291    2.482624    0.123835
| 50> H         1.574153    3.050409   -0.105773
| 51> H         0.507207    2.521434    1.200857
| 52> H        -0.171446    2.972166   -0.363975
| 53> H         3.220794   -2.145628    0.423925
| 54> H        -2.719060   -0.090581   -1.393149
| 55> O        -1.316282   -0.012012    1.534068
| 56> H        -1.949699   -0.594584    1.972916
| 57> H         0.973039    0.641207   -1.923546
| 58> *
| 59>
| 60> $new_job
| 61> ! ri-mp2 aug-cc-pvqz aug-cc-pvqz/c tightscf
| 62> %pal nprocs 16 end
| 63> %maxcore 3800
| 64> %base "QZ_P-Si_8_AB"
| 65>
| 66> *xyz 0 1
| 67> Si         0.839560    0.718755   -0.450073
| 68> P        -1.093207   -0.370522   -0.012183
| 69> O        -1.166770   -1.805376   -0.326533
| 70> O        -2.260739    0.461259   -0.747694
| 71> C         2.214040   -0.217639    0.398885
| 72> C         2.419496   -1.642549   -0.118196
| 73> H         1.998004   -0.228456    1.470761
| 74> H         3.132665    0.365800    0.284786
| 75> H         2.686649   -1.643028   -1.175882
| 76> H         1.513331   -2.239053   -0.013022
| 77> C         0.671291    2.482624    0.123835
| 78> H         1.574153    3.050409   -0.105773
| 79> H         0.507207    2.521434    1.200857
| 80> H        -0.171446    2.972166   -0.363975
| 81> H         3.220794   -2.145628    0.423925
| 82> H        -2.719060   -0.090581   -1.393149
| 83> O        -1.316282   -0.012012    1.534068
| 84> H        -1.949699   -0.594584    1.972916
| 85> H         0.973039    0.641207   -1.923546
| 86> *
| 87>
| 88>
| 89>
| 90>
| 91>                          ****END OF INPUT****
 Total Charge           Charge          ....    0
 Multiplicity           Mult            ....    1
 Number of Electrons    NEL             ....   82
MP2 TOTAL ENERGY:     -975.693480858 Eh
FINAL SINGLE POINT ENERGY      -975.693480857919
MP2 TOTAL ENERGY:     -976.115743087 Eh
FINAL SINGLE POINT ENERGY      -976.115743086528

CARTESIAN COORDINATES (ANGSTROEM)
---------------------------------
  Si     0.839560    0.718755   -0.450073
  P     -1.093207   -0.370522   -0.012183
  O     -1.166770   -1.805376   -0.326533
  O     -2.260739    0.461259   -0.747694
  C      2.214040   -0.217639    0.398885
  C      2.419496   -1.642549   -0.118196
  H      1.998004   -0.228456    1.470761
  H      3.132665    0.365800    0.284786
  H      2.686649   -1.643028   -1.175882
  H      1.513331   -2.239053   -0.013022
  C      0.671291    2.482624    0.123835
  H      1.574153    3.050409   -0.105773
  H      0.507207    2.521434    1.200857
  H     -0.171446    2.972166   -0.363975
  H      3.220794   -2.145628    0.423925
  H     -2.719060   -0.090581   -1.393149
  O     -1.316282   -0.012012    1.534068
  H     -1.949699   -0.594584    1.972916
  H      0.973039    0.641207   -1.923546

 Multiplicity           Mult            ....    1
 Number of Electrons    NEL             ....   82
 Basis Dimension        Dim             .... 1154

ORBITAL ENERGIES
----------------

  NO   OCC          E(Eh)            E(eV)
   0   2.0000     -80.050292     -2178.2792
   1   2.0000     -68.773417     -1871.4198
   2   2.0000     -20.593284      -560.3717
   3   2.0000     -20.589377      -560.2654
   4   2.0000     -20.498289      -557.7868
   5   2.0000     -11.215879      -305.1996
   6   2.0000     -11.213943      -305.1469
   7   2.0000     -11.213749      -305.1416
   8   2.0000      -7.574635      -206.1163
   9   2.0000      -6.124106      -166.6454
  10   2.0000      -5.472411      -148.9119
  11   2.0000      -5.471733      -148.8934
  12   2.0000      -5.470564      -148.8616
  13   2.0000      -4.230721      -115.1238
  14   2.0000      -4.230124      -115.1075
  15   2.0000      -4.229669      -115.0951
  16   2.0000      -1.424547       -38.7639
  17   2.0000      -1.375246       -37.4223
  18   2.0000      -1.287751       -35.0415
  19   2.0000      -1.027050       -27.9474
  20   2.0000      -0.958957       -26.0946
  21   2.0000      -0.856925       -23.3181
  22   2.0000      -0.842706       -22.9312
  23   2.0000      -0.734684       -19.9918
  24   2.0000      -0.697867       -18.9899
  25   2.0000      -0.664816       -18.0906
  26   2.0000      -0.629220       -17.1219
  27   2.0000      -0.618139       -16.8204
  28   2.0000      -0.599130       -16.3032
  29   2.0000      -0.574334       -15.6284
  30   2.0000      -0.568418       -15.4674
  31   2.0000      -0.566222       -15.4077
  32   2.0000      -0.551598       -15.0097
  33   2.0000      -0.540065       -14.6959
  34   2.0000      -0.517053       -14.0697
  35   2.0000      -0.497149       -13.5281
  36   2.0000      -0.492731       -13.4079
  37   2.0000      -0.467325       -12.7166
  38   2.0000      -0.456952       -12.4343
  39   2.0000      -0.433606       -11.7990
  40   2.0000      -0.406219       -11.0538
  41   0.0000       0.020971         0.5706
  42   0.0000       0.029889         0.8133
  43   0.0000       0.030676         0.8347
  44   0.0000       0.034436         0.9371
  45   0.0000       0.044253         1.2042

MULLIKEN ATOMIC CHARGES
-----------------------
   0 Si:    1.301371
   1 P :    2.231303
   2 O :   -1.307624
   3 O :   -1.023247
   4 C :   -0.593981
   5 C :   -0.914318
   6 H :    0.203194
   7 H :    0.222438
   8 H :    0.223223
   9 H :    0.300311
  10 C :   -1.138679
  11 H :    0.308695
  12 H :    0.256964
  13 H :    0.298397
  14 H :    0.318761
  15 H :    0.370979
  16 O :   -0.896205
  17 H :    0.336143
  18 H :   -0.497726
Sum of atomic charges:    0.0000000

LOEWDIN ATOMIC CHARGES
----------------------
   0 Si:    0.457714
   1 P :   -0.601230
   2 O :    0.265865
   3 O :    1.055531
   4 C :    0.514379
   5 C :    0.858614
   6 H :   -0.332801
   7 H :   -0.330447
   8 H :   -0.293003
   9 H :   -0.323855
  10 C :    0.936549
  11 H :   -0.344303
  12 H :   -0.347288
  13 H :   -0.350124
  14 H :   -0.281208
  15 H :   -0.892055
  16 O :    1.055017
  17 H :   -0.857938
  18 H :   -0.189418

  Mayer bond orders larger than 0.100000
B(  0-Si,  1-P ) :   0.8707 B(  0-Si,  4-C ) :   0.7832 B(  0-Si, 10-C ) :   0.9443
B(  0-Si, 18-H ) :   0.6575 B(  1-P ,  2-O ) :   1.2675 B(  1-P ,  3-O ) :   0.4544
B(  1-P , 16-O ) :   0.5105 B(  3-O , 15-H ) :   0.9154 B(  4-C ,  5-C ) :   0.9187
B(  4-C ,  6-H ) :   0.9373 B(  4-C ,  7-H ) :   0.9409 B(  5-C ,  8-H ) :   0.9701
B(  5-C ,  9-H ) :   0.9082 B(  5-C , 14-H ) :   0.9380 B( 10-C , 11-H ) :   0.9156
B( 10-C , 12-H ) :   0.9392 B( 10-C , 13-H ) :   0.9459 B( 16-O , 17-H ) :   0.9373

MP2 TOTAL ENERGY:     -976.249403483 Eh
FINAL SINGLE POINT ENERGY      -976.249403482839

DIPOLE MOMENT
-------------
                                X             Y             Z
Electronic contribution:    -11.43496      -2.03950      -0.20196
Nuclear contribution   :     11.66769       2.89424       0.42359
                        -----------------------------------------
Total Dipole Moment    :      0.23273       0.85474       0.22162
                        -----------------------------------------
Magnitude (a.u.)       :      0.91316
Magnitude (Debye)      :      2.32108

Rotational constants in cm-1:     0.058059     0.038107     0.028566
Rotational constants in MHz :  1740.557239  1142.408370   856.381247

                             ****ORCA TERMINATED NORMALLY****
TOTAL RUN TIME: 0 days 3 hours 13 minutes 25 seconds 938 msec
