                         Program Version 5.0.4 -  RELEASE  -
|  1> ! ri-mp2 aug-cc-pvdz aug-cc-pvdz/c tightscf
|  2> %pal nprocs 16 end
|  3> %maxcore 3800
|  4> %base "DZ_Si-Cl_94_AB"
|  5> %scf
|  6> STABPerform true
|  7> STABRestartUHFifUnstable true
|  8> end
|  9>
| 10> *xyz 0 1
| 11> Si        -0.000020    0.000000    0.243324
| 12> Cl         0.951433   -1.659697   -0.387415
| 13> Cl         0.961678    1.653782   -0.387416
| 14> F        -0.000101    0.000001    1.817026
| 15> Cl        -1.913042    0.005914   -0.387508
| 16> *
| 17>
| 18> $new_job
| 19> ! ri-mp2 aug-cc-pvtz aug-cc-pvtz/c tightscf
| 20> %pal nprocs 16 end
| 21> %maxcore 3800
| 22> %base "TZ_Si-Cl_94_AB"
| 23>
| 24> *xyz 0 1
| 25> Si        -0.000020    0.000000    0.243324
| 26> Cl         0.951433   -1.659697   -0.387415
| 27> Cl         0.961678    1.653782   -0.387416
| 28> F        -0.000101    0.000001    1.817026
| 29> Cl        -1.913042    0.005914   -0.387508
| 30> *
| 31>
| 32> $new_job
| 33> ! ri-mp2 aug-cc-pvqz aug-cc-pvqz/c tightscf
| 34> %pal nprocs 16 end
| 35> %maxcore 3800
| 36> %base "QZ_Si-Cl_94_AB"
| 37>
| 38> *xyz 0 1
| 39> Si        -0.000020    0.000000    0.243324
| 40> Cl         0.951433   -1.659697   -0.387415
| 41> Cl         0.961678    1.653782   -0.387416
| 42> F        -0.000101    0.000001    1.817026
| 43> Cl        -1.913042    0.005914   -0.387508
| 44> *
| 45>
| 46>
| 47>
| 48>
| 49>                          ****END OF INPUT****
 Total Charge           Charge          ....    0
 Multiplicity           Mult            ....    1
 Number of Electrons    NEL             ....   74
MP2 TOTAL ENERGY:    -1767.850088307 Eh
FINAL SINGLE POINT ENERGY     -1767.850088306712
MP2 TOTAL ENERGY:    -1768.164693775 Eh
FINAL SINGLE POINT ENERGY     -1768.164693775252

CARTESIAN COORDINATES (ANGSTROEM)
---------------------------------
  Si    -0.000020    0.000000    0.243324
  Cl     0.951433   -1.659697   -0.387415
  Cl     0.961678    1.653782   -0.387416
  F     -0.000101    0.000001    1.817026
  Cl    -1.913042    0.005914   -0.387508

 Multiplicity           Mult            ....    1
 Number of Electrons    NEL             ....   74
 Basis Dimension        Dim             ....  416

ORBITAL ENERGIES
----------------

  NO   OCC          E(Eh)            E(eV)
   0   2.0000    -104.863158     -2853.4716
   1   2.0000    -104.863156     -2853.4716
   2   2.0000    -104.863156     -2853.4716
   3   2.0000     -68.939509     -1875.9394
   4   2.0000     -26.324706      -716.3317
   5   2.0000     -10.590832      -288.1912
   6   2.0000     -10.590831      -288.1912
   7   2.0000     -10.590821      -288.1909
   8   2.0000      -8.057633      -219.2593
   9   2.0000      -8.057631      -219.2593
  10   2.0000      -8.057630      -219.2592
  11   2.0000      -8.056372      -219.2250
  12   2.0000      -8.056370      -219.2250
  13   2.0000      -8.056369      -219.2249
  14   2.0000      -8.056367      -219.2249
  15   2.0000      -8.056366      -219.2249
  16   2.0000      -8.056365      -219.2248
  17   2.0000      -6.270421      -170.6268
  18   2.0000      -4.378557      -119.1466
  19   2.0000      -4.378557      -119.1466
  20   2.0000      -4.378538      -119.1461
  21   2.0000      -1.632855       -44.4322
  22   2.0000      -1.164159       -31.6784
  23   2.0000      -1.123355       -30.5680
  24   2.0000      -1.123351       -30.5679
  25   2.0000      -0.794935       -21.6313
  26   2.0000      -0.711543       -19.3621
  27   2.0000      -0.711543       -19.3621
  28   2.0000      -0.669383       -18.2148
  29   2.0000      -0.582443       -15.8491
  30   2.0000      -0.582441       -15.8490
  31   2.0000      -0.528528       -14.3820
  32   2.0000      -0.517536       -14.0829
  33   2.0000      -0.517535       -14.0828
  34   2.0000      -0.491196       -13.3661
  35   2.0000      -0.491194       -13.3661
  36   2.0000      -0.477710       -12.9992
  37   0.0000       0.034358         0.9349
  38   0.0000       0.043378         1.1804
  39   0.0000       0.043378         1.1804
  40   0.0000       0.043911         1.1949
  41   0.0000       0.083230         2.2648

MULLIKEN ATOMIC CHARGES
-----------------------
   0 Si:    2.229249
   1 Cl:   -0.502301
   2 Cl:   -0.502301
   3 F :   -0.722346
   4 Cl:   -0.502301
Sum of atomic charges:   -0.0000000

LOEWDIN ATOMIC CHARGES
----------------------
   0 Si:   -2.909822
   1 Cl:    0.862000
   2 Cl:    0.861999
   3 F :    0.323807
   4 Cl:    0.862016

  Mayer bond orders larger than 0.100000
B(  0-Si,  1-Cl) :   0.7176 B(  0-Si,  2-Cl) :   0.7176 B(  0-Si,  3-F ) :   0.4970
B(  0-Si,  4-Cl) :   0.7176

MP2 TOTAL ENERGY:    -1768.271635236 Eh
FINAL SINGLE POINT ENERGY     -1768.271635236433

DIPOLE MOMENT
-------------
                                X             Y             Z
Electronic contribution:     -0.00002      -0.00000      -0.09701
Nuclear contribution   :      0.00000      -0.00000      -0.13255
                        -----------------------------------------
Total Dipole Moment    :     -0.00002      -0.00000      -0.22955
                        -----------------------------------------
Magnitude (a.u.)       :      0.22955
Magnitude (Debye)      :      0.58347

Rotational constants in cm-1:     0.061306     0.061305     0.043308
Rotational constants in MHz :  1837.904591  1837.867851  1298.332371

                             ****ORCA TERMINATED NORMALLY****
TOTAL RUN TIME: 0 days 0 hours 6 minutes 2 seconds 893 msec
