                         Program Version 5.0.4 -  RELEASE  -
|  1> ! ri-mp2 aug-cc-pvdz aug-cc-pvdz/c tightscf
|  2> %pal nprocs 16 end
|  3> %maxcore 3800
|  4> %base "DZ_S-Cl_41_A"
|  5> %scf
|  6> STABPerform true
|  7> STABRestartUHFifUnstable true
|  8> end
|  9>
| 10> *xyz 0 2
| 11> S        -1.503263   -0.507049    0.000000
| 12> C         1.386467   -0.083425   -0.000001
| 13> N         2.391841   -0.637679    0.000000
| 14> S        -0.063093    0.817317    0.000001
| 15> *
| 16>
| 17> $new_job
| 18> ! ri-mp2 aug-cc-pvtz aug-cc-pvtz/c tightscf
| 19> %pal nprocs 16 end
| 20> %maxcore 3800
| 21> %base "TZ_S-Cl_41_A"
| 22>
| 23> *xyz 0 2
| 24> S        -1.503263   -0.507049    0.000000
| 25> C         1.386467   -0.083425   -0.000001
| 26> N         2.391841   -0.637679    0.000000
| 27> S        -0.063093    0.817317    0.000001
| 28> *
| 29>
| 30> $new_job
| 31> ! ri-mp2 aug-cc-pvqz aug-cc-pvqz/c tightscf
| 32> %pal nprocs 16 end
| 33> %maxcore 3800
| 34> %base "QZ_S-Cl_41_A"
| 35>
| 36> *xyz 0 2
| 37> S        -1.503263   -0.507049    0.000000
| 38> C         1.386467   -0.083425   -0.000001
| 39> N         2.391841   -0.637679    0.000000
| 40> S        -0.063093    0.817317    0.000001
| 41> *
| 42>
| 43>
| 44>
| 45>
| 46>                          ****END OF INPUT****
 Total Charge           Charge          ....    0
 Multiplicity           Mult            ....    2
 Number of Electrons    NEL             ....   45
MP2 TOTAL ENERGY:     -887.896934706 Eh
FINAL SINGLE POINT ENERGY      -887.896934706396
MP2 TOTAL ENERGY:     -888.073096510 Eh
FINAL SINGLE POINT ENERGY      -888.073096510250

CARTESIAN COORDINATES (ANGSTROEM)
---------------------------------
  S     -1.503263   -0.507049    0.000000
  C      1.386467   -0.083425   -0.000001
  N      2.391841   -0.637679    0.000000
  S     -0.063093    0.817317    0.000001

 Multiplicity           Mult            ....    2
 Number of Electrons    NEL             ....   45
 Basis Dimension        Dim             ....  328

ORBITAL ENERGIES
----------------
                 SPIN UP ORBITALS
  NO   OCC          E(Eh)            E(eV)
   0   1.0000     -92.070626     -2505.3691
   1   1.0000     -92.030340     -2504.2729
   2   1.0000     -15.604057      -424.6080
   3   1.0000     -11.306342      -307.6612
   4   1.0000      -9.068931      -246.7782
   5   1.0000      -9.031376      -245.7562
   6   1.0000      -6.751734      -183.7240
   7   1.0000      -6.749855      -183.6729
   8   1.0000      -6.747938      -183.6207
   9   1.0000      -6.724994      -182.9964
  10   1.0000      -6.709144      -182.5651
  11   1.0000      -6.707132      -182.5104
  12   1.0000      -1.257547       -34.2196
  13   1.0000      -1.144534       -31.1444
  14   1.0000      -0.948698       -25.8154
  15   1.0000      -0.693667       -18.8757
  16   1.0000      -0.588963       -16.0265
  17   1.0000      -0.585345       -15.9281
  18   1.0000      -0.574521       -15.6335
  19   1.0000      -0.511662       -13.9230
  20   1.0000      -0.485398       -13.2084
  21   1.0000      -0.427632       -11.6365
  22   1.0000      -0.401296       -10.9198
  23   0.0000       0.034342         0.9345
  24   0.0000       0.037893         1.0311
  25   0.0000       0.057885         1.5751
  26   0.0000       0.070112         1.9078
  27   0.0000       0.079701         2.1688

                 SPIN DOWN ORBITALS
  NO   OCC          E(Eh)            E(eV)
   0   1.0000     -92.068540     -2505.3123
   1   1.0000     -92.021955     -2504.0447
   2   1.0000     -15.598396      -424.4539
   3   1.0000     -11.310714      -307.7802
   4   1.0000      -9.066578      -246.7141
   5   1.0000      -9.022171      -245.5057
   6   1.0000      -6.748434      -183.6342
   7   1.0000      -6.747393      -183.6059
   8   1.0000      -6.742534      -183.4737
   9   1.0000      -6.704890      -182.4493
  10   1.0000      -6.702195      -182.3760
  11   1.0000      -6.687177      -181.9673
  12   1.0000      -1.249338       -33.9962
  13   1.0000      -1.118784       -30.4437
  14   1.0000      -0.889507       -24.2047
  15   1.0000      -0.680470       -18.5165
  16   1.0000      -0.579156       -15.7596
  17   1.0000      -0.565985       -15.4012
  18   1.0000      -0.547236       -14.8911
  19   1.0000      -0.475389       -12.9360
  20   1.0000      -0.430814       -11.7230
  21   1.0000      -0.411083       -11.1861
  22   0.0000      -0.023119        -0.6291
  23   0.0000       0.036502         0.9933
  24   0.0000       0.039125         1.0647
  25   0.0000       0.058087         1.5806
  26   0.0000       0.073881         2.0104

MULLIKEN ATOMIC CHARGES AND SPIN POPULATIONS
--------------------------------------------
   0 S :   -0.002381    0.888382
   1 C :   -0.015218   -0.181885
   2 N :   -0.433738    0.178974
   3 S :    0.451337    0.114529
Sum of atomic charges         :    0.0000000

LOEWDIN ATOMIC CHARGES AND SPIN POPULATIONS
-------------------------------------------
   0 S :    0.392232    0.685638
   1 C :   -0.987613   -0.000761
   2 N :    0.250873    0.082296
   3 S :    0.344508    0.232828

  Mayer bond orders larger than 0.100000
B(  0-S ,  3-S ) :   1.3438 B(  1-C ,  2-N ) :   2.6988 B(  1-C ,  3-S ) :   0.8481

MP2 TOTAL ENERGY:     -888.131654452 Eh
FINAL SINGLE POINT ENERGY      -888.131654452290

DIPOLE MOMENT
-------------
                                X             Y             Z
Electronic contribution:     -1.09368       0.51450      -0.00000
Nuclear contribution   :      0.05848      -0.01249      -0.00000
                        -----------------------------------------
Total Dipole Moment    :     -1.03520       0.50202      -0.00000
                        -----------------------------------------
Magnitude (a.u.)       :      1.15050
Magnitude (Debye)      :      2.92435

Rotational constants in cm-1:     0.475691     0.095892     0.079805
Rotational constants in MHz : 14260.865587  2874.772294  2392.484106

                             ****ORCA TERMINATED NORMALLY****
TOTAL RUN TIME: 0 days 0 hours 6 minutes 52 seconds 529 msec
