                         Program Version 5.0.4 -  RELEASE  -
|  1> ! ri-mp2 aug-cc-pvdz aug-cc-pvdz/c tightscf
|  2> %pal nprocs 16 end
|  3> %maxcore 3800
|  4> %base "DZ_B-Si_65_AB"
|  5> %scf
|  6> STABPerform true
|  7> STABRestartUHFifUnstable true
|  8> end
|  9>
| 10> *xyz 0 1
| 11> Si         1.169013   -0.064435    0.000000
| 12> B        -0.756610    0.549551    0.000001
| 13> O        -1.743309   -0.371068   -0.000000
| 14> H        -1.050699    1.713881    0.000000
| 15> H        -2.632498   -0.001978   -0.000001
| 16> H         1.312162   -1.538322   -0.000004
| 17> H         1.867189    0.474649    1.193439
| 18> H         1.867189    0.474655   -1.193436
| 19> *
| 20>
| 21> $new_job
| 22> ! ri-mp2 aug-cc-pvtz aug-cc-pvtz/c tightscf
| 23> %pal nprocs 16 end
| 24> %maxcore 3800
| 25> %base "TZ_B-Si_65_AB"
| 26>
| 27> *xyz 0 1
| 28> Si         1.169013   -0.064435    0.000000
| 29> B        -0.756610    0.549551    0.000001
| 30> O        -1.743309   -0.371068   -0.000000
| 31> H        -1.050699    1.713881    0.000000
| 32> H        -2.632498   -0.001978   -0.000001
| 33> H         1.312162   -1.538322   -0.000004
| 34> H         1.867189    0.474649    1.193439
| 35> H         1.867189    0.474655   -1.193436
| 36> *
| 37>
| 38> $new_job
| 39> ! ri-mp2 aug-cc-pvqz aug-cc-pvqz/c tightscf
| 40> %pal nprocs 16 end
| 41> %maxcore 3800
| 42> %base "QZ_B-Si_65_AB"
| 43>
| 44> *xyz 0 1
| 45> Si         1.169013   -0.064435    0.000000
| 46> B        -0.756610    0.549551    0.000001
| 47> O        -1.743309   -0.371068   -0.000000
| 48> H        -1.050699    1.713881    0.000000
| 49> H        -2.632498   -0.001978   -0.000001
| 50> H         1.312162   -1.538322   -0.000004
| 51> H         1.867189    0.474649    1.193439
| 52> H         1.867189    0.474655   -1.193436
| 53> *
| 54>
| 55>
| 56>
| 57>
| 58>                          ****END OF INPUT****
 Total Charge           Charge          ....    0
 Multiplicity           Mult            ....    1
 Number of Electrons    NEL             ....   32
MP2 TOTAL ENERGY:     -391.823982150 Eh
FINAL SINGLE POINT ENERGY      -391.823982149721
MP2 TOTAL ENERGY:     -391.951824834 Eh
FINAL SINGLE POINT ENERGY      -391.951824834359

CARTESIAN COORDINATES (ANGSTROEM)
---------------------------------
  Si     1.169013   -0.064435    0.000000
  B     -0.756610    0.549551    0.000001
  O     -1.743309   -0.371068   -0.000000
  H     -1.050699    1.713881    0.000000
  H     -2.632498   -0.001978   -0.000001
  H      1.312162   -1.538322   -0.000004
  H      1.867189    0.474649    1.193439
  H      1.867189    0.474655   -1.193436

 Multiplicity           Mult            ....    1
 Number of Electrons    NEL             ....   32
 Basis Dimension        Dim             ....  474

ORBITAL ENERGIES
----------------

  NO   OCC          E(Eh)            E(eV)
   0   2.0000     -68.748620     -1870.7451
   1   2.0000     -20.588615      -560.2447
   2   2.0000      -7.626635      -207.5313
   3   2.0000      -6.100544      -166.0042
   4   2.0000      -4.206779      -114.4723
   5   2.0000      -4.206689      -114.4698
   6   2.0000      -4.206322      -114.4598
   7   2.0000      -1.382739       -37.6263
   8   2.0000      -0.784363       -21.3436
   9   2.0000      -0.705484       -19.1972
  10   2.0000      -0.655046       -17.8247
  11   2.0000      -0.552939       -15.0462
  12   2.0000      -0.544893       -14.8273
  13   2.0000      -0.472403       -12.8547
  14   2.0000      -0.471070       -12.8185
  15   2.0000      -0.402799       -10.9607
  16   0.0000       0.020852         0.5674
  17   0.0000       0.032766         0.8916
  18   0.0000       0.037314         1.0154
  19   0.0000       0.038664         1.0521
  20   0.0000       0.051981         1.4145

MULLIKEN ATOMIC CHARGES
-----------------------
   0 Si:    0.243886
   1 B :    0.886624
   2 O :   -0.917801
   3 H :   -0.272371
   4 H :    0.368938
   5 H :   -0.094377
   6 H :   -0.107449
   7 H :   -0.107449
Sum of atomic charges:    0.0000000

LOEWDIN ATOMIC CHARGES
----------------------
   0 Si:    1.172385
   1 B :   -0.481108
   2 O :    1.252554
   3 H :   -0.237046
   4 H :   -0.802024
   5 H :   -0.298104
   6 H :   -0.303328
   7 H :   -0.303328

  Mayer bond orders larger than 0.100000
B(  0-Si,  1-B ) :   0.7342 B(  0-Si,  2-O ) :  -0.1287 B(  0-Si,  5-H ) :   0.7216
B(  0-Si,  6-H ) :   0.7398 B(  0-Si,  7-H ) :   0.7398 B(  1-B ,  2-O ) :   0.6348
B(  1-B ,  3-H ) :   0.8911 B(  2-O ,  4-H ) :   0.8876

MP2 TOTAL ENERGY:     -391.993647456 Eh
FINAL SINGLE POINT ENERGY      -391.993647455549

DIPOLE MOMENT
-------------
                                X             Y             Z
Electronic contribution:     -2.58920      -0.31134       0.00000
Nuclear contribution   :      1.87968       0.67996      -0.00000
                        -----------------------------------------
Total Dipole Moment    :     -0.70952       0.36863       0.00000
                        -----------------------------------------
Magnitude (a.u.)       :      0.79956
Magnitude (Debye)      :      2.03232

Rotational constants in cm-1:     1.185445     0.149319     0.138889
Rotational constants in MHz : 35538.733156  4476.458845  4163.787885

                             ****ORCA TERMINATED NORMALLY****
TOTAL RUN TIME: 0 days 0 hours 11 minutes 28 seconds 661 msec
