                         Program Version 5.0.4 -  RELEASE  -
|  1> ! ri-mp2 aug-cc-pvdz aug-cc-pvdz/c tightscf
|  2> %pal nprocs 16 end
|  3> %maxcore 3800
|  4> %base "DZ_S-Cl_40_AB"
|  5>
|  6> *xyz 0 1
|  7> Cl        -1.464290   -0.501039    0.000000
|  8> S         0.014908    0.886588    0.000001
|  9> C         1.374630   -0.103228    0.000000
| 10> N         2.343805   -0.721197   -0.000001
| 11> *
| 12>
| 13> $new_job
| 14> ! ri-mp2 aug-cc-pvtz aug-cc-pvtz/c tightscf
| 15> %pal nprocs 16 end
| 16> %maxcore 3800
| 17> %base "TZ_S-Cl_40_AB"
| 18>
| 19> *xyz 0 1
| 20> Cl        -1.464290   -0.501039    0.000000
| 21> S         0.014908    0.886588    0.000001
| 22> C         1.374630   -0.103228    0.000000
| 23> N         2.343805   -0.721197   -0.000001
| 24> *
| 25>
| 26> $new_job
| 27> ! ri-mp2 aug-cc-pvqz aug-cc-pvqz/c tightscf
| 28> %pal nprocs 16 end
| 29> %maxcore 3800
| 30> %base "QZ_S-Cl_40_AB"
| 31>
| 32> *xyz 0 1
| 33> Cl        -1.464290   -0.501039    0.000000
| 34> S         0.014908    0.886588    0.000001
| 35> C         1.374630   -0.103228    0.000000
| 36> N         2.343805   -0.721197   -0.000001
| 37> *
| 38>
| 39>
| 40>
| 41>
| 42>                          ****END OF INPUT****
 Total Charge           Charge          ....    0
 Multiplicity           Mult            ....    1
 Number of Electrons    NEL             ....   46
MP2 TOTAL ENERGY:     -949.892883024 Eh
FINAL SINGLE POINT ENERGY      -949.892883023871
MP2 TOTAL ENERGY:     -950.083675468 Eh
FINAL SINGLE POINT ENERGY      -950.083675468241

CARTESIAN COORDINATES (ANGSTROEM)
---------------------------------
  Cl    -1.464290   -0.501039    0.000000
  S      0.014908    0.886588    0.000001
  C      1.374630   -0.103228    0.000000
  N      2.343805   -0.721197   -0.000001

 Multiplicity           Mult            ....    1
 Number of Electrons    NEL             ....   46
 Basis Dimension        Dim             ....  328

ORBITAL ENERGIES
----------------

  NO   OCC          E(Eh)            E(eV)
   0   2.0000    -104.896232     -2854.3716
   1   2.0000     -92.082636     -2505.6959
   2   2.0000     -15.606588      -424.6769
   3   2.0000     -11.315571      -307.9123
   4   2.0000     -10.620161      -288.9893
   5   2.0000      -9.079331      -247.0612
   6   2.0000      -8.087176      -220.0632
   7   2.0000      -8.084976      -220.0034
   8   2.0000      -8.084769      -219.9977
   9   2.0000      -6.760464      -183.9616
  10   2.0000      -6.759308      -183.9301
  11   2.0000      -6.757758      -183.8879
  12   2.0000      -1.259543       -34.2739
  13   2.0000      -1.190370       -32.3916
  14   2.0000      -1.019079       -27.7305
  15   2.0000      -0.714325       -19.4378
  16   2.0000      -0.601405       -16.3651
  17   2.0000      -0.588200       -16.0057
  18   2.0000      -0.583987       -15.8911
  19   2.0000      -0.517482       -14.0814
  20   2.0000      -0.500638       -13.6231
  21   2.0000      -0.491730       -13.3807
  22   2.0000      -0.403981       -10.9929
  23   0.0000       0.015326         0.4170
  24   0.0000       0.035941         0.9780
  25   0.0000       0.056849         1.5469
  26   0.0000       0.063442         1.7263
  27   0.0000       0.075575         2.0565

MULLIKEN ATOMIC CHARGES
-----------------------
   0 Cl:   -0.174280
   1 S :    0.627758
   2 C :   -0.036393
   3 N :   -0.417085
Sum of atomic charges:    0.0000000

LOEWDIN ATOMIC CHARGES
----------------------
   0 Cl:    0.491603
   1 S :    0.310163
   2 C :   -1.052291
   3 N :    0.250524

  Mayer bond orders larger than 0.100000
B(  0-Cl,  1-S ) :   1.0050 B(  1-S ,  2-C ) :   0.9542 B(  2-C ,  3-N ) :   2.6971

MP2 TOTAL ENERGY:     -950.146877161 Eh
FINAL SINGLE POINT ENERGY      -950.146877161107

DIPOLE MOMENT
-------------
                                X             Y             Z
Electronic contribution:     -2.83669       0.03532       0.00000
Nuclear contribution   :      1.94726       0.63292       0.00000
                        -----------------------------------------
Total Dipole Moment    :     -0.88942       0.66823       0.00000
                        -----------------------------------------
Magnitude (a.u.)       :      1.11248
Magnitude (Debye)      :      2.82770

Rotational constants in cm-1:     0.406200     0.095985     0.077639
Rotational constants in MHz : 12177.554957  2877.572069  2327.565351

                             ****ORCA TERMINATED NORMALLY****
TOTAL RUN TIME: 0 days 0 hours 1 minutes 9 seconds 779 msec
