                         Program Version 5.0.4 -  RELEASE  -
|  1> ! ri-mp2 aug-cc-pvdz aug-cc-pvdz/c tightscf
|  2> %pal nprocs 16 end
|  3> %maxcore 3800
|  4> %base "DZ_Si-Si_88_AB"
|  5> %scf
|  6> STABPerform true
|  7> STABRestartUHFifUnstable true
|  8> end
|  9>
| 10> *xyz 0 1
| 11> Si        -2.071178   -0.795138   -0.254371
| 12> Si        -0.855437    1.141339    0.211219
| 13> H        -1.433962   -1.517224   -1.377155
| 14> H        -3.445914   -0.423199   -0.673061
| 15> H        -2.166866   -1.668639    0.930171
| 16> N         0.833421    0.936270   -0.252955
| 17> H        -0.949290    1.513217    1.639957
| 18> H        -1.291910    2.306529   -0.593523
| 19> C         1.475388   -0.207175    0.109765
| 20> O         0.886689   -1.053703    0.757788
| 21> H         1.347012    1.618917   -0.785266
| 22> C         2.898716   -0.378774   -0.346476
| 23> H         2.909281   -0.630907   -1.408159
| 24> H         3.356754   -1.190078    0.210747
| 25> H         3.475422    0.536008   -0.210932
| 26> *
| 27>
| 28> $new_job
| 29> ! ri-mp2 aug-cc-pvtz aug-cc-pvtz/c tightscf
| 30> %pal nprocs 16 end
| 31> %maxcore 3800
| 32> %base "TZ_Si-Si_88_AB"
| 33>
| 34> *xyz 0 1
| 35> Si        -2.071178   -0.795138   -0.254371
| 36> Si        -0.855437    1.141339    0.211219
| 37> H        -1.433962   -1.517224   -1.377155
| 38> H        -3.445914   -0.423199   -0.673061
| 39> H        -2.166866   -1.668639    0.930171
| 40> N         0.833421    0.936270   -0.252955
| 41> H        -0.949290    1.513217    1.639957
| 42> H        -1.291910    2.306529   -0.593523
| 43> C         1.475388   -0.207175    0.109765
| 44> O         0.886689   -1.053703    0.757788
| 45> H         1.347012    1.618917   -0.785266
| 46> C         2.898716   -0.378774   -0.346476
| 47> H         2.909281   -0.630907   -1.408159
| 48> H         3.356754   -1.190078    0.210747
| 49> H         3.475422    0.536008   -0.210932
| 50> *
| 51>
| 52> $new_job
| 53> ! ri-mp2 aug-cc-pvqz aug-cc-pvqz/c tightscf
| 54> %pal nprocs 16 end
| 55> %maxcore 3800
| 56> %base "QZ_Si-Si_88_AB"
| 57>
| 58> *xyz 0 1
| 59> Si        -2.071178   -0.795138   -0.254371
| 60> Si        -0.855437    1.141339    0.211219
| 61> H        -1.433962   -1.517224   -1.377155
| 62> H        -3.445914   -0.423199   -0.673061
| 63> H        -2.166866   -1.668639    0.930171
| 64> N         0.833421    0.936270   -0.252955
| 65> H        -0.949290    1.513217    1.639957
| 66> H        -1.291910    2.306529   -0.593523
| 67> C         1.475388   -0.207175    0.109765
| 68> O         0.886689   -1.053703    0.757788
| 69> H         1.347012    1.618917   -0.785266
| 70> C         2.898716   -0.378774   -0.346476
| 71> H         2.909281   -0.630907   -1.408159
| 72> H         3.356754   -1.190078    0.210747
| 73> H         3.475422    0.536008   -0.210932
| 74> *
| 75>
| 76>
| 77>
| 78>
| 79>                          ****END OF INPUT****
 Total Charge           Charge          ....    0
 Multiplicity           Mult            ....    1
 Number of Electrons    NEL             ....   64
MP2 TOTAL ENERGY:     -789.085514578 Eh
FINAL SINGLE POINT ENERGY      -789.085514577719
MP2 TOTAL ENERGY:     -789.345809866 Eh
FINAL SINGLE POINT ENERGY      -789.345809865939

CARTESIAN COORDINATES (ANGSTROEM)
---------------------------------
  Si    -2.071178   -0.795138   -0.254371
  Si    -0.855437    1.141339    0.211219
  H     -1.433962   -1.517224   -1.377155
  H     -3.445914   -0.423199   -0.673061
  H     -2.166866   -1.668639    0.930171
  N      0.833421    0.936270   -0.252955
  H     -0.949290    1.513217    1.639957
  H     -1.291910    2.306529   -0.593523
  C      1.475388   -0.207175    0.109765
  O      0.886689   -1.053703    0.757788
  H      1.347012    1.618917   -0.785266
  C      2.898716   -0.378774   -0.346476
  H      2.909281   -0.630907   -1.408159
  H      3.356754   -1.190078    0.210747
  H      3.475422    0.536008   -0.210932

 Multiplicity           Mult            ....    1
 Number of Electrons    NEL             ....   64
 Basis Dimension        Dim             ....  902

ORBITAL ENERGIES
----------------

  NO   OCC          E(Eh)            E(eV)
   0   2.0000     -68.784312     -1871.7163
   1   2.0000     -68.756750     -1870.9663
   2   2.0000     -20.528353      -558.6049
   3   2.0000     -15.573195      -423.7682
   4   2.0000     -11.358563      -309.0822
   5   2.0000     -11.242666      -305.9285
   6   2.0000      -6.131595      -166.8492
   7   2.0000      -6.107364      -166.1898
   8   2.0000      -4.238376      -115.3321
   9   2.0000      -4.237758      -115.3153
  10   2.0000      -4.237543      -115.3094
  11   2.0000      -4.213508      -114.6554
  12   2.0000      -4.213461      -114.6541
  13   2.0000      -4.213286      -114.6493
  14   2.0000      -1.396506       -38.0009
  15   2.0000      -1.206381       -32.8273
  16   2.0000      -1.012426       -27.5495
  17   2.0000      -0.801652       -21.8141
  18   2.0000      -0.756892       -20.5961
  19   2.0000      -0.698438       -19.0055
  20   2.0000      -0.682559       -18.5734
  21   2.0000      -0.628819       -17.1110
  22   2.0000      -0.619594       -16.8600
  23   2.0000      -0.581687       -15.8285
  24   2.0000      -0.546149       -14.8615
  25   2.0000      -0.534344       -14.5402
  26   2.0000      -0.493224       -13.4213
  27   2.0000      -0.474157       -12.9025
  28   2.0000      -0.466471       -12.6933
  29   2.0000      -0.441454       -12.0126
  30   2.0000      -0.428705       -11.6656
  31   2.0000      -0.385488       -10.4897
  32   0.0000       0.017802         0.4844
  33   0.0000       0.030487         0.8296
  34   0.0000       0.032156         0.8750
  35   0.0000       0.035955         0.9784
  36   0.0000       0.042889         1.1671

MULLIKEN ATOMIC CHARGES
-----------------------
   0 Si:    0.457537
   1 Si:    0.807893
   2 H :   -0.162005
   3 H :   -0.237223
   4 H :   -0.134696
   5 N :   -0.667358
   6 H :   -0.240945
   7 H :   -0.263924
   8 C :    0.852593
   9 O :   -0.792592
  10 H :    0.247345
  11 C :   -0.732222
  12 H :    0.297514
  13 H :    0.315099
  14 H :    0.252984
Sum of atomic charges:   -0.0000000

LOEWDIN ATOMIC CHARGES
----------------------
   0 Si:    1.024368
   1 Si:    0.553044
   2 H :   -0.298313
   3 H :   -0.324524
   4 H :   -0.302246
   5 N :    0.703521
   6 H :   -0.254793
   7 H :   -0.265978
   8 C :   -0.956108
   9 O :    0.700228
  10 H :   -0.579505
  11 C :    0.897383
  12 H :   -0.286226
  13 H :   -0.314429
  14 H :   -0.296422

  Mayer bond orders larger than 0.100000
B(  0-Si,  1-Si) :   0.7709 B(  0-Si,  2-H ) :   0.7591 B(  0-Si,  3-H ) :   0.7292
B(  0-Si,  4-H ) :   0.7821 B(  1-Si,  5-N ) :   0.9786 B(  1-Si,  6-H ) :   0.7990
B(  1-Si,  7-H ) :   0.8530 B(  5-N ,  8-C ) :   1.0749 B(  5-N ,  9-O ) :   0.1028
B(  5-N , 10-H ) :   0.9791 B(  8-C ,  9-O ) :   1.3828 B(  8-C , 11-C ) :   0.7790
B( 11-C , 12-H ) :   0.8837 B( 11-C , 13-H ) :   0.9861 B( 11-C , 14-H ) :   0.9933

MP2 TOTAL ENERGY:     -789.429719198 Eh
FINAL SINGLE POINT ENERGY      -789.429719198444

DIPOLE MOMENT
-------------
                                X             Y             Z
Electronic contribution:     -1.10426       0.43653       1.50466
Nuclear contribution   :      2.01255       0.51646      -2.27162
                        -----------------------------------------
Total Dipole Moment    :      0.90829       0.95300      -0.76696
                        -----------------------------------------
Magnitude (a.u.)       :      1.52362
Magnitude (Debye)      :      3.87273

Rotational constants in cm-1:     0.131671     0.045642     0.037457
Rotational constants in MHz :  3947.394817  1368.326466  1122.923316

                             ****ORCA TERMINATED NORMALLY****
TOTAL RUN TIME: 0 days 1 hours 37 minutes 28 seconds 359 msec
