                         Program Version 5.0.4 -  RELEASE  -
|  1> ! ri-mp2 aug-cc-pvdz aug-cc-pvdz/c tightscf
|  2> %pal nprocs 16 end
|  3> %maxcore 3800
|  4> %base "DZ_B-B_47_AB"
|  5> %scf
|  6> STABPerform true
|  7> STABRestartUHFifUnstable true
|  8> end
|  9>
| 10> *xyz 0 1
| 11> B        -0.696243    0.819101    0.446543
| 12> B         0.696244    0.819101   -0.446543
| 13> C         1.876881   -0.069928   -0.094727
| 14> N         2.758314   -0.746927    0.194032
| 15> C        -1.876881   -0.069928    0.094727
| 16> N        -2.758314   -0.746928   -0.194032
| 17> H         0.818546    1.552555   -1.374565
| 18> H        -0.818548    1.552560    1.374561
| 19> *
| 20>
| 21> $new_job
| 22> ! ri-mp2 aug-cc-pvtz aug-cc-pvtz/c tightscf
| 23> %pal nprocs 16 end
| 24> %maxcore 3800
| 25> %base "TZ_B-B_47_AB"
| 26>
| 27> *xyz 0 1
| 28> B        -0.696243    0.819101    0.446543
| 29> B         0.696244    0.819101   -0.446543
| 30> C         1.876881   -0.069928   -0.094727
| 31> N         2.758314   -0.746927    0.194032
| 32> C        -1.876881   -0.069928    0.094727
| 33> N        -2.758314   -0.746928   -0.194032
| 34> H         0.818546    1.552555   -1.374565
| 35> H        -0.818548    1.552560    1.374561
| 36> *
| 37>
| 38> $new_job
| 39> ! ri-mp2 aug-cc-pvqz aug-cc-pvqz/c tightscf
| 40> %pal nprocs 16 end
| 41> %maxcore 3800
| 42> %base "QZ_B-B_47_AB"
| 43>
| 44> *xyz 0 1
| 45> B        -0.696243    0.819101    0.446543
| 46> B         0.696244    0.819101   -0.446543
| 47> C         1.876881   -0.069928   -0.094727
| 48> N         2.758314   -0.746927    0.194032
| 49> C        -1.876881   -0.069928    0.094727
| 50> N        -2.758314   -0.746928   -0.194032
| 51> H         0.818546    1.552555   -1.374565
| 52> H        -0.818548    1.552560    1.374561
| 53> *
| 54>
| 55>
| 56>
| 57>
| 58>                          ****END OF INPUT****
 Total Charge           Charge          ....    0
 Multiplicity           Mult            ....    1
 Number of Electrons    NEL             ....   38
MP2 TOTAL ENERGY:     -235.878775322 Eh
FINAL SINGLE POINT ENERGY      -235.878775322370
MP2 TOTAL ENERGY:     -236.070112895 Eh
FINAL SINGLE POINT ENERGY      -236.070112895143

CARTESIAN COORDINATES (ANGSTROEM)
---------------------------------
  B     -0.696243    0.819101    0.446543
  B      0.696244    0.819101   -0.446543
  C      1.876881   -0.069928   -0.094727
  N      2.758314   -0.746927    0.194032
  C     -1.876881   -0.069928    0.094727
  N     -2.758314   -0.746928   -0.194032
  H      0.818546    1.552555   -1.374565
  H     -0.818548    1.552560    1.374561

 Multiplicity           Mult            ....    1
 Number of Electrons    NEL             ....   38
 Basis Dimension        Dim             ....  572

ORBITAL ENERGIES
----------------

  NO   OCC          E(Eh)            E(eV)
   0   2.0000     -15.607422      -424.6995
   1   2.0000     -15.607422      -424.6995
   2   2.0000     -11.276664      -306.8536
   3   2.0000     -11.276664      -306.8536
   4   2.0000      -7.672172      -208.7704
   5   2.0000      -7.671261      -208.7456
   6   2.0000      -1.248392       -33.9705
   7   2.0000      -1.247919       -33.9576
   8   2.0000      -0.876726       -23.8569
   9   2.0000      -0.811996       -22.0955
  10   2.0000      -0.650197       -17.6928
  11   2.0000      -0.620471       -16.8839
  12   2.0000      -0.580940       -15.8082
  13   2.0000      -0.580654       -15.8004
  14   2.0000      -0.564635       -15.3645
  15   2.0000      -0.506673       -13.7873
  16   2.0000      -0.505458       -13.7542
  17   2.0000      -0.502269       -13.6674
  18   2.0000      -0.461828       -12.5670
  19   0.0000       0.000013         0.0004
  20   0.0000       0.001389         0.0378
  21   0.0000       0.018319         0.4985
  22   0.0000       0.025474         0.6932
  23   0.0000       0.035335         0.9615

MULLIKEN ATOMIC CHARGES
-----------------------
   0 B :    0.584112
   1 B :    0.584111
   2 C :    0.146616
   3 N :   -0.520949
   4 C :    0.146615
   5 N :   -0.520949
   6 H :   -0.209778
   7 H :   -0.209778
Sum of atomic charges:   -0.0000000

LOEWDIN ATOMIC CHARGES
----------------------
   0 B :   -0.073541
   1 B :   -0.073541
   2 C :   -0.164170
   3 N :    0.424257
   4 C :   -0.164170
   5 N :    0.424257
   6 H :   -0.186546
   7 H :   -0.186546

  Mayer bond orders larger than 0.100000
B(  0-B ,  1-B ) :   1.0663 B(  0-B ,  4-C ) :   0.8406 B(  0-B ,  7-H ) :   0.9012
B(  1-B ,  2-C ) :   0.8406 B(  1-B ,  6-H ) :   0.9012 B(  2-C ,  3-N ) :   2.5329
B(  4-C ,  5-N ) :   2.5329

MP2 TOTAL ENERGY:     -236.132286029 Eh
FINAL SINGLE POINT ENERGY      -236.132286029022

DIPOLE MOMENT
-------------
                                X             Y             Z
Electronic contribution:      0.00000      -0.27566       0.00000
Nuclear contribution   :     -0.00000       1.67522      -0.00000
                        -----------------------------------------
Total Dipole Moment    :      0.00000       1.39956       0.00000
                        -----------------------------------------
Magnitude (a.u.)       :      1.39956
Magnitude (Debye)      :      3.55739

Rotational constants in cm-1:     0.379245     0.052848     0.048909
Rotational constants in MHz : 11369.478534  1584.350096  1466.261991

                             ****ORCA TERMINATED NORMALLY****
TOTAL RUN TIME: 0 days 0 hours 17 minutes 9 seconds 206 msec
