                         Program Version 5.0.4 -  RELEASE  -
|  1> ! ri-mp2 aug-cc-pvdz aug-cc-pvdz/c tightscf
|  2> %pal nprocs 16 end
|  3> %maxcore 3800
|  4> %base "DZ_P-O_19_AB"
|  5> %scf
|  6> STABPerform true
|  7> STABRestartUHFifUnstable true
|  8> end
|  9>
| 10> *xyz 0 1
| 11> C         2.812519   -0.806159   -0.027843
| 12> C         1.603885    0.063914   -0.018429
| 13> H         2.798461   -1.443981   -0.910655
| 14> H         2.787660   -1.456877    0.846322
| 15> H         3.707161   -0.192565   -0.012692
| 16> O         0.465456   -0.656413   -0.134865
| 17> O         1.606554    1.262602    0.074112
| 18> P        -1.028430   -0.031338    0.108896
| 19> O        -1.425114   -0.101782    1.503027
| 20> O        -1.882431   -0.900127   -0.885279
| 21> H        -2.515544   -1.457634   -0.418270
| 22> O        -0.977727    1.353063   -0.614624
| 23> H        -0.143620    1.815850   -0.399473
| 24> *
| 25>
| 26> $new_job
| 27> ! ri-mp2 aug-cc-pvtz aug-cc-pvtz/c tightscf
| 28> %pal nprocs 16 end
| 29> %maxcore 3800
| 30> %base "TZ_P-O_19_AB"
| 31>
| 32> *xyz 0 1
| 33> C         2.812519   -0.806159   -0.027843
| 34> C         1.603885    0.063914   -0.018429
| 35> H         2.798461   -1.443981   -0.910655
| 36> H         2.787660   -1.456877    0.846322
| 37> H         3.707161   -0.192565   -0.012692
| 38> O         0.465456   -0.656413   -0.134865
| 39> O         1.606554    1.262602    0.074112
| 40> P        -1.028430   -0.031338    0.108896
| 41> O        -1.425114   -0.101782    1.503027
| 42> O        -1.882431   -0.900127   -0.885279
| 43> H        -2.515544   -1.457634   -0.418270
| 44> O        -0.977727    1.353063   -0.614624
| 45> H        -0.143620    1.815850   -0.399473
| 46> *
| 47>
| 48> $new_job
| 49> ! ri-mp2 aug-cc-pvqz aug-cc-pvqz/c tightscf
| 50> %pal nprocs 16 end
| 51> %maxcore 3800
| 52> %base "QZ_P-O_19_AB"
| 53>
| 54> *xyz 0 1
| 55> C         2.812519   -0.806159   -0.027843
| 56> C         1.603885    0.063914   -0.018429
| 57> H         2.798461   -1.443981   -0.910655
| 58> H         2.787660   -1.456877    0.846322
| 59> H         3.707161   -0.192565   -0.012692
| 60> O         0.465456   -0.656413   -0.134865
| 61> O         1.606554    1.262602    0.074112
| 62> P        -1.028430   -0.031338    0.108896
| 63> O        -1.425114   -0.101782    1.503027
| 64> O        -1.882431   -0.900127   -0.885279
| 65> H        -2.515544   -1.457634   -0.418270
| 66> O        -0.977727    1.353063   -0.614624
| 67> H        -0.143620    1.815850   -0.399473
| 68> *
| 69>
| 70>
| 71>
| 72>
| 73>                          ****END OF INPUT****
 Total Charge           Charge          ....    0
 Multiplicity           Mult            ....    1
 Number of Electrons    NEL             ....   72
MP2 TOTAL ENERGY:     -795.267932251 Eh
FINAL SINGLE POINT ENERGY      -795.267932250876
MP2 TOTAL ENERGY:     -795.741115108 Eh
FINAL SINGLE POINT ENERGY      -795.741115108460

CARTESIAN COORDINATES (ANGSTROEM)
---------------------------------
  C      2.812519   -0.806159   -0.027843
  C      1.603885    0.063914   -0.018429
  H      2.798461   -1.443981   -0.910655
  H      2.787660   -1.456877    0.846322
  H      3.707161   -0.192565   -0.012692
  O      0.465456   -0.656413   -0.134865
  O      1.606554    1.262602    0.074112
  P     -1.028430   -0.031338    0.108896
  O     -1.425114   -0.101782    1.503027
  O     -1.882431   -0.900127   -0.885279
  H     -2.515544   -1.457634   -0.418270
  O     -0.977727    1.353063   -0.614624
  H     -0.143620    1.815850   -0.399473

 Multiplicity           Mult            ....    1
 Number of Electrons    NEL             ....   72
 Basis Dimension        Dim             ....  874

ORBITAL ENERGIES
----------------

  NO   OCC          E(Eh)            E(eV)
   0   2.0000     -80.110934     -2179.9294
   1   2.0000     -20.633778      -561.4737
   2   2.0000     -20.617091      -561.0196
   3   2.0000     -20.603073      -560.6381
   4   2.0000     -20.585701      -560.1654
   5   2.0000     -20.518519      -558.3373
   6   2.0000     -11.427126      -310.9479
   7   2.0000     -11.264576      -306.5247
   8   2.0000      -7.628951      -207.5943
   9   2.0000      -5.528113      -150.4276
  10   2.0000      -5.527649      -150.4150
  11   2.0000      -5.525984      -150.3697
  12   2.0000      -1.514298       -41.2061
  13   2.0000      -1.451288       -39.4916
  14   2.0000      -1.402010       -38.1506
  15   2.0000      -1.398396       -38.0523
  16   2.0000      -1.314869       -35.7794
  17   2.0000      -1.057966       -28.7887
  18   2.0000      -0.909283       -24.7428
  19   2.0000      -0.832760       -22.6606
  20   2.0000      -0.749975       -20.4079
  21   2.0000      -0.733476       -19.9589
  22   2.0000      -0.731488       -19.9048
  23   2.0000      -0.696967       -18.9654
  24   2.0000      -0.675240       -18.3742
  25   2.0000      -0.653543       -17.7838
  26   2.0000      -0.611044       -16.6274
  27   2.0000      -0.606936       -16.5156
  28   2.0000      -0.597806       -16.2671
  29   2.0000      -0.580003       -15.7827
  30   2.0000      -0.571346       -15.5471
  31   2.0000      -0.550972       -14.9927
  32   2.0000      -0.529717       -14.4143
  33   2.0000      -0.494159       -13.4467
  34   2.0000      -0.481518       -13.1028
  35   2.0000      -0.478124       -13.0104
  36   0.0000       0.019776         0.5381
  37   0.0000       0.029852         0.8123
  38   0.0000       0.038513         1.0480
  39   0.0000       0.038980         1.0607
  40   0.0000       0.047583         1.2948

MULLIKEN ATOMIC CHARGES
-----------------------
   0 C :   -0.731657
   1 C :    0.905206
   2 H :    0.304693
   3 H :    0.299212
   4 H :    0.320737
   5 O :   -0.751751
   6 O :   -0.736650
   7 P :    2.564959
   8 O :   -1.091160
   9 O :   -0.925205
  10 H :    0.369279
  11 O :   -0.900640
  12 H :    0.372976
Sum of atomic charges:   -0.0000000

LOEWDIN ATOMIC CHARGES
----------------------
   0 C :    0.883114
   1 C :   -1.070261
   2 H :   -0.297403
   3 H :   -0.292715
   4 H :   -0.313561
   5 O :    0.683991
   6 O :    0.794370
   7 P :   -0.950648
   8 O :    0.297572
   9 O :    1.094700
  10 H :   -0.863243
  11 O :    1.104455
  12 H :   -1.070372

  Mayer bond orders larger than 0.100000
B(  0-C ,  1-C ) :   0.8273 B(  0-C ,  2-H ) :   0.9087 B(  0-C ,  3-H ) :   0.9160
B(  0-C ,  4-H ) :   0.9617 B(  1-C ,  5-O ) :   1.0746 B(  1-C ,  6-O ) :   1.4588
B(  5-O ,  7-P ) :   0.6561 B(  7-P ,  8-O ) :   1.4201 B(  7-P ,  9-O ) :   0.5578
B(  7-P , 11-O ) :   0.7593 B(  9-O , 10-H ) :   0.9331 B( 11-O , 12-H ) :   0.8273

MP2 TOTAL ENERGY:     -795.894804205 Eh
FINAL SINGLE POINT ENERGY      -795.894804205071

DIPOLE MOMENT
-------------
                                X             Y             Z
Electronic contribution:     -6.33620       1.58687       0.22377
Nuclear contribution   :      7.31837      -2.59787      -0.96506
                        -----------------------------------------
Total Dipole Moment    :      0.98216      -1.01099      -0.74129
                        -----------------------------------------
Magnitude (a.u.)       :      1.59256
Magnitude (Debye)      :      4.04797

Rotational constants in cm-1:     0.112650     0.042041     0.038675
Rotational constants in MHz :  3377.175757  1260.368284  1159.440625

                             ****ORCA TERMINATED NORMALLY****
TOTAL RUN TIME: 0 days 1 hours 3 minutes 35 seconds 54 msec
