                         Program Version 5.0.4 -  RELEASE  -
|  1> ! ri-mp2 aug-cc-pvdz aug-cc-pvdz/c tightscf
|  2> %pal nprocs 16 end
|  3> %maxcore 3800
|  4> %base "DZ_P-Si_3_AB"
|  5> %scf
|  6> STABPerform true
|  7> STABRestartUHFifUnstable true
|  8> end
|  9>
| 10> *xyz 0 1
| 11> Si         0.792534   -1.147409   -0.229959
| 12> P        -1.015329    0.190022   -0.028880
| 13> O        -0.907167    1.536548   -0.608991
| 14> O        -1.272211    0.152325    1.549000
| 15> C         2.269069   -0.251268    0.478263
| 16> C         2.633246    1.031954   -0.271050
| 17> H         1.800639    1.735111   -0.286650
| 18> H         2.899629    0.821317   -1.307744
| 19> H         3.486249    1.526760    0.194043
| 20> H         3.112805   -0.946626    0.480832
| 21> H         2.054716   -0.034363    1.527770
| 22> O        -2.268416   -0.622617   -0.623146
| 23> H        -2.646444   -0.165379   -1.384297
| 24> H        -1.834706    0.872016    1.863703
| 25> H         0.929332   -1.393251   -1.681831
| 26> H         0.500705   -2.416345    0.468628
| 27> *
| 28>
| 29> $new_job
| 30> ! ri-mp2 aug-cc-pvtz aug-cc-pvtz/c tightscf
| 31> %pal nprocs 16 end
| 32> %maxcore 3800
| 33> %base "TZ_P-Si_3_AB"
| 34>
| 35> *xyz 0 1
| 36> Si         0.792534   -1.147409   -0.229959
| 37> P        -1.015329    0.190022   -0.028880
| 38> O        -0.907167    1.536548   -0.608991
| 39> O        -1.272211    0.152325    1.549000
| 40> C         2.269069   -0.251268    0.478263
| 41> C         2.633246    1.031954   -0.271050
| 42> H         1.800639    1.735111   -0.286650
| 43> H         2.899629    0.821317   -1.307744
| 44> H         3.486249    1.526760    0.194043
| 45> H         3.112805   -0.946626    0.480832
| 46> H         2.054716   -0.034363    1.527770
| 47> O        -2.268416   -0.622617   -0.623146
| 48> H        -2.646444   -0.165379   -1.384297
| 49> H        -1.834706    0.872016    1.863703
| 50> H         0.929332   -1.393251   -1.681831
| 51> H         0.500705   -2.416345    0.468628
| 52> *
| 53>
| 54> $new_job
| 55> ! ri-mp2 aug-cc-pvqz aug-cc-pvqz/c tightscf
| 56> %pal nprocs 16 end
| 57> %maxcore 3800
| 58> %base "QZ_P-Si_3_AB"
| 59>
| 60> *xyz 0 1
| 61> Si         0.792534   -1.147409   -0.229959
| 62> P        -1.015329    0.190022   -0.028880
| 63> O        -0.907167    1.536548   -0.608991
| 64> O        -1.272211    0.152325    1.549000
| 65> C         2.269069   -0.251268    0.478263
| 66> C         2.633246    1.031954   -0.271050
| 67> H         1.800639    1.735111   -0.286650
| 68> H         2.899629    0.821317   -1.307744
| 69> H         3.486249    1.526760    0.194043
| 70> H         3.112805   -0.946626    0.480832
| 71> H         2.054716   -0.034363    1.527770
| 72> O        -2.268416   -0.622617   -0.623146
| 73> H        -2.646444   -0.165379   -1.384297
| 74> H        -1.834706    0.872016    1.863703
| 75> H         0.929332   -1.393251   -1.681831
| 76> H         0.500705   -2.416345    0.468628
| 77> *
| 78>
| 79>
| 80>
| 81>
| 82>                          ****END OF INPUT****
 Total Charge           Charge          ....    0
 Multiplicity           Mult            ....    1
 Number of Electrons    NEL             ....   74
MP2 TOTAL ENERGY:     -936.489207870 Eh
FINAL SINGLE POINT ENERGY      -936.489207870400
MP2 TOTAL ENERGY:     -936.872029071 Eh
FINAL SINGLE POINT ENERGY      -936.872029071294

CARTESIAN COORDINATES (ANGSTROEM)
---------------------------------
  Si     0.792534   -1.147409   -0.229959
  P     -1.015329    0.190022   -0.028880
  O     -0.907167    1.536548   -0.608991
  O     -1.272211    0.152325    1.549000
  C      2.269069   -0.251268    0.478263
  C      2.633246    1.031954   -0.271050
  H      1.800639    1.735111   -0.286650
  H      2.899629    0.821317   -1.307744
  H      3.486249    1.526760    0.194043
  H      3.112805   -0.946626    0.480832
  H      2.054716   -0.034363    1.527770
  O     -2.268416   -0.622617   -0.623146
  H     -2.646444   -0.165379   -1.384297
  H     -1.834706    0.872016    1.863703
  H      0.929332   -1.393251   -1.681831
  H      0.500705   -2.416345    0.468628

 Multiplicity           Mult            ....    1
 Number of Electrons    NEL             ....   74
 Basis Dimension        Dim             ....  982

ORBITAL ENERGIES
----------------

  NO   OCC          E(Eh)            E(eV)
   0   2.0000     -80.056521     -2178.4487
   1   2.0000     -68.781406     -1871.6372
   2   2.0000     -20.597202      -560.4784
   3   2.0000     -20.593523      -560.3783
   4   2.0000     -20.502584      -557.9037
   5   2.0000     -11.222322      -305.3749
   6   2.0000     -11.218246      -305.2640
   7   2.0000      -7.580537      -206.2769
   8   2.0000      -6.132236      -166.8666
   9   2.0000      -5.478366      -149.0739
  10   2.0000      -5.477685      -149.0554
  11   2.0000      -5.476616      -149.0263
  12   2.0000      -4.238682      -115.3404
  13   2.0000      -4.238298      -115.3299
  14   2.0000      -4.237766      -115.3155
  15   2.0000      -1.429407       -38.8961
  16   2.0000      -1.379814       -37.5466
  17   2.0000      -1.292370       -35.1672
  18   2.0000      -1.030877       -28.0516
  19   2.0000      -0.867733       -23.6122
  20   2.0000      -0.847317       -23.0567
  21   2.0000      -0.739927       -20.1344
  22   2.0000      -0.716841       -19.5062
  23   2.0000      -0.668876       -18.2010
  24   2.0000      -0.634145       -17.2560
  25   2.0000      -0.622200       -16.9309
  26   2.0000      -0.604092       -16.4382
  27   2.0000      -0.582224       -15.8431
  28   2.0000      -0.556212       -15.1353
  29   2.0000      -0.547733       -14.9046
  30   2.0000      -0.526129       -14.3167
  31   2.0000      -0.503424       -13.6989
  32   2.0000      -0.500345       -13.6151
  33   2.0000      -0.485008       -13.1977
  34   2.0000      -0.461617       -12.5612
  35   2.0000      -0.444999       -12.1091
  36   2.0000      -0.413908       -11.2630
  37   0.0000       0.021823         0.5938
  38   0.0000       0.030275         0.8238
  39   0.0000       0.031500         0.8572
  40   0.0000       0.036988         1.0065
  41   0.0000       0.044626         1.2143

MULLIKEN ATOMIC CHARGES
-----------------------
   0 Si:    0.921155
   1 P :    2.198178
   2 O :   -1.244627
   3 O :   -0.887089
   4 C :   -0.534055
   5 C :   -0.930024
   6 H :    0.313655
   7 H :    0.231563
   8 H :    0.331436
   9 H :    0.237163
  10 H :    0.207322
  11 O :   -1.001842
  12 H :    0.386080
  13 H :    0.360349
  14 H :   -0.283579
  15 H :   -0.305687
Sum of atomic charges:    0.0000000

LOEWDIN ATOMIC CHARGES
----------------------
   0 Si:    0.770692
   1 P :   -0.648639
   2 O :    0.261872
   3 O :    1.046461
   4 C :    0.473861
   5 C :    0.850123
   6 H :   -0.325150
   7 H :   -0.293972
   8 H :   -0.281733
   9 H :   -0.340659
  10 H :   -0.341819
  11 O :    1.048883
  12 H :   -0.892487
  13 H :   -0.858852
  14 H :   -0.231635
  15 H :   -0.236944

  Mayer bond orders larger than 0.100000
B(  0-Si,  1-P ) :   0.8757 B(  0-Si,  4-C ) :   0.8099 B(  0-Si, 14-H ) :   0.7739
B(  0-Si, 15-H ) :   0.7520 B(  1-P ,  2-O ) :   1.3262 B(  1-P ,  3-O ) :   0.5768
B(  1-P , 11-O ) :   0.4888 B(  3-O , 13-H ) :   0.9194 B(  4-C ,  5-C ) :   0.9605
B(  4-C ,  9-H ) :   0.9301 B(  4-C , 10-H ) :   0.9334 B(  5-C ,  6-H ) :   0.8895
B(  5-C ,  7-H ) :   0.9547 B(  5-C ,  8-H ) :   0.9147 B( 11-O , 12-H ) :   0.9033

MP2 TOTAL ENERGY:     -936.994354250 Eh
FINAL SINGLE POINT ENERGY      -936.994354249683

DIPOLE MOMENT
-------------
                                X             Y             Z
Electronic contribution:    -10.89716      -0.42234       0.33942
Nuclear contribution   :     11.05829      -0.09447      -0.07843
                        -----------------------------------------
Total Dipole Moment    :      0.16112      -0.51681       0.26099
                        -----------------------------------------
Magnitude (a.u.)       :      0.60098
Magnitude (Debye)      :      1.52756

Rotational constants in cm-1:     0.093585     0.038892     0.035383
Rotational constants in MHz :  2805.610918  1165.947703  1060.755705

                             ****ORCA TERMINATED NORMALLY****
TOTAL RUN TIME: 0 days 2 hours 32 minutes 31 seconds 484 msec
