                         Program Version 5.0.4 -  RELEASE  -
|  1> ! ri-mp2 aug-cc-pvdz aug-cc-pvdz/c tightscf
|  2> %pal nprocs 16 end
|  3> %maxcore 3800
|  4> %base "DZ_S-Cl_64_A"
|  5> %scf
|  6> STABPerform true
|  7> STABRestartUHFifUnstable true
|  8> end
|  9>
| 10> *xyz 0 2
| 11> S        -0.991109   -1.291938   -0.100451
| 12> C        -0.215444    0.376269    0.044167
| 13> O         0.967485    0.349512   -0.695822
| 14> O        -0.023685    0.653554    1.395755
| 15> C         2.074950   -0.330571   -0.134586
| 16> H         2.467200    0.207774    0.729854
| 17> H         2.835727   -0.360477   -0.909681
| 18> H         1.816956   -1.352743    0.150935
| 19> C        -1.074455    1.468131   -0.538211
| 20> H        -1.204701    1.304312   -1.604699
| 21> H        -0.579408    2.425125   -0.376311
| 22> H        -2.046810    1.473863   -0.051902
| 23> H         0.308079   -0.134348    1.841341
| 24> *
| 25>
| 26> $new_job
| 27> ! ri-mp2 aug-cc-pvtz aug-cc-pvtz/c tightscf
| 28> %pal nprocs 16 end
| 29> %maxcore 3800
| 30> %base "TZ_S-Cl_64_A"
| 31>
| 32> *xyz 0 2
| 33> S        -0.991109   -1.291938   -0.100451
| 34> C        -0.215444    0.376269    0.044167
| 35> O         0.967485    0.349512   -0.695822
| 36> O        -0.023685    0.653554    1.395755
| 37> C         2.074950   -0.330571   -0.134586
| 38> H         2.467200    0.207774    0.729854
| 39> H         2.835727   -0.360477   -0.909681
| 40> H         1.816956   -1.352743    0.150935
| 41> C        -1.074455    1.468131   -0.538211
| 42> H        -1.204701    1.304312   -1.604699
| 43> H        -0.579408    2.425125   -0.376311
| 44> H        -2.046810    1.473863   -0.051902
| 45> H         0.308079   -0.134348    1.841341
| 46> *
| 47>
| 48> $new_job
| 49> ! ri-mp2 aug-cc-pvqz aug-cc-pvqz/c tightscf
| 50> %pal nprocs 16 end
| 51> %maxcore 3800
| 52> %base "QZ_S-Cl_64_A"
| 53>
| 54> *xyz 0 2
| 55> S        -0.991109   -1.291938   -0.100451
| 56> C        -0.215444    0.376269    0.044167
| 57> O         0.967485    0.349512   -0.695822
| 58> O        -0.023685    0.653554    1.395755
| 59> C         2.074950   -0.330571   -0.134586
| 60> H         2.467200    0.207774    0.729854
| 61> H         2.835727   -0.360477   -0.909681
| 62> H         1.816956   -1.352743    0.150935
| 63> C        -1.074455    1.468131   -0.538211
| 64> H        -1.204701    1.304312   -1.604699
| 65> H        -0.579408    2.425125   -0.376311
| 66> H        -2.046810    1.473863   -0.051902
| 67> H         0.308079   -0.134348    1.841341
| 68> *
| 69>
| 70>
| 71>
| 72>
| 73>                          ****END OF INPUT****
 Total Charge           Charge          ....    0
 Multiplicity           Mult            ....    2
 Number of Electrons    NEL             ....   57
MP2 TOTAL ENERGY:     -665.899503245 Eh
FINAL SINGLE POINT ENERGY      -665.899503245408
MP2 TOTAL ENERGY:     -666.184778042 Eh
FINAL SINGLE POINT ENERGY      -666.184778041739

CARTESIAN COORDINATES (ANGSTROEM)
---------------------------------
  S     -0.991109   -1.291938   -0.100451
  C     -0.215444    0.376269    0.044167
  O      0.967485    0.349512   -0.695822
  O     -0.023685    0.653554    1.395755
  C      2.074950   -0.330571   -0.134586
  H      2.467200    0.207774    0.729854
  H      2.835727   -0.360477   -0.909681
  H      1.816956   -1.352743    0.150935
  C     -1.074455    1.468131   -0.538211
  H     -1.204701    1.304312   -1.604699
  H     -0.579408    2.425125   -0.376311
  H     -2.046810    1.473863   -0.051902
  H      0.308079   -0.134348    1.841341

 Multiplicity           Mult            ....    2
 Number of Electrons    NEL             ....   57
 Basis Dimension        Dim             ....  806

ORBITAL ENERGIES
----------------
                 SPIN UP ORBITALS
  NO   OCC          E(Eh)            E(eV)
   0   1.0000     -91.973111     -2502.7156
   1   1.0000     -20.585267      -560.1536
   2   1.0000     -20.577524      -559.9429
   3   1.0000     -11.382300      -309.7281
   4   1.0000     -11.281096      -306.9742
   5   1.0000     -11.221417      -305.3503
   6   1.0000      -8.976140      -244.2532
   7   1.0000      -6.672143      -181.5582
   8   1.0000      -6.653396      -181.0481
   9   1.0000      -6.651996      -181.0100
  10   1.0000      -1.443888       -39.2902
  11   1.0000      -1.366060       -37.1724
  12   1.0000      -1.059725       -28.8366
  13   1.0000      -0.970412       -26.4063
  14   1.0000      -0.937792       -25.5186
  15   1.0000      -0.809412       -22.0252
  16   1.0000      -0.734224       -19.9793
  17   1.0000      -0.671898       -18.2833
  18   1.0000      -0.667608       -18.1665
  19   1.0000      -0.633494       -17.2383
  20   1.0000      -0.588306       -16.0086
  21   1.0000      -0.559942       -15.2368
  22   1.0000      -0.544180       -14.8079
  23   1.0000      -0.529272       -14.4022
  24   1.0000      -0.522859       -14.2277
  25   1.0000      -0.488333       -13.2882
  26   1.0000      -0.447491       -12.1768
  27   1.0000      -0.426726       -11.6118
  28   1.0000      -0.385226       -10.4825
  29   0.0000       0.025409         0.6914
  30   0.0000       0.034718         0.9447
  31   0.0000       0.035691         0.9712
  32   0.0000       0.040464         1.1011
  33   0.0000       0.052008         1.4152

                 SPIN DOWN ORBITALS
  NO   OCC          E(Eh)            E(eV)
   0   1.0000     -91.963873     -2502.4642
   1   1.0000     -20.584458      -560.1316
   2   1.0000     -20.576227      -559.9076
   3   1.0000     -11.383481      -309.7603
   4   1.0000     -11.281114      -306.9747
   5   1.0000     -11.221352      -305.3485
   6   1.0000      -8.965976      -243.9766
   7   1.0000      -6.648074      -180.9033
   8   1.0000      -6.646661      -180.8648
   9   1.0000      -6.630575      -180.4271
  10   1.0000      -1.441442       -39.2236
  11   1.0000      -1.363082       -37.0914
  12   1.0000      -1.049595       -28.5609
  13   1.0000      -0.937197       -25.5024
  14   1.0000      -0.907458       -24.6932
  15   1.0000      -0.800042       -21.7702
  16   1.0000      -0.727860       -19.8061
  17   1.0000      -0.667143       -18.1539
  18   1.0000      -0.656020       -17.8512
  19   1.0000      -0.624188       -16.9850
  20   1.0000      -0.587060       -15.9747
  21   1.0000      -0.557750       -15.1772
  22   1.0000      -0.542752       -14.7690
  23   1.0000      -0.526026       -14.3139
  24   1.0000      -0.519116       -14.1259
  25   1.0000      -0.482026       -13.1166
  26   1.0000      -0.418125       -11.3778
  27   1.0000      -0.365855        -9.9554
  28   0.0000       0.011905         0.3239
  29   0.0000       0.025633         0.6975
  30   0.0000       0.034835         0.9479
  31   0.0000       0.038266         1.0413
  32   0.0000       0.040941         1.1141

MULLIKEN ATOMIC CHARGES AND SPIN POPULATIONS
--------------------------------------------
   0 S :   -0.231014    1.137165
   1 C :    1.391646   -0.155370
   2 O :   -0.797950    0.008705
   3 O :   -0.915026    0.007908
   4 C :   -0.641164   -0.001225
   5 H :    0.273483   -0.000750
   6 H :    0.417258    0.000141
   7 H :    0.261343   -0.001050
   8 C :   -1.023995    0.012226
   9 H :    0.294500   -0.001200
  10 H :    0.270152   -0.000393
  11 H :    0.296785   -0.003537
  12 H :    0.403982   -0.002619
Sum of atomic charges         :    0.0000000

LOEWDIN ATOMIC CHARGES AND SPIN POPULATIONS
-------------------------------------------
   0 S :    1.070695    0.754143
   1 C :   -1.565937    0.162824
   2 O :    0.798926    0.028151
   3 O :    1.216961    0.017463
   4 C :    0.529656    0.008056
   5 H :   -0.317714   -0.000092
   6 H :   -0.322873    0.000179
   7 H :   -0.359232    0.006367
   8 C :    0.744316    0.010244
   9 H :   -0.318221    0.000462
  10 H :   -0.295202   -0.000429
  11 H :   -0.318583    0.003466
  12 H :   -0.862791    0.009167

  Mayer bond orders larger than 0.100000
B(  0-S ,  1-C ) :   0.7517 B(  1-C ,  2-O ) :   0.6279 B(  1-C ,  3-O ) :   0.4602
B(  1-C ,  8-C ) :   0.7309 B(  2-O ,  4-C ) :   0.8980 B(  3-O ,  8-C ) :   0.1025
B(  3-O , 12-H ) :   0.8158 B(  4-C ,  5-H ) :   0.9230 B(  4-C ,  6-H ) :   0.8434
B(  4-C ,  7-H ) :   0.9114 B(  8-C ,  9-H ) :   0.9620 B(  8-C , 10-H ) :   0.9282
B(  8-C , 11-H ) :   0.9747

MP2 TOTAL ENERGY:     -666.276124196 Eh
FINAL SINGLE POINT ENERGY      -666.276124195572

DIPOLE MOMENT
-------------
                                X             Y             Z
Electronic contribution:     -3.17616      -3.80171       0.43981
Nuclear contribution   :      3.63921       3.61591      -0.20614
                        -----------------------------------------
Total Dipole Moment    :      0.46305      -0.18580       0.23366
                        -----------------------------------------
Magnitude (a.u.)       :      0.55094
Magnitude (Debye)      :      1.40039

Rotational constants in cm-1:     0.111476     0.089354     0.070417
Rotational constants in MHz :  3341.978764  2678.751181  2111.046670

                             ****ORCA TERMINATED NORMALLY****
TOTAL RUN TIME: 0 days 2 hours 44 minutes 21 seconds 247 msec
