                         Program Version 5.0.4 -  RELEASE  -
|  1> ! ri-mp2 aug-cc-pvdz aug-cc-pvdz/c tightscf
|  2> %pal nprocs 16 end
|  3> %maxcore 3800
|  4> %base "DZ_P-Si_61_AB"
|  5> %scf
|  6> STABPerform true
|  7> STABRestartUHFifUnstable true
|  8> end
|  9>
| 10> *xyz 0 1
| 11> P        -0.492755    0.000000   -0.645055
| 12> C        -1.150607   -1.419750    0.341342
| 13> H        -0.946034   -1.332818    1.409099
| 14> H        -0.719130   -2.350784   -0.025293
| 15> H        -2.229793   -1.478413    0.198146
| 16> Si         1.619718    0.000000    0.113354
| 17> C        -1.150607    1.419751    0.341341
| 18> H        -2.229793    1.478413    0.198146
| 19> H        -0.719130    2.350784   -0.025294
| 20> H        -0.946034    1.332819    1.409099
| 21> H         2.320544   -1.205138   -0.384172
| 22> H         1.671390    0.000000    1.597223
| 23> H         2.320544    1.205138   -0.384172
| 24> *
| 25>
| 26> $new_job
| 27> ! ri-mp2 aug-cc-pvtz aug-cc-pvtz/c tightscf
| 28> %pal nprocs 16 end
| 29> %maxcore 3800
| 30> %base "TZ_P-Si_61_AB"
| 31>
| 32> *xyz 0 1
| 33> P        -0.492755    0.000000   -0.645055
| 34> C        -1.150607   -1.419750    0.341342
| 35> H        -0.946034   -1.332818    1.409099
| 36> H        -0.719130   -2.350784   -0.025293
| 37> H        -2.229793   -1.478413    0.198146
| 38> Si         1.619718    0.000000    0.113354
| 39> C        -1.150607    1.419751    0.341341
| 40> H        -2.229793    1.478413    0.198146
| 41> H        -0.719130    2.350784   -0.025294
| 42> H        -0.946034    1.332819    1.409099
| 43> H         2.320544   -1.205138   -0.384172
| 44> H         1.671390    0.000000    1.597223
| 45> H         2.320544    1.205138   -0.384172
| 46> *
| 47>
| 48> $new_job
| 49> ! ri-mp2 aug-cc-pvqz aug-cc-pvqz/c tightscf
| 50> %pal nprocs 16 end
| 51> %maxcore 3800
| 52> %base "QZ_P-Si_61_AB"
| 53>
| 54> *xyz 0 1
| 55> P        -0.492755    0.000000   -0.645055
| 56> C        -1.150607   -1.419750    0.341342
| 57> H        -0.946034   -1.332818    1.409099
| 58> H        -0.719130   -2.350784   -0.025293
| 59> H        -2.229793   -1.478413    0.198146
| 60> Si         1.619718    0.000000    0.113354
| 61> C        -1.150607    1.419751    0.341341
| 62> H        -2.229793    1.478413    0.198146
| 63> H        -0.719130    2.350784   -0.025294
| 64> H        -0.946034    1.332819    1.409099
| 65> H         2.320544   -1.205138   -0.384172
| 66> H         1.671390    0.000000    1.597223
| 67> H         2.320544    1.205138   -0.384172
| 68> *
| 69>
| 70>
| 71>
| 72>
| 73>                          ****END OF INPUT****
 Total Charge           Charge          ....    0
 Multiplicity           Mult            ....    1
 Number of Electrons    NEL             ....   50
MP2 TOTAL ENERGY:     -711.200282485 Eh
FINAL SINGLE POINT ENERGY      -711.200282484837
MP2 TOTAL ENERGY:     -711.364426756 Eh
FINAL SINGLE POINT ENERGY      -711.364426756124

CARTESIAN COORDINATES (ANGSTROEM)
---------------------------------
  P     -0.492755    0.000000   -0.645055
  C     -1.150607   -1.419750    0.341342
  H     -0.946034   -1.332818    1.409099
  H     -0.719130   -2.350784   -0.025293
  H     -2.229793   -1.478413    0.198146
  Si     1.619718    0.000000    0.113354
  C     -1.150607    1.419751    0.341341
  H     -2.229793    1.478413    0.198146
  H     -0.719130    2.350784   -0.025294
  H     -0.946034    1.332819    1.409099
  H      2.320544   -1.205138   -0.384172
  H      1.671390    0.000000    1.597223
  H      2.320544    1.205138   -0.384172

 Multiplicity           Mult            ....    1
 Number of Electrons    NEL             ....   50
 Basis Dimension        Dim             ....  742

ORBITAL ENERGIES
----------------

  NO   OCC          E(Eh)            E(eV)
   0   2.0000     -79.924674     -2174.8609
   1   2.0000     -68.768827     -1871.2949
   2   2.0000     -11.227012      -305.5025
   3   2.0000     -11.227003      -305.5023
   4   2.0000      -7.467743      -203.2076
   5   2.0000      -6.118959      -166.5053
   6   2.0000      -5.361784      -145.9016
   7   2.0000      -5.361764      -145.9010
   8   2.0000      -5.360803      -145.8749
   9   2.0000      -4.225018      -114.9686
  10   2.0000      -4.224984      -114.9677
  11   2.0000      -4.224881      -114.9648
  12   2.0000      -1.005715       -27.3669
  13   2.0000      -0.941600       -25.6222
  14   2.0000      -0.769464       -20.9382
  15   2.0000      -0.678995       -18.4764
  16   2.0000      -0.591383       -16.0923
  17   2.0000      -0.584490       -15.9048
  18   2.0000      -0.563519       -15.3341
  19   2.0000      -0.558505       -15.1977
  20   2.0000      -0.489204       -13.3119
  21   2.0000      -0.485392       -13.2082
  22   2.0000      -0.460789       -12.5387
  23   2.0000      -0.417887       -11.3713
  24   2.0000      -0.330423        -8.9913
  25   0.0000       0.024597         0.6693
  26   0.0000       0.033239         0.9045
  27   0.0000       0.033466         0.9106
  28   0.0000       0.037632         1.0240
  29   0.0000       0.047884         1.3030

MULLIKEN ATOMIC CHARGES
-----------------------
   0 P :    0.412607
   1 C :   -1.171399
   2 H :    0.285426
   3 H :    0.344960
   4 H :    0.355353
   5 Si:    0.561117
   6 C :   -1.171399
   7 H :    0.355353
   8 H :    0.344961
   9 H :    0.285425
  10 H :   -0.214167
  11 H :   -0.174069
  12 H :   -0.214167
Sum of atomic charges:    0.0000000

LOEWDIN ATOMIC CHARGES
----------------------
   0 P :    0.819384
   1 C :    0.691034
   2 H :   -0.361614
   3 H :   -0.369721
   4 H :   -0.361723
   5 Si:    0.870218
   6 C :    0.691034
   7 H :   -0.361724
   8 H :   -0.369722
   9 H :   -0.361613
  10 H :   -0.302899
  11 H :   -0.279755
  12 H :   -0.302899

  Mayer bond orders larger than 0.100000
B(  0-P ,  1-C ) :   0.8470 B(  0-P ,  5-Si) :   0.8383 B(  0-P ,  6-C ) :   0.8470
B(  1-C ,  2-H ) :   0.9089 B(  1-C ,  3-H ) :   0.8841 B(  1-C ,  4-H ) :   0.8756
B(  5-Si, 10-H ) :   0.7456 B(  5-Si, 11-H ) :   0.7561 B(  5-Si, 12-H ) :   0.7456
B(  6-C ,  7-H ) :   0.8756 B(  6-C ,  8-H ) :   0.8841 B(  6-C ,  9-H ) :   0.9089

MP2 TOTAL ENERGY:     -711.414568188 Eh
FINAL SINGLE POINT ENERGY      -711.414568188269

DIPOLE MOMENT
-------------
                                X             Y             Z
Electronic contribution:      0.88071       0.00000      -4.21291
Nuclear contribution   :     -1.12749      -0.00000       4.68757
                        -----------------------------------------
Total Dipole Moment    :     -0.24678       0.00000       0.47466
                        -----------------------------------------
Magnitude (a.u.)       :      0.53498
Magnitude (Debye)      :      1.35981

Rotational constants in cm-1:     0.180924     0.103861     0.080241
Rotational constants in MHz :  5423.974534  3113.682455  2405.552549

                             ****ORCA TERMINATED NORMALLY****
TOTAL RUN TIME: 0 days 0 hours 31 minutes 48 seconds 879 msec
