                         Program Version 5.0.4 -  RELEASE  -
|  1> ! ri-mp2 aug-cc-pvdz aug-cc-pvdz/c tightscf
|  2> %pal nprocs 16 end
|  3> %maxcore 3800
|  4> %base "DZ_S-S_10_AB"
|  5>
|  6> *xyz 0 1
|  7> C         3.357990   -0.493415   -0.436061
|  8> O         2.738754   -1.447865   -0.789533
|  9> S         2.774653    0.653086    0.832985
| 10> S         0.975845   -0.157838    1.300162
| 11> C        -0.002575    0.310724   -0.143843
| 12> O         0.405507    0.999398   -1.024303
| 13> C         4.675633   -0.065284   -1.014221
| 14> H         5.239776   -0.949335   -1.302910
| 15> H         5.252193    0.543893   -0.320298
| 16> H         4.473353    0.527028   -1.907935
| 17> C        -1.359995   -0.304135   -0.090100
| 18> C        -1.467199   -1.687024   -0.002524
| 19> C        -2.706768   -2.298270    0.000350
| 20> C        -3.851837   -1.524416   -0.064851
| 21> C        -3.760967   -0.145778   -0.136981
| 22> C        -2.519134    0.461670   -0.154911
| 23> H        -2.776485   -3.375614    0.054266
| 24> H        -4.649390    0.467647   -0.177781
| 25> H        -0.563274   -2.279353    0.041721
| 26> H        -4.826833   -1.992556   -0.057304
| 27> Cl        -2.441310    2.188096   -0.217092
| 28> *
| 29>
| 30> $new_job
| 31> ! ri-mp2 aug-cc-pvtz aug-cc-pvtz/c tightscf
| 32> %pal nprocs 16 end
| 33> %maxcore 3800
| 34> %base "TZ_S-S_10_AB"
| 35>
| 36> *xyz 0 1
| 37> C         3.357990   -0.493415   -0.436061
| 38> O         2.738754   -1.447865   -0.789533
| 39> S         2.774653    0.653086    0.832985
| 40> S         0.975845   -0.157838    1.300162
| 41> C        -0.002575    0.310724   -0.143843
| 42> O         0.405507    0.999398   -1.024303
| 43> C         4.675633   -0.065284   -1.014221
| 44> H         5.239776   -0.949335   -1.302910
| 45> H         5.252193    0.543893   -0.320298
| 46> H         4.473353    0.527028   -1.907935
| 47> C        -1.359995   -0.304135   -0.090100
| 48> C        -1.467199   -1.687024   -0.002524
| 49> C        -2.706768   -2.298270    0.000350
| 50> C        -3.851837   -1.524416   -0.064851
| 51> C        -3.760967   -0.145778   -0.136981
| 52> C        -2.519134    0.461670   -0.154911
| 53> H        -2.776485   -3.375614    0.054266
| 54> H        -4.649390    0.467647   -0.177781
| 55> H        -0.563274   -2.279353    0.041721
| 56> H        -4.826833   -1.992556   -0.057304
| 57> Cl        -2.441310    2.188096   -0.217092
| 58> *
| 59>
| 60> $new_job
| 61> ! ri-mp2 aug-cc-pvqz aug-cc-pvqz/c tightscf
| 62> %pal nprocs 16 end
| 63> %maxcore 3800
| 64> %base "QZ_S-S_10_AB"
| 65>
| 66> *xyz 0 1
| 67> C         3.357990   -0.493415   -0.436061
| 68> O         2.738754   -1.447865   -0.789533
| 69> S         2.774653    0.653086    0.832985
| 70> S         0.975845   -0.157838    1.300162
| 71> C        -0.002575    0.310724   -0.143843
| 72> O         0.405507    0.999398   -1.024303
| 73> C         4.675633   -0.065284   -1.014221
| 74> H         5.239776   -0.949335   -1.302910
| 75> H         5.252193    0.543893   -0.320298
| 76> H         4.473353    0.527028   -1.907935
| 77> C        -1.359995   -0.304135   -0.090100
| 78> C        -1.467199   -1.687024   -0.002524
| 79> C        -2.706768   -2.298270    0.000350
| 80> C        -3.851837   -1.524416   -0.064851
| 81> C        -3.760967   -0.145778   -0.136981
| 82> C        -2.519134    0.461670   -0.154911
| 83> H        -2.776485   -3.375614    0.054266
| 84> H        -4.649390    0.467647   -0.177781
| 85> H        -0.563274   -2.279353    0.041721
| 86> H        -4.826833   -1.992556   -0.057304
| 87> Cl        -2.441310    2.188096   -0.217092
| 88> *
| 89>
| 90>
| 91>
| 92>
| 93>                          ****END OF INPUT****
 Total Charge           Charge          ....    0
 Multiplicity           Mult            ....    1
 Number of Electrons    NEL             ....  126
MP2 TOTAL ENERGY:    -1751.283875951 Eh
FINAL SINGLE POINT ENERGY     -1751.283875950955
MP2 TOTAL ENERGY:    -1751.868729895 Eh
FINAL SINGLE POINT ENERGY     -1751.868729894693

CARTESIAN COORDINATES (ANGSTROEM)
---------------------------------
  C      3.357990   -0.493415   -0.436061
  O      2.738754   -1.447865   -0.789533
  S      2.774653    0.653086    0.832985
  S      0.975845   -0.157838    1.300162
  C     -0.002575    0.310724   -0.143843
  O      0.405507    0.999398   -1.024303
  C      4.675633   -0.065284   -1.014221
  H      5.239776   -0.949335   -1.302910
  H      5.252193    0.543893   -0.320298
  H      4.473353    0.527028   -1.907935
  C     -1.359995   -0.304135   -0.090100
  C     -1.467199   -1.687024   -0.002524
  C     -2.706768   -2.298270    0.000350
  C     -3.851837   -1.524416   -0.064851
  C     -3.760967   -0.145778   -0.136981
  C     -2.519134    0.461670   -0.154911
  H     -2.776485   -3.375614    0.054266
  H     -4.649390    0.467647   -0.177781
  H     -0.563274   -2.279353    0.041721
  H     -4.826833   -1.992556   -0.057304
  Cl    -2.441310    2.188096   -0.217092

 Multiplicity           Mult            ....    1
 Number of Electrons    NEL             ....  126
 Basis Dimension        Dim             .... 1454

ORBITAL ENERGIES
----------------

  NO   OCC          E(Eh)            E(eV)
   0   2.0000    -104.846139     -2853.0085
   1   2.0000     -91.998653     -2503.4106
   2   2.0000     -91.997229     -2503.3719
   3   2.0000     -20.570797      -559.7599
   4   2.0000     -20.567832      -559.6792
   5   2.0000     -11.376687      -309.5754
   6   2.0000     -11.373188      -309.4802
   7   2.0000     -11.320449      -308.0451
   8   2.0000     -11.273697      -306.7729
   9   2.0000     -11.263836      -306.5046
  10   2.0000     -11.261464      -306.4400
  11   2.0000     -11.258019      -306.3463
  12   2.0000     -11.253920      -306.2347
  13   2.0000     -11.252486      -306.1957
  14   2.0000     -10.571826      -287.6740
  15   2.0000      -9.000195      -244.9078
  16   2.0000      -8.998873      -244.8718
  17   2.0000      -8.038984      -218.7519
  18   2.0000      -8.037143      -218.7018
  19   2.0000      -8.037097      -218.7005
  20   2.0000      -6.681429      -181.8109
  21   2.0000      -6.680155      -181.7763
  22   2.0000      -6.679949      -181.7706
  23   2.0000      -6.679328      -181.7538
  24   2.0000      -6.678752      -181.7381
  25   2.0000      -6.678100      -181.7203
  26   2.0000      -1.427517       -38.8447
  27   2.0000      -1.422995       -38.7217
  28   2.0000      -1.212940       -33.0058
  29   2.0000      -1.136161       -30.9165
  30   2.0000      -1.101085       -29.9620
  31   2.0000      -1.068582       -29.0776
  32   2.0000      -1.034079       -28.1387
  33   2.0000      -1.016076       -27.6488
  34   2.0000      -0.941218       -25.6118
  35   2.0000      -0.877696       -23.8833
  36   2.0000      -0.844666       -22.9845
  37   2.0000      -0.783229       -21.3127
  38   2.0000      -0.743405       -20.2291
  39   2.0000      -0.708443       -19.2777
  40   2.0000      -0.683170       -18.5900
  41   2.0000      -0.672943       -18.3117
  42   2.0000      -0.663627       -18.0582
  43   2.0000      -0.652999       -17.7690
  44   2.0000      -0.637151       -17.3377
  45   2.0000      -0.627675       -17.0799
  46   2.0000      -0.618685       -16.8353
  47   2.0000      -0.605950       -16.4887
  48   2.0000      -0.581161       -15.8142
  49   2.0000      -0.566743       -15.4219
  50   2.0000      -0.552779       -15.0419
  51   2.0000      -0.549339       -14.9483
  52   2.0000      -0.532011       -14.4768
  53   2.0000      -0.522220       -14.2103
  54   2.0000      -0.489941       -13.3320
  55   2.0000      -0.479634       -13.0515
  56   2.0000      -0.464782       -12.6474
  57   2.0000      -0.435825       -11.8594
  58   2.0000      -0.432056       -11.7569
  59   2.0000      -0.397936       -10.8284
  60   2.0000      -0.376827       -10.2540
  61   2.0000      -0.367210        -9.9923
  62   2.0000      -0.349796        -9.5184
  63   0.0000       0.021612         0.5881
  64   0.0000       0.025281         0.6879
  65   0.0000       0.030435         0.8282
  66   0.0000       0.039246         1.0679
  67   0.0000       0.042491         1.1562

MULLIKEN ATOMIC CHARGES
-----------------------
   0 C :    0.609218
   1 O :   -0.812050
   2 S :    0.034514
   3 S :    0.011832
   4 C :    1.094480
   5 O :   -0.856287
   6 C :   -0.802805
   7 H :    0.299779
   8 H :    0.273531
   9 H :    0.323515
  10 C :    0.052068
  11 C :   -0.382532
  12 C :   -0.307732
  13 C :   -0.244736
  14 C :   -0.159435
  15 C :   -0.094367
  16 H :    0.277869
  17 H :    0.444901
  18 H :    0.338447
  19 H :    0.278289
  20 Cl:   -0.378499
Sum of atomic charges:   -0.0000000

LOEWDIN ATOMIC CHARGES
----------------------
   0 C :   -1.169279
   1 O :    0.626986
   2 S :    0.756423
   3 S :    0.766250
   4 C :   -1.263044
   5 O :    0.629642
   6 C :    0.776408
   7 H :   -0.314292
   8 H :   -0.345505
   9 H :   -0.302245
  10 C :   -0.402710
  11 C :    0.274437
  12 C :    0.358385
  13 C :    0.339918
  14 C :    0.204374
  15 C :   -0.870965
  16 H :   -0.315523
  17 H :   -0.357491
  18 H :   -0.336341
  19 H :   -0.313573
  20 Cl:    1.258144

  Mayer bond orders larger than 0.100000
B(  0-C ,  1-O ) :   1.4359 B(  0-C ,  2-S ) :   0.9213 B(  0-C ,  6-C ) :   0.8011
B(  2-S ,  3-S ) :   1.1279 B(  2-S ,  4-C ) :  -0.1133 B(  3-S ,  4-C ) :   0.9390
B(  4-C ,  5-O ) :   1.0903 B(  4-C , 10-C ) :   0.9499 B(  4-C , 11-C ) :  -0.1973
B(  4-C , 15-C ) :  -0.2402 B(  5-O , 10-C ) :   0.2654 B(  6-C ,  7-H ) :   0.9697
B(  6-C ,  8-H ) :   0.9813 B(  6-C ,  9-H ) :   0.8657 B( 10-C , 11-C ) :   1.1986
B( 10-C , 12-C ) :  -0.1553 B( 10-C , 14-C ) :  -0.1182 B( 10-C , 15-C ) :   0.9796
B( 10-C , 20-Cl) :  -0.1431 B( 11-C , 12-C ) :   1.1522 B( 11-C , 14-C ) :   0.1828
B( 11-C , 16-H ) :  -0.1040 B( 11-C , 18-H ) :   0.9518 B( 12-C , 13-C ) :   1.1870
B( 12-C , 15-C ) :   0.1080 B( 12-C , 16-H ) :   1.0597 B( 13-C , 14-C ) :   1.1327
B( 13-C , 19-H ) :   1.0786 B( 14-C , 15-C ) :   1.2828 B( 14-C , 17-H ) :   0.8472
B( 14-C , 19-H ) :  -0.1399 B( 14-C , 20-Cl) :  -0.1302 B( 15-C , 20-Cl) :   0.9672

MP2 TOTAL ENERGY:    -1752.060555316 Eh
FINAL SINGLE POINT ENERGY     -1752.060555315625

DIPOLE MOMENT
-------------
                                X             Y             Z
Electronic contribution:     -5.39857       9.14123       3.60456
Nuclear contribution   :      5.34785      -9.79352      -3.31283
                        -----------------------------------------
Total Dipole Moment    :     -0.05072      -0.65228       0.29173
                        -----------------------------------------
Magnitude (a.u.)       :      0.71635
Magnitude (Debye)      :      1.82081

Rotational constants in cm-1:     0.032761     0.009237     0.008073
Rotational constants in MHz :   982.154443   276.923969   242.026659

                             ****ORCA TERMINATED NORMALLY****
TOTAL RUN TIME: 0 days 1 hours 31 minutes 45 seconds 635 msec
