                         Program Version 5.0.4 -  RELEASE  -
|  1> ! ri-mp2 aug-cc-pvdz aug-cc-pvdz/c tightscf
|  2> %pal nprocs 16 end
|  3> %maxcore 3800
|  4> %base "DZ_Si-Si_34_AB"
|  5> %scf
|  6> STABPerform true
|  7> STABRestartUHFifUnstable true
|  8> end
|  9>
| 10> *xyz 0 1
| 11> Si         1.163471    0.003149    0.025858
| 12> Si        -1.163471   -0.003149    0.025858
| 13> O        -1.935613    0.301981    1.436281
| 14> H        -2.186948   -0.453339    1.972196
| 15> O         1.935613   -0.301982    1.436281
| 16> H         2.186948    0.453338    1.972196
| 17> O        -1.723404   -1.459788   -0.479153
| 18> H        -1.143188   -1.965113   -1.055270
| 19> O         1.723404    1.459789   -0.479152
| 20> H         1.143188    1.965113   -1.055269
| 21> O        -1.511586    1.241641   -0.983731
| 22> H        -2.421734    1.538043   -1.066122
| 23> O         1.511586   -1.241641   -0.983731
| 24> H         2.421734   -1.538043   -1.066123
| 25> *
| 26>
| 27> $new_job
| 28> ! ri-mp2 aug-cc-pvtz aug-cc-pvtz/c tightscf
| 29> %pal nprocs 16 end
| 30> %maxcore 3800
| 31> %base "TZ_Si-Si_34_AB"
| 32>
| 33> *xyz 0 1
| 34> Si         1.163471    0.003149    0.025858
| 35> Si        -1.163471   -0.003149    0.025858
| 36> O        -1.935613    0.301981    1.436281
| 37> H        -2.186948   -0.453339    1.972196
| 38> O         1.935613   -0.301982    1.436281
| 39> H         2.186948    0.453338    1.972196
| 40> O        -1.723404   -1.459788   -0.479153
| 41> H        -1.143188   -1.965113   -1.055270
| 42> O         1.723404    1.459789   -0.479152
| 43> H         1.143188    1.965113   -1.055269
| 44> O        -1.511586    1.241641   -0.983731
| 45> H        -2.421734    1.538043   -1.066122
| 46> O         1.511586   -1.241641   -0.983731
| 47> H         2.421734   -1.538043   -1.066123
| 48> *
| 49>
| 50> $new_job
| 51> ! ri-mp2 aug-cc-pvqz aug-cc-pvqz/c tightscf
| 52> %pal nprocs 16 end
| 53> %maxcore 3800
| 54> %base "QZ_Si-Si_34_AB"
| 55>
| 56> *xyz 0 1
| 57> Si         1.163471    0.003149    0.025858
| 58> Si        -1.163471   -0.003149    0.025858
| 59> O        -1.935613    0.301981    1.436281
| 60> H        -2.186948   -0.453339    1.972196
| 61> O         1.935613   -0.301982    1.436281
| 62> H         2.186948    0.453338    1.972196
| 63> O        -1.723404   -1.459788   -0.479153
| 64> H        -1.143188   -1.965113   -1.055270
| 65> O         1.723404    1.459789   -0.479152
| 66> H         1.143188    1.965113   -1.055269
| 67> O        -1.511586    1.241641   -0.983731
| 68> H        -2.421734    1.538043   -1.066122
| 69> O         1.511586   -1.241641   -0.983731
| 70> H         2.421734   -1.538043   -1.066123
| 71> *
| 72>
| 73>
| 74>
| 75>
| 76>                          ****END OF INPUT****
 Total Charge           Charge          ....    0
 Multiplicity           Mult            ....    1
 Number of Electrons    NEL             ....   82
MP2 TOTAL ENERGY:    -1032.311797649 Eh
FINAL SINGLE POINT ENERGY     -1032.311797648573
MP2 TOTAL ENERGY:    -1032.810378038 Eh
FINAL SINGLE POINT ENERGY     -1032.810378038484

CARTESIAN COORDINATES (ANGSTROEM)
---------------------------------
  Si     1.163471    0.003149    0.025858
  Si    -1.163471   -0.003149    0.025858
  O     -1.935613    0.301981    1.436281
  H     -2.186948   -0.453339    1.972196
  O      1.935613   -0.301982    1.436281
  H      2.186948    0.453338    1.972196
  O     -1.723404   -1.459788   -0.479153
  H     -1.143188   -1.965113   -1.055270
  O      1.723404    1.459789   -0.479152
  H      1.143188    1.965113   -1.055269
  O     -1.511586    1.241641   -0.983731
  H     -2.421734    1.538043   -1.066122
  O      1.511586   -1.241641   -0.983731
  H      2.421734   -1.538043   -1.066123

 Multiplicity           Mult            ....    1
 Number of Electrons    NEL             ....   82
 Basis Dimension        Dim             ....  924

ORBITAL ENERGIES
----------------

  NO   OCC          E(Eh)            E(eV)
   0   2.0000     -68.811979     -1872.4691
   1   2.0000     -68.811978     -1872.4691
   2   2.0000     -20.559955      -559.4648
   3   2.0000     -20.559955      -559.4648
   4   2.0000     -20.556745      -559.3775
   5   2.0000     -20.556745      -559.3775
   6   2.0000     -20.556040      -559.3583
   7   2.0000     -20.556039      -559.3583
   8   2.0000      -6.151532      -167.3917
   9   2.0000      -6.151382      -167.3876
  10   2.0000      -4.259467      -115.9060
  11   2.0000      -4.259388      -115.9039
  12   2.0000      -4.259343      -115.9026
  13   2.0000      -4.259290      -115.9012
  14   2.0000      -4.258978      -115.8927
  15   2.0000      -4.258150      -115.8702
  16   2.0000      -1.370782       -37.3009
  17   2.0000      -1.366454       -37.1831
  18   2.0000      -1.338166       -36.4133
  19   2.0000      -1.335597       -36.3434
  20   2.0000      -1.332007       -36.2458
  21   2.0000      -1.331073       -36.2203
  22   2.0000      -0.792137       -21.5551
  23   2.0000      -0.765643       -20.8342
  24   2.0000      -0.719673       -19.5833
  25   2.0000      -0.710513       -19.3340
  26   2.0000      -0.705691       -19.2028
  27   2.0000      -0.703972       -19.1560
  28   2.0000      -0.609280       -16.5794
  29   2.0000      -0.590597       -16.0710
  30   2.0000      -0.577747       -15.7213
  31   2.0000      -0.574791       -15.6409
  32   2.0000      -0.560243       -15.2450
  33   2.0000      -0.558693       -15.2028
  34   2.0000      -0.540855       -14.7174
  35   2.0000      -0.533694       -14.5225
  36   2.0000      -0.530914       -14.4469
  37   2.0000      -0.517853       -14.0915
  38   2.0000      -0.504672       -13.7328
  39   2.0000      -0.499779       -13.5997
  40   2.0000      -0.408772       -11.1232
  41   0.0000       0.023698         0.6448
  42   0.0000       0.029992         0.8161
  43   0.0000       0.037086         1.0092
  44   0.0000       0.037907         1.0315
  45   0.0000       0.050752         1.3810

MULLIKEN ATOMIC CHARGES
-----------------------
   0 Si:    2.024317
   1 Si:    2.024317
   2 O :   -1.078480
   3 H :    0.349143
   4 O :   -1.078480
   5 H :    0.349143
   6 O :   -1.075738
   7 H :    0.398530
   8 O :   -1.075738
   9 H :    0.398530
  10 O :   -0.973439
  11 H :    0.355667
  12 O :   -0.973439
  13 H :    0.355667
Sum of atomic charges:    0.0000000

LOEWDIN ATOMIC CHARGES
----------------------
   0 Si:   -0.640075
   1 Si:   -0.640076
   2 O :    1.101792
   3 H :   -0.890310
   4 O :    1.101792
   5 H :   -0.890310
   6 O :    1.112507
   7 H :   -0.908153
   8 O :    1.112508
   9 H :   -0.908155
  10 O :    1.094711
  11 H :   -0.870472
  12 O :    1.094711
  13 H :   -0.870472

  Mayer bond orders larger than 0.100000
B(  0-Si,  1-Si) :   0.9631 B(  0-Si,  4-O ) :   0.4641 B(  0-Si,  8-O ) :   0.5433
B(  0-Si, 12-O ) :   0.4214 B(  1-Si,  2-O ) :   0.4641 B(  1-Si,  6-O ) :   0.5433
B(  1-Si, 10-O ) :   0.4214 B(  2-O ,  3-H ) :   0.9112 B(  4-O ,  5-H ) :   0.9112
B(  6-O ,  7-H ) :   0.8729 B(  8-O ,  9-H ) :   0.8729 B( 10-O , 11-H ) :   0.9146
B( 12-O , 13-H ) :   0.9146

MP2 TOTAL ENERGY:    -1032.972953482 Eh
FINAL SINGLE POINT ENERGY     -1032.972953482027

DIPOLE MOMENT
-------------
                                X             Y             Z
Electronic contribution:     -0.00000      -0.00000       0.22397
Nuclear contribution   :      0.00000      -0.00000      -0.29432
                        -----------------------------------------
Total Dipole Moment    :     -0.00000      -0.00000      -0.07035
                        -----------------------------------------
Magnitude (a.u.)       :      0.07035
Magnitude (Debye)      :      0.17883

Rotational constants in cm-1:     0.067394     0.033387     0.032321
Rotational constants in MHz :  2020.417868  1000.928712   968.946369

                             ****ORCA TERMINATED NORMALLY****
TOTAL RUN TIME: 0 days 1 hours 1 minutes 26 seconds 388 msec
