                         Program Version 5.0.4 -  RELEASE  -
|  1> ! ri-mp2 aug-cc-pvdz aug-cc-pvdz/c tightscf
|  2> %pal nprocs 16 end
|  3> %maxcore 3800
|  4> %base "DZ_B-B_26_A"
|  5> %scf
|  6> STABPerform true
|  7> STABRestartUHFifUnstable true
|  8> end
|  9>
| 10> *xyz 0 2
| 11> B         1.395305    0.105162    0.000002
| 12> O         0.221923   -0.491637    0.000002
| 13> C        -1.038483    0.181849   -0.000002
| 14> H        -1.589432   -0.122106    0.887745
| 15> H        -1.589432   -0.122117   -0.887745
| 16> H        -0.898550    1.263144   -0.000009
| 17> H         1.556404    1.297272   -0.000003
| 18> *
| 19>
| 20> $new_job
| 21> ! ri-mp2 aug-cc-pvtz aug-cc-pvtz/c tightscf
| 22> %pal nprocs 16 end
| 23> %maxcore 3800
| 24> %base "TZ_B-B_26_A"
| 25>
| 26> *xyz 0 2
| 27> B         1.395305    0.105162    0.000002
| 28> O         0.221923   -0.491637    0.000002
| 29> C        -1.038483    0.181849   -0.000002
| 30> H        -1.589432   -0.122106    0.887745
| 31> H        -1.589432   -0.122117   -0.887745
| 32> H        -0.898550    1.263144   -0.000009
| 33> H         1.556404    1.297272   -0.000003
| 34> *
| 35>
| 36> $new_job
| 37> ! ri-mp2 aug-cc-pvqz aug-cc-pvqz/c tightscf
| 38> %pal nprocs 16 end
| 39> %maxcore 3800
| 40> %base "QZ_B-B_26_A"
| 41>
| 42> *xyz 0 2
| 43> B         1.395305    0.105162    0.000002
| 44> O         0.221923   -0.491637    0.000002
| 45> C        -1.038483    0.181849   -0.000002
| 46> H        -1.589432   -0.122106    0.887745
| 47> H        -1.589432   -0.122117   -0.887745
| 48> H        -0.898550    1.263144   -0.000009
| 49> H         1.556404    1.297272   -0.000003
| 50> *
| 51>
| 52>
| 53>
| 54>
| 55>                          ****END OF INPUT****
 Total Charge           Charge          ....    0
 Multiplicity           Mult            ....    2
 Number of Electrons    NEL             ....   23
MP2 TOTAL ENERGY:     -140.132310717 Eh
FINAL SINGLE POINT ENERGY      -140.132310717201
MP2 TOTAL ENERGY:     -140.260026492 Eh
FINAL SINGLE POINT ENERGY      -140.260026492240

CARTESIAN COORDINATES (ANGSTROEM)
---------------------------------
  B      1.395305    0.105162    0.000002
  O      0.221923   -0.491637    0.000002
  C     -1.038483    0.181849   -0.000002
  H     -1.589432   -0.122106    0.887745
  H     -1.589432   -0.122117   -0.887745
  H     -0.898550    1.263144   -0.000009
  H      1.556404    1.297272   -0.000003

 Multiplicity           Mult            ....    2
 Number of Electrons    NEL             ....   23
 Basis Dimension        Dim             ....  424

ORBITAL ENERGIES
----------------
                 SPIN UP ORBITALS
  NO   OCC          E(Eh)            E(eV)
   0   1.0000     -20.582716      -560.0842
   1   1.0000     -11.293100      -307.3009
   2   1.0000      -7.636552      -207.8011
   3   1.0000      -1.392969       -37.9046
   4   1.0000      -0.964206       -26.2374
   5   1.0000      -0.737379       -20.0651
   6   1.0000      -0.655897       -17.8479
   7   1.0000      -0.646430       -17.5903
   8   1.0000      -0.587023       -15.9737
   9   1.0000      -0.515981       -14.0406
  10   1.0000      -0.491359       -13.3706
  11   1.0000      -0.324160        -8.8208
  12   0.0000       0.024497         0.6666
  13   0.0000       0.033929         0.9233
  14   0.0000       0.038042         1.0352
  15   0.0000       0.038170         1.0387
  16   0.0000       0.055591         1.5127

                 SPIN DOWN ORBITALS
  NO   OCC          E(Eh)            E(eV)
   0   1.0000     -20.582706      -560.0839
   1   1.0000     -11.291308      -307.2521
   2   1.0000      -7.617325      -207.2780
   3   1.0000      -1.391248       -37.8578
   4   1.0000      -0.956733       -26.0340
   5   1.0000      -0.725189       -19.7334
   6   1.0000      -0.648699       -17.6520
   7   1.0000      -0.642850       -17.4928
   8   1.0000      -0.559353       -15.2208
   9   1.0000      -0.499746       -13.5988
  10   1.0000      -0.494658       -13.4603
  11   0.0000       0.024795         0.6747
  12   0.0000       0.034727         0.9450
  13   0.0000       0.034825         0.9476
  14   0.0000       0.038256         1.0410
  15   0.0000       0.055996         1.5237

MULLIKEN ATOMIC CHARGES AND SPIN POPULATIONS
--------------------------------------------
   0 B :    0.534082    1.026546
   1 O :   -0.768631   -0.113865
   2 C :   -0.478105    0.057812
   3 H :    0.291393   -0.001925
   4 H :    0.291393   -0.001925
   5 H :    0.303492   -0.008666
   6 H :   -0.173625    0.042023
Sum of atomic charges         :    0.0000000

LOEWDIN ATOMIC CHARGES AND SPIN POPULATIONS
-------------------------------------------
   0 B :   -0.090031    0.601865
   1 O :    0.786255    0.163339
   2 C :    0.559615    0.032250
   3 H :   -0.312006    0.003221
   4 H :   -0.312007    0.003222
   5 H :   -0.340629    0.010048
   6 H :   -0.291198    0.186056

  Mayer bond orders larger than 0.100000
B(  0-B ,  1-O ) :   0.6989 B(  0-B ,  6-H ) :   0.9283 B(  1-O ,  2-C ) :   0.7901
B(  2-C ,  3-H ) :   0.9048 B(  2-C ,  4-H ) :   0.9048 B(  2-C ,  5-H ) :   0.9087

MP2 TOTAL ENERGY:     -140.299826045 Eh
FINAL SINGLE POINT ENERGY      -140.299826044629

DIPOLE MOMENT
-------------
                                X             Y             Z
Electronic contribution:      2.88855      -1.77829       0.00001
Nuclear contribution   :     -3.67106       2.24154      -0.00001
                        -----------------------------------------
Total Dipole Moment    :     -0.78251       0.46325      -0.00000
                        -----------------------------------------
Magnitude (a.u.)       :      0.90935
Magnitude (Debye)      :      2.31139

Rotational constants in cm-1:     1.838889     0.379295     0.334249
Rotational constants in MHz : 55128.505091 11370.975744 10020.530407

                             ****ORCA TERMINATED NORMALLY****
TOTAL RUN TIME: 0 days 0 hours 9 minutes 49 seconds 509 msec
