                         Program Version 5.0.4 -  RELEASE  -
|  1> ! ri-mp2 aug-cc-pvdz aug-cc-pvdz/c tightscf
|  2> %pal nprocs 16 end
|  3> %maxcore 3800
|  4> %base "DZ_Si-S_13_AB"
|  5>
|  6> *xyz 0 1
|  7> C        -2.499749    0.012836    0.000000
|  8> C        -1.863491   -1.225831    0.000000
|  9> C        -0.491014   -1.445750    0.000000
| 10> C        -1.845820    1.240860    0.000000
| 11> C        -0.469175    1.440775    0.000000
| 12> Si         0.511532   -0.010179    0.000000
| 13> H        -3.581145    0.020858    0.000000
| 14> H        -2.507809   -2.099657    0.000000
| 15> H        -0.129873   -2.464576    0.000000
| 16> H        -2.476468    2.124626    0.000000
| 17> H        -0.093822    2.454618    0.000000
| 18> S         2.618576   -0.080322    0.000000
| 19> H         2.745942    1.254449    0.000005
| 20> *
| 21>
| 22> $new_job
| 23> ! ri-mp2 aug-cc-pvtz aug-cc-pvtz/c tightscf
| 24> %pal nprocs 16 end
| 25> %maxcore 3800
| 26> %base "TZ_Si-S_13_AB"
| 27>
| 28> *xyz 0 1
| 29> C        -2.499749    0.012836    0.000000
| 30> C        -1.863491   -1.225831    0.000000
| 31> C        -0.491014   -1.445750    0.000000
| 32> C        -1.845820    1.240860    0.000000
| 33> C        -0.469175    1.440775    0.000000
| 34> Si         0.511532   -0.010179    0.000000
| 35> H        -3.581145    0.020858    0.000000
| 36> H        -2.507809   -2.099657    0.000000
| 37> H        -0.129873   -2.464576    0.000000
| 38> H        -2.476468    2.124626    0.000000
| 39> H        -0.093822    2.454618    0.000000
| 40> S         2.618576   -0.080322    0.000000
| 41> H         2.745942    1.254449    0.000005
| 42> *
| 43>
| 44> $new_job
| 45> ! ri-mp2 aug-cc-pvqz aug-cc-pvqz/c tightscf
| 46> %pal nprocs 16 end
| 47> %maxcore 3800
| 48> %base "QZ_Si-S_13_AB"
| 49>
| 50> *xyz 0 1
| 51> C        -2.499749    0.012836    0.000000
| 52> C        -1.863491   -1.225831    0.000000
| 53> C        -0.491014   -1.445750    0.000000
| 54> C        -1.845820    1.240860    0.000000
| 55> C        -0.469175    1.440775    0.000000
| 56> Si         0.511532   -0.010179    0.000000
| 57> H        -3.581145    0.020858    0.000000
| 58> H        -2.507809   -2.099657    0.000000
| 59> H        -0.129873   -2.464576    0.000000
| 60> H        -2.476468    2.124626    0.000000
| 61> H        -0.093822    2.454618    0.000000
| 62> S         2.618576   -0.080322    0.000000
| 63> H         2.745942    1.254449    0.000005
| 64> *
| 65>
| 66>
| 67>
| 68>
| 69>                          ****END OF INPUT****
 Total Charge           Charge          ....    0
 Multiplicity           Mult            ....    1
 Number of Electrons    NEL             ....   66
MP2 TOTAL ENERGY:     -880.226582799 Eh
FINAL SINGLE POINT ENERGY      -880.226582798853
MP2 TOTAL ENERGY:     -880.482994354 Eh
FINAL SINGLE POINT ENERGY      -880.482994353932

CARTESIAN COORDINATES (ANGSTROEM)
---------------------------------
  C     -2.499749    0.012836    0.000000
  C     -1.863491   -1.225831    0.000000
  C     -0.491014   -1.445750    0.000000
  C     -1.845820    1.240860    0.000000
  C     -0.469175    1.440775    0.000000
  Si     0.511532   -0.010179    0.000000
  H     -3.581145    0.020858    0.000000
  H     -2.507809   -2.099657    0.000000
  H     -0.129873   -2.464576    0.000000
  H     -2.476468    2.124626    0.000000
  H     -0.093822    2.454618    0.000000
  S      2.618576   -0.080322    0.000000
  H      2.745942    1.254449    0.000005

 Multiplicity           Mult            ....    1
 Number of Electrons    NEL             ....   66
 Basis Dimension        Dim             ....  844

ORBITAL ENERGIES
----------------

  NO   OCC          E(Eh)            E(eV)
   0   2.0000     -91.975375     -2502.7772
   1   2.0000     -68.789194     -1871.8491
   2   2.0000     -11.250227      -306.1342
   3   2.0000     -11.249754      -306.1214
   4   2.0000     -11.215826      -305.1982
   5   2.0000     -11.214083      -305.1507
   6   2.0000     -11.211338      -305.0760
   7   2.0000      -8.979668      -244.3492
   8   2.0000      -6.661049      -181.2563
   9   2.0000      -6.660409      -181.2390
  10   2.0000      -6.659485      -181.2138
  11   2.0000      -6.141630      -167.1223
  12   2.0000      -4.248474      -115.6069
  13   2.0000      -4.247102      -115.5695
  14   2.0000      -4.246251      -115.5464
  15   2.0000      -1.112532       -30.2735
  16   2.0000      -1.015288       -27.6274
  17   2.0000      -0.997497       -27.1433
  18   2.0000      -0.927305       -25.2333
  19   2.0000      -0.803047       -21.8520
  20   2.0000      -0.737211       -20.0605
  21   2.0000      -0.678854       -18.4726
  22   2.0000      -0.610906       -16.6236
  23   2.0000      -0.596426       -16.2296
  24   2.0000      -0.583919       -15.8892
  25   2.0000      -0.553892       -15.0722
  26   2.0000      -0.523684       -14.2502
  27   2.0000      -0.481171       -13.0933
  28   2.0000      -0.466149       -12.6846
  29   2.0000      -0.446892       -12.1605
  30   2.0000      -0.418862       -11.3978
  31   2.0000      -0.354916        -9.6578
  32   2.0000      -0.278543        -7.5795
  33   0.0000       0.022254         0.6056
  34   0.0000       0.028253         0.7688
  35   0.0000       0.030270         0.8237
  36   0.0000       0.041657         1.1335
  37   0.0000       0.044438         1.2092

MULLIKEN ATOMIC CHARGES
-----------------------
   0 C :   -0.272429
   1 C :   -0.353343
   2 C :   -0.911855
   3 C :   -0.331480
   4 C :   -0.971562
   5 Si:    1.545499
   6 H :    0.290173
   7 H :    0.280390
   8 H :    0.310773
   9 H :    0.280729
  10 H :    0.338660
  11 S :   -0.328980
  12 H :    0.123426
Sum of atomic charges:    0.0000000

LOEWDIN ATOMIC CHARGES
----------------------
   0 C :    0.289128
   1 C :    0.214577
   2 C :    0.291394
   3 C :    0.214622
   4 C :    0.299393
   5 Si:   -0.065766
   6 H :   -0.350662
   7 H :   -0.329695
   8 H :   -0.420615
   9 H :   -0.329740
  10 H :   -0.421456
  11 S :    1.490872
  12 H :   -0.882052

  Mayer bond orders larger than 0.100000
B(  0-C ,  1-C ) :   1.2116 B(  0-C ,  3-C ) :   1.2157 B(  0-C ,  6-H ) :   0.9885
B(  1-C ,  2-C ) :   1.3770 B(  1-C ,  7-H ) :   1.0077 B(  2-C ,  5-Si) :   1.0264
B(  2-C ,  7-H ) :  -0.1127 B(  2-C ,  8-H ) :   0.9169 B(  3-C ,  4-C ) :   1.3523
B(  3-C ,  9-H ) :   1.0079 B(  4-C ,  5-Si) :   1.0839 B(  4-C ,  9-H ) :  -0.1169
B(  4-C , 10-H ) :   0.8997 B(  5-Si, 11-S ) :   1.0601 B( 11-S , 12-H ) :   0.9980

MP2 TOTAL ENERGY:     -880.565184499 Eh
FINAL SINGLE POINT ENERGY      -880.565184499200

DIPOLE MOMENT
-------------
                                X             Y             Z
Electronic contribution:      6.24409      -0.96621      -0.00000
Nuclear contribution   :     -6.04308       1.26989       0.00000
                        -----------------------------------------
Total Dipole Moment    :      0.20101       0.30368       0.00000
                        -----------------------------------------
Magnitude (a.u.)       :      0.36417
Magnitude (Debye)      :      0.92566

Rotational constants in cm-1:     0.153924     0.039832     0.031643
Rotational constants in MHz :  4614.531220  1194.122020   948.638714

                             ****ORCA TERMINATED NORMALLY****
TOTAL RUN TIME: 0 days 0 hours 16 minutes 56 seconds 108 msec
