                         Program Version 5.0.4 -  RELEASE  -
|  1> ! ri-mp2 aug-cc-pvdz aug-cc-pvdz/c tightscf
|  2> %pal nprocs 16 end
|  3> %maxcore 3800
|  4> %base "DZ_P-N_92_AB"
|  5>
|  6> *xyz 0 1
|  7> C        -2.287657    0.533726    0.272262
|  8> P        -1.842622   -1.051305   -0.596229
|  9> O        -2.988944    1.373776   -0.217752
| 10> O        -1.837592    0.593108    1.533354
| 11> N        -0.277996   -1.399777   -0.089758
| 12> C         0.871235   -0.601380   -0.088358
| 13> H        -2.165562    1.420170    1.921299
| 14> C         0.888049    0.673319   -0.641900
| 15> C         2.039784   -1.105208    0.478440
| 16> C         3.195715   -0.351325    0.490038
| 17> C         3.212683    0.919563   -0.063036
| 18> C         2.053648    1.420770   -0.626277
| 19> H         2.047836    2.411094   -1.062190
| 20> H        -0.002436    1.090543   -1.088982
| 21> H         2.035324   -2.097697    0.913087
| 22> H         4.092140   -0.761444    0.936197
| 23> H         4.118296    1.509822   -0.053458
| 24> H        -1.600310   -0.388836   -1.816170
| 25> H        -0.168433   -2.287492    0.370119
| 26> *
| 27>
| 28> $new_job
| 29> ! ri-mp2 aug-cc-pvtz aug-cc-pvtz/c tightscf
| 30> %pal nprocs 16 end
| 31> %maxcore 3800
| 32> %base "TZ_P-N_92_AB"
| 33>
| 34> *xyz 0 1
| 35> C        -2.287657    0.533726    0.272262
| 36> P        -1.842622   -1.051305   -0.596229
| 37> O        -2.988944    1.373776   -0.217752
| 38> O        -1.837592    0.593108    1.533354
| 39> N        -0.277996   -1.399777   -0.089758
| 40> C         0.871235   -0.601380   -0.088358
| 41> H        -2.165562    1.420170    1.921299
| 42> C         0.888049    0.673319   -0.641900
| 43> C         2.039784   -1.105208    0.478440
| 44> C         3.195715   -0.351325    0.490038
| 45> C         3.212683    0.919563   -0.063036
| 46> C         2.053648    1.420770   -0.626277
| 47> H         2.047836    2.411094   -1.062190
| 48> H        -0.002436    1.090543   -1.088982
| 49> H         2.035324   -2.097697    0.913087
| 50> H         4.092140   -0.761444    0.936197
| 51> H         4.118296    1.509822   -0.053458
| 52> H        -1.600310   -0.388836   -1.816170
| 53> H        -0.168433   -2.287492    0.370119
| 54> *
| 55>
| 56> $new_job
| 57> ! ri-mp2 aug-cc-pvqz aug-cc-pvqz/c tightscf
| 58> %pal nprocs 16 end
| 59> %maxcore 3800
| 60> %base "QZ_P-N_92_AB"
| 61>
| 62> *xyz 0 1
| 63> C        -2.287657    0.533726    0.272262
| 64> P        -1.842622   -1.051305   -0.596229
| 65> O        -2.988944    1.373776   -0.217752
| 66> O        -1.837592    0.593108    1.533354
| 67> N        -0.277996   -1.399777   -0.089758
| 68> C         0.871235   -0.601380   -0.088358
| 69> H        -2.165562    1.420170    1.921299
| 70> C         0.888049    0.673319   -0.641900
| 71> C         2.039784   -1.105208    0.478440
| 72> C         3.195715   -0.351325    0.490038
| 73> C         3.212683    0.919563   -0.063036
| 74> C         2.053648    1.420770   -0.626277
| 75> H         2.047836    2.411094   -1.062190
| 76> H        -0.002436    1.090543   -1.088982
| 77> H         2.035324   -2.097697    0.913087
| 78> H         4.092140   -0.761444    0.936197
| 79> H         4.118296    1.509822   -0.053458
| 80> H        -1.600310   -0.388836   -1.816170
| 81> H        -0.168433   -2.287492    0.370119
| 82> *
| 83>
| 84>
| 85>
| 86>
| 87>                          ****END OF INPUT****
 Total Charge           Charge          ....    0
 Multiplicity           Mult            ....    1
 Number of Electrons    NEL             ....   88
MP2 TOTAL ENERGY:     -816.357796351 Eh
FINAL SINGLE POINT ENERGY      -816.357796351309
MP2 TOTAL ENERGY:     -816.812688717 Eh
FINAL SINGLE POINT ENERGY      -816.812688717240

CARTESIAN COORDINATES (ANGSTROEM)
---------------------------------
  C     -2.287657    0.533726    0.272262
  P     -1.842622   -1.051305   -0.596229
  O     -2.988944    1.373776   -0.217752
  O     -1.837592    0.593108    1.533354
  N     -0.277996   -1.399777   -0.089758
  C      0.871235   -0.601380   -0.088358
  H     -2.165562    1.420170    1.921299
  C      0.888049    0.673319   -0.641900
  C      2.039784   -1.105208    0.478440
  C      3.195715   -0.351325    0.490038
  C      3.212683    0.919563   -0.063036
  C      2.053648    1.420770   -0.626277
  H      2.047836    2.411094   -1.062190
  H     -0.002436    1.090543   -1.088982
  H      2.035324   -2.097697    0.913087
  H      4.092140   -0.761444    0.936197
  H      4.118296    1.509822   -0.053458
  H     -1.600310   -0.388836   -1.816170
  H     -0.168433   -2.287492    0.370119

 Multiplicity           Mult            ....    1
 Number of Electrons    NEL             ....   88
 Basis Dimension        Dim             .... 1252

ORBITAL ENERGIES
----------------

  NO   OCC          E(Eh)            E(eV)
   0   2.0000     -79.985649     -2176.5202
   1   2.0000     -20.617479      -561.0301
   2   2.0000     -20.556573      -559.3728
   3   2.0000     -15.587308      -424.1522
   4   2.0000     -11.384939      -309.7999
   5   2.0000     -11.289724      -307.2090
   6   2.0000     -11.240936      -305.8814
   7   2.0000     -11.240208      -305.8616
   8   2.0000     -11.233134      -305.6691
   9   2.0000     -11.231192      -305.6163
  10   2.0000     -11.226405      -305.4860
  11   2.0000      -7.524706      -204.7577
  12   2.0000      -5.418895      -147.4556
  13   2.0000      -5.418417      -147.4426
  14   2.0000      -5.417954      -147.4300
  15   2.0000      -1.474229       -40.1158
  16   2.0000      -1.371985       -37.3336
  17   2.0000      -1.250397       -34.0250
  18   2.0000      -1.146450       -31.1965
  19   2.0000      -1.026536       -27.9335
  20   2.0000      -1.010243       -27.4901
  21   2.0000      -0.924450       -25.1556
  22   2.0000      -0.845762       -23.0143
  23   2.0000      -0.836999       -22.7759
  24   2.0000      -0.794688       -21.6246
  25   2.0000      -0.728502       -19.8236
  26   2.0000      -0.711412       -19.3585
  27   2.0000      -0.693596       -18.8737
  28   2.0000      -0.674990       -18.3674
  29   2.0000      -0.641962       -17.4687
  30   2.0000      -0.636201       -17.3119
  31   2.0000      -0.613972       -16.7070
  32   2.0000      -0.594023       -16.1642
  33   2.0000      -0.591873       -16.1057
  34   2.0000      -0.577764       -15.7218
  35   2.0000      -0.538725       -14.6595
  36   2.0000      -0.519273       -14.1301
  37   2.0000      -0.500351       -13.6153
  38   2.0000      -0.496066       -13.4986
  39   2.0000      -0.480681       -13.0800
  40   2.0000      -0.441315       -12.0088
  41   2.0000      -0.387019       -10.5313
  42   2.0000      -0.348347        -9.4790
  43   2.0000      -0.310224        -8.4416
  44   0.0000       0.021426         0.5830
  45   0.0000       0.027365         0.7446
  46   0.0000       0.030536         0.8309
  47   0.0000       0.036165         0.9841
  48   0.0000       0.042136         1.1466

MULLIKEN ATOMIC CHARGES
-----------------------
   0 C :    0.868253
   1 P :    0.676736
   2 O :   -0.847887
   3 O :   -0.728108
   4 N :   -0.744971
   5 C :    0.743869
   6 H :    0.318670
   7 C :   -0.140999
   8 C :   -0.526299
   9 C :   -0.348391
  10 C :   -0.351326
  11 C :   -0.402815
  12 H :    0.224870
  13 H :    0.334887
  14 H :    0.226686
  15 H :    0.245483
  16 H :    0.300306
  17 H :   -0.053401
  18 H :    0.204438
Sum of atomic charges:    0.0000000

LOEWDIN ATOMIC CHARGES
----------------------
   0 C :   -1.255257
   1 P :    1.091884
   2 O :    0.605886
   3 O :    1.176218
   4 N :    0.589031
   5 C :   -0.318236
   6 H :   -0.816202
   7 C :    0.303294
   8 C :    0.333844
   9 C :    0.334384
  10 C :    0.335258
  11 C :    0.341559
  12 H :   -0.315218
  13 H :   -0.377695
  14 H :   -0.320762
  15 H :   -0.317990
  16 H :   -0.327504
  17 H :   -0.434224
  18 H :   -0.628270

  Mayer bond orders larger than 0.100000
B(  0-C ,  1-P ) :   0.7498 B(  0-C ,  2-O ) :   1.3573 B(  0-C ,  3-O ) :   0.8970
B(  1-P ,  4-N ) :   0.8929 B(  1-P , 17-H ) :   0.9410 B(  3-O ,  6-H ) :   0.8933
B(  4-N ,  5-C ) :   0.6198 B(  4-N ,  7-C ) :  -0.1213 B(  4-N , 18-H ) :   1.0651
B(  5-C ,  7-C ) :   1.2072 B(  5-C ,  8-C ) :   1.0154 B(  5-C ,  9-C ) :  -0.3142
B(  5-C , 11-C ) :  -0.2539 B(  7-C , 10-C ) :  -0.1032 B(  7-C , 11-C ) :   1.1350
B(  7-C , 12-H ) :  -0.1348 B(  7-C , 13-H ) :   0.9000 B(  8-C ,  9-C ) :   1.3919
B(  8-C , 11-C ) :   0.1442 B(  8-C , 14-H ) :   1.0097 B(  8-C , 15-H ) :  -0.1424
B(  9-C , 10-C ) :   1.1360 B(  9-C , 15-H ) :   1.1309 B( 10-C , 11-C ) :   1.2325
B( 10-C , 15-H ) :  -0.1018 B( 10-C , 16-H ) :   1.0400 B( 11-C , 12-H ) :   1.1525
B( 11-C , 13-H ) :  -0.1202

MP2 TOTAL ENERGY:     -816.960299021 Eh
FINAL SINGLE POINT ENERGY      -816.960299021416

DIPOLE MOMENT
-------------
                                X             Y             Z
Electronic contribution:     -9.03618      -2.31453      -0.19495
Nuclear contribution   :      9.80560       1.87648       0.69183
                        -----------------------------------------
Total Dipole Moment    :      0.76942      -0.43806       0.49688
                        -----------------------------------------
Magnitude (a.u.)       :      1.01528
Magnitude (Debye)      :      2.58065

Rotational constants in cm-1:     0.064801     0.019649     0.017482
Rotational constants in MHz :  1942.680937   589.073697   524.084551

                             ****ORCA TERMINATED NORMALLY****
TOTAL RUN TIME: 0 days 0 hours 49 minutes 31 seconds 194 msec
