                         Program Version 5.0.4 -  RELEASE  -
|  1> ! ri-mp2 aug-cc-pvdz aug-cc-pvdz/c tightscf
|  2> %pal nprocs 16 end
|  3> %maxcore 3800
|  4> %base "DZ_S-F_54_AB"
|  5> %scf
|  6> STABPerform true
|  7> STABRestartUHFifUnstable true
|  8> end
|  9>
| 10> *xyz 0 1
| 11> F         2.205109    0.878380   -0.000002
| 12> S         1.436284   -0.544646    0.000000
| 13> C        -0.225393   -0.115020    0.000001
| 14> S        -1.237945   -1.394507    0.000002
| 15> O        -0.489722    1.165495   -0.000001
| 16> C        -1.864079    1.573294   -0.000002
| 17> H        -1.836206    2.657584   -0.000007
| 18> H        -2.364291    1.194923    0.888881
| 19> H        -2.364292    1.194915   -0.888881
| 20> *
| 21>
| 22> $new_job
| 23> ! ri-mp2 aug-cc-pvtz aug-cc-pvtz/c tightscf
| 24> %pal nprocs 16 end
| 25> %maxcore 3800
| 26> %base "TZ_S-F_54_AB"
| 27>
| 28> *xyz 0 1
| 29> F         2.205109    0.878380   -0.000002
| 30> S         1.436284   -0.544646    0.000000
| 31> C        -0.225393   -0.115020    0.000001
| 32> S        -1.237945   -1.394507    0.000002
| 33> O        -0.489722    1.165495   -0.000001
| 34> C        -1.864079    1.573294   -0.000002
| 35> H        -1.836206    2.657584   -0.000007
| 36> H        -2.364291    1.194923    0.888881
| 37> H        -2.364292    1.194915   -0.888881
| 38> *
| 39>
| 40> $new_job
| 41> ! ri-mp2 aug-cc-pvqz aug-cc-pvqz/c tightscf
| 42> %pal nprocs 16 end
| 43> %maxcore 3800
| 44> %base "QZ_S-F_54_AB"
| 45>
| 46> *xyz 0 1
| 47> F         2.205109    0.878380   -0.000002
| 48> S         1.436284   -0.544646    0.000000
| 49> C        -0.225393   -0.115020    0.000001
| 50> S        -1.237945   -1.394507    0.000002
| 51> O        -0.489722    1.165495   -0.000001
| 52> C        -1.864079    1.573294   -0.000002
| 53> H        -1.836206    2.657584   -0.000007
| 54> H        -2.364291    1.194923    0.888881
| 55> H        -2.364292    1.194915   -0.888881
| 56> *
| 57>
| 58>
| 59>
| 60>
| 61>                          ****END OF INPUT****
 Total Charge           Charge          ....    0
 Multiplicity           Mult            ....    1
 Number of Electrons    NEL             ....   64
MP2 TOTAL ENERGY:    -1047.789134698 Eh
FINAL SINGLE POINT ENERGY     -1047.789134697625
MP2 TOTAL ENERGY:    -1048.108783344 Eh
FINAL SINGLE POINT ENERGY     -1048.108783343776

CARTESIAN COORDINATES (ANGSTROEM)
---------------------------------
  F      2.205109    0.878380   -0.000002
  S      1.436284   -0.544646    0.000000
  C     -0.225393   -0.115020    0.000001
  S     -1.237945   -1.394507    0.000002
  O     -0.489722    1.165495   -0.000001
  C     -1.864079    1.573294   -0.000002
  H     -1.836206    2.657584   -0.000007
  H     -2.364291    1.194923    0.888881
  H     -2.364292    1.194915   -0.888881

 Multiplicity           Mult            ....    1
 Number of Electrons    NEL             ....   64
 Basis Dimension        Dim             ....  626

ORBITAL ENERGIES
----------------

  NO   OCC          E(Eh)            E(eV)
   0   2.0000     -92.066927     -2505.2685
   1   2.0000     -91.937236     -2501.7394
   2   2.0000     -26.325762      -716.3604
   3   2.0000     -20.649466      -561.9005
   4   2.0000     -11.418331      -310.7086
   5   2.0000     -11.310510      -307.7746
   6   2.0000      -9.061181      -246.5673
   7   2.0000      -8.942231      -243.3305
   8   2.0000      -6.742536      -183.4737
   9   2.0000      -6.740378      -183.4150
  10   2.0000      -6.739209      -183.3832
  11   2.0000      -6.623787      -180.2424
  12   2.0000      -6.622131      -180.1974
  13   2.0000      -6.621503      -180.1803
  14   2.0000      -1.626634       -44.2629
  15   2.0000      -1.486786       -40.4575
  16   2.0000      -1.120576       -30.4924
  17   2.0000      -0.998025       -27.1576
  18   2.0000      -0.970234       -26.4014
  19   2.0000      -0.797655       -21.7053
  20   2.0000      -0.755725       -20.5643
  21   2.0000      -0.713981       -19.4284
  22   2.0000      -0.700206       -19.0536
  23   2.0000      -0.693925       -18.8827
  24   2.0000      -0.667492       -18.1634
  25   2.0000      -0.603035       -16.4094
  26   2.0000      -0.559010       -15.2114
  27   2.0000      -0.557240       -15.1633
  28   2.0000      -0.503149       -13.6914
  29   2.0000      -0.446207       -12.1419
  30   2.0000      -0.368384       -10.0242
  31   2.0000      -0.358647        -9.7593
  32   0.0000       0.023368         0.6359
  33   0.0000       0.039931         1.0866
  34   0.0000       0.040696         1.1074
  35   0.0000       0.044430         1.2090
  36   0.0000       0.060658         1.6506

MULLIKEN ATOMIC CHARGES
-----------------------
   0 F :   -0.620519
   1 S :    0.874461
   2 C :   -0.124111
   3 S :    0.038538
   4 O :   -0.591993
   5 C :   -0.621214
   6 H :    0.446646
   7 H :    0.299096
   8 H :    0.299096
Sum of atomic charges:    0.0000000

LOEWDIN ATOMIC CHARGES
----------------------
   0 F :    0.088335
   1 S :    0.563597
   2 C :   -1.835264
   3 S :    0.947982
   4 O :    0.691810
   5 C :    0.534322
   6 H :   -0.318022
   7 H :   -0.336380
   8 H :   -0.336381

  Mayer bond orders larger than 0.100000
B(  0-F ,  1-S ) :   0.5856 B(  1-S ,  2-C ) :   0.9620 B(  2-C ,  3-S ) :   1.6227
B(  2-C ,  4-O ) :   1.0162 B(  4-O ,  5-C ) :   0.8119 B(  5-C ,  6-H ) :   0.7731
B(  5-C ,  7-H ) :   0.9106 B(  5-C ,  8-H ) :   0.9106

MP2 TOTAL ENERGY:    -1048.214571608 Eh
FINAL SINGLE POINT ENERGY     -1048.214571607610

DIPOLE MOMENT
-------------
                                X             Y             Z
Electronic contribution:      7.79199      -3.33645       0.00000
Nuclear contribution   :     -8.34228       4.05678      -0.00000
                        -----------------------------------------
Total Dipole Moment    :     -0.55028       0.72033      -0.00000
                        -----------------------------------------
Magnitude (a.u.)       :      0.90647
Magnitude (Debye)      :      2.30407

Rotational constants in cm-1:     0.113707     0.062247     0.040534
Rotational constants in MHz :  3408.861147  1866.109080  1215.179284

                             ****ORCA TERMINATED NORMALLY****
TOTAL RUN TIME: 0 days 0 hours 15 minutes 38 seconds 275 msec
