                         Program Version 5.0.4 -  RELEASE  -
|  1> ! ri-mp2 aug-cc-pvdz aug-cc-pvdz/c tightscf
|  2> %pal nprocs 16 end
|  3> %maxcore 3800
|  4> %base "DZ_P-C_8_AB"
|  5>
|  6> *xyz 0 1
|  7> C        -1.680333   -1.545600   -0.001842
|  8> C        -2.992295   -1.176252    0.002974
|  9> C        -3.346866    0.186975    0.007082
| 10> C        -2.380182    1.148128    0.006568
| 11> C        -1.012938    0.796084    0.002192
| 12> C        -0.656045   -0.572533   -0.002795
| 13> H        -1.404415   -2.592702   -0.004986
| 14> H        -3.768363   -1.930016    0.003569
| 15> H        -4.391726    0.467348    0.010760
| 16> H        -2.648373    2.197227    0.009466
| 17> C         0.712261   -0.926280   -0.000055
| 18> C         1.695497    0.022971   -0.002585
| 19> C         0.017552    1.763219   -0.002082
| 20> C         1.325844    1.390854   -0.015369
| 21> H        -0.250998    2.812288   -0.004448
| 22> H         2.098776    2.149419   -0.037935
| 23> P         3.476346   -0.382769   -0.087764
| 24> H         0.967224   -1.978971    0.010085
| 25> H         3.356838   -1.777538    0.098402
| 26> H         3.800887   -0.130907    1.267030
| 27> *
| 28>
| 29> $new_job
| 30> ! ri-mp2 aug-cc-pvtz aug-cc-pvtz/c tightscf
| 31> %pal nprocs 16 end
| 32> %maxcore 3800
| 33> %base "TZ_P-C_8_AB"
| 34>
| 35> *xyz 0 1
| 36> C        -1.680333   -1.545600   -0.001842
| 37> C        -2.992295   -1.176252    0.002974
| 38> C        -3.346866    0.186975    0.007082
| 39> C        -2.380182    1.148128    0.006568
| 40> C        -1.012938    0.796084    0.002192
| 41> C        -0.656045   -0.572533   -0.002795
| 42> H        -1.404415   -2.592702   -0.004986
| 43> H        -3.768363   -1.930016    0.003569
| 44> H        -4.391726    0.467348    0.010760
| 45> H        -2.648373    2.197227    0.009466
| 46> C         0.712261   -0.926280   -0.000055
| 47> C         1.695497    0.022971   -0.002585
| 48> C         0.017552    1.763219   -0.002082
| 49> C         1.325844    1.390854   -0.015369
| 50> H        -0.250998    2.812288   -0.004448
| 51> H         2.098776    2.149419   -0.037935
| 52> P         3.476346   -0.382769   -0.087764
| 53> H         0.967224   -1.978971    0.010085
| 54> H         3.356838   -1.777538    0.098402
| 55> H         3.800887   -0.130907    1.267030
| 56> *
| 57>
| 58> $new_job
| 59> ! ri-mp2 aug-cc-pvqz aug-cc-pvqz/c tightscf
| 60> %pal nprocs 16 end
| 61> %maxcore 3800
| 62> %base "QZ_P-C_8_AB"
| 63>
| 64> *xyz 0 1
| 65> C        -1.680333   -1.545600   -0.001842
| 66> C        -2.992295   -1.176252    0.002974
| 67> C        -3.346866    0.186975    0.007082
| 68> C        -2.380182    1.148128    0.006568
| 69> C        -1.012938    0.796084    0.002192
| 70> C        -0.656045   -0.572533   -0.002795
| 71> H        -1.404415   -2.592702   -0.004986
| 72> H        -3.768363   -1.930016    0.003569
| 73> H        -4.391726    0.467348    0.010760
| 74> H        -2.648373    2.197227    0.009466
| 75> C         0.712261   -0.926280   -0.000055
| 76> C         1.695497    0.022971   -0.002585
| 77> C         0.017552    1.763219   -0.002082
| 78> C         1.325844    1.390854   -0.015369
| 79> H        -0.250998    2.812288   -0.004448
| 80> H         2.098776    2.149419   -0.037935
| 81> P         3.476346   -0.382769   -0.087764
| 82> H         0.967224   -1.978971    0.010085
| 83> H         3.356838   -1.777538    0.098402
| 84> H         3.800887   -0.130907    1.267030
| 85> *
| 86>
| 87>
| 88>
| 89>
| 90>                          ****END OF INPUT****
 Total Charge           Charge          ....    0
 Multiplicity           Mult            ....    1
 Number of Electrons    NEL             ....   84
MP2 TOTAL ENERGY:     -726.175697398 Eh
FINAL SINGLE POINT ENERGY      -726.175697398471
MP2 TOTAL ENERGY:     -726.552321274 Eh
FINAL SINGLE POINT ENERGY      -726.552321273801

CARTESIAN COORDINATES (ANGSTROEM)
---------------------------------
  C     -1.680333   -1.545600   -0.001842
  C     -2.992295   -1.176252    0.002974
  C     -3.346866    0.186975    0.007082
  C     -2.380182    1.148128    0.006568
  C     -1.012938    0.796084    0.002192
  C     -0.656045   -0.572533   -0.002795
  H     -1.404415   -2.592702   -0.004986
  H     -3.768363   -1.930016    0.003569
  H     -4.391726    0.467348    0.010760
  H     -2.648373    2.197227    0.009466
  C      0.712261   -0.926280   -0.000055
  C      1.695497    0.022971   -0.002585
  C      0.017552    1.763219   -0.002082
  C      1.325844    1.390854   -0.015369
  H     -0.250998    2.812288   -0.004448
  H      2.098776    2.149419   -0.037935
  P      3.476346   -0.382769   -0.087764
  H      0.967224   -1.978971    0.010085
  H      3.356838   -1.777538    0.098402
  H      3.800887   -0.130907    1.267030

 Multiplicity           Mult            ....    1
 Number of Electrons    NEL             ....   84
 Basis Dimension        Dim             .... 1298

ORBITAL ENERGIES
----------------

  NO   OCC          E(Eh)            E(eV)
   0   2.0000     -79.942470     -2175.3452
   1   2.0000     -11.245089      -305.9944
   2   2.0000     -11.244867      -305.9884
   3   2.0000     -11.243761      -305.9583
   4   2.0000     -11.240143      -305.8599
   5   2.0000     -11.239335      -305.8379
   6   2.0000     -11.237864      -305.7978
   7   2.0000     -11.237803      -305.7962
   8   2.0000     -11.237451      -305.7866
   9   2.0000     -11.236365      -305.7570
  10   2.0000     -11.235611      -305.7365
  11   2.0000      -7.485399      -203.6881
  12   2.0000      -5.379426      -146.3816
  13   2.0000      -5.379223      -146.3761
  14   2.0000      -5.378226      -146.3490
  15   2.0000      -1.187117       -32.3031
  16   2.0000      -1.120867       -30.5003
  17   2.0000      -1.058770       -28.8106
  18   2.0000      -1.020674       -27.7739
  19   2.0000      -0.991507       -26.9803
  20   2.0000      -0.883405       -24.0387
  21   2.0000      -0.852802       -23.2059
  22   2.0000      -0.820472       -22.3262
  23   2.0000      -0.804306       -21.8863
  24   2.0000      -0.709141       -19.2967
  25   2.0000      -0.698510       -19.0074
  26   2.0000      -0.668315       -18.1858
  27   2.0000      -0.628369       -17.0988
  28   2.0000      -0.612081       -16.6556
  29   2.0000      -0.593476       -16.1493
  30   2.0000      -0.586716       -15.9654
  31   2.0000      -0.552634       -15.0379
  32   2.0000      -0.547087       -14.8870
  33   2.0000      -0.523451       -14.2438
  34   2.0000      -0.513127       -13.9629
  35   2.0000      -0.488316       -13.2877
  36   2.0000      -0.477780       -13.0011
  37   2.0000      -0.456261       -12.4155
  38   2.0000      -0.397026       -10.8036
  39   2.0000      -0.376525       -10.2458
  40   2.0000      -0.318628        -8.6703
  41   2.0000      -0.294388        -8.0107
  42   0.0000       0.023066         0.6277
  43   0.0000       0.025936         0.7058
  44   0.0000       0.028289         0.7698
  45   0.0000       0.037411         1.0180
  46   0.0000       0.039458         1.0737

MULLIKEN ATOMIC CHARGES
-----------------------
   0 C :   -0.554996
   1 C :   -0.411155
   2 C :   -0.421335
   3 C :   -0.506696
   4 C :    0.822092
   5 C :    0.934267
   6 H :    0.190093
   7 H :    0.267765
   8 H :    0.259926
   9 H :    0.186868
  10 C :   -0.117843
  11 C :   -0.495603
  12 C :   -0.543580
  13 C :   -0.321701
  14 H :    0.157165
  15 H :    0.276085
  16 P :    0.241399
  17 H :    0.207444
  18 H :   -0.084598
  19 H :   -0.085597
Sum of atomic charges:   -0.0000000

LOEWDIN ATOMIC CHARGES
----------------------
   0 C :    0.356608
   1 C :    0.351633
   2 C :    0.351378
   3 C :    0.354921
   4 C :   -0.115392
   5 C :   -0.113230
   6 H :   -0.317698
   7 H :   -0.321813
   8 H :   -0.321712
   9 H :   -0.318185
  10 C :    0.260982
  11 C :   -0.322477
  12 C :    0.358093
  13 C :    0.249121
  14 H :   -0.316132
  15 H :   -0.342739
  16 P :    1.504689
  17 H :   -0.350691
  18 H :   -0.482956
  19 H :   -0.464400

  Mayer bond orders larger than 0.100000
B(  0-C ,  1-C ) :   1.3448 B(  0-C ,  3-C ) :   0.1763 B(  0-C ,  4-C ) :  -0.2530
B(  0-C ,  5-C ) :   0.6855 B(  0-C ,  6-H ) :   1.1388 B(  0-C ,  7-H ) :  -0.1658
B(  0-C , 10-C ) :  -0.3256 B(  1-C ,  2-C ) :   1.1241 B(  1-C ,  5-C ) :  -0.3760
B(  1-C ,  7-H ) :   1.1226 B(  2-C ,  3-C ) :   1.3331 B(  2-C ,  4-C ) :  -0.2996
B(  2-C ,  8-H ) :   1.1418 B(  3-C ,  4-C ) :   0.6248 B(  3-C ,  5-C ) :  -0.3366
B(  3-C ,  8-H ) :  -0.1971 B(  3-C ,  9-H ) :   1.1132 B(  4-C ,  5-C ) :   1.0660
B(  4-C ,  9-H ) :  -0.1785 B(  4-C , 10-C ) :  -0.2131 B(  4-C , 12-C ) :   0.7333
B(  4-C , 13-C ) :  -0.2403 B(  4-C , 14-H ) :  -0.1554 B(  5-C ,  6-H ) :  -0.1856
B(  5-C , 10-C ) :   0.6162 B(  5-C , 11-C ) :  -0.5241 B(  5-C , 12-C ) :  -0.3261
B(  5-C , 17-H ) :  -0.2404 B( 10-C , 11-C ) :   0.8182 B( 10-C , 12-C ) :   0.1725
B( 10-C , 13-C ) :   0.2161 B( 10-C , 16-P ) :  -0.5022 B( 10-C , 17-H ) :   1.0316
B( 11-C , 12-C ) :  -0.1628 B( 11-C , 13-C ) :   0.8518 B( 11-C , 15-H ) :  -0.1432
B( 11-C , 16-P ) :   1.0287 B( 11-C , 17-H ) :  -0.1140 B( 12-C , 13-C ) :   1.3149
B( 12-C , 14-H ) :   1.1754 B( 12-C , 15-H ) :  -0.1549 B( 13-C , 14-H ) :  -0.1952
B( 13-C , 15-H ) :   1.0314 B( 13-C , 16-P ) :  -0.1720 B( 16-P , 18-H ) :   0.9623
B( 16-P , 19-H ) :   0.8758

MP2 TOTAL ENERGY:     -726.672226019 Eh
FINAL SINGLE POINT ENERGY      -726.672226018891

DIPOLE MOMENT
-------------
                                X             Y             Z
Electronic contribution:      5.01028       0.34168      -1.19163
Nuclear contribution   :     -5.46782      -0.41304       1.41403
                        -----------------------------------------
Total Dipole Moment    :     -0.45754      -0.07136       0.22240
                        -----------------------------------------
Magnitude (a.u.)       :      0.51371
Magnitude (Debye)      :      1.30576

Rotational constants in cm-1:     0.090748     0.019300     0.015970
Rotational constants in MHz :  2720.560883   578.603314   478.780902

                             ****ORCA TERMINATED NORMALLY****
TOTAL RUN TIME: 0 days 1 hours 10 minutes 7 seconds 548 msec
