                         Program Version 5.0.4 -  RELEASE  -
|  1> ! ri-mp2 aug-cc-pvdz aug-cc-pvdz/c tightscf
|  2> %pal nprocs 16 end
|  3> %maxcore 3800
|  4> %base "DZ_Si-Cl_7_AB"
|  5> %scf
|  6> STABPerform true
|  7> STABRestartUHFifUnstable true
|  8> end
|  9>
| 10> *xyz 0 1
| 11> Si         0.487026   -0.000003    0.961701
| 12> C        -1.274053   -0.000001    0.340096
| 13> Cl         1.796793    0.000002   -0.636961
| 14> C        -1.603058    1.263358   -0.454786
| 15> H        -1.414986    2.170887    0.120591
| 16> H        -2.654167    1.268611   -0.750262
| 17> H        -1.005401    1.317969   -1.366169
| 18> C        -1.603059   -1.263355   -0.454792
| 19> H        -2.654167   -1.268606   -0.750269
| 20> H        -1.414987   -2.170887    0.120580
| 21> H        -1.005401   -1.317962   -1.366177
| 22> H        -1.880977   -0.000003    1.254769
| 23> H         0.773628   -1.209192    1.759168
| 24> H         0.773628    1.209182    1.759176
| 25> *
| 26>
| 27> $new_job
| 28> ! ri-mp2 aug-cc-pvtz aug-cc-pvtz/c tightscf
| 29> %pal nprocs 16 end
| 30> %maxcore 3800
| 31> %base "TZ_Si-Cl_7_AB"
| 32>
| 33> *xyz 0 1
| 34> Si         0.487026   -0.000003    0.961701
| 35> C        -1.274053   -0.000001    0.340096
| 36> Cl         1.796793    0.000002   -0.636961
| 37> C        -1.603058    1.263358   -0.454786
| 38> H        -1.414986    2.170887    0.120591
| 39> H        -2.654167    1.268611   -0.750262
| 40> H        -1.005401    1.317969   -1.366169
| 41> C        -1.603059   -1.263355   -0.454792
| 42> H        -2.654167   -1.268606   -0.750269
| 43> H        -1.414987   -2.170887    0.120580
| 44> H        -1.005401   -1.317962   -1.366177
| 45> H        -1.880977   -0.000003    1.254769
| 46> H         0.773628   -1.209192    1.759168
| 47> H         0.773628    1.209182    1.759176
| 48> *
| 49>
| 50> $new_job
| 51> ! ri-mp2 aug-cc-pvqz aug-cc-pvqz/c tightscf
| 52> %pal nprocs 16 end
| 53> %maxcore 3800
| 54> %base "QZ_Si-Cl_7_AB"
| 55>
| 56> *xyz 0 1
| 57> Si         0.487026   -0.000003    0.961701
| 58> C        -1.274053   -0.000001    0.340096
| 59> Cl         1.796793    0.000002   -0.636961
| 60> C        -1.603058    1.263358   -0.454786
| 61> H        -1.414986    2.170887    0.120591
| 62> H        -2.654167    1.268611   -0.750262
| 63> H        -1.005401    1.317969   -1.366169
| 64> C        -1.603059   -1.263355   -0.454792
| 65> H        -2.654167   -1.268606   -0.750269
| 66> H        -1.414987   -2.170887    0.120580
| 67> H        -1.005401   -1.317962   -1.366177
| 68> H        -1.880977   -0.000003    1.254769
| 69> H         0.773628   -1.209192    1.759168
| 70> H         0.773628    1.209182    1.759176
| 71> *
| 72>
| 73>
| 74>
| 75>
| 76>                          ****END OF INPUT****
 Total Charge           Charge          ....    0
 Multiplicity           Mult            ....    1
 Number of Electrons    NEL             ....   58
MP2 TOTAL ENERGY:     -868.057587560 Eh
FINAL SINGLE POINT ENERGY      -868.057587560463
MP2 TOTAL ENERGY:     -868.275864944 Eh
FINAL SINGLE POINT ENERGY      -868.275864944122

CARTESIAN COORDINATES (ANGSTROEM)
---------------------------------
  Si     0.487026   -0.000003    0.961701
  C     -1.274053   -0.000001    0.340096
  Cl     1.796793    0.000002   -0.636961
  C     -1.603058    1.263358   -0.454786
  H     -1.414986    2.170887    0.120591
  H     -2.654167    1.268611   -0.750262
  H     -1.005401    1.317969   -1.366169
  C     -1.603059   -1.263355   -0.454792
  H     -2.654167   -1.268606   -0.750269
  H     -1.414987   -2.170887    0.120580
  H     -1.005401   -1.317962   -1.366177
  H     -1.880977   -0.000003    1.254769
  H      0.773628   -1.209192    1.759168
  H      0.773628    1.209182    1.759176

 Multiplicity           Mult            ....    1
 Number of Electrons    NEL             ....   58
 Basis Dimension        Dim             ....  822

ORBITAL ENERGIES
----------------

  NO   OCC          E(Eh)            E(eV)
   0   2.0000    -104.818698     -2852.2618
   1   2.0000     -68.802274     -1872.2051
   2   2.0000     -11.225772      -305.4688
   3   2.0000     -11.222480      -305.3792
   4   2.0000     -11.222414      -305.3774
   5   2.0000     -10.546234      -286.9776
   6   2.0000      -8.013043      -218.0460
   7   2.0000      -8.011976      -218.0169
   8   2.0000      -8.011964      -218.0166
   9   2.0000      -6.148752      -167.3160
  10   2.0000      -4.255710      -115.8038
  11   2.0000      -4.254677      -115.7757
  12   2.0000      -4.254119      -115.7605
  13   2.0000      -1.092885       -29.7389
  14   2.0000      -1.063868       -28.9493
  15   2.0000      -0.939430       -25.5632
  16   2.0000      -0.818244       -22.2656
  17   2.0000      -0.697710       -18.9857
  18   2.0000      -0.628294       -17.0967
  19   2.0000      -0.597477       -16.2582
  20   2.0000      -0.573387       -15.6027
  21   2.0000      -0.546227       -14.8636
  22   2.0000      -0.519805       -14.1446
  23   2.0000      -0.512751       -13.9527
  24   2.0000      -0.488456       -13.2916
  25   2.0000      -0.488159       -13.2835
  26   2.0000      -0.471467       -12.8293
  27   2.0000      -0.442382       -12.0378
  28   2.0000      -0.415159       -11.2971
  29   0.0000       0.022910         0.6234
  30   0.0000       0.032895         0.8951
  31   0.0000       0.033661         0.9160
  32   0.0000       0.035489         0.9657
  33   0.0000       0.048490         1.3195

MULLIKEN ATOMIC CHARGES
-----------------------
   0 Si:    1.379184
   1 C :   -0.026673
   2 Cl:   -0.688628
   3 C :   -0.937776
   4 H :    0.263121
   5 H :    0.278697
   6 H :    0.225723
   7 C :   -0.937776
   8 H :    0.278698
   9 H :    0.263121
  10 H :    0.225721
  11 H :    0.261562
  12 H :   -0.292487
  13 H :   -0.292487
Sum of atomic charges:    0.0000000

LOEWDIN ATOMIC CHARGES
----------------------
   0 Si:   -0.011785
   1 C :    0.026048
   2 Cl:    0.928162
   3 C :    0.832843
   4 H :   -0.290337
   5 H :   -0.278228
   6 H :   -0.302191
   7 C :    0.832842
   8 H :   -0.278228
   9 H :   -0.290338
  10 H :   -0.302189
  11 H :   -0.339542
  12 H :   -0.263528
  13 H :   -0.263527

  Mayer bond orders larger than 0.100000
B(  0-Si,  1-C ) :   0.6813 B(  0-Si,  2-Cl) :   0.3454 B(  0-Si, 12-H ) :   0.8353
B(  0-Si, 13-H ) :   0.8353 B(  1-C ,  2-Cl) :  -0.1252 B(  1-C ,  3-C ) :   0.7831
B(  1-C ,  7-C ) :   0.7831 B(  1-C , 11-H ) :   0.8649 B(  3-C ,  4-H ) :   0.9667
B(  3-C ,  5-H ) :   0.9677 B(  3-C ,  6-H ) :   0.9637 B(  7-C ,  8-H ) :   0.9677
B(  7-C ,  9-H ) :   0.9667 B(  7-C , 10-H ) :   0.9637

MP2 TOTAL ENERGY:     -868.344285547 Eh
FINAL SINGLE POINT ENERGY      -868.344285546560

DIPOLE MOMENT
-------------
                                X             Y             Z
Electronic contribution:     12.38214       0.00000      -1.28683
Nuclear contribution   :    -13.11721      -0.00000       1.63857
                        -----------------------------------------
Total Dipole Moment    :     -0.73507      -0.00000       0.35174
                        -----------------------------------------
Magnitude (a.u.)       :      0.81489
Magnitude (Debye)      :      2.07129

Rotational constants in cm-1:     0.144593     0.059406     0.059090
Rotational constants in MHz :  4334.778391  1780.934790  1771.472478

                             ****ORCA TERMINATED NORMALLY****
TOTAL RUN TIME: 0 days 1 hours 31 minutes 37 seconds 537 msec
