                         Program Version 5.0.4 -  RELEASE  -
|  1> ! ri-mp2 aug-cc-pvdz aug-cc-pvdz/c tightscf
|  2> %pal nprocs 16 end
|  3> %maxcore 3800
|  4> %base "DZ_B-Cl_57_AB"
|  5>
|  6> *xyz 0 1
|  7> Cl        -2.059001   -1.495975    0.000003
|  8> B        -1.154693   -0.000000   -0.000000
|  9> Cl        -2.059001    1.495975   -0.000003
| 10> C         0.395350    0.000000    0.000002
| 11> C         1.126070    1.186178   -0.000001
| 12> C         1.126070   -1.186178    0.000003
| 13> C         2.508249   -1.135175    0.000001
| 14> C         2.508249    1.135175   -0.000003
| 15> N         3.195230    0.000000   -0.000003
| 16> H         0.623997    2.143321   -0.000003
| 17> H         3.090475    2.049584   -0.000007
| 18> H         0.623997   -2.143321    0.000005
| 19> H         3.090475   -2.049584    0.000001
| 20> *
| 21>
| 22> $new_job
| 23> ! ri-mp2 aug-cc-pvtz aug-cc-pvtz/c tightscf
| 24> %pal nprocs 16 end
| 25> %maxcore 3800
| 26> %base "TZ_B-Cl_57_AB"
| 27>
| 28> *xyz 0 1
| 29> Cl        -2.059001   -1.495975    0.000003
| 30> B        -1.154693   -0.000000   -0.000000
| 31> Cl        -2.059001    1.495975   -0.000003
| 32> C         0.395350    0.000000    0.000002
| 33> C         1.126070    1.186178   -0.000001
| 34> C         1.126070   -1.186178    0.000003
| 35> C         2.508249   -1.135175    0.000001
| 36> C         2.508249    1.135175   -0.000003
| 37> N         3.195230    0.000000   -0.000003
| 38> H         0.623997    2.143321   -0.000003
| 39> H         3.090475    2.049584   -0.000007
| 40> H         0.623997   -2.143321    0.000005
| 41> H         3.090475   -2.049584    0.000001
| 42> *
| 43>
| 44> $new_job
| 45> ! ri-mp2 aug-cc-pvqz aug-cc-pvqz/c tightscf
| 46> %pal nprocs 16 end
| 47> %maxcore 3800
| 48> %base "QZ_B-Cl_57_AB"
| 49>
| 50> *xyz 0 1
| 51> Cl        -2.059001   -1.495975    0.000003
| 52> B        -1.154693   -0.000000   -0.000000
| 53> Cl        -2.059001    1.495975   -0.000003
| 54> C         0.395350    0.000000    0.000002
| 55> C         1.126070    1.186178   -0.000001
| 56> C         1.126070   -1.186178    0.000003
| 57> C         2.508249   -1.135175    0.000001
| 58> C         2.508249    1.135175   -0.000003
| 59> N         3.195230    0.000000   -0.000003
| 60> H         0.623997    2.143321   -0.000003
| 61> H         3.090475    2.049584   -0.000007
| 62> H         0.623997   -2.143321    0.000005
| 63> H         3.090475   -2.049584    0.000001
| 64> *
| 65>
| 66>
| 67>
| 68>
| 69>                          ****END OF INPUT****
 Total Charge           Charge          ....    0
 Multiplicity           Mult            ....    1
 Number of Electrons    NEL             ....   80
MP2 TOTAL ENERGY:    -1191.145131002 Eh
FINAL SINGLE POINT ENERGY     -1191.145131001637
MP2 TOTAL ENERGY:    -1191.494429420 Eh
FINAL SINGLE POINT ENERGY     -1191.494429420010

CARTESIAN COORDINATES (ANGSTROEM)
---------------------------------
  Cl    -2.059001   -1.495975    0.000003
  B     -1.154693   -0.000000   -0.000000
  Cl    -2.059001    1.495975   -0.000003
  C      0.395350    0.000000    0.000002
  C      1.126070    1.186178   -0.000001
  C      1.126070   -1.186178    0.000003
  C      2.508249   -1.135175    0.000001
  C      2.508249    1.135175   -0.000003
  N      3.195230    0.000000   -0.000003
  H      0.623997    2.143321   -0.000003
  H      3.090475    2.049584   -0.000007
  H      0.623997   -2.143321    0.000005
  H      3.090475   -2.049584    0.000001

 Multiplicity           Mult            ....    1
 Number of Electrons    NEL             ....   80
 Basis Dimension        Dim             ....  912

ORBITAL ENERGIES
----------------

  NO   OCC          E(Eh)            E(eV)
   0   2.0000    -104.849161     -2853.0907
   1   2.0000    -104.849160     -2853.0907
   2   2.0000     -15.580701      -423.9724
   3   2.0000     -11.280906      -306.9691
   4   2.0000     -11.280889      -306.9686
   5   2.0000     -11.257140      -306.3224
   6   2.0000     -11.256781      -306.3126
   7   2.0000     -11.254710      -306.2562
   8   2.0000     -10.577114      -287.8179
   9   2.0000     -10.577106      -287.8177
  10   2.0000      -8.043935      -218.8866
  11   2.0000      -8.043933      -218.8866
  12   2.0000      -8.042875      -218.8578
  13   2.0000      -8.042874      -218.8577
  14   2.0000      -8.042628      -218.8510
  15   2.0000      -8.042627      -218.8510
  16   2.0000      -7.720545      -210.0867
  17   2.0000      -1.278651       -34.7939
  18   2.0000      -1.158630       -31.5279
  19   2.0000      -1.109570       -30.1929
  20   2.0000      -1.100612       -29.9492
  21   2.0000      -1.049265       -28.5520
  22   2.0000      -0.877619       -23.8812
  23   2.0000      -0.872127       -23.7318
  24   2.0000      -0.747526       -20.3412
  25   2.0000      -0.684181       -18.6175
  26   2.0000      -0.678204       -18.4549
  27   2.0000      -0.656151       -17.8548
  28   2.0000      -0.612154       -16.6575
  29   2.0000      -0.581247       -15.8165
  30   2.0000      -0.575394       -15.6573
  31   2.0000      -0.563227       -15.3262
  32   2.0000      -0.527803       -14.3622
  33   2.0000      -0.525625       -14.3030
  34   2.0000      -0.479316       -13.0428
  35   2.0000      -0.475963       -12.9516
  36   2.0000      -0.461671       -12.5627
  37   2.0000      -0.430647       -11.7185
  38   2.0000      -0.401002       -10.9118
  39   2.0000      -0.360249        -9.8029
  40   0.0000       0.021515         0.5854
  41   0.0000       0.027226         0.7409
  42   0.0000       0.028876         0.7858
  43   0.0000       0.033796         0.9196
  44   0.0000       0.037684         1.0254

MULLIKEN ATOMIC CHARGES
-----------------------
   0 Cl:   -0.232409
   1 B :    0.879708
   2 Cl:   -0.232409
   3 C :   -0.051887
   4 C :   -0.511611
   5 C :   -0.511611
   6 C :   -0.162616
   7 C :   -0.162616
   8 N :   -0.588754
   9 H :    0.319508
  10 H :    0.467594
  11 H :    0.319508
  12 H :    0.467594
Sum of atomic charges:   -0.0000000

LOEWDIN ATOMIC CHARGES
----------------------
   0 Cl:    1.312293
   1 B :   -2.314792
   2 Cl:    1.312293
   3 C :   -0.174059
   4 C :    0.257286
   5 C :    0.257286
   6 C :    0.093220
   7 C :    0.093220
   8 N :    0.604569
   9 H :   -0.374071
  10 H :   -0.346587
  11 H :   -0.374071
  12 H :   -0.346587

  Mayer bond orders larger than 0.100000
B(  0-Cl,  1-B ) :   0.9292 B(  0-Cl,  3-C ) :   0.2842 B(  0-Cl, 11-H ) :  -0.1183
B(  1-B ,  2-Cl) :   0.9292 B(  1-B ,  3-C ) :   1.1643 B(  2-Cl,  3-C ) :   0.2842
B(  2-Cl,  9-H ) :  -0.1183 B(  3-C ,  4-C ) :   0.9726 B(  3-C ,  5-C ) :   0.9726
B(  3-C ,  6-C ) :  -0.3562 B(  3-C ,  7-C ) :  -0.3562 B(  4-C ,  6-C ) :   0.1097
B(  4-C ,  7-C ) :   1.2809 B(  4-C ,  8-N ) :   0.1066 B(  4-C ,  9-H ) :   1.0160
B(  4-C , 10-H ) :  -0.1702 B(  5-C ,  6-C ) :   1.2809 B(  5-C ,  7-C ) :   0.1097
B(  5-C ,  8-N ) :   0.1066 B(  5-C , 11-H ) :   1.0160 B(  5-C , 12-H ) :  -0.1702
B(  6-C ,  8-N ) :   1.1966 B(  6-C , 12-H ) :   0.9088 B(  7-C ,  8-N ) :   1.1966
B(  7-C , 10-H ) :   0.9088 B(  8-N , 10-H ) :  -0.1132 B(  8-N , 12-H ) :  -0.1132

MP2 TOTAL ENERGY:    -1191.609685116 Eh
FINAL SINGLE POINT ENERGY     -1191.609685116066

DIPOLE MOMENT
-------------
                                X             Y             Z
Electronic contribution:    -13.51697      -0.00000       0.00000
Nuclear contribution   :     13.41560       0.00000      -0.00000
                        -----------------------------------------
Total Dipole Moment    :     -0.10137      -0.00000       0.00000
                        -----------------------------------------
Magnitude (a.u.)       :      0.10137
Magnitude (Debye)      :      0.25767

Rotational constants in cm-1:     0.069900     0.025531     0.018701
Rotational constants in MHz :  2095.548723   765.411262   560.635801

                             ****ORCA TERMINATED NORMALLY****
TOTAL RUN TIME: 0 days 0 hours 22 minutes 6 seconds 952 msec
