                         Program Version 5.0.4 -  RELEASE  -
|  1> ! ri-mp2 aug-cc-pvdz aug-cc-pvdz/c tightscf
|  2> %pal nprocs 16 end
|  3> %maxcore 3800
|  4> %base "DZ_Si-Cl_33_AB"
|  5> %scf
|  6> STABPerform true
|  7> STABRestartUHFifUnstable true
|  8> end
|  9>
| 10> *xyz 0 1
| 11> C         1.538289   -0.097156    0.041154
| 12> O         2.235898   -0.977881    0.450567
| 13> Si        -0.298126   -0.099615    0.562415
| 14> O         2.023710    0.863677   -0.759925
| 15> Cl        -1.245596   -1.607477   -0.408434
| 16> Cl        -1.110218    1.705035    0.015469
| 17> H         1.335810    1.508949   -0.974747
| 18> H        -0.419806   -0.276260    2.009271
| 19> *
| 20>
| 21> $new_job
| 22> ! ri-mp2 aug-cc-pvtz aug-cc-pvtz/c tightscf
| 23> %pal nprocs 16 end
| 24> %maxcore 3800
| 25> %base "TZ_Si-Cl_33_AB"
| 26>
| 27> *xyz 0 1
| 28> C         1.538289   -0.097156    0.041154
| 29> O         2.235898   -0.977881    0.450567
| 30> Si        -0.298126   -0.099615    0.562415
| 31> O         2.023710    0.863677   -0.759925
| 32> Cl        -1.245596   -1.607477   -0.408434
| 33> Cl        -1.110218    1.705035    0.015469
| 34> H         1.335810    1.508949   -0.974747
| 35> H        -0.419806   -0.276260    2.009271
| 36> *
| 37>
| 38> $new_job
| 39> ! ri-mp2 aug-cc-pvqz aug-cc-pvqz/c tightscf
| 40> %pal nprocs 16 end
| 41> %maxcore 3800
| 42> %base "QZ_Si-Cl_33_AB"
| 43>
| 44> *xyz 0 1
| 45> C         1.538289   -0.097156    0.041154
| 46> O         2.235898   -0.977881    0.450567
| 47> Si        -0.298126   -0.099615    0.562415
| 48> O         2.023710    0.863677   -0.759925
| 49> Cl        -1.245596   -1.607477   -0.408434
| 50> Cl        -1.110218    1.705035    0.015469
| 51> H         1.335810    1.508949   -0.974747
| 52> H        -0.419806   -0.276260    2.009271
| 53> *
| 54>
| 55>
| 56>
| 57>
| 58>                          ****END OF INPUT****
 Total Charge           Charge          ....    0
 Multiplicity           Mult            ....    1
 Number of Electrons    NEL             ....   72
MP2 TOTAL ENERGY:    -1397.750743867 Eh
FINAL SINGLE POINT ENERGY     -1397.750743866543
MP2 TOTAL ENERGY:    -1398.069687792 Eh
FINAL SINGLE POINT ENERGY     -1398.069687792235

CARTESIAN COORDINATES (ANGSTROEM)
---------------------------------
  C      1.538289   -0.097156    0.041154
  O      2.235898   -0.977881    0.450567
  Si    -0.298126   -0.099615    0.562415
  O      2.023710    0.863677   -0.759925
  Cl    -1.245596   -1.607477   -0.408434
  Cl    -1.110218    1.705035    0.015469
  H      1.335810    1.508949   -0.974747
  H     -0.419806   -0.276260    2.009271

 Multiplicity           Mult            ....    1
 Number of Electrons    NEL             ....   72
 Basis Dimension        Dim             ....  584

ORBITAL ENERGIES
----------------

  NO   OCC          E(Eh)            E(eV)
   0   2.0000    -104.868679     -2853.6218
   1   2.0000    -104.861575     -2853.4285
   2   2.0000     -68.889946     -1874.5907
   3   2.0000     -20.629787      -561.3650
   4   2.0000     -20.571399      -559.7762
   5   2.0000     -11.391175      -309.9696
   6   2.0000     -10.596178      -288.3367
   7   2.0000     -10.589015      -288.1418
   8   2.0000      -8.062917      -219.4031
   9   2.0000      -8.061814      -219.3731
  10   2.0000      -8.061784      -219.3723
  11   2.0000      -8.055799      -219.2094
  12   2.0000      -8.054571      -219.1760
  13   2.0000      -8.054553      -219.1755
  14   2.0000      -6.230841      -169.5498
  15   2.0000      -4.338147      -118.0470
  16   2.0000      -4.337342      -118.0251
  17   2.0000      -4.336436      -118.0004
  18   2.0000      -1.480910       -40.2976
  19   2.0000      -1.389032       -37.7975
  20   2.0000      -1.151612       -31.3370
  21   2.0000      -1.122305       -30.5395
  22   2.0000      -0.868256       -23.6264
  23   2.0000      -0.808076       -21.9889
  24   2.0000      -0.693379       -18.8678
  25   2.0000      -0.680731       -18.5236
  26   2.0000      -0.648972       -17.6594
  27   2.0000      -0.596015       -16.2184
  28   2.0000      -0.579315       -15.7640
  29   2.0000      -0.575417       -15.6579
  30   2.0000      -0.529757       -14.4154
  31   2.0000      -0.510055       -13.8793
  32   2.0000      -0.499136       -13.5822
  33   2.0000      -0.494265       -13.4496
  34   2.0000      -0.488263       -13.2863
  35   2.0000      -0.438100       -11.9213
  36   0.0000       0.024552         0.6681
  37   0.0000       0.034049         0.9265
  38   0.0000       0.035403         0.9634
  39   0.0000       0.041630         1.1328
  40   0.0000       0.055629         1.5137

MULLIKEN ATOMIC CHARGES
-----------------------
   0 C :    0.674755
   1 O :   -0.731043
   2 Si:    1.653947
   3 O :   -0.739305
   4 Cl:   -0.553904
   5 Cl:   -0.565784
   6 H :    0.414956
   7 H :   -0.153621
Sum of atomic charges:   -0.0000000

LOEWDIN ATOMIC CHARGES
----------------------
   0 C :   -1.152612
   1 O :    0.576048
   2 Si:   -1.178456
   3 O :    1.163557
   4 Cl:    0.918434
   5 Cl:    0.928474
   6 H :   -0.932325
   7 H :   -0.323121

  Mayer bond orders larger than 0.100000
B(  0-C ,  1-O ) :   1.6384 B(  0-C ,  2-Si) :   0.7581 B(  0-C ,  3-O ) :   0.9201
B(  2-Si,  4-Cl) :   0.5970 B(  2-Si,  5-Cl) :   0.5374 B(  2-Si,  7-H ) :   0.9466
B(  3-O ,  6-H ) :   0.8363

MP2 TOTAL ENERGY:    -1398.177950354 Eh
FINAL SINGLE POINT ENERGY     -1398.177950354387

DIPOLE MOMENT
-------------
                                X             Y             Z
Electronic contribution:     -5.08914      -0.23092      -1.37270
Nuclear contribution   :      4.07631       1.02324       1.45248
                        -----------------------------------------
Total Dipole Moment    :     -1.01283       0.79232       0.07978
                        -----------------------------------------
Magnitude (a.u.)       :      1.28839
Magnitude (Debye)      :      3.27484

Rotational constants in cm-1:     0.065623     0.054498     0.033600
Rotational constants in MHz :  1967.326080  1633.815927  1007.295934

                             ****ORCA TERMINATED NORMALLY****
TOTAL RUN TIME: 0 days 0 hours 22 minutes 27 seconds 103 msec
