                         Program Version 5.0.4 -  RELEASE  -
|  1> ! ri-mp2 aug-cc-pvdz aug-cc-pvdz/c tightscf
|  2> %pal nprocs 16 end
|  3> %maxcore 3800
|  4> %base "DZ_B-P_36_A"
|  5> %scf
|  6> STABPerform true
|  7> STABRestartUHFifUnstable true
|  8> end
|  9>
| 10> *xyz 0 2
| 11> C        -0.115266   -0.000000   -0.482280
| 12> C         0.860995   -1.077119    0.062696
| 13> C         0.860995    1.077119    0.062696
| 14> C         1.961210    0.000000    0.114598
| 15> H         0.571159    1.406412    1.060560
| 16> H         1.027771    1.953543   -0.560649
| 17> H         2.566774    0.000000   -0.791208
| 18> H         2.624597    0.000000    0.977623
| 19> H         1.027771   -1.953544   -0.560649
| 20> H         0.571159   -1.406411    1.060560
| 21> P        -1.873837   -0.000000    0.027828
| 22> H        -0.087771   -0.000000   -1.573461
| 23> H        -1.601505    0.000001    1.423543
| 24> *
| 25>
| 26> $new_job
| 27> ! ri-mp2 aug-cc-pvtz aug-cc-pvtz/c tightscf
| 28> %pal nprocs 16 end
| 29> %maxcore 3800
| 30> %base "TZ_B-P_36_A"
| 31>
| 32> *xyz 0 2
| 33> C        -0.115266   -0.000000   -0.482280
| 34> C         0.860995   -1.077119    0.062696
| 35> C         0.860995    1.077119    0.062696
| 36> C         1.961210    0.000000    0.114598
| 37> H         0.571159    1.406412    1.060560
| 38> H         1.027771    1.953543   -0.560649
| 39> H         2.566774    0.000000   -0.791208
| 40> H         2.624597    0.000000    0.977623
| 41> H         1.027771   -1.953544   -0.560649
| 42> H         0.571159   -1.406411    1.060560
| 43> P        -1.873837   -0.000000    0.027828
| 44> H        -0.087771   -0.000000   -1.573461
| 45> H        -1.601505    0.000001    1.423543
| 46> *
| 47>
| 48> $new_job
| 49> ! ri-mp2 aug-cc-pvqz aug-cc-pvqz/c tightscf
| 50> %pal nprocs 16 end
| 51> %maxcore 3800
| 52> %base "QZ_B-P_36_A"
| 53>
| 54> *xyz 0 2
| 55> C        -0.115266   -0.000000   -0.482280
| 56> C         0.860995   -1.077119    0.062696
| 57> C         0.860995    1.077119    0.062696
| 58> C         1.961210    0.000000    0.114598
| 59> H         0.571159    1.406412    1.060560
| 60> H         1.027771    1.953543   -0.560649
| 61> H         2.566774    0.000000   -0.791208
| 62> H         2.624597    0.000000    0.977623
| 63> H         1.027771   -1.953544   -0.560649
| 64> H         0.571159   -1.406411    1.060560
| 65> P        -1.873837   -0.000000    0.027828
| 66> H        -0.087771   -0.000000   -1.573461
| 67> H        -1.601505    0.000001    1.423543
| 68> *
| 69>
| 70>
| 71>
| 72>
| 73>                          ****END OF INPUT****
 Total Charge           Charge          ....    0
 Multiplicity           Mult            ....    2
 Number of Electrons    NEL             ....   47
MP2 TOTAL ENERGY:     -497.518104576 Eh
FINAL SINGLE POINT ENERGY      -497.518104576301
MP2 TOTAL ENERGY:     -497.703435046 Eh
FINAL SINGLE POINT ENERGY      -497.703435045699

CARTESIAN COORDINATES (ANGSTROEM)
---------------------------------
  C     -0.115266   -0.000000   -0.482280
  C      0.860995   -1.077119    0.062696
  C      0.860995    1.077119    0.062696
  C      1.961210    0.000000    0.114598
  H      0.571159    1.406412    1.060560
  H      1.027771    1.953543   -0.560649
  H      2.566774    0.000000   -0.791208
  H      2.624597    0.000000    0.977623
  H      1.027771   -1.953544   -0.560649
  H      0.571159   -1.406411    1.060560
  P     -1.873837   -0.000000    0.027828
  H     -0.087771   -0.000000   -1.573461
  H     -1.601505    0.000001    1.423543

 Multiplicity           Mult            ....    2
 Number of Electrons    NEL             ....   47
 Basis Dimension        Dim             ....  772

ORBITAL ENERGIES
----------------
                 SPIN UP ORBITALS
  NO   OCC          E(Eh)            E(eV)
   0   1.0000     -79.938861     -2175.2470
   1   1.0000     -11.233227      -305.6716
   2   1.0000     -11.228055      -305.5309
   3   1.0000     -11.228049      -305.5308
   4   1.0000     -11.223530      -305.4078
   5   1.0000      -7.482266      -203.6028
   6   1.0000      -5.387082      -146.5900
   7   1.0000      -5.373170      -146.2114
   8   1.0000      -5.371380      -146.1627
   9   1.0000      -1.139942       -31.0194
  10   1.0000      -0.932714       -25.3804
  11   1.0000      -0.907401       -24.6916
  12   1.0000      -0.805988       -21.9321
  13   1.0000      -0.748202       -20.3596
  14   1.0000      -0.659324       -17.9411
  15   1.0000      -0.616019       -16.7627
  16   1.0000      -0.548994       -14.9389
  17   1.0000      -0.520615       -14.1667
  18   1.0000      -0.515610       -14.0305
  19   1.0000      -0.474682       -12.9167
  20   1.0000      -0.454993       -12.3810
  21   1.0000      -0.452039       -12.3006
  22   1.0000      -0.378783       -10.3072
  23   1.0000      -0.342735        -9.3263
  24   0.0000       0.025667         0.6984
  25   0.0000       0.032564         0.8861
  26   0.0000       0.034751         0.9456
  27   0.0000       0.036485         0.9928
  28   0.0000       0.050164         1.3650

                 SPIN DOWN ORBITALS
  NO   OCC          E(Eh)            E(eV)
   0   1.0000     -79.931977     -2175.0597
   1   1.0000     -11.234849      -305.7158
   2   1.0000     -11.226734      -305.4950
   3   1.0000     -11.226698      -305.4940
   4   1.0000     -11.223544      -305.4082
   5   1.0000      -7.473812      -203.3728
   6   1.0000      -5.368559      -146.0859
   7   1.0000      -5.368151      -146.0748
   8   1.0000      -5.354483      -145.7029
   9   1.0000      -1.136841       -30.9350
  10   1.0000      -0.919198       -25.0126
  11   1.0000      -0.903571       -24.5874
  12   1.0000      -0.775508       -21.1026
  13   1.0000      -0.732513       -19.9327
  14   1.0000      -0.657957       -17.9039
  15   1.0000      -0.610683       -16.6175
  16   1.0000      -0.547946       -14.9104
  17   1.0000      -0.517358       -14.0780
  18   1.0000      -0.501982       -13.6596
  19   1.0000      -0.466514       -12.6945
  20   1.0000      -0.452262       -12.3067
  21   1.0000      -0.446681       -12.1548
  22   1.0000      -0.363969        -9.9041
  23   0.0000       0.025883         0.7043
  24   0.0000       0.027130         0.7382
  25   0.0000       0.032618         0.8876
  26   0.0000       0.036999         1.0068
  27   0.0000       0.046299         1.2598

MULLIKEN ATOMIC CHARGES AND SPIN POPULATIONS
--------------------------------------------
   0 C :   -0.411675   -0.095300
   1 C :   -0.597607    0.024016
   2 C :   -0.597619    0.024016
   3 C :   -0.580945    0.002571
   4 H :    0.262741   -0.003869
   5 H :    0.355926   -0.003498
   6 H :    0.267740   -0.000112
   7 H :    0.325766   -0.000992
   8 H :    0.355946   -0.003497
   9 H :    0.262718   -0.003869
  10 P :    0.182268    1.108482
  11 H :    0.303635    0.009256
  12 H :   -0.128894   -0.057204
Sum of atomic charges         :    0.0000000

LOEWDIN ATOMIC CHARGES AND SPIN POPULATIONS
-------------------------------------------
   0 C :   -0.209084    0.160614
   1 C :    0.459318    0.027191
   2 C :    0.459318    0.027191
   3 C :    0.536246    0.007945
   4 H :   -0.296207    0.008417
   5 H :   -0.256085    0.004138
   6 H :   -0.270469    0.000739
   7 H :   -0.255618    0.000696
   8 H :   -0.256084    0.004138
   9 H :   -0.296207    0.008417
  10 P :    1.338440    0.575941
  11 H :   -0.381413    0.007331
  12 H :   -0.572156    0.167243

  Mayer bond orders larger than 0.100000
B(  0-C ,  1-C ) :   0.9686 B(  0-C ,  2-C ) :   0.9686 B(  0-C ,  3-C ) :  -0.1021
B(  0-C , 10-P ) :   0.7357 B(  0-C , 11-H ) :   0.9146 B(  1-C ,  3-C ) :   1.0587
B(  1-C ,  8-H ) :   0.8271 B(  1-C ,  9-H ) :   0.9029 B(  2-C ,  3-C ) :   1.0587
B(  2-C ,  4-H ) :   0.9029 B(  2-C ,  5-H ) :   0.8271 B(  3-C ,  6-H ) :   0.8900
B(  3-C ,  7-H ) :   0.8549 B( 10-P , 12-H ) :   0.9266

MP2 TOTAL ENERGY:     -497.760500275 Eh
FINAL SINGLE POINT ENERGY      -497.760500275299

DIPOLE MOMENT
-------------
                                X             Y             Z
Electronic contribution:     -7.94817      -0.00000      -0.98150
Nuclear contribution   :      8.60024       0.00000       1.02359
                        -----------------------------------------
Total Dipole Moment    :      0.65206       0.00000       0.04209
                        -----------------------------------------
Magnitude (a.u.)       :      0.65342
Magnitude (Debye)      :      1.66087

Rotational constants in cm-1:     0.326492     0.082975     0.073093
Rotational constants in MHz :  9787.969112  2487.539362  2191.258414

                             ****ORCA TERMINATED NORMALLY****
TOTAL RUN TIME: 0 days 1 hours 49 minutes 15 seconds 526 msec
