                         Program Version 5.0.4 -  RELEASE  -
|  1> ! ri-mp2 aug-cc-pvdz aug-cc-pvdz/c tightscf
|  2> %pal nprocs 16 end
|  3> %maxcore 3800
|  4> %base "DZ_B-P_53_AB"
|  5>
|  6> *xyz 0 1
|  7> C        -0.532233   -0.332177    0.381164
|  8> B         2.229630    0.265133   -0.265013
|  9> F         3.404798   -0.192420   -0.656442
| 10> F         1.889208    1.467897   -0.684531
| 11> C        -1.124782    0.863207    0.774035
| 12> C        -1.257482   -1.212112   -0.414439
| 13> C        -2.406552    1.181552    0.362000
| 14> C        -3.121945    0.299483   -0.429885
| 15> C        -2.545852   -0.899868   -0.812367
| 16> H        -3.098787   -1.595378   -1.429795
| 17> H        -0.813864   -2.147498   -0.729870
| 18> H        -2.850735    2.119136    0.668722
| 19> H        -4.127012    0.544783   -0.745682
| 20> H        -0.581026    1.552723    1.407624
| 21> P         1.151243   -0.713511    0.978380
| 22> H         1.341655   -1.976551    0.384069
| 23> *
| 24>
| 25> $new_job
| 26> ! ri-mp2 aug-cc-pvtz aug-cc-pvtz/c tightscf
| 27> %pal nprocs 16 end
| 28> %maxcore 3800
| 29> %base "TZ_B-P_53_AB"
| 30>
| 31> *xyz 0 1
| 32> C        -0.532233   -0.332177    0.381164
| 33> B         2.229630    0.265133   -0.265013
| 34> F         3.404798   -0.192420   -0.656442
| 35> F         1.889208    1.467897   -0.684531
| 36> C        -1.124782    0.863207    0.774035
| 37> C        -1.257482   -1.212112   -0.414439
| 38> C        -2.406552    1.181552    0.362000
| 39> C        -3.121945    0.299483   -0.429885
| 40> C        -2.545852   -0.899868   -0.812367
| 41> H        -3.098787   -1.595378   -1.429795
| 42> H        -0.813864   -2.147498   -0.729870
| 43> H        -2.850735    2.119136    0.668722
| 44> H        -4.127012    0.544783   -0.745682
| 45> H        -0.581026    1.552723    1.407624
| 46> P         1.151243   -0.713511    0.978380
| 47> H         1.341655   -1.976551    0.384069
| 48> *
| 49>
| 50> $new_job
| 51> ! ri-mp2 aug-cc-pvqz aug-cc-pvqz/c tightscf
| 52> %pal nprocs 16 end
| 53> %maxcore 3800
| 54> %base "QZ_B-P_53_AB"
| 55>
| 56> *xyz 0 1
| 57> C        -0.532233   -0.332177    0.381164
| 58> B         2.229630    0.265133   -0.265013
| 59> F         3.404798   -0.192420   -0.656442
| 60> F         1.889208    1.467897   -0.684531
| 61> C        -1.124782    0.863207    0.774035
| 62> C        -1.257482   -1.212112   -0.414439
| 63> C        -2.406552    1.181552    0.362000
| 64> C        -3.121945    0.299483   -0.429885
| 65> C        -2.545852   -0.899868   -0.812367
| 66> H        -3.098787   -1.595378   -1.429795
| 67> H        -0.813864   -2.147498   -0.729870
| 68> H        -2.850735    2.119136    0.668722
| 69> H        -4.127012    0.544783   -0.745682
| 70> H        -0.581026    1.552723    1.407624
| 71> P         1.151243   -0.713511    0.978380
| 72> H         1.341655   -1.976551    0.384069
| 73> *
| 74>
| 75>
| 76>
| 77>
| 78>                          ****END OF INPUT****
 Total Charge           Charge          ....    0
 Multiplicity           Mult            ....    1
 Number of Electrons    NEL             ....   80
MP2 TOTAL ENERGY:     -796.589449734 Eh
FINAL SINGLE POINT ENERGY      -796.589449733733
MP2 TOTAL ENERGY:     -797.028340745 Eh
FINAL SINGLE POINT ENERGY      -797.028340745175

CARTESIAN COORDINATES (ANGSTROEM)
---------------------------------
  C     -0.532233   -0.332177    0.381164
  B      2.229630    0.265133   -0.265013
  F      3.404798   -0.192420   -0.656442
  F      1.889208    1.467897   -0.684531
  C     -1.124782    0.863207    0.774035
  C     -1.257482   -1.212112   -0.414439
  C     -2.406552    1.181552    0.362000
  C     -3.121945    0.299483   -0.429885
  C     -2.545852   -0.899868   -0.812367
  H     -3.098787   -1.595378   -1.429795
  H     -0.813864   -2.147498   -0.729870
  H     -2.850735    2.119136    0.668722
  H     -4.127012    0.544783   -0.745682
  H     -0.581026    1.552723    1.407624
  P      1.151243   -0.713511    0.978380
  H      1.341655   -1.976551    0.384069

 Multiplicity           Mult            ....    1
 Number of Electrons    NEL             ....   80
 Basis Dimension        Dim             .... 1080

ORBITAL ENERGIES
----------------

  NO   OCC          E(Eh)            E(eV)
   0   2.0000     -79.944504     -2175.4005
   1   2.0000     -26.314961      -716.0665
   2   2.0000     -26.314607      -716.0569
   3   2.0000     -11.254742      -306.2571
   4   2.0000     -11.245660      -306.0100
   5   2.0000     -11.244479      -305.9778
   6   2.0000     -11.242781      -305.9316
   7   2.0000     -11.241936      -305.9086
   8   2.0000     -11.240951      -305.8818
   9   2.0000      -7.719676      -210.0631
  10   2.0000      -7.489743      -203.8063
  11   2.0000      -5.384062      -146.5078
  12   2.0000      -5.383710      -146.4982
  13   2.0000      -5.383142      -146.4827
  14   2.0000      -1.648656       -44.8622
  15   2.0000      -1.616250       -43.9804
  16   2.0000      -1.169118       -31.8133
  17   2.0000      -1.038809       -28.2674
  18   2.0000      -1.029486       -28.0137
  19   2.0000      -0.891231       -24.2516
  20   2.0000      -0.840120       -22.8608
  21   2.0000      -0.825781       -22.4707
  22   2.0000      -0.799217       -21.7478
  23   2.0000      -0.764371       -20.7996
  24   2.0000      -0.724666       -19.7192
  25   2.0000      -0.716736       -19.5034
  26   2.0000      -0.698746       -19.0138
  27   2.0000      -0.662648       -18.0316
  28   2.0000      -0.656040       -17.8518
  29   2.0000      -0.642389       -17.4803
  30   2.0000      -0.636856       -17.3297
  31   2.0000      -0.599807       -16.3216
  32   2.0000      -0.567485       -15.4421
  33   2.0000      -0.530708       -14.4413
  34   2.0000      -0.510684       -13.8964
  35   2.0000      -0.502246       -13.6668
  36   2.0000      -0.477584       -12.9957
  37   2.0000      -0.399748       -10.8777
  38   2.0000      -0.350360        -9.5338
  39   2.0000      -0.328840        -8.9482
  40   0.0000       0.020828         0.5668
  41   0.0000       0.027403         0.7457
  42   0.0000       0.029241         0.7957
  43   0.0000       0.038146         1.0380
  44   0.0000       0.040839         1.1113

MULLIKEN ATOMIC CHARGES
-----------------------
   0 C :   -0.031009
   1 B :    1.519754
   2 F :   -0.824822
   3 F :   -0.786568
   4 C :   -0.299908
   5 C :   -0.454596
   6 C :   -0.287900
   7 C :   -0.326084
   8 C :   -0.257048
   9 H :    0.257691
  10 H :    0.318517
  11 H :    0.243611
  12 H :    0.376009
  13 H :    0.358526
  14 P :    0.277752
  15 H :   -0.083924
Sum of atomic charges:    0.0000000

LOEWDIN ATOMIC CHARGES
----------------------
   0 C :   -0.330730
   1 B :   -1.917275
   2 F :    0.753067
   3 F :    0.773078
   4 C :    0.235467
   5 C :    0.251565
   6 C :    0.340246
   7 C :    0.337829
   8 C :    0.338293
   9 H :   -0.319085
  10 H :   -0.345451
  11 H :   -0.317868
  12 H :   -0.319707
  13 H :   -0.335295
  14 P :    1.315553
  15 H :   -0.459686

  Mayer bond orders larger than 0.100000
B(  0-C ,  4-C ) :   0.8231 B(  0-C ,  5-C ) :   0.7958 B(  0-C ,  6-C ) :  -0.3150
B(  0-C ,  8-C ) :  -0.3021 B(  0-C , 13-H ) :  -0.1229 B(  0-C , 14-P ) :   0.8670
B(  0-C , 15-H ) :  -0.1146 B(  1-B ,  2-F ) :   0.2352 B(  1-B ,  3-F ) :   0.2615
B(  1-B , 14-P ) :   1.1382 B(  4-C ,  5-C ) :   0.1092 B(  4-C ,  6-C ) :   1.3563
B(  4-C ,  7-C ) :   0.1145 B(  4-C ,  8-C ) :   0.1440 B(  4-C , 11-H ) :  -0.1301
B(  4-C , 13-H ) :   0.9120 B(  4-C , 14-P ) :  -0.2371 B(  5-C ,  6-C ) :   0.1513
B(  5-C ,  7-C ) :   0.1561 B(  5-C ,  8-C ) :   1.3803 B(  5-C ,  9-H ) :  -0.1385
B(  5-C , 10-H ) :   0.9364 B(  5-C , 14-P ) :  -0.1317 B(  6-C ,  7-C ) :   1.1392
B(  6-C ,  8-C ) :  -0.1305 B(  6-C , 11-H ) :   1.1202 B(  7-C ,  8-C ) :   1.1161
B(  7-C ,  9-H ) :  -0.1034 B(  7-C , 12-H ) :   0.9435 B(  8-C ,  9-H ) :   1.1055
B( 14-P , 15-H ) :   0.9735

MP2 TOTAL ENERGY:     -797.168485818 Eh
FINAL SINGLE POINT ENERGY      -797.168485818178

DIPOLE MOMENT
-------------
                                X             Y             Z
Electronic contribution:     16.61014       1.94601      -0.23489
Nuclear contribution   :    -17.36707      -2.18531       0.15336
                        -----------------------------------------
Total Dipole Moment    :     -0.75693      -0.23929      -0.08153
                        -----------------------------------------
Magnitude (a.u.)       :      0.79803
Magnitude (Debye)      :      2.02843

Rotational constants in cm-1:     0.081118     0.021186     0.019742
Rotational constants in MHz :  2431.843927   635.150809   591.864022

                             ****ORCA TERMINATED NORMALLY****
TOTAL RUN TIME: 0 days 0 hours 31 minutes 18 seconds 457 msec
