                         Program Version 5.0.4 -  RELEASE  -
|  1> ! ri-mp2 aug-cc-pvdz aug-cc-pvdz/c tightscf
|  2> %pal nprocs 16 end
|  3> %maxcore 3800
|  4> %base "DZ_S-Cl_77_AB"
|  5>
|  6> *xyz 0 1
|  7> Cl         3.079775   -0.028281   -0.000027
|  8> S         1.330875   -1.059033   -0.000023
|  9> C         0.129784    0.236140   -0.000014
| 10> C        -1.193797   -0.219020    0.000003
| 11> C        -2.240160    0.682452    0.000015
| 12> H        -3.262141    0.334823    0.000027
| 13> C        -1.971174    2.045454    0.000008
| 14> C         0.383686    1.591546   -0.000022
| 15> H         1.403278    1.945500   -0.000035
| 16> C        -0.668863    2.497580   -0.000010
| 17> H        -0.457629    3.557819   -0.000016
| 18> H        -2.793211    2.748050    0.000017
| 19> O        -1.325666   -1.568380    0.000003
| 20> C        -2.621558   -2.126087    0.000096
| 21> H        -2.487107   -3.203780    0.000130
| 22> H        -3.177825   -1.829266   -0.891922
| 23> H        -3.177726   -1.829194    0.892151
| 24> *
| 25>
| 26> $new_job
| 27> ! ri-mp2 aug-cc-pvtz aug-cc-pvtz/c tightscf
| 28> %pal nprocs 16 end
| 29> %maxcore 3800
| 30> %base "TZ_S-Cl_77_AB"
| 31>
| 32> *xyz 0 1
| 33> Cl         3.079775   -0.028281   -0.000027
| 34> S         1.330875   -1.059033   -0.000023
| 35> C         0.129784    0.236140   -0.000014
| 36> C        -1.193797   -0.219020    0.000003
| 37> C        -2.240160    0.682452    0.000015
| 38> H        -3.262141    0.334823    0.000027
| 39> C        -1.971174    2.045454    0.000008
| 40> C         0.383686    1.591546   -0.000022
| 41> H         1.403278    1.945500   -0.000035
| 42> C        -0.668863    2.497580   -0.000010
| 43> H        -0.457629    3.557819   -0.000016
| 44> H        -2.793211    2.748050    0.000017
| 45> O        -1.325666   -1.568380    0.000003
| 46> C        -2.621558   -2.126087    0.000096
| 47> H        -2.487107   -3.203780    0.000130
| 48> H        -3.177825   -1.829266   -0.891922
| 49> H        -3.177726   -1.829194    0.892151
| 50> *
| 51>
| 52> $new_job
| 53> ! ri-mp2 aug-cc-pvqz aug-cc-pvqz/c tightscf
| 54> %pal nprocs 16 end
| 55> %maxcore 3800
| 56> %base "QZ_S-Cl_77_AB"
| 57>
| 58> *xyz 0 1
| 59> Cl         3.079775   -0.028281   -0.000027
| 60> S         1.330875   -1.059033   -0.000023
| 61> C         0.129784    0.236140   -0.000014
| 62> C        -1.193797   -0.219020    0.000003
| 63> C        -2.240160    0.682452    0.000015
| 64> H        -3.262141    0.334823    0.000027
| 65> C        -1.971174    2.045454    0.000008
| 66> C         0.383686    1.591546   -0.000022
| 67> H         1.403278    1.945500   -0.000035
| 68> C        -0.668863    2.497580   -0.000010
| 69> H        -0.457629    3.557819   -0.000016
| 70> H        -2.793211    2.748050    0.000017
| 71> O        -1.325666   -1.568380    0.000003
| 72> C        -2.621558   -2.126087    0.000096
| 73> H        -2.487107   -3.203780    0.000130
| 74> H        -3.177825   -1.829266   -0.891922
| 75> H        -3.177726   -1.829194    0.892151
| 76> *
| 77>
| 78>
| 79>
| 80>
| 81>                          ****END OF INPUT****
 Total Charge           Charge          ....    0
 Multiplicity           Mult            ....    1
 Number of Electrons    NEL             ....   90
MP2 TOTAL ENERGY:    -1202.503254090 Eh
FINAL SINGLE POINT ENERGY     -1202.503254089916
MP2 TOTAL ENERGY:    -1202.922146555 Eh
FINAL SINGLE POINT ENERGY     -1202.922146555254

CARTESIAN COORDINATES (ANGSTROEM)
---------------------------------
  Cl     3.079775   -0.028281   -0.000027
  S      1.330875   -1.059033   -0.000023
  C      0.129784    0.236140   -0.000014
  C     -1.193797   -0.219020    0.000003
  C     -2.240160    0.682452    0.000015
  H     -3.262141    0.334823    0.000027
  C     -1.971174    2.045454    0.000008
  C      0.383686    1.591546   -0.000022
  H      1.403278    1.945500   -0.000035
  C     -0.668863    2.497580   -0.000010
  H     -0.457629    3.557819   -0.000016
  H     -2.793211    2.748050    0.000017
  O     -1.325666   -1.568380    0.000003
  C     -2.621558   -2.126087    0.000096
  H     -2.487107   -3.203780    0.000130
  H     -3.177825   -1.829266   -0.891922
  H     -3.177726   -1.829194    0.892151

 Multiplicity           Mult            ....    1
 Number of Electrons    NEL             ....   90
 Basis Dimension        Dim             .... 1130

ORBITAL ENERGIES
----------------

  NO   OCC          E(Eh)            E(eV)
   0   2.0000    -104.849329     -2853.0953
   1   2.0000     -92.011401     -2503.7575
   2   2.0000     -20.598781      -560.5213
   3   2.0000     -11.312954      -307.8411
   4   2.0000     -11.294520      -307.3395
   5   2.0000     -11.274261      -306.7882
   6   2.0000     -11.244959      -305.9909
   7   2.0000     -11.243262      -305.9447
   8   2.0000     -11.240400      -305.8668
   9   2.0000     -11.234108      -305.6956
  10   2.0000     -10.573908      -287.7307
  11   2.0000      -9.008998      -245.1473
  12   2.0000      -8.040920      -218.8046
  13   2.0000      -8.039067      -218.7541
  14   2.0000      -8.038853      -218.7483
  15   2.0000      -6.690295      -182.0522
  16   2.0000      -6.688527      -182.0041
  17   2.0000      -6.687321      -181.9713
  18   2.0000      -1.432847       -38.9897
  19   2.0000      -1.178937       -32.0805
  20   2.0000      -1.138555       -30.9816
  21   2.0000      -1.052169       -28.6310
  22   2.0000      -1.031636       -28.0722
  23   2.0000      -0.959169       -26.1003
  24   2.0000      -0.923615       -25.1328
  25   2.0000      -0.828838       -22.5538
  26   2.0000      -0.811776       -22.0896
  27   2.0000      -0.731482       -19.9046
  28   2.0000      -0.688316       -18.7300
  29   2.0000      -0.674118       -18.3437
  30   2.0000      -0.663768       -18.0620
  31   2.0000      -0.629830       -17.1385
  32   2.0000      -0.599893       -16.3239
  33   2.0000      -0.593269       -16.1437
  34   2.0000      -0.556917       -15.1545
  35   2.0000      -0.542727       -14.7683
  36   2.0000      -0.534830       -14.5535
  37   2.0000      -0.512298       -13.9403
  38   2.0000      -0.512191       -13.9374
  39   2.0000      -0.494284       -13.4502
  40   2.0000      -0.483058       -13.1447
  41   2.0000      -0.441224       -12.0063
  42   2.0000      -0.403478       -10.9792
  43   2.0000      -0.339919        -9.2497
  44   2.0000      -0.304502        -8.2859
  45   0.0000       0.021180         0.5763
  46   0.0000       0.026512         0.7214
  47   0.0000       0.032533         0.8853
  48   0.0000       0.038720         1.0536
  49   0.0000       0.041861         1.1391

MULLIKEN ATOMIC CHARGES
-----------------------
   0 Cl:   -0.456211
   1 S :    0.244440
   2 C :   -0.256750
   3 C :    0.985046
   4 C :   -0.251294
   5 H :    0.277043
   6 C :   -0.331219
   7 C :   -0.401245
   8 H :    0.384735
   9 C :   -0.285738
  10 H :    0.236050
  11 H :    0.287803
  12 O :   -0.770734
  13 C :   -0.643133
  14 H :    0.494469
  15 H :    0.243362
  16 H :    0.243377
Sum of atomic charges:    0.0000000

LOEWDIN ATOMIC CHARGES
----------------------
   0 Cl:    0.552192
   1 S :    0.489201
   2 C :   -0.659794
   3 C :   -0.612780
   4 C :    0.320155
   5 H :   -0.354658
   6 C :    0.337980
   7 C :    0.187927
   8 H :   -0.443770
   9 C :    0.331525
  10 H :   -0.324721
  11 H :   -0.318634
  12 O :    0.830273
  13 C :    0.585185
  14 H :   -0.313157
  15 H :   -0.303460
  16 H :   -0.303462

  Mayer bond orders larger than 0.100000
B(  0-Cl,  1-S ) :   0.9076 B(  0-Cl,  2-C ) :  -0.1800 B(  0-Cl,  3-C ) :   0.1184
B(  1-S ,  2-C ) :   0.8944 B(  1-S ,  3-C ) :  -0.2687 B(  2-C ,  3-C ) :   0.9995
B(  2-C ,  6-C ) :   0.1557 B(  2-C ,  7-C ) :   1.1467 B(  2-C ,  9-C ) :  -0.1558
B(  2-C , 12-O ) :   0.1366 B(  3-C ,  4-C ) :   1.2869 B(  3-C ,  6-C ) :  -0.1699
B(  3-C , 12-O ) :   0.3197 B(  4-C ,  5-H ) :   1.0381 B(  4-C ,  6-C ) :   0.8875
B(  4-C ,  9-C ) :  -0.1565 B(  4-C , 11-H ) :  -0.1482 B(  4-C , 12-O ) :   0.1246
B(  6-C ,  9-C ) :   1.2506 B(  6-C , 10-H ) :  -0.1260 B(  6-C , 11-H ) :   1.0721
B(  7-C ,  8-H ) :   0.9106 B(  7-C ,  9-C ) :   1.1214 B(  7-C , 10-H ) :  -0.1420
B(  9-C , 10-H ) :   1.1387 B( 12-O , 13-C ) :   0.9052 B( 13-C , 14-H ) :   0.7536
B( 13-C , 15-H ) :   0.9332 B( 13-C , 16-H ) :   0.9332

MP2 TOTAL ENERGY:    -1203.056621567 Eh
FINAL SINGLE POINT ENERGY     -1203.056621567325

DIPOLE MOMENT
-------------
                                X             Y             Z
Electronic contribution:     16.47392      -1.61028      -0.00033
Nuclear contribution   :    -17.82783       1.71535       0.00038
                        -----------------------------------------
Total Dipole Moment    :     -1.35390       0.10507       0.00005
                        -----------------------------------------
Magnitude (a.u.)       :      1.35797
Magnitude (Debye)      :      3.45169

Rotational constants in cm-1:     0.050375     0.024696     0.016624
Rotational constants in MHz :  1510.193342   740.377307   498.384959

                             ****ORCA TERMINATED NORMALLY****
TOTAL RUN TIME: 0 days 0 hours 49 minutes 10 seconds 56 msec
