                         Program Version 5.0.4 -  RELEASE  -
|  1> ! ri-mp2 aug-cc-pvdz aug-cc-pvdz/c tightscf
|  2> %pal nprocs 16 end
|  3> %maxcore 3800
|  4> %base "DZ_B-B_46_AB"
|  5> %scf
|  6> STABPerform true
|  7> STABRestartUHFifUnstable true
|  8> end
|  9>
| 10> *xyz 0 1
| 11> B         1.913211   -0.365639    0.000001
| 12> B         0.607254    0.625668   -0.000010
| 13> C        -0.823163    0.099327   -0.000002
| 14> N        -1.891467   -0.321996    0.000008
| 15> H         2.418978   -0.725948   -1.017516
| 16> H         2.418984   -0.725920    1.017523
| 17> H         0.738961    1.809736   -0.000009
| 18> *
| 19>
| 20> $new_job
| 21> ! ri-mp2 aug-cc-pvtz aug-cc-pvtz/c tightscf
| 22> %pal nprocs 16 end
| 23> %maxcore 3800
| 24> %base "TZ_B-B_46_AB"
| 25>
| 26> *xyz 0 1
| 27> B         1.913211   -0.365639    0.000001
| 28> B         0.607254    0.625668   -0.000010
| 29> C        -0.823163    0.099327   -0.000002
| 30> N        -1.891467   -0.321996    0.000008
| 31> H         2.418978   -0.725948   -1.017516
| 32> H         2.418984   -0.725920    1.017523
| 33> H         0.738961    1.809736   -0.000009
| 34> *
| 35>
| 36> $new_job
| 37> ! ri-mp2 aug-cc-pvqz aug-cc-pvqz/c tightscf
| 38> %pal nprocs 16 end
| 39> %maxcore 3800
| 40> %base "QZ_B-B_46_AB"
| 41>
| 42> *xyz 0 1
| 43> B         1.913211   -0.365639    0.000001
| 44> B         0.607254    0.625668   -0.000010
| 45> C        -0.823163    0.099327   -0.000002
| 46> N        -1.891467   -0.321996    0.000008
| 47> H         2.418978   -0.725948   -1.017516
| 48> H         2.418984   -0.725920    1.017523
| 49> H         0.738961    1.809736   -0.000009
| 50> *
| 51>
| 52>
| 53>
| 54>
| 55>                          ****END OF INPUT****
 Total Charge           Charge          ....    0
 Multiplicity           Mult            ....    1
 Number of Electrons    NEL             ....   26
MP2 TOTAL ENERGY:     -143.844543471 Eh
FINAL SINGLE POINT ENERGY      -143.844543470685
MP2 TOTAL ENERGY:     -143.965541611 Eh
FINAL SINGLE POINT ENERGY      -143.965541610817

CARTESIAN COORDINATES (ANGSTROEM)
---------------------------------
  B      1.913211   -0.365639    0.000001
  B      0.607254    0.625668   -0.000010
  C     -0.823163    0.099327   -0.000002
  N     -1.891467   -0.321996    0.000008
  H      2.418978   -0.725948   -1.017516
  H      2.418984   -0.725920    1.017523
  H      0.738961    1.809736   -0.000009

 Multiplicity           Mult            ....    1
 Number of Electrons    NEL             ....   26
 Basis Dimension        Dim             ....  458

ORBITAL ENERGIES
----------------

  NO   OCC          E(Eh)            E(eV)
   0   2.0000     -15.589537      -424.2129
   1   2.0000     -11.261131      -306.4310
   2   2.0000      -7.643878      -208.0005
   3   2.0000      -7.619500      -207.3371
   4   2.0000      -1.231996       -33.5243
   5   2.0000      -0.835008       -22.7217
   6   2.0000      -0.710662       -19.3381
   7   2.0000      -0.605651       -16.4806
   8   2.0000      -0.562216       -15.2987
   9   2.0000      -0.523603       -14.2480
  10   2.0000      -0.519484       -14.1359
  11   2.0000      -0.488149       -13.2832
  12   2.0000      -0.449641       -12.2354
  13   0.0000       0.019479         0.5300
  14   0.0000       0.021298         0.5795
  15   0.0000       0.025905         0.7049
  16   0.0000       0.028818         0.7842
  17   0.0000       0.033572         0.9136

MULLIKEN ATOMIC CHARGES
-----------------------
   0 B :    0.413183
   1 B :    0.506805
   2 C :    0.141559
   3 N :   -0.521904
   4 H :   -0.166759
   5 H :   -0.166760
   6 H :   -0.206123
Sum of atomic charges:   -0.0000000

LOEWDIN ATOMIC CHARGES
----------------------
   0 B :    0.472265
   1 B :   -0.072878
   2 C :   -0.188908
   3 N :    0.407198
   4 H :   -0.207653
   5 H :   -0.207653
   6 H :   -0.202372

  Mayer bond orders larger than 0.100000
B(  0-B ,  1-B ) :   1.0620 B(  0-B ,  4-H ) :   0.9645 B(  0-B ,  5-H ) :   0.9645
B(  1-B ,  2-C ) :   0.8525 B(  1-B ,  6-H ) :   0.8759 B(  2-C ,  3-N ) :   2.5419

MP2 TOTAL ENERGY:     -144.004154681 Eh
FINAL SINGLE POINT ENERGY      -144.004154680971

DIPOLE MOMENT
-------------
                                X             Y             Z
Electronic contribution:     -2.14995       0.26232      -0.00002
Nuclear contribution   :      3.40699       0.14115       0.00001
                        -----------------------------------------
Total Dipole Moment    :      1.25704       0.40347      -0.00001
                        -----------------------------------------
Magnitude (a.u.)       :      1.32021
Magnitude (Debye)      :      3.35570

Rotational constants in cm-1:     1.233793     0.145285     0.134302
Rotational constants in MHz : 36988.183696  4355.545018  4026.285291

                             ****ORCA TERMINATED NORMALLY****
TOTAL RUN TIME: 0 days 0 hours 7 minutes 27 seconds 394 msec
