                         Program Version 5.0.4 -  RELEASE  -
|  1> ! ri-mp2 aug-cc-pvdz aug-cc-pvdz/c tightscf
|  2> %pal nprocs 16 end
|  3> %maxcore 3800
|  4> %base "DZ_B-P_10_A"
|  5> %scf
|  6> STABPerform true
|  7> STABRestartUHFifUnstable true
|  8> end
|  9>
| 10> *xyz 0 2
| 11> P        -0.000000    0.000000    0.700831
| 12> C         0.000000    1.392345   -0.500216
| 13> H        -0.000000    2.343266    0.030319
| 14> H        -0.882739    1.354953   -1.142626
| 15> C        -0.000000   -1.392345   -0.500216
| 16> H         0.882739    1.354953   -1.142626
| 17> H         0.882739   -1.354953   -1.142626
| 18> H        -0.000000   -2.343266    0.030319
| 19> H        -0.882739   -1.354953   -1.142626
| 20> *
| 21>
| 22> $new_job
| 23> ! ri-mp2 aug-cc-pvtz aug-cc-pvtz/c tightscf
| 24> %pal nprocs 16 end
| 25> %maxcore 3800
| 26> %base "TZ_B-P_10_A"
| 27>
| 28> *xyz 0 2
| 29> P        -0.000000    0.000000    0.700831
| 30> C         0.000000    1.392345   -0.500216
| 31> H        -0.000000    2.343266    0.030319
| 32> H        -0.882739    1.354953   -1.142626
| 33> C        -0.000000   -1.392345   -0.500216
| 34> H         0.882739    1.354953   -1.142626
| 35> H         0.882739   -1.354953   -1.142626
| 36> H        -0.000000   -2.343266    0.030319
| 37> H        -0.882739   -1.354953   -1.142626
| 38> *
| 39>
| 40> $new_job
| 41> ! ri-mp2 aug-cc-pvqz aug-cc-pvqz/c tightscf
| 42> %pal nprocs 16 end
| 43> %maxcore 3800
| 44> %base "QZ_B-P_10_A"
| 45>
| 46> *xyz 0 2
| 47> P        -0.000000    0.000000    0.700831
| 48> C         0.000000    1.392345   -0.500216
| 49> H        -0.000000    2.343266    0.030319
| 50> H        -0.882739    1.354953   -1.142626
| 51> C        -0.000000   -1.392345   -0.500216
| 52> H         0.882739    1.354953   -1.142626
| 53> H         0.882739   -1.354953   -1.142626
| 54> H        -0.000000   -2.343266    0.030319
| 55> H        -0.882739   -1.354953   -1.142626
| 56> *
| 57>
| 58>
| 59>
| 60>
| 61>                          ****END OF INPUT****
 Total Charge           Charge          ....    0
 Multiplicity           Mult            ....    2
 Number of Electrons    NEL             ....   33
MP2 TOTAL ENERGY:     -420.369036197 Eh
FINAL SINGLE POINT ENERGY      -420.369036197367
MP2 TOTAL ENERGY:     -420.491171389 Eh
FINAL SINGLE POINT ENERGY      -420.491171389400

CARTESIAN COORDINATES (ANGSTROEM)
---------------------------------
  P     -0.000000    0.000000    0.700831
  C      0.000000    1.392345   -0.500216
  H     -0.000000    2.343266    0.030319
  H     -0.882739    1.354953   -1.142626
  C     -0.000000   -1.392345   -0.500216
  H      0.882739    1.354953   -1.142626
  H      0.882739   -1.354953   -1.142626
  H     -0.000000   -2.343266    0.030319
  H     -0.882739   -1.354953   -1.142626

 Multiplicity           Mult            ....    2
 Number of Electrons    NEL             ....   33
 Basis Dimension        Dim             ....  520

ORBITAL ENERGIES
----------------
                 SPIN UP ORBITALS
  NO   OCC          E(Eh)            E(eV)
   0   1.0000     -79.935911     -2175.1667
   1   1.0000     -11.221974      -305.3654
   2   1.0000     -11.221965      -305.3652
   3   1.0000      -7.478509      -203.5006
   4   1.0000      -5.383667      -146.4970
   5   1.0000      -5.369477      -146.1109
   6   1.0000      -5.367625      -146.0605
   7   1.0000      -1.009167       -27.4608
   8   1.0000      -0.938025       -25.5250
   9   1.0000      -0.737315       -20.0633
  10   1.0000      -0.594772       -16.1846
  11   1.0000      -0.587309       -15.9815
  12   1.0000      -0.559658       -15.2291
  13   1.0000      -0.555321       -15.1110
  14   1.0000      -0.465976       -12.6798
  15   1.0000      -0.382706       -10.4140
  16   1.0000      -0.329409        -8.9637
  17   0.0000       0.027159         0.7390
  18   0.0000       0.033001         0.8980
  19   0.0000       0.039101         1.0640
  20   0.0000       0.042676         1.1613
  21   0.0000       0.056991         1.5508

                 SPIN DOWN ORBITALS
  NO   OCC          E(Eh)            E(eV)
   0   1.0000     -79.928915     -2174.9763
   1   1.0000     -11.223091      -305.3958
   2   1.0000     -11.223081      -305.3956
   3   1.0000      -7.469872      -203.2655
   4   1.0000      -5.364730      -145.9817
   5   1.0000      -5.364665      -145.9800
   6   1.0000      -5.350433      -145.5927
   7   1.0000      -0.993997       -27.0480
   8   1.0000      -0.937134       -25.5007
   9   1.0000      -0.682632       -18.5754
  10   1.0000      -0.586092       -15.9484
  11   1.0000      -0.574694       -15.6382
  12   1.0000      -0.556380       -15.1399
  13   1.0000      -0.546725       -14.8771
  14   1.0000      -0.463130       -12.6024
  15   1.0000      -0.362358        -9.8603
  16   0.0000       0.027366         0.7447
  17   0.0000       0.033141         0.9018
  18   0.0000       0.038310         1.0425
  19   0.0000       0.042917         1.1678
  20   0.0000       0.054190         1.4746

MULLIKEN ATOMIC CHARGES AND SPIN POPULATIONS
--------------------------------------------
   0 P :    0.435350    1.095652
   1 C :   -1.029035   -0.092119
   2 H :    0.341271   -0.000758
   3 H :    0.235045    0.022526
   4 C :   -1.029036   -0.092119
   5 H :    0.235044    0.022526
   6 H :    0.235044    0.022526
   7 H :    0.341272   -0.000760
   8 H :    0.235044    0.022527
Sum of atomic charges         :   -0.0000000

LOEWDIN ATOMIC CHARGES AND SPIN POPULATIONS
-------------------------------------------
   0 P :    1.040895    0.583015
   1 C :    0.642883    0.159414
   2 H :   -0.402595    0.008137
   3 H :   -0.380368    0.020471
   4 C :    0.642883    0.159414
   5 H :   -0.380368    0.020471
   6 H :   -0.380368    0.020471
   7 H :   -0.402595    0.008137
   8 H :   -0.380368    0.020471

  Mayer bond orders larger than 0.100000
B(  0-P ,  1-C ) :   0.9241 B(  0-P ,  4-C ) :   0.9241 B(  1-C ,  2-H ) :   0.8897
B(  1-C ,  3-H ) :   0.9332 B(  1-C ,  5-H ) :   0.9332 B(  4-C ,  6-H ) :   0.9332
B(  4-C ,  7-H ) :   0.8897 B(  4-C ,  8-H ) :   0.9332

MP2 TOTAL ENERGY:     -420.527285755 Eh
FINAL SINGLE POINT ENERGY      -420.527285754761

DIPOLE MOMENT
-------------
                                X             Y             Z
Electronic contribution:      0.00000      -0.00000       4.64885
Nuclear contribution   :      0.00000      -0.00000      -5.25640
                        -----------------------------------------
Total Dipole Moment    :      0.00000      -0.00000      -0.60755
                        -----------------------------------------
Magnitude (a.u.)       :      0.60755
Magnitude (Debye)      :      1.54426

Rotational constants in cm-1:     0.577353     0.247239     0.185050
Rotational constants in MHz : 17308.609266  7412.052510  5547.650331

                             ****ORCA TERMINATED NORMALLY****
TOTAL RUN TIME: 0 days 0 hours 22 minutes 7 seconds 556 msec
