                         Program Version 5.0.4 -  RELEASE  -
|  1> ! ri-mp2 aug-cc-pvdz aug-cc-pvdz/c tightscf
|  2> %pal nprocs 16 end
|  3> %maxcore 3800
|  4> %base "DZ_Si-Si_71_B"
|  5> %scf
|  6> STABPerform true
|  7> STABRestartUHFifUnstable true
|  8> end
|  9>
| 10> *xyz 0 2
| 11> Si         1.850789   -0.387556   -0.000003
| 12> C         0.031849    0.238234    0.000023
| 13> H         2.504914    0.151984   -1.213565
| 14> H         2.504936    0.151959    1.213558
| 15> O        -0.112821    1.447557    0.000004
| 16> N        -0.991960   -0.639883   -0.000002
| 17> C        -2.382618   -0.237269   -0.000011
| 18> H        -0.764034   -1.618856   -0.000003
| 19> H        -2.414170    0.848422   -0.000095
| 20> H        -2.895885   -0.607322    0.887997
| 21> H        -2.895906   -0.607465   -0.887946
| 22> *
| 23>
| 24> $new_job
| 25> ! ri-mp2 aug-cc-pvtz aug-cc-pvtz/c tightscf
| 26> %pal nprocs 16 end
| 27> %maxcore 3800
| 28> %base "TZ_Si-Si_71_B"
| 29>
| 30> *xyz 0 2
| 31> Si         1.850789   -0.387556   -0.000003
| 32> C         0.031849    0.238234    0.000023
| 33> H         2.504914    0.151984   -1.213565
| 34> H         2.504936    0.151959    1.213558
| 35> O        -0.112821    1.447557    0.000004
| 36> N        -0.991960   -0.639883   -0.000002
| 37> C        -2.382618   -0.237269   -0.000011
| 38> H        -0.764034   -1.618856   -0.000003
| 39> H        -2.414170    0.848422   -0.000095
| 40> H        -2.895885   -0.607322    0.887997
| 41> H        -2.895906   -0.607465   -0.887946
| 42> *
| 43>
| 44> $new_job
| 45> ! ri-mp2 aug-cc-pvqz aug-cc-pvqz/c tightscf
| 46> %pal nprocs 16 end
| 47> %maxcore 3800
| 48> %base "QZ_Si-Si_71_B"
| 49>
| 50> *xyz 0 2
| 51> Si         1.850789   -0.387556   -0.000003
| 52> C         0.031849    0.238234    0.000023
| 53> H         2.504914    0.151984   -1.213565
| 54> H         2.504936    0.151959    1.213558
| 55> O        -0.112821    1.447557    0.000004
| 56> N        -0.991960   -0.639883   -0.000002
| 57> C        -2.382618   -0.237269   -0.000011
| 58> H        -0.764034   -1.618856   -0.000003
| 59> H        -2.414170    0.848422   -0.000095
| 60> H        -2.895885   -0.607322    0.887997
| 61> H        -2.895906   -0.607465   -0.887946
| 62> *
| 63>
| 64>
| 65>
| 66>
| 67>                          ****END OF INPUT****
 Total Charge           Charge          ....    0
 Multiplicity           Mult            ....    2
 Number of Electrons    NEL             ....   47
MP2 TOTAL ENERGY:     -498.202768159 Eh
FINAL SINGLE POINT ENERGY      -498.202768159477
MP2 TOTAL ENERGY:     -498.417516763 Eh
FINAL SINGLE POINT ENERGY      -498.417516763495

CARTESIAN COORDINATES (ANGSTROEM)
---------------------------------
  Si     1.850789   -0.387556   -0.000003
  C      0.031849    0.238234    0.000023
  H      2.504914    0.151984   -1.213565
  H      2.504936    0.151959    1.213558
  O     -0.112821    1.447557    0.000004
  N     -0.991960   -0.639883   -0.000002
  C     -2.382618   -0.237269   -0.000011
  H     -0.764034   -1.618856   -0.000003
  H     -2.414170    0.848422   -0.000095
  H     -2.895885   -0.607322    0.887997
  H     -2.895906   -0.607465   -0.887946

 Multiplicity           Mult            ....    2
 Number of Electrons    NEL             ....   47
 Basis Dimension        Dim             ....  680

ORBITAL ENERGIES
----------------
                 SPIN UP ORBITALS
  NO   OCC          E(Eh)            E(eV)
   0   1.0000     -68.792993     -1871.9525
   1   1.0000     -20.523639      -558.4766
   2   1.0000     -15.593467      -424.3198
   3   1.0000     -11.337609      -308.5120
   4   1.0000     -11.262233      -306.4609
   5   1.0000      -6.143315      -167.1681
   6   1.0000      -4.256088      -115.8140
   7   1.0000      -4.245997      -115.5394
   8   1.0000      -4.245951      -115.5382
   9   1.0000      -1.386152       -37.7191
  10   1.0000      -1.238367       -33.6977
  11   1.0000      -0.966523       -26.3004
  12   1.0000      -0.806852       -21.9556
  13   1.0000      -0.768242       -20.9049
  14   1.0000      -0.657664       -17.8960
  15   1.0000      -0.647933       -17.6312
  16   1.0000      -0.629952       -17.1419
  17   1.0000      -0.554230       -15.0814
  18   1.0000      -0.552766       -15.0415
  19   1.0000      -0.548713       -14.9312
  20   1.0000      -0.491025       -13.3615
  21   1.0000      -0.421898       -11.4804
  22   1.0000      -0.398679       -10.8486
  23   1.0000      -0.339323        -9.2334
  24   0.0000       0.019133         0.5206
  25   0.0000       0.031265         0.8508
  26   0.0000       0.033566         0.9134
  27   0.0000       0.040055         1.0899
  28   0.0000       0.048678         1.3246

                 SPIN DOWN ORBITALS
  NO   OCC          E(Eh)            E(eV)
   0   1.0000     -68.787472     -1871.8023
   1   1.0000     -20.521250      -558.4116
   2   1.0000     -15.593697      -424.3261
   3   1.0000     -11.336353      -308.4778
   4   1.0000     -11.262292      -306.4625
   5   1.0000      -6.134877      -166.9385
   6   1.0000      -4.242502      -115.4444
   7   1.0000      -4.242372      -115.4408
   8   1.0000      -4.233840      -115.2086
   9   1.0000      -1.381093       -37.5815
  10   1.0000      -1.237590       -33.6765
  11   1.0000      -0.965670       -26.2772
  12   1.0000      -0.800730       -21.7890
  13   1.0000      -0.746620       -20.3166
  14   1.0000      -0.649794       -17.6818
  15   1.0000      -0.633817       -17.2470
  16   1.0000      -0.629926       -17.1412
  17   1.0000      -0.552748       -15.0410
  18   1.0000      -0.546234       -14.8638
  19   1.0000      -0.542564       -14.7639
  20   1.0000      -0.482376       -13.1261
  21   1.0000      -0.398538       -10.8448
  22   1.0000      -0.394621       -10.7382
  23   0.0000       0.013429         0.3654
  24   0.0000       0.026948         0.7333
  25   0.0000       0.033940         0.9236
  26   0.0000       0.035208         0.9581
  27   0.0000       0.046200         1.2572

MULLIKEN ATOMIC CHARGES AND SPIN POPULATIONS
--------------------------------------------
   0 Si:    0.649799    0.941490
   1 C :    0.617529    0.026325
   2 H :   -0.164304    0.013159
   3 H :   -0.164308    0.013158
   4 O :   -0.807694    0.033495
   5 N :   -0.520626   -0.020607
   6 C :   -0.716064   -0.001393
   7 H :    0.243693   -0.005253
   8 H :    0.320921    0.000052
   9 H :    0.270531   -0.000213
  10 H :    0.270523   -0.000213
Sum of atomic charges         :   -0.0000000

LOEWDIN ATOMIC CHARGES AND SPIN POPULATIONS
-------------------------------------------
   0 Si:    1.054305    0.543394
   1 C :   -0.975969    0.133016
   2 H :   -0.352469    0.121093
   3 H :   -0.352471    0.121093
   4 O :    0.597862    0.039251
   5 N :    0.723751    0.020078
   6 C :    0.775462    0.000517
   7 H :   -0.545417    0.021463
   8 H :   -0.354254    0.000414
   9 H :   -0.285399   -0.000159
  10 H :   -0.285402   -0.000159

  Mayer bond orders larger than 0.100000
B(  0-Si,  1-C ) :   0.7641 B(  0-Si,  2-H ) :   0.9048 B(  0-Si,  3-H ) :   0.9048
B(  1-C ,  4-O ) :   1.4231 B(  1-C ,  5-N ) :   1.2282 B(  4-O ,  5-N ) :   0.1526
B(  5-N ,  6-C ) :   0.8118 B(  5-N ,  7-H ) :   1.0169 B(  6-C ,  8-H ) :   0.9105
B(  6-C ,  9-H ) :   0.9538 B(  6-C , 10-H ) :   0.9538

MP2 TOTAL ENERGY:     -498.487512229 Eh
FINAL SINGLE POINT ENERGY      -498.487512228811

DIPOLE MOMENT
-------------
                                X             Y             Z
Electronic contribution:      3.70990       0.19172       0.00005
Nuclear contribution   :     -4.08507      -1.64068      -0.00005
                        -----------------------------------------
Total Dipole Moment    :     -0.37518      -1.44897      -0.00000
                        -----------------------------------------
Magnitude (a.u.)       :      1.49675
Magnitude (Debye)      :      3.80444

Rotational constants in cm-1:     0.315418     0.077025     0.064052
Rotational constants in MHz :  9455.998322  2309.162990  1920.233846

                             ****ORCA TERMINATED NORMALLY****
TOTAL RUN TIME: 0 days 1 hours 30 minutes 47 seconds 98 msec
