                         Program Version 5.0.4 -  RELEASE  -
|  1> ! ri-mp2 aug-cc-pvdz aug-cc-pvdz/c tightscf
|  2> %pal nprocs 16 end
|  3> %maxcore 3800
|  4> %base "DZ_S-F_68_AB"
|  5> %scf
|  6> STABPerform true
|  7> STABRestartUHFifUnstable true
|  8> end
|  9>
| 10> *xyz 0 1
| 11> F        -2.241049    0.616329    0.827544
| 12> S        -1.819181   -0.309195   -0.414208
| 13> O        -0.350140   -0.804056    0.085443
| 14> C         0.721354    0.039048   -0.115755
| 15> O         0.661628    1.145393   -0.542627
| 16> O         1.792184   -0.623114    0.267661
| 17> C         3.023173    0.102658    0.161450
| 18> H         2.982680    0.999739    0.775534
| 19> H         3.206931    0.379471   -0.874476
| 20> H         3.790189   -0.575073    0.520389
| 21> *
| 22>
| 23> $new_job
| 24> ! ri-mp2 aug-cc-pvtz aug-cc-pvtz/c tightscf
| 25> %pal nprocs 16 end
| 26> %maxcore 3800
| 27> %base "TZ_S-F_68_AB"
| 28>
| 29> *xyz 0 1
| 30> F        -2.241049    0.616329    0.827544
| 31> S        -1.819181   -0.309195   -0.414208
| 32> O        -0.350140   -0.804056    0.085443
| 33> C         0.721354    0.039048   -0.115755
| 34> O         0.661628    1.145393   -0.542627
| 35> O         1.792184   -0.623114    0.267661
| 36> C         3.023173    0.102658    0.161450
| 37> H         2.982680    0.999739    0.775534
| 38> H         3.206931    0.379471   -0.874476
| 39> H         3.790189   -0.575073    0.520389
| 40> *
| 41>
| 42> $new_job
| 43> ! ri-mp2 aug-cc-pvqz aug-cc-pvqz/c tightscf
| 44> %pal nprocs 16 end
| 45> %maxcore 3800
| 46> %base "QZ_S-F_68_AB"
| 47>
| 48> *xyz 0 1
| 49> F        -2.241049    0.616329    0.827544
| 50> S        -1.819181   -0.309195   -0.414208
| 51> O        -0.350140   -0.804056    0.085443
| 52> C         0.721354    0.039048   -0.115755
| 53> O         0.661628    1.145393   -0.542627
| 54> O         1.792184   -0.623114    0.267661
| 55> C         3.023173    0.102658    0.161450
| 56> H         2.982680    0.999739    0.775534
| 57> H         3.206931    0.379471   -0.874476
| 58> H         3.790189   -0.575073    0.520389
| 59> *
| 60>
| 61>
| 62>
| 63>
| 64>                          ****END OF INPUT****
 Total Charge           Charge          ....    0
 Multiplicity           Mult            ....    1
 Number of Electrons    NEL             ....   64
MP2 TOTAL ENERGY:     -800.251850776 Eh
FINAL SINGLE POINT ENERGY      -800.251850776293
MP2 TOTAL ENERGY:     -800.651906040 Eh
FINAL SINGLE POINT ENERGY      -800.651906040268

CARTESIAN COORDINATES (ANGSTROEM)
---------------------------------
  F     -2.241049    0.616329    0.827544
  S     -1.819181   -0.309195   -0.414208
  O     -0.350140   -0.804056    0.085443
  C      0.721354    0.039048   -0.115755
  O      0.661628    1.145393   -0.542627
  O      1.792184   -0.623114    0.267661
  C      3.023173    0.102658    0.161450
  H      2.982680    0.999739    0.775534
  H      3.206931    0.379471   -0.874476
  H      3.790189   -0.575073    0.520389

 Multiplicity           Mult            ....    1
 Number of Electrons    NEL             ....   64
 Basis Dimension        Dim             ....  702

ORBITAL ENERGIES
----------------

  NO   OCC          E(Eh)            E(eV)
   0   2.0000     -92.090431     -2505.9080
   1   2.0000     -26.326867      -716.3905
   2   2.0000     -20.655932      -562.0765
   3   2.0000     -20.633348      -561.4620
   4   2.0000     -20.570985      -559.7649
   5   2.0000     -11.454930      -311.7045
   6   2.0000     -11.306164      -307.6564
   7   2.0000      -9.078928      -247.0502
   8   2.0000      -6.760137      -183.9527
   9   2.0000      -6.758567      -183.9100
  10   2.0000      -6.756295      -183.8481
  11   2.0000      -1.632756       -44.4295
  12   2.0000      -1.536778       -41.8179
  13   2.0000      -1.433633       -39.0111
  14   2.0000      -1.402370       -38.1604
  15   2.0000      -1.033483       -28.1225
  16   2.0000      -0.958448       -26.0807
  17   2.0000      -0.825849       -22.4725
  18   2.0000      -0.781501       -21.2657
  19   2.0000      -0.739259       -20.1163
  20   2.0000      -0.735500       -20.0140
  21   2.0000      -0.708277       -19.2732
  22   2.0000      -0.699522       -19.0350
  23   2.0000      -0.675590       -18.3837
  24   2.0000      -0.638715       -17.3803
  25   2.0000      -0.621550       -16.9132
  26   2.0000      -0.572441       -15.5769
  27   2.0000      -0.562205       -15.2984
  28   2.0000      -0.534027       -14.5316
  29   2.0000      -0.501344       -13.6423
  30   2.0000      -0.496211       -13.5026
  31   2.0000      -0.387257       -10.5378
  32   0.0000       0.023037         0.6269
  33   0.0000       0.039060         1.0629
  34   0.0000       0.041167         1.1202
  35   0.0000       0.046102         1.2545
  36   0.0000       0.056449         1.5361

MULLIKEN ATOMIC CHARGES
-----------------------
   0 F :   -0.587438
   1 S :    0.865550
   2 O :   -0.604277
   3 C :    1.201329
   4 O :   -0.638601
   5 O :   -0.587165
   6 C :   -0.653944
   7 H :    0.286173
   8 H :    0.286472
   9 H :    0.431900
Sum of atomic charges:    0.0000000

LOEWDIN ATOMIC CHARGES
----------------------
   0 F :    0.069413
   1 S :    0.331714
   2 O :    0.203534
   3 C :   -1.690286
   4 O :    0.653153
   5 O :    0.796225
   6 C :    0.584972
   7 H :   -0.314475
   8 H :   -0.314310
   9 H :   -0.319940

  Mayer bond orders larger than 0.100000
B(  0-F ,  1-S ) :   0.6692 B(  1-S ,  2-O ) :   0.8399 B(  2-O ,  3-C ) :   1.0079
B(  3-C ,  4-O ) :   1.6794 B(  3-C ,  5-O ) :   1.0745 B(  5-O ,  6-C ) :   0.8387
B(  6-C ,  7-H ) :   0.9188 B(  6-C ,  8-H ) :   0.9196 B(  6-C ,  9-H ) :   0.8188

MP2 TOTAL ENERGY:     -800.783342849 Eh
FINAL SINGLE POINT ENERGY      -800.783342849485

DIPOLE MOMENT
-------------
                                X             Y             Z
Electronic contribution:    -10.76178      -0.57673       0.17421
Nuclear contribution   :     11.70725       0.19117      -0.36796
                        -----------------------------------------
Total Dipole Moment    :      0.94547      -0.38557      -0.19375
                        -----------------------------------------
Magnitude (a.u.)       :      1.03928
Magnitude (Debye)      :      2.64165

Rotational constants in cm-1:     0.221794     0.038562     0.036646
Rotational constants in MHz :  6649.203192  1156.055668  1098.616989

                             ****ORCA TERMINATED NORMALLY****
TOTAL RUN TIME: 0 days 0 hours 21 minutes 7 seconds 856 msec
