                         Program Version 5.0.4 -  RELEASE  -
|  1> ! ri-mp2 aug-cc-pvdz aug-cc-pvdz/c tightscf
|  2> %pal nprocs 16 end
|  3> %maxcore 3800
|  4> %base "DZ_B-Si_20_A"
|  5> %scf
|  6> STABPerform true
|  7> STABRestartUHFifUnstable true
|  8> end
|  9>
| 10> *xyz 0 2
| 11> Si         0.000000    0.321136   -0.505014
| 12> C        -0.000000    2.022339    0.249782
| 13> H         0.887639    2.572321   -0.060664
| 14> H         0.000002    1.935229    1.337700
| 15> H        -0.887641    2.572319   -0.060661
| 16> Cl        -1.674372   -0.697347    0.128092
| 17> Cl         1.674372   -0.697347    0.128092
| 18> *
| 19>
| 20> $new_job
| 21> ! ri-mp2 aug-cc-pvtz aug-cc-pvtz/c tightscf
| 22> %pal nprocs 16 end
| 23> %maxcore 3800
| 24> %base "TZ_B-Si_20_A"
| 25>
| 26> *xyz 0 2
| 27> Si         0.000000    0.321136   -0.505014
| 28> C        -0.000000    2.022339    0.249782
| 29> H         0.887639    2.572321   -0.060664
| 30> H         0.000002    1.935229    1.337700
| 31> H        -0.887641    2.572319   -0.060661
| 32> Cl        -1.674372   -0.697347    0.128092
| 33> Cl         1.674372   -0.697347    0.128092
| 34> *
| 35>
| 36> $new_job
| 37> ! ri-mp2 aug-cc-pvqz aug-cc-pvqz/c tightscf
| 38> %pal nprocs 16 end
| 39> %maxcore 3800
| 40> %base "QZ_B-Si_20_A"
| 41>
| 42> *xyz 0 2
| 43> Si         0.000000    0.321136   -0.505014
| 44> C        -0.000000    2.022339    0.249782
| 45> H         0.887639    2.572321   -0.060664
| 46> H         0.000002    1.935229    1.337700
| 47> H        -0.887641    2.572319   -0.060661
| 48> Cl        -1.674372   -0.697347    0.128092
| 49> Cl         1.674372   -0.697347    0.128092
| 50> *
| 51>
| 52>
| 53>
| 54>
| 55>                          ****END OF INPUT****
 Total Charge           Charge          ....    0
 Multiplicity           Mult            ....    2
 Number of Electrons    NEL             ....   57
MP2 TOTAL ENERGY:    -1248.166392678 Eh
FINAL SINGLE POINT ENERGY     -1248.166392678420
MP2 TOTAL ENERGY:    -1248.363871810 Eh
FINAL SINGLE POINT ENERGY     -1248.363871810262

CARTESIAN COORDINATES (ANGSTROEM)
---------------------------------
  Si     0.000000    0.321136   -0.505014
  C     -0.000000    2.022339    0.249782
  H      0.887639    2.572321   -0.060664
  H      0.000002    1.935229    1.337700
  H     -0.887641    2.572319   -0.060661
  Cl    -1.674372   -0.697347    0.128092
  Cl     1.674372   -0.697347    0.128092

 Multiplicity           Mult            ....    2
 Number of Electrons    NEL             ....   57
 Basis Dimension        Dim             ....  470

ORBITAL ENERGIES
----------------
                 SPIN UP ORBITALS
  NO   OCC          E(Eh)            E(eV)
   0   1.0000    -104.836157     -2852.7369
   1   1.0000    -104.836157     -2852.7369
   2   1.0000     -68.861765     -1873.8239
   3   1.0000     -11.234699      -305.7117
   4   1.0000     -10.563485      -287.4470
   5   1.0000     -10.563481      -287.4469
   6   1.0000      -8.031392      -218.5453
   7   1.0000      -8.031390      -218.5452
   8   1.0000      -8.029095      -218.4828
   9   1.0000      -8.029095      -218.4828
  10   1.0000      -8.028775      -218.4741
  11   1.0000      -8.028775      -218.4741
  12   1.0000      -6.203535      -168.8068
  13   1.0000      -4.314164      -117.3944
  14   1.0000      -4.306614      -117.1889
  15   1.0000      -4.305350      -117.1545
  16   1.0000      -1.123153       -30.5626
  17   1.0000      -1.094412       -29.7805
  18   1.0000      -0.976508       -26.5721
  19   1.0000      -0.690389       -18.7864
  20   1.0000      -0.595889       -16.2150
  21   1.0000      -0.593447       -16.1485
  22   1.0000      -0.543142       -14.7797
  23   1.0000      -0.536173       -14.5900
  24   1.0000      -0.512131       -13.9358
  25   1.0000      -0.478620       -13.0239
  26   1.0000      -0.467946       -12.7335
  27   1.0000      -0.460798       -12.5389
  28   1.0000      -0.348848        -9.4926
  29   0.0000       0.024705         0.6723
  30   0.0000       0.037154         1.0110
  31   0.0000       0.037992         1.0338
  32   0.0000       0.039652         1.0790
  33   0.0000       0.058593         1.5944

                 SPIN DOWN ORBITALS
  NO   OCC          E(Eh)            E(eV)
   0   1.0000    -104.835117     -2852.7086
   1   1.0000    -104.835117     -2852.7086
   2   1.0000     -68.855722     -1873.6594
   3   1.0000     -11.232015      -305.6387
   4   1.0000     -10.562341      -287.4159
   5   1.0000     -10.562335      -287.4157
   6   1.0000      -8.028952      -218.4789
   7   1.0000      -8.028951      -218.4789
   8   1.0000      -8.028228      -218.4592
   9   1.0000      -8.028228      -218.4592
  10   1.0000      -8.026849      -218.4217
  11   1.0000      -8.026848      -218.4216
  12   1.0000      -6.193560      -168.5353
  13   1.0000      -4.302717      -117.0829
  14   1.0000      -4.301704      -117.0553
  15   1.0000      -4.293219      -116.8244
  16   1.0000      -1.113839       -30.3091
  17   1.0000      -1.086510       -29.5654
  18   1.0000      -0.967193       -26.3187
  19   1.0000      -0.655978       -17.8501
  20   1.0000      -0.592691       -16.1279
  21   1.0000      -0.583182       -15.8692
  22   1.0000      -0.532630       -14.4936
  23   1.0000      -0.526110       -14.3162
  24   1.0000      -0.491816       -13.3830
  25   1.0000      -0.468988       -12.7618
  26   1.0000      -0.459259       -12.4971
  27   1.0000      -0.457564       -12.4509
  28   0.0000       0.014538         0.3956
  29   0.0000       0.036149         0.9837
  30   0.0000       0.037556         1.0220
  31   0.0000       0.039457         1.0737
  32   0.0000       0.045782         1.2458

MULLIKEN ATOMIC CHARGES AND SPIN POPULATIONS
--------------------------------------------
   0 Si:    1.400674    0.847742
   1 C :   -0.932244    0.067923
   2 H :    0.246074   -0.006499
   3 H :    0.222024    0.014319
   4 H :    0.246074   -0.006499
   5 Cl:   -0.591301    0.041507
   6 Cl:   -0.591301    0.041507
Sum of atomic charges         :    0.0000000

LOEWDIN ATOMIC CHARGES AND SPIN POPULATIONS
-------------------------------------------
   0 Si:   -1.131174    0.553190
   1 C :    0.757821    0.131406
   2 H :   -0.390803    0.017167
   3 H :   -0.386926    0.021469
   4 H :   -0.390804    0.017167
   5 Cl:    0.770943    0.129800
   6 Cl:    0.770943    0.129800

  Mayer bond orders larger than 0.100000
B(  0-Si,  1-C ) :   0.8974 B(  0-Si,  5-Cl) :   0.6560 B(  0-Si,  6-Cl) :   0.6560
B(  1-C ,  2-H ) :   0.9488 B(  1-C ,  3-H ) :   0.9579 B(  1-C ,  4-H ) :   0.9488

MP2 TOTAL ENERGY:    -1248.428758699 Eh
FINAL SINGLE POINT ENERGY     -1248.428758698850

DIPOLE MOMENT
-------------
                                X             Y             Z
Electronic contribution:     -0.00000      -7.66299      -0.95694
Nuclear contribution   :      0.00000       8.50162       0.82665
                        -----------------------------------------
Total Dipole Moment    :     -0.00000       0.83863      -0.13030
                        -----------------------------------------
Magnitude (a.u.)       :      0.84869
Magnitude (Debye)      :      2.15720

Rotational constants in cm-1:     0.148153     0.079825     0.055571
Rotational constants in MHz :  4441.517308  2393.098825  1665.977502

                             ****ORCA TERMINATED NORMALLY****
TOTAL RUN TIME: 0 days 0 hours 16 minutes 25 seconds 613 msec
