                         Program Version 5.0.4 -  RELEASE  -
|  1> ! ri-mp2 aug-cc-pvdz aug-cc-pvdz/c tightscf
|  2> %pal nprocs 16 end
|  3> %maxcore 3800
|  4> %base "DZ_B-F_52_A"
|  5> %scf
|  6> STABPerform true
|  7> STABRestartUHFifUnstable true
|  8> end
|  9>
| 10> *xyz 0 2
| 11> F         2.618403    0.038401   -0.069573
| 12> B         1.507131   -0.636714   -0.146386
| 13> C         0.149512   -0.014902    0.432249
| 14> O        -0.869684   -0.930190    0.697614
| 15> O        -0.216228    0.978482   -0.485542
| 16> C        -1.316472   -1.663376   -0.426491
| 17> H        -2.029439   -2.397008   -0.058639
| 18> H        -0.482001   -2.177678   -0.912986
| 19> H        -1.804191   -1.015351   -1.157240
| 20> C        -1.191050    1.882883   -0.000336
| 21> H        -1.376023    2.605060   -0.791700
| 22> H        -0.823655    2.405252    0.888570
| 23> H        -2.119918    1.366804    0.249252
| 24> H         0.369302    0.436913    1.411725
| 25> *
| 26>
| 27> $new_job
| 28> ! ri-mp2 aug-cc-pvtz aug-cc-pvtz/c tightscf
| 29> %pal nprocs 16 end
| 30> %maxcore 3800
| 31> %base "TZ_B-F_52_A"
| 32>
| 33> *xyz 0 2
| 34> F         2.618403    0.038401   -0.069573
| 35> B         1.507131   -0.636714   -0.146386
| 36> C         0.149512   -0.014902    0.432249
| 37> O        -0.869684   -0.930190    0.697614
| 38> O        -0.216228    0.978482   -0.485542
| 39> C        -1.316472   -1.663376   -0.426491
| 40> H        -2.029439   -2.397008   -0.058639
| 41> H        -0.482001   -2.177678   -0.912986
| 42> H        -1.804191   -1.015351   -1.157240
| 43> C        -1.191050    1.882883   -0.000336
| 44> H        -1.376023    2.605060   -0.791700
| 45> H        -0.823655    2.405252    0.888570
| 46> H        -2.119918    1.366804    0.249252
| 47> H         0.369302    0.436913    1.411725
| 48> *
| 49>
| 50> $new_job
| 51> ! ri-mp2 aug-cc-pvqz aug-cc-pvqz/c tightscf
| 52> %pal nprocs 16 end
| 53> %maxcore 3800
| 54> %base "QZ_B-F_52_A"
| 55>
| 56> *xyz 0 2
| 57> F         2.618403    0.038401   -0.069573
| 58> B         1.507131   -0.636714   -0.146386
| 59> C         0.149512   -0.014902    0.432249
| 60> O        -0.869684   -0.930190    0.697614
| 61> O        -0.216228    0.978482   -0.485542
| 62> C        -1.316472   -1.663376   -0.426491
| 63> H        -2.029439   -2.397008   -0.058639
| 64> H        -0.482001   -2.177678   -0.912986
| 65> H        -1.804191   -1.015351   -1.157240
| 66> C        -1.191050    1.882883   -0.000336
| 67> H        -1.376023    2.605060   -0.791700
| 68> H        -0.823655    2.405252    0.888570
| 69> H        -2.119918    1.366804    0.249252
| 70> H         0.369302    0.436913    1.411725
| 71> *
| 72>
| 73>
| 74>
| 75>
| 76>                          ****END OF INPUT****
 Total Charge           Charge          ....    0
 Multiplicity           Mult            ....    2
 Number of Electrons    NEL             ....   55
MP2 TOTAL ENERGY:     -392.626335170 Eh
FINAL SINGLE POINT ENERGY      -392.626335169854
MP2 TOTAL ENERGY:     -392.973656741 Eh
FINAL SINGLE POINT ENERGY      -392.973656740927

CARTESIAN COORDINATES (ANGSTROEM)
---------------------------------
  F      2.618403    0.038401   -0.069573
  B      1.507131   -0.636714   -0.146386
  C      0.149512   -0.014902    0.432249
  O     -0.869684   -0.930190    0.697614
  O     -0.216228    0.978482   -0.485542
  C     -1.316472   -1.663376   -0.426491
  H     -2.029439   -2.397008   -0.058639
  H     -0.482001   -2.177678   -0.912986
  H     -1.804191   -1.015351   -1.157240
  C     -1.191050    1.882883   -0.000336
  H     -1.376023    2.605060   -0.791700
  H     -0.823655    2.405252    0.888570
  H     -2.119918    1.366804    0.249252
  H      0.369302    0.436913    1.411725

 Multiplicity           Mult            ....    2
 Number of Electrons    NEL             ....   55
 Basis Dimension        Dim             ....  882

ORBITAL ENERGIES
----------------
                 SPIN UP ORBITALS
  NO   OCC          E(Eh)            E(eV)
   0   1.0000     -26.321034      -716.2318
   1   1.0000     -20.571697      -559.7843
   2   1.0000     -20.565498      -559.6157
   3   1.0000     -11.326912      -308.2209
   4   1.0000     -11.276487      -306.8488
   5   1.0000     -11.271338      -306.7087
   6   1.0000      -7.683729      -209.0849
   7   1.0000      -1.640315       -44.6352
   8   1.0000      -1.427184       -38.8357
   9   1.0000      -1.356504       -36.9123
  10   1.0000      -0.995290       -27.0832
  11   1.0000      -0.941560       -25.6211
  12   1.0000      -0.857812       -23.3422
  13   1.0000      -0.795983       -21.6598
  14   1.0000      -0.728634       -19.8271
  15   1.0000      -0.706106       -19.2141
  16   1.0000      -0.697403       -18.9773
  17   1.0000      -0.688226       -18.7276
  18   1.0000      -0.678149       -18.4534
  19   1.0000      -0.620124       -16.8744
  20   1.0000      -0.607831       -16.5399
  21   1.0000      -0.581346       -15.8192
  22   1.0000      -0.540499       -14.7077
  23   1.0000      -0.530145       -14.4260
  24   1.0000      -0.478352       -13.0166
  25   1.0000      -0.455760       -12.4018
  26   1.0000      -0.451879       -12.2962
  27   1.0000      -0.349468        -9.5095
  28   0.0000       0.024414         0.6643
  29   0.0000       0.031749         0.8639
  30   0.0000       0.032899         0.8952
  31   0.0000       0.034502         0.9388
  32   0.0000       0.047711         1.2983

                 SPIN DOWN ORBITALS
  NO   OCC          E(Eh)            E(eV)
   0   1.0000     -26.317786      -716.1434
   1   1.0000     -20.571662      -559.7834
   2   1.0000     -20.565874      -559.6259
   3   1.0000     -11.323173      -308.1192
   4   1.0000     -11.276378      -306.8458
   5   1.0000     -11.270934      -306.6977
   6   1.0000      -7.664725      -208.5678
   7   1.0000      -1.631313       -44.3903
   8   1.0000      -1.426289       -38.8113
   9   1.0000      -1.356725       -36.9184
  10   1.0000      -0.989592       -26.9282
  11   1.0000      -0.940299       -25.5868
  12   1.0000      -0.848082       -23.0775
  13   1.0000      -0.784972       -21.3602
  14   1.0000      -0.708671       -19.2839
  15   1.0000      -0.700448       -19.0601
  16   1.0000      -0.694304       -18.8930
  17   1.0000      -0.683549       -18.6003
  18   1.0000      -0.668249       -18.1840
  19   1.0000      -0.618501       -16.8303
  20   1.0000      -0.607263       -16.5245
  21   1.0000      -0.576082       -15.6760
  22   1.0000      -0.531578       -14.4650
  23   1.0000      -0.529147       -14.3988
  24   1.0000      -0.466883       -12.7045
  25   1.0000      -0.453593       -12.3429
  26   1.0000      -0.439580       -11.9616
  27   0.0000       0.022162         0.6031
  28   0.0000       0.032145         0.8747
  29   0.0000       0.032158         0.8751
  30   0.0000       0.034311         0.9336
  31   0.0000       0.048429         1.3178

MULLIKEN ATOMIC CHARGES AND SPIN POPULATIONS
--------------------------------------------
   0 F :   -0.781388   -0.016639
   1 B :    0.849295    1.039578
   2 C :    0.730263   -0.004128
   3 O :   -0.839065   -0.011565
   4 O :   -0.854059    0.002026
   5 C :   -0.650549    0.016415
   6 H :    0.410629    0.001650
   7 H :    0.278857   -0.026601
   8 H :    0.267602    0.000432
   9 C :   -0.665209    0.003024
  10 H :    0.410404    0.000696
  11 H :    0.273623    0.000338
  12 H :    0.289742   -0.000119
  13 H :    0.279853   -0.005109
Sum of atomic charges         :   -0.0000000

LOEWDIN ATOMIC CHARGES AND SPIN POPULATIONS
-------------------------------------------
   0 F :    0.755778    0.147480
   1 B :   -0.669005    0.553292
   2 C :   -0.592481    0.160242
   3 O :    0.845762    0.009955
   4 O :    0.839689    0.016059
   5 C :    0.546043    0.034058
   6 H :   -0.317589    0.002730
   7 H :   -0.347771    0.044416
   8 H :   -0.311758    0.003223
   9 C :    0.579386    0.003840
  10 H :   -0.319177    0.001228
  11 H :   -0.306206    0.001551
  12 H :   -0.312747    0.000950
  13 H :   -0.389924    0.020977

  Mayer bond orders larger than 0.100000
B(  0-F ,  1-B ) :   0.2915 B(  1-B ,  2-C ) :   0.7897 B(  2-C ,  3-O ) :   0.6384
B(  2-C ,  4-O ) :   0.5557 B(  2-C , 13-H ) :   0.9180 B(  3-O ,  5-C ) :   0.8547
B(  4-O ,  9-C ) :   0.9108 B(  5-C ,  6-H ) :   0.8607 B(  5-C ,  7-H ) :   0.9178
B(  5-C ,  8-H ) :   0.9156 B(  9-C , 10-H ) :   0.8523 B(  9-C , 11-H ) :   0.9215
B(  9-C , 12-H ) :   0.9022

MP2 TOTAL ENERGY:     -393.083329099 Eh
FINAL SINGLE POINT ENERGY      -393.083329099352

DIPOLE MOMENT
-------------
                                X             Y             Z
Electronic contribution:     11.34324      -1.55593       0.21408
Nuclear contribution   :    -11.89898       1.67395      -0.17824
                        -----------------------------------------
Total Dipole Moment    :     -0.55574       0.11802       0.03584
                        -----------------------------------------
Magnitude (a.u.)       :      0.56926
Magnitude (Debye)      :      1.44695

Rotational constants in cm-1:     0.106920     0.069897     0.047451
Rotational constants in MHz :  3205.384066  2095.472840  1422.553362

                             ****ORCA TERMINATED NORMALLY****
TOTAL RUN TIME: 0 days 2 hours 42 minutes 12 seconds 469 msec
