                         Program Version 5.0.4 -  RELEASE  -
|  1> ! ri-mp2 aug-cc-pvdz aug-cc-pvdz/c tightscf
|  2> %pal nprocs 16 end
|  3> %maxcore 3800
|  4> %base "DZ_Si-Si_74_AB"
|  5> %scf
|  6> STABPerform true
|  7> STABRestartUHFifUnstable true
|  8> end
|  9>
| 10> *xyz 0 1
| 11> Si         1.534797   -0.185579    0.016330
| 12> Si        -0.668467    0.591764   -0.023357
| 13> H         1.857894   -0.820210    1.314043
| 14> H         2.483156    0.928173   -0.217207
| 15> H         1.736477   -1.193944   -1.052681
| 16> N        -1.731979   -0.757824    0.052603
| 17> H        -0.834968    1.459587   -1.221807
| 18> H        -0.949073    1.445661    1.153755
| 19> H        -1.595757   -1.560897   -0.538150
| 20> H        -2.702493   -0.640192    0.292204
| 21> *
| 22>
| 23> $new_job
| 24> ! ri-mp2 aug-cc-pvtz aug-cc-pvtz/c tightscf
| 25> %pal nprocs 16 end
| 26> %maxcore 3800
| 27> %base "TZ_Si-Si_74_AB"
| 28>
| 29> *xyz 0 1
| 30> Si         1.534797   -0.185579    0.016330
| 31> Si        -0.668467    0.591764   -0.023357
| 32> H         1.857894   -0.820210    1.314043
| 33> H         2.483156    0.928173   -0.217207
| 34> H         1.736477   -1.193944   -1.052681
| 35> N        -1.731979   -0.757824    0.052603
| 36> H        -0.834968    1.459587   -1.221807
| 37> H        -0.949073    1.445661    1.153755
| 38> H        -1.595757   -1.560897   -0.538150
| 39> H        -2.702493   -0.640192    0.292204
| 40> *
| 41>
| 42> $new_job
| 43> ! ri-mp2 aug-cc-pvqz aug-cc-pvqz/c tightscf
| 44> %pal nprocs 16 end
| 45> %maxcore 3800
| 46> %base "QZ_Si-Si_74_AB"
| 47>
| 48> *xyz 0 1
| 49> Si         1.534797   -0.185579    0.016330
| 50> Si        -0.668467    0.591764   -0.023357
| 51> H         1.857894   -0.820210    1.314043
| 52> H         2.483156    0.928173   -0.217207
| 53> H         1.736477   -1.193944   -1.052681
| 54> N        -1.731979   -0.757824    0.052603
| 55> H        -0.834968    1.459587   -1.221807
| 56> H        -0.949073    1.445661    1.153755
| 57> H        -1.595757   -1.560897   -0.538150
| 58> H        -2.702493   -0.640192    0.292204
| 59> *
| 60>
| 61>
| 62>
| 63>
| 64>                          ****END OF INPUT****
 Total Charge           Charge          ....    0
 Multiplicity           Mult            ....    1
 Number of Electrons    NEL             ....   42
MP2 TOTAL ENERGY:     -636.810902540 Eh
FINAL SINGLE POINT ENERGY      -636.810902539723
MP2 TOTAL ENERGY:     -636.942978304 Eh
FINAL SINGLE POINT ENERGY      -636.942978304064

CARTESIAN COORDINATES (ANGSTROEM)
---------------------------------
  Si     1.534797   -0.185579    0.016330
  Si    -0.668467    0.591764   -0.023357
  H      1.857894   -0.820210    1.314043
  H      2.483156    0.928173   -0.217207
  H      1.736477   -1.193944   -1.052681
  N     -1.731979   -0.757824    0.052603
  H     -0.834968    1.459587   -1.221807
  H     -0.949073    1.445661    1.153755
  H     -1.595757   -1.560897   -0.538150
  H     -2.702493   -0.640192    0.292204

 Multiplicity           Mult            ....    1
 Number of Electrons    NEL             ....   42
 Basis Dimension        Dim             ....  570

ORBITAL ENERGIES
----------------

  NO   OCC          E(Eh)            E(eV)
   0   2.0000     -68.773505     -1871.4222
   1   2.0000     -68.759993     -1871.0545
   2   2.0000     -15.537454      -422.7956
   3   2.0000      -6.120796      -166.5553
   4   2.0000      -6.111159      -166.2931
   5   2.0000      -4.227592      -115.0386
   6   2.0000      -4.227331      -115.0315
   7   2.0000      -4.226974      -115.0218
   8   2.0000      -4.217262      -114.7575
   9   2.0000      -4.217213      -114.7562
  10   2.0000      -4.217101      -114.7532
  11   2.0000      -1.138637       -30.9839
  12   2.0000      -0.748701       -20.3732
  13   2.0000      -0.681495       -18.5444
  14   2.0000      -0.659506       -17.9461
  15   2.0000      -0.554248       -15.0818
  16   2.0000      -0.499401       -13.5894
  17   2.0000      -0.479727       -13.0540
  18   2.0000      -0.472028       -12.8445
  19   2.0000      -0.421091       -11.4585
  20   2.0000      -0.381906       -10.3922
  21   0.0000       0.023721         0.6455
  22   0.0000       0.030728         0.8361
  23   0.0000       0.037751         1.0273
  24   0.0000       0.041919         1.1407
  25   0.0000       0.049935         1.3588

MULLIKEN ATOMIC CHARGES
-----------------------
   0 Si:    0.413265
   1 Si:    0.853339
   2 H :   -0.147109
   3 H :   -0.165207
   4 H :   -0.158173
   5 N :   -0.880722
   6 H :   -0.218798
   7 H :   -0.200642
   8 H :    0.266730
   9 H :    0.237318
Sum of atomic charges:   -0.0000000

LOEWDIN ATOMIC CHARGES
----------------------
   0 Si:    1.039664
   1 Si:    0.553698
   2 H :   -0.319737
   3 H :   -0.323930
   4 H :   -0.320336
   5 N :    1.116090
   6 H :   -0.280292
   7 H :   -0.273548
   8 H :   -0.598969
   9 H :   -0.592641

  Mayer bond orders larger than 0.100000
B(  0-Si,  1-Si) :   0.7868 B(  0-Si,  2-H ) :   0.7929 B(  0-Si,  3-H ) :   0.8057
B(  0-Si,  4-H ) :   0.7912 B(  1-Si,  5-N ) :   0.8396 B(  1-Si,  6-H ) :   0.8231
B(  1-Si,  7-H ) :   0.8604 B(  5-N ,  8-H ) :   0.9604 B(  5-N ,  9-H ) :   0.9891

MP2 TOTAL ENERGY:     -636.985137205 Eh
FINAL SINGLE POINT ENERGY      -636.985137204588

DIPOLE MOMENT
-------------
                                X             Y             Z
Electronic contribution:     -0.37634       0.20369       0.09607
Nuclear contribution   :     -0.06896      -0.41968      -0.27484
                        -----------------------------------------
Total Dipole Moment    :     -0.44530      -0.21598      -0.17877
                        -----------------------------------------
Magnitude (a.u.)       :      0.52621
Magnitude (Debye)      :      1.33753

Rotational constants in cm-1:     0.479727     0.111507     0.096903
Rotational constants in MHz : 14381.854204  3342.884586  2905.089560

                             ****ORCA TERMINATED NORMALLY****
TOTAL RUN TIME: 0 days 0 hours 15 minutes 4 seconds 440 msec
