                         Program Version 5.0.4 -  RELEASE  -
|  1> ! ri-mp2 aug-cc-pvdz aug-cc-pvdz/c tightscf
|  2> %pal nprocs 16 end
|  3> %maxcore 3800
|  4> %base "DZ_P-Si_54_A"
|  5> %scf
|  6> STABPerform true
|  7> STABRestartUHFifUnstable true
|  8> end
|  9>
| 10> *xyz 0 2
| 11> Si        -0.034039   -0.056810   -0.386208
| 12> N         0.664323    1.398180    0.178726
| 13> O        -1.597804   -0.131038    0.113735
| 14> H         0.223476    2.283155   -0.012129
| 15> H         1.667349    1.481339    0.230507
| 16> H        -1.772676    0.072000    1.038842
| 17> O         0.951379   -1.210025    0.259923
| 18> H         0.879530   -2.099908   -0.090651
| 19> *
| 20>
| 21> $new_job
| 22> ! ri-mp2 aug-cc-pvtz aug-cc-pvtz/c tightscf
| 23> %pal nprocs 16 end
| 24> %maxcore 3800
| 25> %base "TZ_P-Si_54_A"
| 26>
| 27> *xyz 0 2
| 28> Si        -0.034039   -0.056810   -0.386208
| 29> N         0.664323    1.398180    0.178726
| 30> O        -1.597804   -0.131038    0.113735
| 31> H         0.223476    2.283155   -0.012129
| 32> H         1.667349    1.481339    0.230507
| 33> H        -1.772676    0.072000    1.038842
| 34> O         0.951379   -1.210025    0.259923
| 35> H         0.879530   -2.099908   -0.090651
| 36> *
| 37>
| 38> $new_job
| 39> ! ri-mp2 aug-cc-pvqz aug-cc-pvqz/c tightscf
| 40> %pal nprocs 16 end
| 41> %maxcore 3800
| 42> %base "QZ_P-Si_54_A"
| 43>
| 44> *xyz 0 2
| 45> Si        -0.034039   -0.056810   -0.386208
| 46> N         0.664323    1.398180    0.178726
| 47> O        -1.597804   -0.131038    0.113735
| 48> H         0.223476    2.283155   -0.012129
| 49> H         1.667349    1.481339    0.230507
| 50> H        -1.772676    0.072000    1.038842
| 51> O         0.951379   -1.210025    0.259923
| 52> H         0.879530   -2.099908   -0.090651
| 53> *
| 54>
| 55>
| 56>
| 57>
| 58>                          ****END OF INPUT****
 Total Charge           Charge          ....    0
 Multiplicity           Mult            ....    2
 Number of Electrons    NEL             ....   41
MP2 TOTAL ENERGY:     -496.222817935 Eh
FINAL SINGLE POINT ENERGY      -496.222817934921
MP2 TOTAL ENERGY:     -496.454014066 Eh
FINAL SINGLE POINT ENERGY      -496.454014065704

CARTESIAN COORDINATES (ANGSTROEM)
---------------------------------
  Si    -0.034039   -0.056810   -0.386208
  N      0.664323    1.398180    0.178726
  O     -1.597804   -0.131038    0.113735
  H      0.223476    2.283155   -0.012129
  H      1.667349    1.481339    0.230507
  H     -1.772676    0.072000    1.038842
  O      0.951379   -1.210025    0.259923
  H      0.879530   -2.099908   -0.090651

 Multiplicity           Mult            ....    2
 Number of Electrons    NEL             ....   41
 Basis Dimension        Dim             ....  508

ORBITAL ENERGIES
----------------
                 SPIN UP ORBITALS
  NO   OCC          E(Eh)            E(eV)
   0   1.0000     -68.812442     -1872.4817
   1   1.0000     -20.558730      -559.4315
   2   1.0000     -20.554360      -559.3126
   3   1.0000     -15.541182      -422.8971
   4   1.0000      -6.153084      -167.4339
   5   1.0000      -4.264405      -116.0404
   6   1.0000      -4.257412      -115.8501
   7   1.0000      -4.257011      -115.8392
   8   1.0000      -1.355871       -36.8951
   9   1.0000      -1.334422       -36.3115
  10   1.0000      -1.145275       -31.1645
  11   1.0000      -0.764454       -20.8019
  12   1.0000      -0.714517       -19.4430
  13   1.0000      -0.661036       -17.9877
  14   1.0000      -0.620403       -16.8820
  15   1.0000      -0.587052       -15.9745
  16   1.0000      -0.570719       -15.5301
  17   1.0000      -0.526215       -14.3190
  18   1.0000      -0.502346       -13.6695
  19   1.0000      -0.449317       -12.2265
  20   1.0000      -0.323842        -8.8122
  21   0.0000       0.025250         0.6871
  22   0.0000       0.034974         0.9517
  23   0.0000       0.038696         1.0530
  24   0.0000       0.043572         1.1857
  25   0.0000       0.054437         1.4813

                 SPIN DOWN ORBITALS
  NO   OCC          E(Eh)            E(eV)
   0   1.0000     -68.806954     -1872.3324
   1   1.0000     -20.554851      -559.3259
   2   1.0000     -20.551882      -559.2451
   3   1.0000     -15.536920      -422.7811
   4   1.0000      -6.143698      -167.1785
   5   1.0000      -4.253973      -115.7565
   6   1.0000      -4.253661      -115.7480
   7   1.0000      -4.246292      -115.5475
   8   1.0000      -1.345633       -36.6165
   9   1.0000      -1.325424       -36.0666
  10   1.0000      -1.133096       -30.8331
  11   1.0000      -0.748450       -20.3664
  12   1.0000      -0.703504       -19.1433
  13   1.0000      -0.657275       -17.8854
  14   1.0000      -0.611531       -16.6406
  15   1.0000      -0.573659       -15.6100
  16   1.0000      -0.549614       -14.9558
  17   1.0000      -0.518774       -14.1166
  18   1.0000      -0.499573       -13.5941
  19   1.0000      -0.420157       -11.4331
  20   0.0000       0.019161         0.5214
  21   0.0000       0.035496         0.9659
  22   0.0000       0.039315         1.0698
  23   0.0000       0.043461         1.1826
  24   0.0000       0.053586         1.4582

MULLIKEN ATOMIC CHARGES AND SPIN POPULATIONS
--------------------------------------------
   0 Si:    1.451497    0.904123
   1 N :   -0.845357    0.124057
   2 O :   -0.928724   -0.059351
   3 H :    0.238503   -0.009003
   4 H :    0.254715   -0.008638
   5 H :    0.375223    0.019619
   6 O :   -0.891418    0.057304
   7 H :    0.345561   -0.028111
Sum of atomic charges         :    0.0000000

LOEWDIN ATOMIC CHARGES AND SPIN POPULATIONS
-------------------------------------------
   0 Si:   -0.188977    0.537703
   1 N :    1.153975    0.128362
   2 O :    1.029901    0.116620
   3 H :   -0.606407    0.020099
   4 H :   -0.605125    0.018274
   5 H :   -0.907803    0.019493
   6 O :    1.051859    0.120275
   7 H :   -0.927422    0.039174

  Mayer bond orders larger than 0.100000
B(  0-Si,  1-N ) :   0.9741 B(  0-Si,  2-O ) :   0.5310 B(  0-Si,  6-O ) :   0.6936
B(  1-N ,  3-H ) :   0.9945 B(  1-N ,  4-H ) :   0.9672 B(  2-O ,  5-H ) :   0.8867
B(  6-O ,  7-H ) :   0.9147

MP2 TOTAL ENERGY:     -496.528274796 Eh
FINAL SINGLE POINT ENERGY      -496.528274796057

DIPOLE MOMENT
-------------
                                X             Y             Z
Electronic contribution:     -0.76300      -1.49898      -1.10614
Nuclear contribution   :      0.97919       1.70230       1.17976
                        -----------------------------------------
Total Dipole Moment    :      0.21619       0.20332       0.07362
                        -----------------------------------------
Magnitude (a.u.)       :      0.30577
Magnitude (Debye)      :      0.77721

Rotational constants in cm-1:     0.241240     0.223075     0.128270
Rotational constants in MHz :  7232.203704  6687.607879  3845.451790

                             ****ORCA TERMINATED NORMALLY****
TOTAL RUN TIME: 0 days 0 hours 24 minutes 20 seconds 989 msec
