                         Program Version 5.0.4 -  RELEASE  -
|  1> ! ri-mp2 aug-cc-pvdz aug-cc-pvdz/c tightscf
|  2> %pal nprocs 16 end
|  3> %maxcore 3800
|  4> %base "DZ_S-Cl_49_A"
|  5> %scf
|  6> STABPerform true
|  7> STABRestartUHFifUnstable true
|  8> end
|  9>
| 10> *xyz 0 2
| 11> S        -1.526830   -0.495414   -0.000002
| 12> C        -0.039342    0.439814    0.000003
| 13> O        -0.089493    1.635315   -0.000001
| 14> S         1.446114   -0.521988    0.000001
| 15> H         2.243448    0.557037    0.000000
| 16> *
| 17>
| 18> $new_job
| 19> ! ri-mp2 aug-cc-pvtz aug-cc-pvtz/c tightscf
| 20> %pal nprocs 16 end
| 21> %maxcore 3800
| 22> %base "TZ_S-Cl_49_A"
| 23>
| 24> *xyz 0 2
| 25> S        -1.526830   -0.495414   -0.000002
| 26> C        -0.039342    0.439814    0.000003
| 27> O        -0.089493    1.635315   -0.000001
| 28> S         1.446114   -0.521988    0.000001
| 29> H         2.243448    0.557037    0.000000
| 30> *
| 31>
| 32> $new_job
| 33> ! ri-mp2 aug-cc-pvqz aug-cc-pvqz/c tightscf
| 34> %pal nprocs 16 end
| 35> %maxcore 3800
| 36> %base "QZ_S-Cl_49_A"
| 37>
| 38> *xyz 0 2
| 39> S        -1.526830   -0.495414   -0.000002
| 40> C        -0.039342    0.439814    0.000003
| 41> O        -0.089493    1.635315   -0.000001
| 42> S         1.446114   -0.521988    0.000001
| 43> H         2.243448    0.557037    0.000000
| 44> *
| 45>
| 46>
| 47>
| 48>
| 49>                          ****END OF INPUT****
 Total Charge           Charge          ....    0
 Multiplicity           Mult            ....    2
 Number of Electrons    NEL             ....   47
MP2 TOTAL ENERGY:     -908.953184070 Eh
FINAL SINGLE POINT ENERGY      -908.953184069705
MP2 TOTAL ENERGY:     -909.142710010 Eh
FINAL SINGLE POINT ENERGY      -909.142710009800

CARTESIAN COORDINATES (ANGSTROEM)
---------------------------------
  S     -1.526830   -0.495414   -0.000002
  C     -0.039342    0.439814    0.000003
  O     -0.089493    1.635315   -0.000001
  S      1.446114   -0.521988    0.000001
  H      2.243448    0.557037    0.000000

 Multiplicity           Mult            ....    2
 Number of Electrons    NEL             ....   47
 Basis Dimension        Dim             ....  374

ORBITAL ENERGIES
----------------
                 SPIN UP ORBITALS
  NO   OCC          E(Eh)            E(eV)
   0   1.0000     -92.018121     -2503.9404
   1   1.0000     -92.001741     -2503.4947
   2   1.0000     -20.579990      -560.0100
   3   1.0000     -11.408476      -310.4404
   4   1.0000      -9.020771      -245.4677
   5   1.0000      -9.005304      -245.0468
   6   1.0000      -6.716728      -182.7715
   7   1.0000      -6.697757      -182.2552
   8   1.0000      -6.696449      -182.2196
   9   1.0000      -6.686715      -181.9548
  10   1.0000      -6.685616      -181.9249
  11   1.0000      -6.684810      -181.9029
  12   1.0000      -1.438576       -39.1456
  13   1.0000      -1.088767       -29.6269
  14   1.0000      -1.013516       -27.5792
  15   1.0000      -0.761540       -20.7226
  16   1.0000      -0.672661       -18.3040
  17   1.0000      -0.649193       -17.6654
  18   1.0000      -0.603396       -16.4192
  19   1.0000      -0.546130       -14.8610
  20   1.0000      -0.486658       -13.2426
  21   1.0000      -0.434743       -11.8299
  22   1.0000      -0.427353       -11.6289
  23   1.0000      -0.409475       -11.1424
  24   0.0000       0.027019         0.7352
  25   0.0000       0.045285         1.2323
  26   0.0000       0.055536         1.5112
  27   0.0000       0.070814         1.9269
  28   0.0000       0.073304         1.9947

                 SPIN DOWN ORBITALS
  NO   OCC          E(Eh)            E(eV)
   0   1.0000     -92.008741     -2503.6851
   1   1.0000     -92.001727     -2503.4943
   2   1.0000     -20.578573      -559.9714
   3   1.0000     -11.409367      -310.4647
   4   1.0000      -9.010415      -245.1859
   5   1.0000      -9.005230      -245.0448
   6   1.0000      -6.692913      -182.1234
   7   1.0000      -6.690825      -182.0666
   8   1.0000      -6.686689      -181.9541
   9   1.0000      -6.685727      -181.9279
  10   1.0000      -6.684825      -181.9033
  11   1.0000      -6.674370      -181.6188
  12   1.0000      -1.434064       -39.0229
  13   1.0000      -1.066684       -29.0259
  14   1.0000      -0.961250       -26.1570
  15   1.0000      -0.741945       -20.1894
  16   1.0000      -0.660725       -17.9792
  17   1.0000      -0.631709       -17.1897
  18   1.0000      -0.601923       -16.3792
  19   1.0000      -0.540599       -14.7104
  20   1.0000      -0.427864       -11.6428
  21   1.0000      -0.419461       -11.4141
  22   1.0000      -0.397262       -10.8101
  23   0.0000      -0.017157        -0.4669
  24   0.0000       0.027812         0.7568
  25   0.0000       0.046069         1.2536
  26   0.0000       0.056565         1.5392
  27   0.0000       0.070534         1.9193

MULLIKEN ATOMIC CHARGES AND SPIN POPULATIONS
--------------------------------------------
   0 S :    0.212623    1.087635
   1 C :    0.187957   -0.099077
   2 O :   -0.606900    0.011946
   3 S :    0.106868   -0.011524
   4 H :    0.099451    0.011020
Sum of atomic charges         :    0.0000000

LOEWDIN ATOMIC CHARGES AND SPIN POPULATIONS
-------------------------------------------
   0 S :    0.887090    0.742459
   1 C :   -1.929399    0.197676
   2 O :    0.445802    0.028366
   3 S :    1.413395    0.028228
   4 H :   -0.816887    0.003271

  Mayer bond orders larger than 0.100000
B(  0-S ,  1-C ) :   0.9755 B(  1-C ,  2-O ) :   1.6704 B(  1-C ,  3-S ) :   1.0144
B(  3-S ,  4-H ) :   1.0193

MP2 TOTAL ENERGY:     -909.206605805 Eh
FINAL SINGLE POINT ENERGY      -909.206605805445

DIPOLE MOMENT
-------------
                                X             Y             Z
Electronic contribution:     -1.78167      -1.21078       0.00000
Nuclear contribution   :      2.12720       0.58210       0.00000
                        -----------------------------------------
Total Dipole Moment    :      0.34553      -0.62868       0.00000
                        -----------------------------------------
Magnitude (a.u.)       :      0.71738
Magnitude (Debye)      :      1.82343

Rotational constants in cm-1:     0.271884     0.114702     0.080669
Rotational constants in MHz :  8150.873299  3438.679235  2418.405601

                             ****ORCA TERMINATED NORMALLY****
TOTAL RUN TIME: 0 days 0 hours 12 minutes 11 seconds 522 msec
