                         Program Version 5.0.4 -  RELEASE  -
|  1> ! ri-mp2 aug-cc-pvdz aug-cc-pvdz/c tightscf
|  2> %pal nprocs 16 end
|  3> %maxcore 3800
|  4> %base "DZ_Si-Si_65_A"
|  5> %scf
|  6> STABPerform true
|  7> STABRestartUHFifUnstable true
|  8> end
|  9>
| 10> *xyz 0 2
| 11> Si        -1.508550    0.167530   -0.070310
| 12> O        -0.107638   -0.695658   -0.353102
| 13> H        -2.065504   -0.125261    1.271011
| 14> H        -1.262305    1.620105   -0.238390
| 15> O         0.862354   -0.165505    0.598620
| 16> C         1.950345    0.298422   -0.166834
| 17> H         2.676264    0.650043    0.566029
| 18> H         1.654347    1.122051   -0.820199
| 19> H         2.377097   -0.513579   -0.757247
| 20> *
| 21>
| 22> $new_job
| 23> ! ri-mp2 aug-cc-pvtz aug-cc-pvtz/c tightscf
| 24> %pal nprocs 16 end
| 25> %maxcore 3800
| 26> %base "TZ_Si-Si_65_A"
| 27>
| 28> *xyz 0 2
| 29> Si        -1.508550    0.167530   -0.070310
| 30> O        -0.107638   -0.695658   -0.353102
| 31> H        -2.065504   -0.125261    1.271011
| 32> H        -1.262305    1.620105   -0.238390
| 33> O         0.862354   -0.165505    0.598620
| 34> C         1.950345    0.298422   -0.166834
| 35> H         2.676264    0.650043    0.566029
| 36> H         1.654347    1.122051   -0.820199
| 37> H         2.377097   -0.513579   -0.757247
| 38> *
| 39>
| 40> $new_job
| 41> ! ri-mp2 aug-cc-pvqz aug-cc-pvqz/c tightscf
| 42> %pal nprocs 16 end
| 43> %maxcore 3800
| 44> %base "QZ_Si-Si_65_A"
| 45>
| 46> *xyz 0 2
| 47> Si        -1.508550    0.167530   -0.070310
| 48> O        -0.107638   -0.695658   -0.353102
| 49> H        -2.065504   -0.125261    1.271011
| 50> H        -1.262305    1.620105   -0.238390
| 51> O         0.862354   -0.165505    0.598620
| 52> C         1.950345    0.298422   -0.166834
| 53> H         2.676264    0.650043    0.566029
| 54> H         1.654347    1.122051   -0.820199
| 55> H         2.377097   -0.513579   -0.757247
| 56> *
| 57>
| 58>
| 59>
| 60>
| 61>                          ****END OF INPUT****
 Total Charge           Charge          ....    0
 Multiplicity           Mult            ....    2
 Number of Electrons    NEL             ....   41
MP2 TOTAL ENERGY:     -479.969250027 Eh
FINAL SINGLE POINT ENERGY      -479.969250027306
MP2 TOTAL ENERGY:     -480.174249044 Eh
FINAL SINGLE POINT ENERGY      -480.174249043910

CARTESIAN COORDINATES (ANGSTROEM)
---------------------------------
  Si    -1.508550    0.167530   -0.070310
  O     -0.107638   -0.695658   -0.353102
  H     -2.065504   -0.125261    1.271011
  H     -1.262305    1.620105   -0.238390
  O      0.862354   -0.165505    0.598620
  C      1.950345    0.298422   -0.166834
  H      2.676264    0.650043    0.566029
  H      1.654347    1.122051   -0.820199
  H      2.377097   -0.513579   -0.757247

 Multiplicity           Mult            ....    2
 Number of Electrons    NEL             ....   41
 Basis Dimension        Dim             ....  554

ORBITAL ENERGIES
----------------
                 SPIN UP ORBITALS
  NO   OCC          E(Eh)            E(eV)
   0   1.0000     -68.809016     -1872.3885
   1   1.0000     -20.635674      -561.5252
   2   1.0000     -20.606723      -560.7374
   3   1.0000     -11.283782      -307.0473
   4   1.0000      -6.155168      -167.4906
   5   1.0000      -4.267957      -116.1370
   6   1.0000      -4.258322      -115.8748
   7   1.0000      -4.257638      -115.8562
   8   1.0000      -1.475326       -40.1457
   9   1.0000      -1.224790       -33.3282
  10   1.0000      -0.926091       -25.2002
  11   1.0000      -0.749840       -20.4042
  12   1.0000      -0.680300       -18.5119
  13   1.0000      -0.662679       -18.0324
  14   1.0000      -0.644750       -17.5445
  15   1.0000      -0.565996       -15.4015
  16   1.0000      -0.543658       -14.7937
  17   1.0000      -0.520709       -14.1692
  18   1.0000      -0.477839       -13.0027
  19   1.0000      -0.451201       -12.2778
  20   1.0000      -0.343006        -9.3337
  21   0.0000       0.026008         0.7077
  22   0.0000       0.033863         0.9214
  23   0.0000       0.038929         1.0593
  24   0.0000       0.041320         1.1244
  25   0.0000       0.052294         1.4230

                 SPIN DOWN ORBITALS
  NO   OCC          E(Eh)            E(eV)
   0   1.0000     -68.803281     -1872.2324
   1   1.0000     -20.630465      -561.3835
   2   1.0000     -20.609346      -560.8088
   3   1.0000     -11.283974      -307.0526
   4   1.0000      -6.146142      -167.2450
   5   1.0000      -4.254621      -115.7741
   6   1.0000      -4.254008      -115.7574
   7   1.0000      -4.246077      -115.5416
   8   1.0000      -1.468928       -39.9716
   9   1.0000      -1.222200       -33.2577
  10   1.0000      -0.923190       -25.1213
  11   1.0000      -0.731196       -19.8969
  12   1.0000      -0.671528       -18.2732
  13   1.0000      -0.659390       -17.9429
  14   1.0000      -0.625659       -17.0250
  15   1.0000      -0.560777       -15.2595
  16   1.0000      -0.541691       -14.7402
  17   1.0000      -0.515199       -14.0193
  18   1.0000      -0.471091       -12.8190
  19   1.0000      -0.446239       -12.1428
  20   0.0000       0.023882         0.6499
  21   0.0000       0.028227         0.7681
  22   0.0000       0.036011         0.9799
  23   0.0000       0.041193         1.1209
  24   0.0000       0.046724         1.2714

MULLIKEN ATOMIC CHARGES AND SPIN POPULATIONS
--------------------------------------------
   0 Si:    0.959499    0.954476
   1 O :   -0.677530   -0.136913
   2 H :   -0.177951    0.036499
   3 H :   -0.197429    0.027620
   4 O :   -0.356980    0.120857
   5 C :   -0.502176   -0.011904
   6 H :    0.385115    0.006734
   7 H :    0.288190    0.002780
   8 H :    0.279262   -0.000149
Sum of atomic charges         :   -0.0000000

LOEWDIN ATOMIC CHARGES AND SPIN POPULATIONS
-------------------------------------------
   0 Si:    0.650462    0.571687
   1 O :    0.180866    0.056961
   2 H :   -0.361066    0.135600
   3 H :   -0.353573    0.130834
   4 O :    0.425780    0.085102
   5 C :    0.465935    0.014824
   6 H :   -0.344186    0.003931
   7 H :   -0.334601    0.000737
   8 H :   -0.329616    0.000324

  Mayer bond orders larger than 0.100000
B(  0-Si,  1-O ) :   0.4389 B(  0-Si,  2-H ) :   0.9083 B(  0-Si,  3-H ) :   0.9004
B(  1-O ,  4-O ) :   0.7569 B(  4-O ,  5-C ) :   0.8166 B(  5-C ,  6-H ) :   0.8465
B(  5-C ,  7-H ) :   0.8961 B(  5-C ,  8-H ) :   0.9168

MP2 TOTAL ENERGY:     -480.239459008 Eh
FINAL SINGLE POINT ENERGY      -480.239459007549

DIPOLE MOMENT
-------------
                                X             Y             Z
Electronic contribution:     -3.20102      -2.21242      -0.21100
Nuclear contribution   :      3.47733       2.72487       0.02929
                        -----------------------------------------
Total Dipole Moment    :      0.27631       0.51245      -0.18171
                        -----------------------------------------
Magnitude (a.u.)       :      0.60990
Magnitude (Debye)      :      1.55023

Rotational constants in cm-1:     0.650622     0.109162     0.106727
Rotational constants in MHz : 19505.146165  3272.599782  3199.604758

                             ****ORCA TERMINATED NORMALLY****
TOTAL RUN TIME: 0 days 0 hours 39 minutes 41 seconds 180 msec
