                         Program Version 5.0.4 -  RELEASE  -
|  1> ! ri-mp2 aug-cc-pvdz aug-cc-pvdz/c tightscf
|  2> %pal nprocs 16 end
|  3> %maxcore 3800
|  4> %base "DZ_B-Cl_47_A"
|  5> %scf
|  6> STABPerform true
|  7> STABRestartUHFifUnstable true
|  8> end
|  9>
| 10> *xyz 0 2
| 11> B        -0.577837   -0.749506   -0.310140
| 12> Cl        -2.108181   -0.045306   -0.025465
| 13> C         0.825668   -0.035051   -0.038458
| 14> O         1.886891   -0.612412   -0.722044
| 15> H         1.758567   -1.566590   -0.734486
| 16> O         0.995594   -0.130532    1.349871
| 17> H         1.913959    0.107156    1.542303
| 18> O         0.851392    1.292859   -0.462438
| 19> H         0.230722    1.788158    0.083424
| 20> *
| 21>
| 22> $new_job
| 23> ! ri-mp2 aug-cc-pvtz aug-cc-pvtz/c tightscf
| 24> %pal nprocs 16 end
| 25> %maxcore 3800
| 26> %base "TZ_B-Cl_47_A"
| 27>
| 28> *xyz 0 2
| 29> B        -0.577837   -0.749506   -0.310140
| 30> Cl        -2.108181   -0.045306   -0.025465
| 31> C         0.825668   -0.035051   -0.038458
| 32> O         1.886891   -0.612412   -0.722044
| 33> H         1.758567   -1.566590   -0.734486
| 34> O         0.995594   -0.130532    1.349871
| 35> H         1.913959    0.107156    1.542303
| 36> O         0.851392    1.292859   -0.462438
| 37> H         0.230722    1.788158    0.083424
| 38> *
| 39>
| 40> $new_job
| 41> ! ri-mp2 aug-cc-pvqz aug-cc-pvqz/c tightscf
| 42> %pal nprocs 16 end
| 43> %maxcore 3800
| 44> %base "QZ_B-Cl_47_A"
| 45>
| 46> *xyz 0 2
| 47> B        -0.577837   -0.749506   -0.310140
| 48> Cl        -2.108181   -0.045306   -0.025465
| 49> C         0.825668   -0.035051   -0.038458
| 50> O         1.886891   -0.612412   -0.722044
| 51> H         1.758567   -1.566590   -0.734486
| 52> O         0.995594   -0.130532    1.349871
| 53> H         1.913959    0.107156    1.542303
| 54> O         0.851392    1.292859   -0.462438
| 55> H         0.230722    1.788158    0.083424
| 56> *
| 57>
| 58>
| 59>
| 60>
| 61>                          ****END OF INPUT****
 Total Charge           Charge          ....    0
 Multiplicity           Mult            ....    2
 Number of Electrons    NEL             ....   55
MP2 TOTAL ENERGY:     -749.359091142 Eh
FINAL SINGLE POINT ENERGY      -749.359091141524
MP2 TOTAL ENERGY:     -749.660813741 Eh
FINAL SINGLE POINT ENERGY      -749.660813740545

CARTESIAN COORDINATES (ANGSTROEM)
---------------------------------
  B     -0.577837   -0.749506   -0.310140
  Cl    -2.108181   -0.045306   -0.025465
  C      0.825668   -0.035051   -0.038458
  O      1.886891   -0.612412   -0.722044
  H      1.758567   -1.566590   -0.734486
  O      0.995594   -0.130532    1.349871
  H      1.913959    0.107156    1.542303
  O      0.851392    1.292859   -0.462438
  H      0.230722    1.788158    0.083424

 Multiplicity           Mult            ....    2
 Number of Electrons    NEL             ....   55
 Basis Dimension        Dim             ....  622

ORBITAL ENERGIES
----------------
                 SPIN UP ORBITALS
  NO   OCC          E(Eh)            E(eV)
   0   1.0000    -104.862428     -2853.4517
   1   1.0000     -20.585106      -560.1492
   2   1.0000     -20.584005      -560.1193
   3   1.0000     -20.580495      -560.0238
   4   1.0000     -11.396907      -310.1256
   5   1.0000     -10.590129      -288.1721
   6   1.0000      -8.057790      -219.2636
   7   1.0000      -8.055731      -219.2076
   8   1.0000      -8.055328      -219.1966
   9   1.0000      -7.697372      -209.4561
  10   1.0000      -1.472951       -40.0810
  11   1.0000      -1.362048       -37.0632
  12   1.0000      -1.359283       -36.9880
  13   1.0000      -1.147460       -31.2240
  14   1.0000      -0.915001       -24.8984
  15   1.0000      -0.812919       -22.1207
  16   1.0000      -0.721243       -19.6260
  17   1.0000      -0.691653       -18.8208
  18   1.0000      -0.646740       -17.5987
  19   1.0000      -0.640161       -17.4197
  20   1.0000      -0.619568       -16.8593
  21   1.0000      -0.561060       -15.2672
  22   1.0000      -0.527094       -14.3430
  23   1.0000      -0.523286       -14.2393
  24   1.0000      -0.508630       -13.8405
  25   1.0000      -0.493645       -13.4328
  26   1.0000      -0.479895       -13.0586
  27   1.0000      -0.360710        -9.8154
  28   0.0000       0.024112         0.6561
  29   0.0000       0.032850         0.8939
  30   0.0000       0.033555         0.9131
  31   0.0000       0.038252         1.0409
  32   0.0000       0.053219         1.4482

                 SPIN DOWN ORBITALS
  NO   OCC          E(Eh)            E(eV)
   0   1.0000    -104.861730     -2853.4327
   1   1.0000     -20.585032      -560.1472
   2   1.0000     -20.584057      -560.1207
   3   1.0000     -20.579544      -559.9979
   4   1.0000     -11.395102      -310.0765
   5   1.0000     -10.589304      -288.1496
   6   1.0000      -8.056346      -219.2243
   7   1.0000      -8.055659      -219.2056
   8   1.0000      -8.053442      -219.1453
   9   1.0000      -7.677467      -208.9145
  10   1.0000      -1.471221       -40.0340
  11   1.0000      -1.361460       -37.0472
  12   1.0000      -1.357452       -36.9382
  13   1.0000      -1.139098       -30.9964
  14   1.0000      -0.906828       -24.6761
  15   1.0000      -0.805965       -21.9314
  16   1.0000      -0.710385       -19.3306
  17   1.0000      -0.687467       -18.7069
  18   1.0000      -0.642486       -17.4829
  19   1.0000      -0.630167       -17.1477
  20   1.0000      -0.610124       -16.6023
  21   1.0000      -0.553322       -15.0567
  22   1.0000      -0.523929       -14.2568
  23   1.0000      -0.509236       -13.8570
  24   1.0000      -0.502436       -13.6720
  25   1.0000      -0.491359       -13.3706
  26   1.0000      -0.460215       -12.5231
  27   0.0000       0.019719         0.5366
  28   0.0000       0.031637         0.8609
  29   0.0000       0.034118         0.9284
  30   0.0000       0.039179         1.0661
  31   0.0000       0.051233         1.3941

MULLIKEN ATOMIC CHARGES AND SPIN POPULATIONS
--------------------------------------------
   0 B :    0.241528    1.002166
   1 Cl:   -0.222899    0.009018
   2 C :    1.468646   -0.020439
   3 O :   -0.844399   -0.009578
   4 H :    0.363130   -0.003770
   5 O :   -0.816374    0.005411
   6 H :    0.301943    0.000384
   7 O :   -0.833050    0.018220
   8 H :    0.341477   -0.001413
Sum of atomic charges         :   -0.0000000

LOEWDIN ATOMIC CHARGES AND SPIN POPULATIONS
-------------------------------------------
   0 B :   -1.090962    0.571907
   1 Cl:    1.264757    0.167150
   2 C :   -1.389999    0.158306
   3 O :    1.226002    0.018152
   4 H :   -0.820680    0.035586
   5 O :    1.219294    0.017124
   6 H :   -0.787854    0.002060
   7 O :    1.216809    0.023528
   8 H :   -0.837365    0.006187

  Mayer bond orders larger than 0.100000
B(  0-B ,  1-Cl) :   1.1594 B(  0-B ,  2-C ) :   0.7828 B(  2-C ,  3-O ) :   0.6076
B(  2-C ,  5-O ) :   0.5823 B(  2-C ,  7-O ) :   0.6234 B(  3-O ,  4-H ) :   0.8711
B(  5-O ,  6-H ) :   0.8817 B(  7-O ,  8-H ) :   0.8599

MP2 TOTAL ENERGY:     -749.762546698 Eh
FINAL SINGLE POINT ENERGY      -749.762546697848

DIPOLE MOMENT
-------------
                                X             Y             Z
Electronic contribution:     -7.15854      -1.23157      -0.74316
Nuclear contribution   :      7.03510       0.95092       1.11539
                        -----------------------------------------
Total Dipole Moment    :     -0.12345      -0.28065       0.37223
                        -----------------------------------------
Magnitude (a.u.)       :      0.48225
Magnitude (Debye)      :      1.22578

Rotational constants in cm-1:     0.187797     0.055487     0.055032
Rotational constants in MHz :  5630.023300  1663.452471  1649.808612

                             ****ORCA TERMINATED NORMALLY****
TOTAL RUN TIME: 0 days 1 hours 6 minutes 36 seconds 505 msec
