                         Program Version 5.0.4 -  RELEASE  -
|  1> ! ri-mp2 aug-cc-pvdz aug-cc-pvdz/c tightscf
|  2> %pal nprocs 16 end
|  3> %maxcore 3800
|  4> %base "DZ_P-N_1_AB"
|  5> %scf
|  6> STABPerform true
|  7> STABRestartUHFifUnstable true
|  8> end
|  9>
| 10> *xyz 0 1
| 11> N         1.856699    1.042258   -0.117668
| 12> P         1.419891   -0.580326    0.080273
| 13> C        -2.753157    0.182097   -0.081772
| 14> C        -0.376783   -0.671626   -0.332055
| 15> C        -1.294760    0.352031    0.319344
| 16> H        -0.689164   -1.685124   -0.057483
| 17> H        -0.460359   -0.615658   -1.421425
| 18> H        -0.967622    1.359768    0.049207
| 19> H        -1.200980    0.278618    1.406238
| 20> H        -3.124535   -0.804159    0.202185
| 21> H        -2.876316    0.281988   -1.161700
| 22> H        -3.388566    0.928286    0.396848
| 23> H         1.236671   -0.585649    1.486151
| 24> H         1.278560    1.807998    0.185563
| 25> H         2.445265    1.268003   -0.899100
| 26> *
| 27>
| 28> $new_job
| 29> ! ri-mp2 aug-cc-pvtz aug-cc-pvtz/c tightscf
| 30> %pal nprocs 16 end
| 31> %maxcore 3800
| 32> %base "TZ_P-N_1_AB"
| 33>
| 34> *xyz 0 1
| 35> N         1.856699    1.042258   -0.117668
| 36> P         1.419891   -0.580326    0.080273
| 37> C        -2.753157    0.182097   -0.081772
| 38> C        -0.376783   -0.671626   -0.332055
| 39> C        -1.294760    0.352031    0.319344
| 40> H        -0.689164   -1.685124   -0.057483
| 41> H        -0.460359   -0.615658   -1.421425
| 42> H        -0.967622    1.359768    0.049207
| 43> H        -1.200980    0.278618    1.406238
| 44> H        -3.124535   -0.804159    0.202185
| 45> H        -2.876316    0.281988   -1.161700
| 46> H        -3.388566    0.928286    0.396848
| 47> H         1.236671   -0.585649    1.486151
| 48> H         1.278560    1.807998    0.185563
| 49> H         2.445265    1.268003   -0.899100
| 50> *
| 51>
| 52> $new_job
| 53> ! ri-mp2 aug-cc-pvqz aug-cc-pvqz/c tightscf
| 54> %pal nprocs 16 end
| 55> %maxcore 3800
| 56> %base "QZ_P-N_1_AB"
| 57>
| 58> *xyz 0 1
| 59> N         1.856699    1.042258   -0.117668
| 60> P         1.419891   -0.580326    0.080273
| 61> C        -2.753157    0.182097   -0.081772
| 62> C        -0.376783   -0.671626   -0.332055
| 63> C        -1.294760    0.352031    0.319344
| 64> H        -0.689164   -1.685124   -0.057483
| 65> H        -0.460359   -0.615658   -1.421425
| 66> H        -0.967622    1.359768    0.049207
| 67> H        -1.200980    0.278618    1.406238
| 68> H        -3.124535   -0.804159    0.202185
| 69> H        -2.876316    0.281988   -1.161700
| 70> H        -3.388566    0.928286    0.396848
| 71> H         1.236671   -0.585649    1.486151
| 72> H         1.278560    1.807998    0.185563
| 73> H         2.445265    1.268003   -0.899100
| 74> *
| 75>
| 76>
| 77>
| 78>
| 79>                          ****END OF INPUT****
 Total Charge           Charge          ....    0
 Multiplicity           Mult            ....    1
 Number of Electrons    NEL             ....   50
MP2 TOTAL ENERGY:     -515.403498302 Eh
FINAL SINGLE POINT ENERGY      -515.403498302384
MP2 TOTAL ENERGY:     -515.621147761 Eh
FINAL SINGLE POINT ENERGY      -515.621147760554

CARTESIAN COORDINATES (ANGSTROEM)
---------------------------------
  N      1.856699    1.042258   -0.117668
  P      1.419891   -0.580326    0.080273
  C     -2.753157    0.182097   -0.081772
  C     -0.376783   -0.671626   -0.332055
  C     -1.294760    0.352031    0.319344
  H     -0.689164   -1.685124   -0.057483
  H     -0.460359   -0.615658   -1.421425
  H     -0.967622    1.359768    0.049207
  H     -1.200980    0.278618    1.406238
  H     -3.124535   -0.804159    0.202185
  H     -2.876316    0.281988   -1.161700
  H     -3.388566    0.928286    0.396848
  H      1.236671   -0.585649    1.486151
  H      1.278560    1.807998    0.185563
  H      2.445265    1.268003   -0.899100

 Multiplicity           Mult            ....    1
 Number of Electrons    NEL             ....   50
 Basis Dimension        Dim             ....  864

ORBITAL ENERGIES
----------------

  NO   OCC          E(Eh)            E(eV)
   0   2.0000     -79.943866     -2175.3832
   1   2.0000     -15.543380      -422.9569
   2   2.0000     -11.224238      -305.4270
   3   2.0000     -11.217776      -305.2512
   4   2.0000     -11.213701      -305.1403
   5   2.0000      -7.482215      -203.6014
   6   2.0000      -5.376600      -146.3047
   7   2.0000      -5.376155      -146.2926
   8   2.0000      -5.375444      -146.2733
   9   2.0000      -1.158410       -31.5219
  10   2.0000      -1.063897       -28.9501
  11   2.0000      -0.943882       -25.6843
  12   2.0000      -0.824307       -22.4305
  13   2.0000      -0.768814       -20.9205
  14   2.0000      -0.672779       -18.3073
  15   2.0000      -0.640199       -17.4207
  16   2.0000      -0.594890       -16.1878
  17   2.0000      -0.567513       -15.4428
  18   2.0000      -0.548078       -14.9140
  19   2.0000      -0.523841       -14.2544
  20   2.0000      -0.495616       -13.4864
  21   2.0000      -0.478676       -13.0254
  22   2.0000      -0.476406       -12.9637
  23   2.0000      -0.391523       -10.6539
  24   2.0000      -0.342970        -9.3327
  25   0.0000       0.024085         0.6554
  26   0.0000       0.031612         0.8602
  27   0.0000       0.034327         0.9341
  28   0.0000       0.036217         0.9855
  29   0.0000       0.049348         1.3428

MULLIKEN ATOMIC CHARGES
-----------------------
   0 N :   -0.960542
   1 P :    0.638705
   2 C :   -0.809718
   3 C :   -0.590686
   4 C :   -0.371963
   5 H :    0.290528
   6 H :    0.225614
   7 H :    0.244233
   8 H :    0.228335
   9 H :    0.210240
  10 H :    0.217180
  11 H :    0.267170
  12 H :   -0.113917
  13 H :    0.288922
  14 H :    0.235899
Sum of atomic charges:   -0.0000000

LOEWDIN ATOMIC CHARGES
----------------------
   0 N :    1.007950
   1 P :    1.111681
   2 C :    0.921224
   3 C :    0.331519
   4 C :    0.422474
   5 H :   -0.359537
   6 H :   -0.354607
   7 H :   -0.306218
   8 H :   -0.291222
   9 H :   -0.285881
  10 H :   -0.285961
  11 H :   -0.282856
  12 H :   -0.417157
  13 H :   -0.599482
  14 H :   -0.611926

  Mayer bond orders larger than 0.100000
B(  0-N ,  1-P ) :   0.7543 B(  0-N , 13-H ) :   0.9539 B(  0-N , 14-H ) :   1.0088
B(  1-P ,  3-C ) :   0.8138 B(  1-P , 12-H ) :   0.9567 B(  2-C ,  4-C ) :   0.8884
B(  2-C ,  9-H ) :   0.9908 B(  2-C , 10-H ) :   0.9580 B(  2-C , 11-H ) :   0.9886
B(  3-C ,  4-C ) :   0.8965 B(  3-C ,  5-H ) :   0.8964 B(  3-C ,  6-H ) :   0.9489
B(  4-C ,  7-H ) :   0.8829 B(  4-C ,  8-H ) :   0.8881

MP2 TOTAL ENERGY:     -515.687610450 Eh
FINAL SINGLE POINT ENERGY      -515.687610450118

DIPOLE MOMENT
-------------
                                X             Y             Z
Electronic contribution:      8.83427      -2.34922      -0.25894
Nuclear contribution   :     -9.36873       2.87902       0.11272
                        -----------------------------------------
Total Dipole Moment    :     -0.53446       0.52980      -0.14623
                        -----------------------------------------
Magnitude (a.u.)       :      0.76662
Magnitude (Debye)      :      1.94861

Rotational constants in cm-1:     0.298082     0.060961     0.054432
Rotational constants in MHz :  8936.270563  1827.578813  1631.837245

                             ****ORCA TERMINATED NORMALLY****
TOTAL RUN TIME: 0 days 0 hours 43 minutes 18 seconds 235 msec
