                         Program Version 5.0.4 -  RELEASE  -
|  1> ! ri-mp2 aug-cc-pvdz aug-cc-pvdz/c tightscf
|  2> %pal nprocs 16 end
|  3> %maxcore 3800
|  4> %base "DZ_Si-Si_62_AB"
|  5> %scf
|  6> STABPerform true
|  7> STABRestartUHFifUnstable true
|  8> end
|  9>
| 10> *xyz 0 1
| 11> Si        -1.217946   -0.924988   -0.255783
| 12> Si         1.042879   -0.985789    0.386185
| 13> O        -1.651503    0.679924   -0.474427
| 14> H        -2.072810   -1.592644    0.749208
| 15> H        -1.443380   -1.523406   -1.589398
| 16> O        -1.358825    1.297402    0.799105
| 17> H        -0.476194    1.668466    0.620763
| 18> O         1.910832    0.192429   -0.459780
| 19> H         1.745200   -2.215302   -0.034480
| 20> H         1.214912   -0.780404    1.840502
| 21> O         1.365303    1.493781   -0.160878
| 22> H         1.356755    1.885902   -1.044377
| 23> *
| 24>
| 25> $new_job
| 26> ! ri-mp2 aug-cc-pvtz aug-cc-pvtz/c tightscf
| 27> %pal nprocs 16 end
| 28> %maxcore 3800
| 29> %base "TZ_Si-Si_62_AB"
| 30>
| 31> *xyz 0 1
| 32> Si        -1.217946   -0.924988   -0.255783
| 33> Si         1.042879   -0.985789    0.386185
| 34> O        -1.651503    0.679924   -0.474427
| 35> H        -2.072810   -1.592644    0.749208
| 36> H        -1.443380   -1.523406   -1.589398
| 37> O        -1.358825    1.297402    0.799105
| 38> H        -0.476194    1.668466    0.620763
| 39> O         1.910832    0.192429   -0.459780
| 40> H         1.745200   -2.215302   -0.034480
| 41> H         1.214912   -0.780404    1.840502
| 42> O         1.365303    1.493781   -0.160878
| 43> H         1.356755    1.885902   -1.044377
| 44> *
| 45>
| 46> $new_job
| 47> ! ri-mp2 aug-cc-pvqz aug-cc-pvqz/c tightscf
| 48> %pal nprocs 16 end
| 49> %maxcore 3800
| 50> %base "QZ_Si-Si_62_AB"
| 51>
| 52> *xyz 0 1
| 53> Si        -1.217946   -0.924988   -0.255783
| 54> Si         1.042879   -0.985789    0.386185
| 55> O        -1.651503    0.679924   -0.474427
| 56> H        -2.072810   -1.592644    0.749208
| 57> H        -1.443380   -1.523406   -1.589398
| 58> O        -1.358825    1.297402    0.799105
| 59> H        -0.476194    1.668466    0.620763
| 60> O         1.910832    0.192429   -0.459780
| 61> H         1.745200   -2.215302   -0.034480
| 62> H         1.214912   -0.780404    1.840502
| 63> O         1.365303    1.493781   -0.160878
| 64> H         1.356755    1.885902   -1.044377
| 65> *
| 66>
| 67>
| 68>
| 69>
| 70>                          ****END OF INPUT****
 Total Charge           Charge          ....    0
 Multiplicity           Mult            ....    1
 Number of Electrons    NEL             ....   66
MP2 TOTAL ENERGY:     -881.712391065 Eh
FINAL SINGLE POINT ENERGY      -881.712391065127
MP2 TOTAL ENERGY:     -882.049725874 Eh
FINAL SINGLE POINT ENERGY      -882.049725874229

CARTESIAN COORDINATES (ANGSTROEM)
---------------------------------
  Si    -1.217946   -0.924988   -0.255783
  Si     1.042879   -0.985789    0.386185
  O     -1.651503    0.679924   -0.474427
  H     -2.072810   -1.592644    0.749208
  H     -1.443380   -1.523406   -1.589398
  O     -1.358825    1.297402    0.799105
  H     -0.476194    1.668466    0.620763
  O      1.910832    0.192429   -0.459780
  H      1.745200   -2.215302   -0.034480
  H      1.214912   -0.780404    1.840502
  O      1.365303    1.493781   -0.160878
  H      1.356755    1.885902   -1.044377

 Multiplicity           Mult            ....    1
 Number of Electrons    NEL             ....   66
 Basis Dimension        Dim             ....  764

ORBITAL ENERGIES
----------------

  NO   OCC          E(Eh)            E(eV)
   0   2.0000     -68.806469     -1872.3192
   1   2.0000     -68.802331     -1872.2066
   2   2.0000     -20.654804      -562.0458
   3   2.0000     -20.629750      -561.3640
   4   2.0000     -20.626176      -561.2668
   5   2.0000     -20.610301      -560.8348
   6   2.0000      -6.153040      -167.4327
   7   2.0000      -6.148606      -167.3121
   8   2.0000      -4.259750      -115.9137
   9   2.0000      -4.259285      -115.9010
  10   2.0000      -4.258804      -115.8879
  11   2.0000      -4.255297      -115.7925
  12   2.0000      -4.254825      -115.7797
  13   2.0000      -4.254614      -115.7739
  14   2.0000      -1.491289       -40.5800
  15   2.0000      -1.471275       -40.0354
  16   2.0000      -1.220570       -33.2134
  17   2.0000      -1.197918       -32.5970
  18   2.0000      -0.779769       -21.2186
  19   2.0000      -0.743491       -20.2314
  20   2.0000      -0.722143       -19.6505
  21   2.0000      -0.717017       -19.5110
  22   2.0000      -0.654508       -17.8101
  23   2.0000      -0.630367       -17.1532
  24   2.0000      -0.624024       -16.9806
  25   2.0000      -0.594122       -16.1669
  26   2.0000      -0.539965       -14.6932
  27   2.0000      -0.530950       -14.4479
  28   2.0000      -0.500511       -13.6196
  29   2.0000      -0.490168       -13.3381
  30   2.0000      -0.480912       -13.0863
  31   2.0000      -0.473788       -12.8924
  32   2.0000      -0.405496       -11.0341
  33   0.0000       0.024147         0.6571
  34   0.0000       0.031429         0.8552
  35   0.0000       0.032293         0.8787
  36   0.0000       0.041254         1.1226
  37   0.0000       0.047514         1.2929

MULLIKEN ATOMIC CHARGES
-----------------------
   0 Si:    1.092386
   1 Si:    1.162514
   2 O :   -0.633902
   3 H :   -0.215896
   4 H :   -0.219124
   5 O :   -0.436780
   6 H :    0.389321
   7 O :   -0.641197
   8 H :   -0.269879
   9 H :   -0.228183
  10 O :   -0.358275
  11 H :    0.359016
Sum of atomic charges:   -0.0000000

LOEWDIN ATOMIC CHARGES
----------------------
   0 Si:    0.366426
   1 Si:    0.401666
   2 O :    0.268299
   3 H :   -0.277156
   4 H :   -0.290661
   5 O :    0.854691
   6 H :   -1.081019
   7 O :    0.290076
   8 H :   -0.294450
   9 H :   -0.274990
  10 O :    0.891307
  11 H :   -0.854189

  Mayer bond orders larger than 0.100000
B(  0-Si,  1-Si) :   0.9121 B(  0-Si,  2-O ) :   0.4702 B(  0-Si,  3-H ) :   0.8642
B(  0-Si,  4-H ) :   0.8309 B(  1-Si,  7-O ) :   0.4382 B(  1-Si,  8-H ) :   0.8536
B(  1-Si,  9-H ) :   0.8735 B(  2-O ,  5-O ) :   0.8365 B(  5-O ,  6-H ) :   0.8588
B(  7-O , 10-O ) :   0.7949 B( 10-O , 11-H ) :   0.8961

MP2 TOTAL ENERGY:     -882.160155492 Eh
FINAL SINGLE POINT ENERGY      -882.160155492404

DIPOLE MOMENT
-------------
                                X             Y             Z
Electronic contribution:      0.11573       2.01630      -0.82358
Nuclear contribution   :      0.33322      -2.34090       0.52014
                        -----------------------------------------
Total Dipole Moment    :      0.44894      -0.32460      -0.30344
                        -----------------------------------------
Magnitude (a.u.)       :      0.63166
Magnitude (Debye)      :      1.60554

Rotational constants in cm-1:     0.098965     0.060553     0.043734
Rotational constants in MHz :  2966.891215  1815.328143  1311.106272

                             ****ORCA TERMINATED NORMALLY****
TOTAL RUN TIME: 0 days 0 hours 53 minutes 47 seconds 865 msec
