                         Program Version 5.0.4 -  RELEASE  -
|  1> ! ri-mp2 aug-cc-pvdz aug-cc-pvdz/c tightscf
|  2> %pal nprocs 16 end
|  3> %maxcore 3800
|  4> %base "DZ_Si-S_3_AB"
|  5> %scf
|  6> STABPerform true
|  7> STABRestartUHFifUnstable true
|  8> end
|  9>
| 10> *xyz 0 1
| 11> Si        -1.557563    0.874380    0.256323
| 12> C         0.176426    1.015342   -0.415267
| 13> C         1.184859    0.045102    0.198183
| 14> H         0.504415    2.047012   -0.250591
| 15> H         0.137915    0.882374   -1.500439
| 16> C         2.593856    0.220421   -0.350353
| 17> H         0.860874   -0.984990    0.025262
| 18> H         1.205255    0.172719    1.284951
| 19> C         3.591589   -0.749843    0.261417
| 20> H         2.921738    1.248757   -0.172557
| 21> H         2.572124    0.091843   -1.436338
| 22> H         3.652661   -0.619870    1.343597
| 23> H         4.591978   -0.605361   -0.147353
| 24> H         3.300369   -1.784355    0.070294
| 25> S        -2.233219   -1.118553   -0.166241
| 26> H        -3.455074   -0.953514    0.358063
| 27> H        -2.456964    1.859246   -0.384550
| 28> H        -1.578281    1.115530    1.717114
| 29> *
| 30>
| 31> $new_job
| 32> ! ri-mp2 aug-cc-pvtz aug-cc-pvtz/c tightscf
| 33> %pal nprocs 16 end
| 34> %maxcore 3800
| 35> %base "TZ_Si-S_3_AB"
| 36>
| 37> *xyz 0 1
| 38> Si        -1.557563    0.874380    0.256323
| 39> C         0.176426    1.015342   -0.415267
| 40> C         1.184859    0.045102    0.198183
| 41> H         0.504415    2.047012   -0.250591
| 42> H         0.137915    0.882374   -1.500439
| 43> C         2.593856    0.220421   -0.350353
| 44> H         0.860874   -0.984990    0.025262
| 45> H         1.205255    0.172719    1.284951
| 46> C         3.591589   -0.749843    0.261417
| 47> H         2.921738    1.248757   -0.172557
| 48> H         2.572124    0.091843   -1.436338
| 49> H         3.652661   -0.619870    1.343597
| 50> H         4.591978   -0.605361   -0.147353
| 51> H         3.300369   -1.784355    0.070294
| 52> S        -2.233219   -1.118553   -0.166241
| 53> H        -3.455074   -0.953514    0.358063
| 54> H        -2.456964    1.859246   -0.384550
| 55> H        -1.578281    1.115530    1.717114
| 56> *
| 57>
| 58> $new_job
| 59> ! ri-mp2 aug-cc-pvqz aug-cc-pvqz/c tightscf
| 60> %pal nprocs 16 end
| 61> %maxcore 3800
| 62> %base "QZ_Si-S_3_AB"
| 63>
| 64> *xyz 0 1
| 65> Si        -1.557563    0.874380    0.256323
| 66> C         0.176426    1.015342   -0.415267
| 67> C         1.184859    0.045102    0.198183
| 68> H         0.504415    2.047012   -0.250591
| 69> H         0.137915    0.882374   -1.500439
| 70> C         2.593856    0.220421   -0.350353
| 71> H         0.860874   -0.984990    0.025262
| 72> H         1.205255    0.172719    1.284951
| 73> C         3.591589   -0.749843    0.261417
| 74> H         2.921738    1.248757   -0.172557
| 75> H         2.572124    0.091843   -1.436338
| 76> H         3.652661   -0.619870    1.343597
| 77> H         4.591978   -0.605361   -0.147353
| 78> H         3.300369   -1.784355    0.070294
| 79> S        -2.233219   -1.118553   -0.166241
| 80> H        -3.455074   -0.953514    0.358063
| 81> H        -2.456964    1.859246   -0.384550
| 82> H        -1.578281    1.115530    1.717114
| 83> *
| 84>
| 85>
| 86>
| 87>
| 88>                          ****END OF INPUT****
 Total Charge           Charge          ....    0
 Multiplicity           Mult            ....    1
 Number of Electrons    NEL             ....   66
MP2 TOTAL ENERGY:     -845.832691506 Eh
FINAL SINGLE POINT ENERGY      -845.832691505525
MP2 TOTAL ENERGY:     -846.079877893 Eh
FINAL SINGLE POINT ENERGY      -846.079877892937

CARTESIAN COORDINATES (ANGSTROEM)
---------------------------------
  Si    -1.557563    0.874380    0.256323
  C      0.176426    1.015342   -0.415267
  C      1.184859    0.045102    0.198183
  H      0.504415    2.047012   -0.250591
  H      0.137915    0.882374   -1.500439
  C      2.593856    0.220421   -0.350353
  H      0.860874   -0.984990    0.025262
  H      1.205255    0.172719    1.284951
  C      3.591589   -0.749843    0.261417
  H      2.921738    1.248757   -0.172557
  H      2.572124    0.091843   -1.436338
  H      3.652661   -0.619870    1.343597
  H      4.591978   -0.605361   -0.147353
  H      3.300369   -1.784355    0.070294
  S     -2.233219   -1.118553   -0.166241
  H     -3.455074   -0.953514    0.358063
  H     -2.456964    1.859246   -0.384550
  H     -1.578281    1.115530    1.717114

 Multiplicity           Mult            ....    1
 Number of Electrons    NEL             ....   66
 Basis Dimension        Dim             .... 1040

ORBITAL ENERGIES
----------------

  NO   OCC          E(Eh)            E(eV)
   0   2.0000     -91.942177     -2501.8738
   1   2.0000     -68.785783     -1871.7563
   2   2.0000     -11.224347      -305.4300
   3   2.0000     -11.217876      -305.2539
   4   2.0000     -11.213898      -305.1457
   5   2.0000     -11.210550      -305.0546
   6   2.0000      -8.946945      -243.4588
   7   2.0000      -6.628499      -180.3706
   8   2.0000      -6.627705      -180.3490
   9   2.0000      -6.626888      -180.3268
  10   2.0000      -6.133355      -166.8971
  11   2.0000      -4.240069      -115.3781
  12   2.0000      -4.239366      -115.3590
  13   2.0000      -4.239184      -115.3541
  14   2.0000      -1.080014       -29.3887
  15   2.0000      -0.992724       -27.0134
  16   2.0000      -0.960282       -26.1306
  17   2.0000      -0.868456       -23.6319
  18   2.0000      -0.797264       -21.6946
  19   2.0000      -0.685461       -18.6523
  20   2.0000      -0.649320       -17.6689
  21   2.0000      -0.592375       -16.1193
  22   2.0000      -0.583753       -15.8847
  23   2.0000      -0.552077       -15.0228
  24   2.0000      -0.542840       -14.7714
  25   2.0000      -0.513970       -13.9858
  26   2.0000      -0.504304       -13.7228
  27   2.0000      -0.485257       -13.2045
  28   2.0000      -0.474855       -12.9215
  29   2.0000      -0.469057       -12.7637
  30   2.0000      -0.438029       -11.9194
  31   2.0000      -0.425518       -11.5789
  32   2.0000      -0.371632       -10.1126
  33   0.0000       0.024154         0.6573
  34   0.0000       0.029251         0.7960
  35   0.0000       0.032078         0.8729
  36   0.0000       0.033535         0.9125
  37   0.0000       0.043194         1.1754

MULLIKEN ATOMIC CHARGES
-----------------------
   0 Si:    0.916249
   1 C :   -0.590304
   2 C :   -0.216306
   3 H :    0.248414
   4 H :    0.216512
   5 C :   -0.451952
   6 H :    0.262120
   7 H :    0.248681
   8 C :   -0.892258
   9 H :    0.227885
  10 H :    0.226911
  11 H :    0.226212
  12 H :    0.273850
  13 H :    0.224477
  14 S :   -0.486268
  15 H :    0.043445
  16 H :   -0.269229
  17 H :   -0.208440
Sum of atomic charges:   -0.0000000

LOEWDIN ATOMIC CHARGES
----------------------
   0 Si:    0.301083
   1 C :    0.453780
   2 C :    0.412608
   3 H :   -0.336235
   4 H :   -0.338510
   5 C :    0.499750
   6 H :   -0.301933
   7 H :   -0.281558
   8 C :    0.927318
   9 H :   -0.272671
  10 H :   -0.272011
  11 H :   -0.283291
  12 H :   -0.282515
  13 H :   -0.283088
  14 S :    1.452315
  15 H :   -0.888745
  16 H :   -0.257893
  17 H :   -0.248402

  Mayer bond orders larger than 0.100000
B(  0-Si,  1-C ) :   0.9718 B(  0-Si,  2-C ) :  -0.1207 B(  0-Si, 14-S ) :   0.6908
B(  0-Si, 16-H ) :   0.7699 B(  0-Si, 17-H ) :   0.7691 B(  1-C ,  2-C ) :   0.8903
B(  1-C ,  3-H ) :   0.9216 B(  1-C ,  4-H ) :   0.9158 B(  2-C ,  5-C ) :   0.8965
B(  2-C ,  6-H ) :   0.8623 B(  2-C ,  7-H ) :   0.8848 B(  5-C ,  8-C ) :   0.9958
B(  5-C ,  9-H ) :   0.8843 B(  5-C , 10-H ) :   0.8888 B(  8-C , 11-H ) :   0.9531
B(  8-C , 12-H ) :   1.0148 B(  8-C , 13-H ) :   0.9502 B( 14-S , 15-H ) :   1.0637

MP2 TOTAL ENERGY:     -846.155801647 Eh
FINAL SINGLE POINT ENERGY      -846.155801647060

DIPOLE MOMENT
-------------
                                X             Y             Z
Electronic contribution:    -12.60181      -2.09552      -0.83323
Nuclear contribution   :     12.79910       2.52554       0.92437
                        -----------------------------------------
Total Dipole Moment    :      0.19729       0.43002       0.09113
                        -----------------------------------------
Magnitude (a.u.)       :      0.48181
Magnitude (Debye)      :      1.22467

Rotational constants in cm-1:     0.143988     0.028929     0.025451
Rotational constants in MHz :  4316.637276   867.276435   762.989835

                             ****ORCA TERMINATED NORMALLY****
TOTAL RUN TIME: 0 days 2 hours 43 minutes 49 seconds 826 msec
