                         Program Version 5.0.4 -  RELEASE  -
|  1> ! ri-mp2 aug-cc-pvdz aug-cc-pvdz/c tightscf
|  2> %pal nprocs 16 end
|  3> %maxcore 3800
|  4> %base "DZ_Si-S_48_AB"
|  5> %scf
|  6> STABPerform true
|  7> STABRestartUHFifUnstable true
|  8> end
|  9>
| 10> *xyz 0 1
| 11> C        -1.562796    0.186884    0.116864
| 12> S        -0.225312   -0.477979   -0.968399
| 13> S         1.300273   -0.993919    0.325817
| 14> Si         2.612015    0.660758   -0.029744
| 15> C        -2.668292    0.533854   -0.876498
| 16> H        -2.342086    1.295354   -1.585255
| 17> H        -3.530363    0.923883   -0.333088
| 18> H        -2.991149   -0.344569   -1.435864
| 19> C        -2.033369   -0.884844    1.088192
| 20> H        -1.231975   -1.180148    1.764668
| 21> H        -2.379573   -1.770835    0.557299
| 22> H        -2.857500   -0.498942    1.692192
| 23> C        -1.105763    1.428957    0.863318
| 24> H        -0.778363    2.206256    0.174105
| 25> H        -0.284928    1.199823    1.541502
| 26> H        -1.931713    1.822173    1.459944
| 27> H         3.820135    0.389070    0.779145
| 28> H         1.997756    1.934032    0.392010
| 29> H         2.963509    0.734547   -1.460179
| 30> *
| 31>
| 32> $new_job
| 33> ! ri-mp2 aug-cc-pvtz aug-cc-pvtz/c tightscf
| 34> %pal nprocs 16 end
| 35> %maxcore 3800
| 36> %base "TZ_Si-S_48_AB"
| 37>
| 38> *xyz 0 1
| 39> C        -1.562796    0.186884    0.116864
| 40> S        -0.225312   -0.477979   -0.968399
| 41> S         1.300273   -0.993919    0.325817
| 42> Si         2.612015    0.660758   -0.029744
| 43> C        -2.668292    0.533854   -0.876498
| 44> H        -2.342086    1.295354   -1.585255
| 45> H        -3.530363    0.923883   -0.333088
| 46> H        -2.991149   -0.344569   -1.435864
| 47> C        -2.033369   -0.884844    1.088192
| 48> H        -1.231975   -1.180148    1.764668
| 49> H        -2.379573   -1.770835    0.557299
| 50> H        -2.857500   -0.498942    1.692192
| 51> C        -1.105763    1.428957    0.863318
| 52> H        -0.778363    2.206256    0.174105
| 53> H        -0.284928    1.199823    1.541502
| 54> H        -1.931713    1.822173    1.459944
| 55> H         3.820135    0.389070    0.779145
| 56> H         1.997756    1.934032    0.392010
| 57> H         2.963509    0.734547   -1.460179
| 58> *
| 59>
| 60> $new_job
| 61> ! ri-mp2 aug-cc-pvqz aug-cc-pvqz/c tightscf
| 62> %pal nprocs 16 end
| 63> %maxcore 3800
| 64> %base "QZ_Si-S_48_AB"
| 65>
| 66> *xyz 0 1
| 67> C        -1.562796    0.186884    0.116864
| 68> S        -0.225312   -0.477979   -0.968399
| 69> S         1.300273   -0.993919    0.325817
| 70> Si         2.612015    0.660758   -0.029744
| 71> C        -2.668292    0.533854   -0.876498
| 72> H        -2.342086    1.295354   -1.585255
| 73> H        -3.530363    0.923883   -0.333088
| 74> H        -2.991149   -0.344569   -1.435864
| 75> C        -2.033369   -0.884844    1.088192
| 76> H        -1.231975   -1.180148    1.764668
| 77> H        -2.379573   -1.770835    0.557299
| 78> H        -2.857500   -0.498942    1.692192
| 79> C        -1.105763    1.428957    0.863318
| 80> H        -0.778363    2.206256    0.174105
| 81> H        -0.284928    1.199823    1.541502
| 82> H        -1.931713    1.822173    1.459944
| 83> H         3.820135    0.389070    0.779145
| 84> H         1.997756    1.934032    0.392010
| 85> H         2.963509    0.734547   -1.460179
| 86> *
| 87>
| 88>
| 89>
| 90>
| 91>                          ****END OF INPUT****
 Total Charge           Charge          ....    0
 Multiplicity           Mult            ....    1
 Number of Electrons    NEL             ....   82
MP2 TOTAL ENERGY:    -1243.505407897 Eh
FINAL SINGLE POINT ENERGY     -1243.505407897175
MP2 TOTAL ENERGY:    -1243.801810354 Eh
FINAL SINGLE POINT ENERGY     -1243.801810353977

CARTESIAN COORDINATES (ANGSTROEM)
---------------------------------
  C     -1.562796    0.186884    0.116864
  S     -0.225312   -0.477979   -0.968399
  S      1.300273   -0.993919    0.325817
  Si     2.612015    0.660758   -0.029744
  C     -2.668292    0.533854   -0.876498
  H     -2.342086    1.295354   -1.585255
  H     -3.530363    0.923883   -0.333088
  H     -2.991149   -0.344569   -1.435864
  C     -2.033369   -0.884844    1.088192
  H     -1.231975   -1.180148    1.764668
  H     -2.379573   -1.770835    0.557299
  H     -2.857500   -0.498942    1.692192
  C     -1.105763    1.428957    0.863318
  H     -0.778363    2.206256    0.174105
  H     -0.284928    1.199823    1.541502
  H     -1.931713    1.822173    1.459944
  H      3.820135    0.389070    0.779145
  H      1.997756    1.934032    0.392010
  H      2.963509    0.734547   -1.460179

 Multiplicity           Mult            ....    1
 Number of Electrons    NEL             ....   82
 Basis Dimension        Dim             .... 1124

ORBITAL ENERGIES
----------------

  NO   OCC          E(Eh)            E(eV)
   0   2.0000     -91.968284     -2502.5842
   1   2.0000     -91.960923     -2502.3839
   2   2.0000     -68.793649     -1871.9704
   3   2.0000     -11.275769      -306.8293
   4   2.0000     -11.226887      -305.4991
   5   2.0000     -11.220856      -305.3350
   6   2.0000     -11.219499      -305.2981
   7   2.0000      -8.969027      -244.0596
   8   2.0000      -8.963588      -243.9116
   9   2.0000      -6.650365      -180.9656
  10   2.0000      -6.648950      -180.9271
  11   2.0000      -6.648191      -180.9065
  12   2.0000      -6.644874      -180.8162
  13   2.0000      -6.643859      -180.7886
  14   2.0000      -6.643228      -180.7714
  15   2.0000      -6.141087      -167.1075
  16   2.0000      -4.247679      -115.5852
  17   2.0000      -4.247152      -115.5709
  18   2.0000      -4.246871      -115.5632
  19   2.0000      -1.129676       -30.7400
  20   2.0000      -1.019713       -27.7478
  21   2.0000      -0.950302       -25.8590
  22   2.0000      -0.946033       -25.7429
  23   2.0000      -0.869902       -23.6712
  24   2.0000      -0.738579       -20.0977
  25   2.0000      -0.703518       -19.1437
  26   2.0000      -0.626857       -17.0576
  27   2.0000      -0.617720       -16.8090
  28   2.0000      -0.614218       -16.7137
  29   2.0000      -0.560756       -15.2589
  30   2.0000      -0.555774       -15.1234
  31   2.0000      -0.526869       -14.3368
  32   2.0000      -0.510104       -13.8806
  33   2.0000      -0.503434       -13.6991
  34   2.0000      -0.495073       -13.4716
  35   2.0000      -0.489436       -13.3182
  36   2.0000      -0.477575       -12.9955
  37   2.0000      -0.457994       -12.4626
  38   2.0000      -0.439547       -11.9607
  39   2.0000      -0.366616        -9.9761
  40   2.0000      -0.341899        -9.3036
  41   0.0000       0.023338         0.6351
  42   0.0000       0.029372         0.7993
  43   0.0000       0.031587         0.8595
  44   0.0000       0.034538         0.9398
  45   0.0000       0.043148         1.1741

MULLIKEN ATOMIC CHARGES
-----------------------
   0 C :    1.324769
   1 S :   -0.211305
   2 S :   -0.457180
   3 Si:    0.725981
   4 C :   -1.159061
   5 H :    0.268131
   6 H :    0.296556
   7 H :    0.278329
   8 C :   -1.144590
   9 H :    0.286232
  10 H :    0.274026
  11 H :    0.280143
  12 C :   -1.194398
  13 H :    0.284793
  14 H :    0.338725
  15 H :    0.281886
  16 H :   -0.189393
  17 H :   -0.146217
  18 H :   -0.137425
Sum of atomic charges:    0.0000000

LOEWDIN ATOMIC CHARGES
----------------------
   0 C :   -0.723562
   1 S :    0.800069
   2 S :    0.624512
   3 Si:    0.502917
   4 C :    0.789931
   5 H :   -0.291546
   6 H :   -0.274117
   7 H :   -0.294352
   8 C :    0.803887
   9 H :   -0.324180
  10 H :   -0.291101
  11 H :   -0.274629
  12 C :    0.791491
  13 H :   -0.295670
  14 H :   -0.335946
  15 H :   -0.270874
  16 H :   -0.324484
  17 H :   -0.303087
  18 H :   -0.309259

  Mayer bond orders larger than 0.100000
B(  0-C ,  1-S ) :   0.4522 B(  0-C ,  2-S ) :  -0.2005 B(  0-C ,  4-C ) :   0.3437
B(  0-C ,  5-H ) :  -0.1206 B(  0-C ,  7-H ) :  -0.1214 B(  0-C ,  8-C ) :   0.5634
B(  0-C , 12-C ) :   0.6156 B(  1-S ,  2-S ) :   1.1375 B(  1-S ,  4-C ) :   0.1022
B(  2-S ,  3-Si) :   0.7388 B(  3-Si, 16-H ) :   0.7845 B(  3-Si, 17-H ) :   0.7784
B(  3-Si, 18-H ) :   0.7964 B(  4-C ,  5-H ) :   1.0186 B(  4-C ,  6-H ) :   0.9532
B(  4-C ,  7-H ) :   1.0146 B(  4-C ,  8-C ) :   0.1443 B(  4-C , 12-C ) :   0.1290
B(  8-C ,  9-H ) :   0.9925 B(  8-C , 10-H ) :   1.0102 B(  8-C , 11-H ) :   0.9342
B( 12-C , 13-H ) :   0.9678 B( 12-C , 14-H ) :   0.9417 B( 12-C , 15-H ) :   0.9652

MP2 TOTAL ENERGY:    -1243.894728195 Eh
FINAL SINGLE POINT ENERGY     -1243.894728195437

DIPOLE MOMENT
-------------
                                X             Y             Z
Electronic contribution:      9.36787      -6.20283      -3.29378
Nuclear contribution   :     -9.84384       6.78895       3.60690
                        -----------------------------------------
Total Dipole Moment    :     -0.47597       0.58612       0.31312
                        -----------------------------------------
Magnitude (a.u.)       :      0.81739
Magnitude (Debye)      :      2.07764

Rotational constants in cm-1:     0.086506     0.028807     0.027586
Rotational constants in MHz :  2593.387220   863.620015   827.001231

                             ****ORCA TERMINATED NORMALLY****
TOTAL RUN TIME: 0 days 3 hours 54 minutes 33 seconds 586 msec
