                         Program Version 5.0.4 -  RELEASE  -
|  1> ! ri-mp2 aug-cc-pvdz aug-cc-pvdz/c tightscf
|  2> %pal nprocs 16 end
|  3> %maxcore 3800
|  4> %base "DZ_Si-Cl_16_AB"
|  5> %scf
|  6> STABPerform true
|  7> STABRestartUHFifUnstable true
|  8> end
|  9>
| 10> *xyz 0 1
| 11> Si        -0.800190    0.410553    0.403710
| 12> C         0.930486    0.695808   -0.217841
| 13> C         1.980032   -0.282620    0.307119
| 14> H         1.207009    1.720944    0.055273
| 15> H         0.909871    0.671860   -1.312068
| 16> C        -2.010845    1.639395   -0.281161
| 17> H        -1.739970    2.651350    0.026346
| 18> H        -3.019630    1.434531    0.076752
| 19> H        -2.024214    1.606225   -1.371034
| 20> Cl        -1.403217   -1.489723   -0.169791
| 21> C         3.376329    0.008971   -0.221200
| 22> H         1.692812   -1.300712    0.035771
| 23> H         1.991686   -0.253549    1.400056
| 24> H         3.400593   -0.048197   -1.311001
| 25> H         4.105801   -0.703054    0.166549
| 26> H         3.702745    1.010917    0.064034
| 27> H        -0.825357    0.417910    1.882326
| 28> *
| 29>
| 30> $new_job
| 31> ! ri-mp2 aug-cc-pvtz aug-cc-pvtz/c tightscf
| 32> %pal nprocs 16 end
| 33> %maxcore 3800
| 34> %base "TZ_Si-Cl_16_AB"
| 35>
| 36> *xyz 0 1
| 37> Si        -0.800190    0.410553    0.403710
| 38> C         0.930486    0.695808   -0.217841
| 39> C         1.980032   -0.282620    0.307119
| 40> H         1.207009    1.720944    0.055273
| 41> H         0.909871    0.671860   -1.312068
| 42> C        -2.010845    1.639395   -0.281161
| 43> H        -1.739970    2.651350    0.026346
| 44> H        -3.019630    1.434531    0.076752
| 45> H        -2.024214    1.606225   -1.371034
| 46> Cl        -1.403217   -1.489723   -0.169791
| 47> C         3.376329    0.008971   -0.221200
| 48> H         1.692812   -1.300712    0.035771
| 49> H         1.991686   -0.253549    1.400056
| 50> H         3.400593   -0.048197   -1.311001
| 51> H         4.105801   -0.703054    0.166549
| 52> H         3.702745    1.010917    0.064034
| 53> H        -0.825357    0.417910    1.882326
| 54> *
| 55>
| 56> $new_job
| 57> ! ri-mp2 aug-cc-pvqz aug-cc-pvqz/c tightscf
| 58> %pal nprocs 16 end
| 59> %maxcore 3800
| 60> %base "QZ_Si-Cl_16_AB"
| 61>
| 62> *xyz 0 1
| 63> Si        -0.800190    0.410553    0.403710
| 64> C         0.930486    0.695808   -0.217841
| 65> C         1.980032   -0.282620    0.307119
| 66> H         1.207009    1.720944    0.055273
| 67> H         0.909871    0.671860   -1.312068
| 68> C        -2.010845    1.639395   -0.281161
| 69> H        -1.739970    2.651350    0.026346
| 70> H        -3.019630    1.434531    0.076752
| 71> H        -2.024214    1.606225   -1.371034
| 72> Cl        -1.403217   -1.489723   -0.169791
| 73> C         3.376329    0.008971   -0.221200
| 74> H         1.692812   -1.300712    0.035771
| 75> H         1.991686   -0.253549    1.400056
| 76> H         3.400593   -0.048197   -1.311001
| 77> H         4.105801   -0.703054    0.166549
| 78> H         3.702745    1.010917    0.064034
| 79> H        -0.825357    0.417910    1.882326
| 80> *
| 81>
| 82>
| 83>
| 84>
| 85>                          ****END OF INPUT****
 Total Charge           Charge          ....    0
 Multiplicity           Mult            ....    1
 Number of Electrons    NEL             ....   66
MP2 TOTAL ENERGY:     -907.262114459 Eh
FINAL SINGLE POINT ENERGY      -907.262114459486
MP2 TOTAL ENERGY:     -907.520786168 Eh
FINAL SINGLE POINT ENERGY      -907.520786167826

CARTESIAN COORDINATES (ANGSTROEM)
---------------------------------
  Si    -0.800190    0.410553    0.403710
  C      0.930486    0.695808   -0.217841
  C      1.980032   -0.282620    0.307119
  H      1.207009    1.720944    0.055273
  H      0.909871    0.671860   -1.312068
  C     -2.010845    1.639395   -0.281161
  H     -1.739970    2.651350    0.026346
  H     -3.019630    1.434531    0.076752
  H     -2.024214    1.606225   -1.371034
  Cl    -1.403217   -1.489723   -0.169791
  C      3.376329    0.008971   -0.221200
  H      1.692812   -1.300712    0.035771
  H      1.991686   -0.253549    1.400056
  H      3.400593   -0.048197   -1.311001
  H      4.105801   -0.703054    0.166549
  H      3.702745    1.010917    0.064034
  H     -0.825357    0.417910    1.882326

 Multiplicity           Mult            ....    1
 Number of Electrons    NEL             ....   66
 Basis Dimension        Dim             ....  994

ORBITAL ENERGIES
----------------

  NO   OCC          E(Eh)            E(eV)
   0   2.0000    -104.811437     -2852.0642
   1   2.0000     -68.794665     -1871.9980
   2   2.0000     -11.225171      -305.4524
   3   2.0000     -11.212539      -305.1087
   4   2.0000     -11.212360      -305.1038
   5   2.0000     -11.210948      -305.0654
   6   2.0000     -10.539056      -286.7823
   7   2.0000      -8.005851      -217.8503
   8   2.0000      -8.004823      -217.8223
   9   2.0000      -8.004820      -217.8222
  10   2.0000      -6.140984      -167.1047
  11   2.0000      -4.248147      -115.5980
  12   2.0000      -4.246923      -115.5647
  13   2.0000      -4.246507      -115.5533
  14   2.0000      -1.085693       -29.5432
  15   2.0000      -1.059918       -28.8418
  16   2.0000      -0.959211       -26.1015
  17   2.0000      -0.928546       -25.2670
  18   2.0000      -0.809812       -22.0361
  19   2.0000      -0.676268       -18.4022
  20   2.0000      -0.637147       -17.3376
  21   2.0000      -0.587525       -15.9874
  22   2.0000      -0.575717       -15.6660
  23   2.0000      -0.562709       -15.3121
  24   2.0000      -0.547451       -14.8969
  25   2.0000      -0.543539       -14.7905
  26   2.0000      -0.498204       -13.5568
  27   2.0000      -0.495921       -13.4947
  28   2.0000      -0.479818       -13.0565
  29   2.0000      -0.476588       -12.9686
  30   2.0000      -0.466653       -12.6983
  31   2.0000      -0.432435       -11.7671
  32   2.0000      -0.417075       -11.3492
  33   0.0000       0.022132         0.6022
  34   0.0000       0.030297         0.8244
  35   0.0000       0.032716         0.8903
  36   0.0000       0.034881         0.9492
  37   0.0000       0.046181         1.2567

MULLIKEN ATOMIC CHARGES
-----------------------
   0 Si:    1.581117
   1 C :   -0.514686
   2 C :   -0.397410
   3 H :    0.236939
   4 H :    0.193397
   5 C :   -1.117874
   6 H :    0.243251
   7 H :    0.287074
   8 H :    0.216246
   9 Cl:   -0.755704
  10 C :   -0.893127
  11 H :    0.245430
  12 H :    0.244674
  13 H :    0.228549
  14 H :    0.275137
  15 H :    0.222293
  16 H :   -0.295306
Sum of atomic charges:   -0.0000000

LOEWDIN ATOMIC CHARGES
----------------------
   0 Si:   -0.273582
   1 C :    0.479177
   2 C :    0.418589
   3 H :   -0.329710
   4 H :   -0.334989
   5 C :    0.894808
   6 H :   -0.350995
   7 H :   -0.363535
   8 H :   -0.357092
   9 Cl:    0.964467
  10 C :    0.922302
  11 H :   -0.304941
  12 H :   -0.286481
  13 H :   -0.285015
  14 H :   -0.281664
  15 H :   -0.285512
  16 H :   -0.225827

  Mayer bond orders larger than 0.100000
B(  0-Si,  1-C ) :   0.8864 B(  0-Si,  5-C ) :   0.8365 B(  0-Si,  9-Cl) :   0.1533
B(  0-Si, 16-H ) :   0.8568 B(  1-C ,  2-C ) :   0.8708 B(  1-C ,  3-H ) :   0.8827
B(  1-C ,  4-H ) :   0.9476 B(  2-C , 10-C ) :   0.9757 B(  2-C , 11-H ) :   0.8724
B(  2-C , 12-H ) :   0.8746 B(  5-C ,  6-H ) :   0.9495 B(  5-C ,  7-H ) :   0.9477
B(  5-C ,  8-H ) :   0.9752 B( 10-C , 13-H ) :   0.9547 B( 10-C , 14-H ) :   1.0078
B( 10-C , 15-H ) :   0.9578

MP2 TOTAL ENERGY:     -907.600945835 Eh
FINAL SINGLE POINT ENERGY      -907.600945834984

DIPOLE MOMENT
-------------
                                X             Y             Z
Electronic contribution:    -11.26399      -8.61543       0.05785
Nuclear contribution   :     11.57716       9.41191      -0.06931
                        -----------------------------------------
Total Dipole Moment    :      0.31318       0.79648      -0.01146
                        -----------------------------------------
Magnitude (a.u.)       :      0.85592
Magnitude (Debye)      :      2.17556

Rotational constants in cm-1:     0.105696     0.040242     0.031279
Rotational constants in MHz :  3168.674757  1206.427954   937.721237

                             ****ORCA TERMINATED NORMALLY****
TOTAL RUN TIME: 0 days 3 hours 7 minutes 7 seconds 98 msec
