                         Program Version 5.0.4 -  RELEASE  -
|  1> ! ri-mp2 aug-cc-pvdz aug-cc-pvdz/c tightscf
|  2> %pal nprocs 16 end
|  3> %maxcore 3800
|  4> %base "DZ_P-N_4_AB"
|  5> %scf
|  6> STABPerform true
|  7> STABRestartUHFifUnstable true
|  8> end
|  9>
| 10> *xyz 0 1
| 11> P         0.146346   -1.002759   -0.201017
| 12> N        -0.943581    0.270362    0.326561
| 13> O        -1.119689    1.234682   -0.686027
| 14> O        -2.196382   -0.348490    0.535944
| 15> C         1.636068    0.020075   -0.528319
| 16> C         2.321123    0.486043    0.750185
| 17> H         2.596738   -0.358596    1.382970
| 18> H         1.665556    1.133197    1.332946
| 19> H         3.228784    1.045999    0.523410
| 20> H         1.375875    0.862782   -1.166910
| 21> H         2.306029   -0.625644   -1.102894
| 22> H        -1.188291    2.071065   -0.210791
| 23> H        -2.491589   -0.005033    1.386545
| 24> H        -0.297809   -1.101172   -1.546479
| 25> *
| 26>
| 27> $new_job
| 28> ! ri-mp2 aug-cc-pvtz aug-cc-pvtz/c tightscf
| 29> %pal nprocs 16 end
| 30> %maxcore 3800
| 31> %base "TZ_P-N_4_AB"
| 32>
| 33> *xyz 0 1
| 34> P         0.146346   -1.002759   -0.201017
| 35> N        -0.943581    0.270362    0.326561
| 36> O        -1.119689    1.234682   -0.686027
| 37> O        -2.196382   -0.348490    0.535944
| 38> C         1.636068    0.020075   -0.528319
| 39> C         2.321123    0.486043    0.750185
| 40> H         2.596738   -0.358596    1.382970
| 41> H         1.665556    1.133197    1.332946
| 42> H         3.228784    1.045999    0.523410
| 43> H         1.375875    0.862782   -1.166910
| 44> H         2.306029   -0.625644   -1.102894
| 45> H        -1.188291    2.071065   -0.210791
| 46> H        -2.491589   -0.005033    1.386545
| 47> H        -0.297809   -1.101172   -1.546479
| 48> *
| 49>
| 50> $new_job
| 51> ! ri-mp2 aug-cc-pvqz aug-cc-pvqz/c tightscf
| 52> %pal nprocs 16 end
| 53> %maxcore 3800
| 54> %base "QZ_P-N_4_AB"
| 55>
| 56> *xyz 0 1
| 57> P         0.146346   -1.002759   -0.201017
| 58> N        -0.943581    0.270362    0.326561
| 59> O        -1.119689    1.234682   -0.686027
| 60> O        -2.196382   -0.348490    0.535944
| 61> C         1.636068    0.020075   -0.528319
| 62> C         2.321123    0.486043    0.750185
| 63> H         2.596738   -0.358596    1.382970
| 64> H         1.665556    1.133197    1.332946
| 65> H         3.228784    1.045999    0.523410
| 66> H         1.375875    0.862782   -1.166910
| 67> H         2.306029   -0.625644   -1.102894
| 68> H        -1.188291    2.071065   -0.210791
| 69> H        -2.491589   -0.005033    1.386545
| 70> H        -0.297809   -1.101172   -1.546479
| 71> *
| 72>
| 73>
| 74>
| 75>
| 76>                          ****END OF INPUT****
 Total Charge           Charge          ....    0
 Multiplicity           Mult            ....    1
 Number of Electrons    NEL             ....   58
MP2 TOTAL ENERGY:     -626.240612704 Eh
FINAL SINGLE POINT ENERGY      -626.240612703824
MP2 TOTAL ENERGY:     -626.539162688 Eh
FINAL SINGLE POINT ENERGY      -626.539162687995

CARTESIAN COORDINATES (ANGSTROEM)
---------------------------------
  P      0.146346   -1.002759   -0.201017
  N     -0.943581    0.270362    0.326561
  O     -1.119689    1.234682   -0.686027
  O     -2.196382   -0.348490    0.535944
  C      1.636068    0.020075   -0.528319
  C      2.321123    0.486043    0.750185
  H      2.596738   -0.358596    1.382970
  H      1.665556    1.133197    1.332946
  H      3.228784    1.045999    0.523410
  H      1.375875    0.862782   -1.166910
  H      2.306029   -0.625644   -1.102894
  H     -1.188291    2.071065   -0.210791
  H     -2.491589   -0.005033    1.386545
  H     -0.297809   -1.101172   -1.546479

 Multiplicity           Mult            ....    1
 Number of Electrons    NEL             ....   58
 Basis Dimension        Dim             ....  852

ORBITAL ENERGIES
----------------

  NO   OCC          E(Eh)            E(eV)
   0   2.0000     -79.954289     -2175.6668
   1   2.0000     -20.600497      -560.5680
   2   2.0000     -20.599120      -560.5305
   3   2.0000     -15.665087      -426.2687
   4   2.0000     -11.228127      -305.5329
   5   2.0000     -11.220560      -305.3270
   6   2.0000      -7.494675      -203.9405
   7   2.0000      -5.388643      -146.6324
   8   2.0000      -5.388001      -146.6150
   9   2.0000      -5.387074      -146.5897
  10   2.0000      -1.468244       -39.9530
  11   2.0000      -1.352900       -36.8143
  12   2.0000      -1.063729       -28.9455
  13   2.0000      -1.018617       -27.7180
  14   2.0000      -0.874774       -23.8038
  15   2.0000      -0.767019       -20.8717
  16   2.0000      -0.723540       -19.6885
  17   2.0000      -0.714569       -19.4444
  18   2.0000      -0.647244       -17.6124
  19   2.0000      -0.610578       -16.6147
  20   2.0000      -0.602670       -16.3995
  21   2.0000      -0.591357       -16.0916
  22   2.0000      -0.531662       -14.4672
  23   2.0000      -0.508135       -13.8271
  24   2.0000      -0.498654       -13.5691
  25   2.0000      -0.492702       -13.4071
  26   2.0000      -0.459036       -12.4910
  27   2.0000      -0.408817       -11.1245
  28   2.0000      -0.361983        -9.8501
  29   0.0000       0.022720         0.6182
  30   0.0000       0.030250         0.8232
  31   0.0000       0.036849         1.0027
  32   0.0000       0.037282         1.0145
  33   0.0000       0.049141         1.3372

MULLIKEN ATOMIC CHARGES
-----------------------
   0 P :    0.692049
   1 N :    0.107400
   2 O :   -0.624400
   3 O :   -0.690616
   4 C :   -0.629554
   5 C :   -0.832916
   6 H :    0.254423
   7 H :    0.256219
   8 H :    0.288421
   9 H :    0.279764
  10 H :    0.284043
  11 H :    0.354229
  12 H :    0.357368
  13 H :   -0.096430
Sum of atomic charges:   -0.0000000

LOEWDIN ATOMIC CHARGES
----------------------
   0 P :    1.029910
   1 N :   -0.416523
   2 O :    1.004063
   3 O :    0.977250
   4 C :    0.302595
   5 C :    0.835087
   6 H :   -0.304538
   7 H :   -0.307415
   8 H :   -0.287706
   9 H :   -0.366232
  10 H :   -0.358238
  11 H :   -0.842401
  12 H :   -0.856098
  13 H :   -0.409753

  Mayer bond orders larger than 0.100000
B(  0-P ,  1-N ) :   0.7565 B(  0-P ,  4-C ) :   0.8598 B(  0-P , 13-H ) :   0.9677
B(  1-N ,  2-O ) :   0.6912 B(  1-N ,  3-O ) :   0.6051 B(  2-O , 11-H ) :   0.9016
B(  3-O , 12-H ) :   0.9110 B(  4-C ,  5-C ) :   0.9385 B(  4-C ,  9-H ) :   0.9057
B(  4-C , 10-H ) :   0.8847 B(  5-C ,  6-H ) :   0.9373 B(  5-C ,  7-H ) :   0.9333
B(  5-C ,  8-H ) :   0.9336

MP2 TOTAL ENERGY:     -626.634859253 Eh
FINAL SINGLE POINT ENERGY      -626.634859252978

DIPOLE MOMENT
-------------
                                X             Y             Z
Electronic contribution:     -6.60855      -3.20607      -0.36638
Nuclear contribution   :      6.98933       3.98815       0.78880
                        -----------------------------------------
Total Dipole Moment    :      0.38078       0.78208       0.42242
                        -----------------------------------------
Magnitude (a.u.)       :      0.96700
Magnitude (Debye)      :      2.45792

Rotational constants in cm-1:     0.158515     0.060689     0.053943
Rotational constants in MHz :  4752.149378  1819.412413  1617.184724

                             ****ORCA TERMINATED NORMALLY****
TOTAL RUN TIME: 0 days 1 hours 16 minutes 11 seconds 255 msec
