                         Program Version 5.0.4 -  RELEASE  -
|  1> ! ri-mp2 aug-cc-pvdz aug-cc-pvdz/c tightscf
|  2> %pal nprocs 16 end
|  3> %maxcore 3800
|  4> %base "DZ_B-B_24_AB"
|  5> %scf
|  6> STABPerform true
|  7> STABRestartUHFifUnstable true
|  8> end
|  9>
| 10> *xyz 0 1
| 11> B        -0.743766   -0.001615    0.485340
| 12> B         0.743768    0.001612   -0.485341
| 13> C        -1.273900   -1.411659    0.153304
| 14> O        -1.596241   -2.444493   -0.134534
| 15> Cl        -2.002778    1.234014   -0.062877
| 16> C         1.273901    1.411657   -0.153308
| 17> O         1.596230    2.444494    0.134533
| 18> Cl         2.002782   -1.234013    0.062880
| 19> H         0.530080    0.005666   -1.664145
| 20> H        -0.530079   -0.005671    1.664144
| 21> *
| 22>
| 23> $new_job
| 24> ! ri-mp2 aug-cc-pvtz aug-cc-pvtz/c tightscf
| 25> %pal nprocs 16 end
| 26> %maxcore 3800
| 27> %base "TZ_B-B_24_AB"
| 28>
| 29> *xyz 0 1
| 30> B        -0.743766   -0.001615    0.485340
| 31> B         0.743768    0.001612   -0.485341
| 32> C        -1.273900   -1.411659    0.153304
| 33> O        -1.596241   -2.444493   -0.134534
| 34> Cl        -2.002778    1.234014   -0.062877
| 35> C         1.273901    1.411657   -0.153308
| 36> O         1.596230    2.444494    0.134533
| 37> Cl         2.002782   -1.234013    0.062880
| 38> H         0.530080    0.005666   -1.664145
| 39> H        -0.530079   -0.005671    1.664144
| 40> *
| 41>
| 42> $new_job
| 43> ! ri-mp2 aug-cc-pvqz aug-cc-pvqz/c tightscf
| 44> %pal nprocs 16 end
| 45> %maxcore 3800
| 46> %base "QZ_B-B_24_AB"
| 47>
| 48> *xyz 0 1
| 49> B        -0.743766   -0.001615    0.485340
| 50> B         0.743768    0.001612   -0.485341
| 51> C        -1.273900   -1.411659    0.153304
| 52> O        -1.596241   -2.444493   -0.134534
| 53> Cl        -2.002778    1.234014   -0.062877
| 54> C         1.273901    1.411657   -0.153308
| 55> O         1.596230    2.444494    0.134533
| 56> Cl         2.002782   -1.234013    0.062880
| 57> H         0.530080    0.005666   -1.664145
| 58> H        -0.530079   -0.005671    1.664144
| 59> *
| 60>
| 61>
| 62>
| 63>
| 64>                          ****END OF INPUT****
 Total Charge           Charge          ....    0
 Multiplicity           Mult            ....    1
 Number of Electrons    NEL             ....   74
MP2 TOTAL ENERGY:    -1196.211571298 Eh
FINAL SINGLE POINT ENERGY     -1196.211571297901
MP2 TOTAL ENERGY:    -1196.556372824 Eh
FINAL SINGLE POINT ENERGY     -1196.556372824499

CARTESIAN COORDINATES (ANGSTROEM)
---------------------------------
  B     -0.743766   -0.001615    0.485340
  B      0.743768    0.001612   -0.485341
  C     -1.273900   -1.411659    0.153304
  O     -1.596241   -2.444493   -0.134534
  Cl    -2.002778    1.234014   -0.062877
  C      1.273901    1.411657   -0.153308
  O      1.596230    2.444494    0.134533
  Cl     2.002782   -1.234013    0.062880
  H      0.530080    0.005666   -1.664145
  H     -0.530079   -0.005671    1.664144

 Multiplicity           Mult            ....    1
 Number of Electrons    NEL             ....   74
 Basis Dimension        Dim             ....  740

ORBITAL ENERGIES
----------------

  NO   OCC          E(Eh)            E(eV)
   0   2.0000    -104.814699     -2852.1530
   1   2.0000    -104.814699     -2852.1530
   2   2.0000     -20.726499      -563.9967
   3   2.0000     -20.726498      -563.9967
   4   2.0000     -11.447114      -311.4918
   5   2.0000     -11.447113      -311.4918
   6   2.0000     -10.541533      -286.8497
   7   2.0000     -10.541532      -286.8497
   8   2.0000      -8.008453      -217.9211
   9   2.0000      -8.008453      -217.9211
  10   2.0000      -8.007318      -217.8902
  11   2.0000      -8.007318      -217.8902
  12   2.0000      -8.007218      -217.8875
  13   2.0000      -8.007218      -217.8875
  14   2.0000      -7.627879      -207.5651
  15   2.0000      -7.627353      -207.5508
  16   2.0000      -1.586458       -43.1697
  17   2.0000      -1.586414       -43.1685
  18   2.0000      -1.094474       -29.7821
  19   2.0000      -1.084858       -29.5205
  20   2.0000      -0.919527       -25.0216
  21   2.0000      -0.899094       -24.4656
  22   2.0000      -0.819706       -22.3053
  23   2.0000      -0.798089       -21.7171
  24   2.0000      -0.713621       -19.4186
  25   2.0000      -0.713352       -19.4113
  26   2.0000      -0.706178       -19.2161
  27   2.0000      -0.705615       -19.2008
  28   2.0000      -0.599605       -16.3161
  29   2.0000      -0.578553       -15.7432
  30   2.0000      -0.544814       -14.8251
  31   2.0000      -0.504940       -13.7401
  32   2.0000      -0.500508       -13.6195
  33   2.0000      -0.458105       -12.4657
  34   2.0000      -0.443958       -12.0807
  35   2.0000      -0.435876       -11.8608
  36   2.0000      -0.381809       -10.3896
  37   0.0000       0.025886         0.7044
  38   0.0000       0.028623         0.7789
  39   0.0000       0.030299         0.8245
  40   0.0000       0.035408         0.9635
  41   0.0000       0.044581         1.2131

MULLIKEN ATOMIC CHARGES
-----------------------
   0 B :    0.584975
   1 B :    0.584976
   2 C :    0.769562
   3 O :   -0.645294
   4 Cl:   -0.451834
   5 C :    0.769560
   6 O :   -0.645294
   7 Cl:   -0.451834
   8 H :   -0.257409
   9 H :   -0.257408
Sum of atomic charges:    0.0000000

LOEWDIN ATOMIC CHARGES
----------------------
   0 B :   -1.439956
   1 B :   -1.439956
   2 C :   -0.310364
   3 O :    0.778211
   4 Cl:    1.254952
   5 C :   -0.310364
   6 O :    0.778211
   7 Cl:    1.254951
   8 H :   -0.282843
   9 H :   -0.282843

  Mayer bond orders larger than 0.100000
B(  0-B ,  1-B ) :   0.6753 B(  0-B ,  2-C ) :   0.6623 B(  0-B ,  4-Cl) :   0.7547
B(  0-B ,  5-C ) :   0.1864 B(  0-B ,  9-H ) :   0.8266 B(  1-B ,  2-C ) :   0.1864
B(  1-B ,  5-C ) :   0.6623 B(  1-B ,  7-Cl) :   0.7547 B(  1-B ,  8-H ) :   0.8266
B(  2-C ,  3-O ) :   1.7794 B(  5-C ,  6-O ) :   1.7794

MP2 TOTAL ENERGY:    -1196.672808032 Eh
FINAL SINGLE POINT ENERGY     -1196.672808032368

DIPOLE MOMENT
-------------
                                X             Y             Z
Electronic contribution:      0.00001       0.00000      -0.00000
Nuclear contribution   :     -0.00001      -0.00000      -0.00000
                        -----------------------------------------
Total Dipole Moment    :     -0.00000      -0.00000      -0.00000
                        -----------------------------------------
Magnitude (a.u.)       :      0.00001
Magnitude (Debye)      :      0.00001

Rotational constants in cm-1:     0.047032     0.039179     0.022050
Rotational constants in MHz :  1409.998847  1174.557433   661.050405

                             ****ORCA TERMINATED NORMALLY****
TOTAL RUN TIME: 0 days 0 hours 49 minutes 3 seconds 14 msec
