                         Program Version 5.0.4 -  RELEASE  -
|  1> ! ri-mp2 aug-cc-pvdz aug-cc-pvdz/c tightscf
|  2> %pal nprocs 16 end
|  3> %maxcore 3800
|  4> %base "DZ_P-Cl_24_A"
|  5> %scf
|  6> STABPerform true
|  7> STABRestartUHFifUnstable true
|  8> end
|  9>
| 10> *xyz 0 2
| 11> S        -0.405771    0.118342    0.087198
| 12> O        -0.884378   -0.918985   -1.033083
| 13> O        -0.806921    1.406862   -0.359303
| 14> O        -0.834134   -0.406471    1.348042
| 15> P         1.742185    0.035993   -0.046630
| 16> H        -1.171571   -1.736251   -0.599818
| 17> H         1.734585   -1.348371    0.258855
| 18> *
| 19>
| 20> $new_job
| 21> ! ri-mp2 aug-cc-pvtz aug-cc-pvtz/c tightscf
| 22> %pal nprocs 16 end
| 23> %maxcore 3800
| 24> %base "TZ_P-Cl_24_A"
| 25>
| 26> *xyz 0 2
| 27> S        -0.405771    0.118342    0.087198
| 28> O        -0.884378   -0.918985   -1.033083
| 29> O        -0.806921    1.406862   -0.359303
| 30> O        -0.834134   -0.406471    1.348042
| 31> P         1.742185    0.035993   -0.046630
| 32> H        -1.171571   -1.736251   -0.599818
| 33> H         1.734585   -1.348371    0.258855
| 34> *
| 35>
| 36> $new_job
| 37> ! ri-mp2 aug-cc-pvqz aug-cc-pvqz/c tightscf
| 38> %pal nprocs 16 end
| 39> %maxcore 3800
| 40> %base "QZ_P-Cl_24_A"
| 41>
| 42> *xyz 0 2
| 43> S        -0.405771    0.118342    0.087198
| 44> O        -0.884378   -0.918985   -1.033083
| 45> O        -0.806921    1.406862   -0.359303
| 46> O        -0.834134   -0.406471    1.348042
| 47> P         1.742185    0.035993   -0.046630
| 48> H        -1.171571   -1.736251   -0.599818
| 49> H         1.734585   -1.348371    0.258855
| 50> *
| 51>
| 52>
| 53>
| 54>
| 55>                          ****END OF INPUT****
 Total Charge           Charge          ....    0
 Multiplicity           Mult            ....    2
 Number of Electrons    NEL             ....   57
MP2 TOTAL ENERGY:     -964.795651009 Eh
FINAL SINGLE POINT ENERGY      -964.795651008930
MP2 TOTAL ENERGY:     -965.122281835 Eh
FINAL SINGLE POINT ENERGY      -965.122281835070

CARTESIAN COORDINATES (ANGSTROEM)
---------------------------------
  S     -0.405771    0.118342    0.087198
  O     -0.884378   -0.918985   -1.033083
  O     -0.806921    1.406862   -0.359303
  O     -0.834134   -0.406471    1.348042
  P      1.742185    0.035993   -0.046630
  H     -1.171571   -1.736251   -0.599818
  H      1.734585   -1.348371    0.258855

 Multiplicity           Mult            ....    2
 Number of Electrons    NEL             ....   57
 Basis Dimension        Dim             ....  500

ORBITAL ENERGIES
----------------
                 SPIN UP ORBITALS
  NO   OCC          E(Eh)            E(eV)
   0   1.0000     -92.218536     -2509.3939
   1   1.0000     -80.020252     -2177.4618
   2   1.0000     -20.642975      -561.7239
   3   1.0000     -20.572339      -559.8018
   4   1.0000     -20.567012      -559.6568
   5   1.0000      -9.183991      -249.9091
   6   1.0000      -7.562490      -205.7858
   7   1.0000      -6.870183      -186.9472
   8   1.0000      -6.868531      -186.9022
   9   1.0000      -6.868361      -186.8976
  10   1.0000      -5.466777      -148.7586
  11   1.0000      -5.452522      -148.3707
  12   1.0000      -5.450684      -148.3207
  13   1.0000      -1.525371       -41.5075
  14   1.0000      -1.407805       -38.3083
  15   1.0000      -1.376560       -37.4581
  16   1.0000      -0.974103       -26.5067
  17   1.0000      -0.858756       -23.3679
  18   1.0000      -0.754520       -20.5315
  19   1.0000      -0.709008       -19.2931
  20   1.0000      -0.692267       -18.8375
  21   1.0000      -0.646302       -17.5868
  22   1.0000      -0.592667       -16.1273
  23   1.0000      -0.551641       -15.0109
  24   1.0000      -0.541101       -14.7241
  25   1.0000      -0.509823       -13.8730
  26   1.0000      -0.493265       -13.4224
  27   1.0000      -0.449183       -12.2229
  28   1.0000      -0.423407       -11.5215
  29   0.0000       0.017163         0.4670
  30   0.0000       0.033015         0.8984
  31   0.0000       0.051092         1.3903
  32   0.0000       0.058261         1.5854
  33   0.0000       0.060285         1.6404

                 SPIN DOWN ORBITALS
  NO   OCC          E(Eh)            E(eV)
   0   1.0000     -92.218850     -2509.4025
   1   1.0000     -80.012985     -2177.2640
   2   1.0000     -20.642282      -561.7051
   3   1.0000     -20.571337      -559.7745
   4   1.0000     -20.566977      -559.6559
   5   1.0000      -9.184424      -249.9209
   6   1.0000      -7.553572      -205.5431
   7   1.0000      -6.870502      -186.9559
   8   1.0000      -6.869341      -186.9243
   9   1.0000      -6.868718      -186.9073
  10   1.0000      -5.447778      -148.2416
  11   1.0000      -5.447150      -148.2245
  12   1.0000      -5.432356      -147.8219
  13   1.0000      -1.524495       -41.4836
  14   1.0000      -1.406420       -38.2706
  15   1.0000      -1.375201       -37.4211
  16   1.0000      -0.945732       -25.7347
  17   1.0000      -0.831238       -22.6191
  18   1.0000      -0.748429       -20.3658
  19   1.0000      -0.705420       -19.1954
  20   1.0000      -0.681358       -18.5407
  21   1.0000      -0.645098       -17.5540
  22   1.0000      -0.585942       -15.9443
  23   1.0000      -0.546669       -14.8756
  24   1.0000      -0.531655       -14.4671
  25   1.0000      -0.504751       -13.7350
  26   1.0000      -0.485921       -13.2226
  27   1.0000      -0.437080       -11.8935
  28   0.0000      -0.012976        -0.3531
  29   0.0000       0.018268         0.4971
  30   0.0000       0.033786         0.9194
  31   0.0000       0.053218         1.4481
  32   0.0000       0.059632         1.6227

MULLIKEN ATOMIC CHARGES AND SPIN POPULATIONS
--------------------------------------------
   0 S :    2.279093   -0.052295
   1 O :   -0.742945    0.000144
   2 O :   -1.125342   -0.000335
   3 O :   -1.081156    0.009795
   4 P :    0.412365    1.091009
   5 H :    0.349725    0.000472
   6 H :   -0.091741   -0.048790
Sum of atomic charges         :   -0.0000000

LOEWDIN ATOMIC CHARGES AND SPIN POPULATIONS
-------------------------------------------
   0 S :   -0.927301    0.154322
   1 O :    0.972131    0.017453
   2 O :    0.188368    0.003804
   3 O :    0.217741    0.020586
   4 P :    1.112686    0.622893
   5 H :   -0.904801    0.001130
   6 H :   -0.658824    0.179812

  Mayer bond orders larger than 0.100000
B(  0-S ,  1-O ) :   0.6863 B(  0-S ,  2-O ) :   1.2167 B(  0-S ,  3-O ) :   1.2680
B(  0-S ,  4-P ) :   0.8375 B(  1-O ,  5-H ) :   0.8931 B(  4-P ,  6-H ) :   0.9116

MP2 TOTAL ENERGY:     -965.230199822 Eh
FINAL SINGLE POINT ENERGY      -965.230199821981

DIPOLE MOMENT
-------------
                                X             Y             Z
Electronic contribution:      2.15389       1.63017      -0.00649
Nuclear contribution   :     -1.06389      -2.95569      -0.28403
                        -----------------------------------------
Total Dipole Moment    :      1.09000      -1.32552      -0.29052
                        -----------------------------------------
Magnitude (a.u.)       :      1.74055
Magnitude (Debye)      :      4.42412

Rotational constants in cm-1:     0.165218     0.090340     0.088267
Rotational constants in MHz :  4953.098979  2708.313036  2646.182800

                             ****ORCA TERMINATED NORMALLY****
TOTAL RUN TIME: 0 days 0 hours 22 minutes 42 seconds 930 msec
