                         Program Version 5.0.4 -  RELEASE  -
|  1> ! ri-mp2 aug-cc-pvdz aug-cc-pvdz/c tightscf
|  2> %pal nprocs 16 end
|  3> %maxcore 3800
|  4> %base "DZ_B-Si_13_AB"
|  5>
|  6> *xyz 0 1
|  7> O        -1.075263   -0.827471    0.331301
|  8> C        -2.371886   -1.162237    0.132640
|  9> C        -0.935022    0.517529    0.047041
| 10> C        -3.075564   -0.086901   -0.270379
| 11> C        -2.146051    0.994910   -0.326980
| 12> H        -4.126520   -0.061431   -0.501382
| 13> H        -2.632576   -2.189422    0.317389
| 14> H        -2.356490    2.011634   -0.613618
| 15> B         2.098639   -0.270825   -0.073678
| 16> O         1.703572   -1.571217   -0.096893
| 17> O         3.413947    0.015551   -0.245581
| 18> H         3.954130   -0.775040   -0.367435
| 19> H         0.754704   -1.688460    0.035971
| 20> Si         0.780275    1.241195    0.231464
| 21> H         0.892721    2.351932   -0.738596
| 22> H         0.930080    1.813464    1.591028
| 23> *
| 24>
| 25> $new_job
| 26> ! ri-mp2 aug-cc-pvtz aug-cc-pvtz/c tightscf
| 27> %pal nprocs 16 end
| 28> %maxcore 3800
| 29> %base "TZ_B-Si_13_AB"
| 30>
| 31> *xyz 0 1
| 32> O        -1.075263   -0.827471    0.331301
| 33> C        -2.371886   -1.162237    0.132640
| 34> C        -0.935022    0.517529    0.047041
| 35> C        -3.075564   -0.086901   -0.270379
| 36> C        -2.146051    0.994910   -0.326980
| 37> H        -4.126520   -0.061431   -0.501382
| 38> H        -2.632576   -2.189422    0.317389
| 39> H        -2.356490    2.011634   -0.613618
| 40> B         2.098639   -0.270825   -0.073678
| 41> O         1.703572   -1.571217   -0.096893
| 42> O         3.413947    0.015551   -0.245581
| 43> H         3.954130   -0.775040   -0.367435
| 44> H         0.754704   -1.688460    0.035971
| 45> Si         0.780275    1.241195    0.231464
| 46> H         0.892721    2.351932   -0.738596
| 47> H         0.930080    1.813464    1.591028
| 48> *
| 49>
| 50> $new_job
| 51> ! ri-mp2 aug-cc-pvqz aug-cc-pvqz/c tightscf
| 52> %pal nprocs 16 end
| 53> %maxcore 3800
| 54> %base "QZ_B-Si_13_AB"
| 55>
| 56> *xyz 0 1
| 57> O        -1.075263   -0.827471    0.331301
| 58> C        -2.371886   -1.162237    0.132640
| 59> C        -0.935022    0.517529    0.047041
| 60> C        -3.075564   -0.086901   -0.270379
| 61> C        -2.146051    0.994910   -0.326980
| 62> H        -4.126520   -0.061431   -0.501382
| 63> H        -2.632576   -2.189422    0.317389
| 64> H        -2.356490    2.011634   -0.613618
| 65> B         2.098639   -0.270825   -0.073678
| 66> O         1.703572   -1.571217   -0.096893
| 67> O         3.413947    0.015551   -0.245581
| 68> H         3.954130   -0.775040   -0.367435
| 69> H         0.754704   -1.688460    0.035971
| 70> Si         0.780275    1.241195    0.231464
| 71> H         0.892721    2.351932   -0.738596
| 72> H         0.930080    1.813464    1.591028
| 73> *
| 74>
| 75>
| 76>
| 77>
| 78>                          ****END OF INPUT****
 Total Charge           Charge          ....    0
 Multiplicity           Mult            ....    1
 Number of Electrons    NEL             ....   74
MP2 TOTAL ENERGY:     -695.203428747 Eh
FINAL SINGLE POINT ENERGY      -695.203428747374
MP2 TOTAL ENERGY:     -695.591208189 Eh
FINAL SINGLE POINT ENERGY      -695.591208189069

CARTESIAN COORDINATES (ANGSTROEM)
---------------------------------
  O     -1.075263   -0.827471    0.331301
  C     -2.371886   -1.162237    0.132640
  C     -0.935022    0.517529    0.047041
  C     -3.075564   -0.086901   -0.270379
  C     -2.146051    0.994910   -0.326980
  H     -4.126520   -0.061431   -0.501382
  H     -2.632576   -2.189422    0.317389
  H     -2.356490    2.011634   -0.613618
  B      2.098639   -0.270825   -0.073678
  O      1.703572   -1.571217   -0.096893
  O      3.413947    0.015551   -0.245581
  H      3.954130   -0.775040   -0.367435
  H      0.754704   -1.688460    0.035971
  Si     0.780275    1.241195    0.231464
  H      0.892721    2.351932   -0.738596
  H      0.930080    1.813464    1.591028

 Multiplicity           Mult            ....    1
 Number of Electrons    NEL             ....   74
 Basis Dimension        Dim             .... 1046

ORBITAL ENERGIES
----------------

  NO   OCC          E(Eh)            E(eV)
   0   2.0000     -68.760687     -1871.0734
   1   2.0000     -20.632333      -561.4343
   2   2.0000     -20.565609      -559.6187
   3   2.0000     -20.564258      -559.5819
   4   2.0000     -11.297779      -307.4282
   5   2.0000     -11.275264      -306.8155
   6   2.0000     -11.237822      -305.7967
   7   2.0000     -11.235875      -305.7437
   8   2.0000      -7.636694      -207.8050
   9   2.0000      -6.111974      -166.3153
  10   2.0000      -4.218426      -114.7892
  11   2.0000      -4.218137      -114.7813
  12   2.0000      -4.217920      -114.7754
  13   2.0000      -1.468153       -39.9505
  14   2.0000      -1.384184       -37.6656
  15   2.0000      -1.344238       -36.5786
  16   2.0000      -1.095146       -29.8004
  17   2.0000      -1.013426       -27.5767
  18   2.0000      -0.817373       -22.2418
  19   2.0000      -0.796322       -21.6690
  20   2.0000      -0.767823       -20.8935
  21   2.0000      -0.764067       -20.7913
  22   2.0000      -0.727379       -19.7930
  23   2.0000      -0.676677       -18.4133
  24   2.0000      -0.649490       -17.6735
  25   2.0000      -0.613191       -16.6858
  26   2.0000      -0.590879       -16.0786
  27   2.0000      -0.577076       -15.7030
  28   2.0000      -0.572575       -15.5806
  29   2.0000      -0.569270       -15.4906
  30   2.0000      -0.556261       -15.1366
  31   2.0000      -0.500164       -13.6102
  32   2.0000      -0.492699       -13.4070
  33   2.0000      -0.481795       -13.1103
  34   2.0000      -0.420164       -11.4332
  35   2.0000      -0.408209       -11.1079
  36   2.0000      -0.328462        -8.9379
  37   0.0000       0.020513         0.5582
  38   0.0000       0.027662         0.7527
  39   0.0000       0.029543         0.8039
  40   0.0000       0.036530         0.9940
  41   0.0000       0.040292         1.0964

MULLIKEN ATOMIC CHARGES
-----------------------
   0 O :   -0.591401
   1 C :   -0.461133
   2 C :    0.321378
   3 C :   -0.331288
   4 C :   -0.683935
   5 H :    0.466606
   6 H :    0.553489
   7 H :    0.369465
   8 B :    1.442333
   9 O :   -1.207188
  10 O :   -1.073038
  11 H :    0.328179
  12 H :    0.378585
  13 Si:    0.812105
  14 H :   -0.171711
  15 H :   -0.152446
Sum of atomic charges:    0.0000000

LOEWDIN ATOMIC CHARGES
----------------------
   0 O :    0.803356
   1 C :    0.001268
   2 C :   -0.451222
   3 C :    0.298853
   4 C :    0.228523
   5 H :   -0.326968
   6 H :   -0.324857
   7 H :   -0.326597
   8 B :   -1.193207
   9 O :    1.325016
  10 O :    1.276131
  11 H :   -0.806767
  12 H :   -0.952615
  13 Si:    0.928589
  14 H :   -0.238225
  15 H :   -0.241279

  Mayer bond orders larger than 0.100000
B(  0-O ,  1-C ) :   1.1282 B(  0-O ,  2-C ) :   0.6227 B(  1-C ,  2-C ) :  -0.1147
B(  1-C ,  3-C ) :   1.6678 B(  1-C ,  6-H ) :   0.7400 B(  2-C ,  3-C ) :  -0.3868
B(  2-C ,  4-C ) :   1.0478 B(  2-C , 13-Si) :   0.9119 B(  3-C ,  4-C ) :   1.2180
B(  3-C ,  5-H ) :   0.8147 B(  4-C ,  7-H ) :   0.9081 B(  4-C , 13-Si) :  -0.1600
B(  8-B ,  9-O ) :   0.3921 B(  8-B , 10-O ) :   0.4141 B(  8-B , 13-Si) :   0.7689
B(  9-O , 10-O ) :  -0.1647 B(  9-O , 12-H ) :   0.9062 B( 10-O , 11-H ) :   0.9409
B( 10-O , 13-Si) :  -0.1420 B( 13-Si, 14-H ) :   0.7354 B( 13-Si, 15-H ) :   0.7231

MP2 TOTAL ENERGY:     -695.717518595 Eh
FINAL SINGLE POINT ENERGY      -695.717518594631

DIPOLE MOMENT
-------------
                                X             Y             Z
Electronic contribution:      3.37468      -1.84693       0.11871
Nuclear contribution   :     -4.16824       1.53469      -0.22659
                        -----------------------------------------
Total Dipole Moment    :     -0.79357      -0.31224      -0.10788
                        -----------------------------------------
Magnitude (a.u.)       :      0.85958
Magnitude (Debye)      :      2.18487

Rotational constants in cm-1:     0.106692     0.027122     0.022241
Rotational constants in MHz :  3198.540841   813.094925   666.764263

                             ****ORCA TERMINATED NORMALLY****
TOTAL RUN TIME: 0 days 0 hours 26 minutes 59 seconds 590 msec
