                         Program Version 5.0.4 -  RELEASE  -
|  1> ! ri-mp2 aug-cc-pvdz aug-cc-pvdz/c tightscf
|  2> %pal nprocs 16 end
|  3> %maxcore 3800
|  4> %base "DZ_B-P_17_AB"
|  5>
|  6> *xyz 0 1
|  7> C        -1.788356    1.278081   -0.087285
|  8> C        -2.564384    0.153671    0.138760
|  9> C        -1.930144   -1.071992    0.214845
| 10> N        -0.617226   -1.224212    0.088500
| 11> C         0.123965   -0.141703   -0.119574
| 12> C        -0.423647    1.133031   -0.224826
| 13> H        -3.637204    0.222521    0.250314
| 14> H        -2.499856   -1.978386    0.385735
| 15> H         0.211536    1.989182   -0.405573
| 16> H        -2.243163    2.257436   -0.157746
| 17> B         2.938427    0.751609    0.607682
| 18> P         1.906640   -0.423847   -0.339230
| 19> H         2.578048    1.874175    0.757073
| 20> H         4.036335    0.419327    0.915579
| 21> H         2.078556   -1.721645    0.153640
| 22> *
| 23>
| 24> $new_job
| 25> ! ri-mp2 aug-cc-pvtz aug-cc-pvtz/c tightscf
| 26> %pal nprocs 16 end
| 27> %maxcore 3800
| 28> %base "TZ_B-P_17_AB"
| 29>
| 30> *xyz 0 1
| 31> C        -1.788356    1.278081   -0.087285
| 32> C        -2.564384    0.153671    0.138760
| 33> C        -1.930144   -1.071992    0.214845
| 34> N        -0.617226   -1.224212    0.088500
| 35> C         0.123965   -0.141703   -0.119574
| 36> C        -0.423647    1.133031   -0.224826
| 37> H        -3.637204    0.222521    0.250314
| 38> H        -2.499856   -1.978386    0.385735
| 39> H         0.211536    1.989182   -0.405573
| 40> H        -2.243163    2.257436   -0.157746
| 41> B         2.938427    0.751609    0.607682
| 42> P         1.906640   -0.423847   -0.339230
| 43> H         2.578048    1.874175    0.757073
| 44> H         4.036335    0.419327    0.915579
| 45> H         2.078556   -1.721645    0.153640
| 46> *
| 47>
| 48> $new_job
| 49> ! ri-mp2 aug-cc-pvqz aug-cc-pvqz/c tightscf
| 50> %pal nprocs 16 end
| 51> %maxcore 3800
| 52> %base "QZ_B-P_17_AB"
| 53>
| 54> *xyz 0 1
| 55> C        -1.788356    1.278081   -0.087285
| 56> C        -2.564384    0.153671    0.138760
| 57> C        -1.930144   -1.071992    0.214845
| 58> N        -0.617226   -1.224212    0.088500
| 59> C         0.123965   -0.141703   -0.119574
| 60> C        -0.423647    1.133031   -0.224826
| 61> H        -3.637204    0.222521    0.250314
| 62> H        -2.499856   -1.978386    0.385735
| 63> H         0.211536    1.989182   -0.405573
| 64> H        -2.243163    2.257436   -0.157746
| 65> B         2.938427    0.751609    0.607682
| 66> P         1.906640   -0.423847   -0.339230
| 67> H         2.578048    1.874175    0.757073
| 68> H         4.036335    0.419327    0.915579
| 69> H         2.078556   -1.721645    0.153640
| 70> *
| 71>
| 72>
| 73>
| 74>
| 75>                          ****END OF INPUT****
 Total Charge           Charge          ....    0
 Multiplicity           Mult            ....    1
 Number of Electrons    NEL             ....   64
MP2 TOTAL ENERGY:     -614.340401236 Eh
FINAL SINGLE POINT ENERGY      -614.340401235906
MP2 TOTAL ENERGY:     -614.619159741 Eh
FINAL SINGLE POINT ENERGY      -614.619159741272

CARTESIAN COORDINATES (ANGSTROEM)
---------------------------------
  C     -1.788356    1.278081   -0.087285
  C     -2.564384    0.153671    0.138760
  C     -1.930144   -1.071992    0.214845
  N     -0.617226   -1.224212    0.088500
  C      0.123965   -0.141703   -0.119574
  C     -0.423647    1.133031   -0.224826
  H     -3.637204    0.222521    0.250314
  H     -2.499856   -1.978386    0.385735
  H      0.211536    1.989182   -0.405573
  H     -2.243163    2.257436   -0.157746
  B      2.938427    0.751609    0.607682
  P      1.906640   -0.423847   -0.339230
  H      2.578048    1.874175    0.757073
  H      4.036335    0.419327    0.915579
  H      2.078556   -1.721645    0.153640

 Multiplicity           Mult            ....    1
 Number of Electrons    NEL             ....   64
 Basis Dimension        Dim             ....  966

ORBITAL ENERGIES
----------------

  NO   OCC          E(Eh)            E(eV)
   0   2.0000     -79.930692     -2175.0247
   1   2.0000     -15.566664      -423.5905
   2   2.0000     -11.290035      -307.2175
   3   2.0000     -11.277185      -306.8678
   4   2.0000     -11.261470      -306.4402
   5   2.0000     -11.243710      -305.9569
   6   2.0000     -11.241062      -305.8849
   7   2.0000      -7.610495      -207.0921
   8   2.0000      -7.478042      -203.4879
   9   2.0000      -5.372677      -146.1980
  10   2.0000      -5.372591      -146.1956
  11   2.0000      -5.372234      -146.1859
  12   2.0000      -1.272052       -34.6143
  13   2.0000      -1.097967       -29.8772
  14   2.0000      -1.049239       -28.5513
  15   2.0000      -0.900694       -24.5091
  16   2.0000      -0.867548       -23.6072
  17   2.0000      -0.820443       -22.3254
  18   2.0000      -0.716305       -19.4916
  19   2.0000      -0.678450       -18.4616
  20   2.0000      -0.669697       -18.2234
  21   2.0000      -0.636519       -17.3206
  22   2.0000      -0.593259       -16.1434
  23   2.0000      -0.569596       -15.4995
  24   2.0000      -0.559184       -15.2162
  25   2.0000      -0.526132       -14.3168
  26   2.0000      -0.490549       -13.3485
  27   2.0000      -0.481211       -13.0944
  28   2.0000      -0.419429       -11.4132
  29   2.0000      -0.400670       -10.9028
  30   2.0000      -0.382630       -10.4119
  31   2.0000      -0.314008        -8.5446
  32   0.0000       0.020294         0.5522
  33   0.0000       0.027752         0.7552
  34   0.0000       0.028929         0.7872
  35   0.0000       0.034497         0.9387
  36   0.0000       0.038283         1.0417

MULLIKEN ATOMIC CHARGES
-----------------------
   0 C :   -0.195585
   1 C :   -0.289753
   2 C :   -0.386320
   3 N :   -0.591566
   4 C :    0.092896
   5 C :   -0.302685
   6 H :    0.377122
   7 H :    0.461065
   8 H :    0.335902
   9 H :    0.281666
  10 B :    0.208940
  11 P :    0.384614
  12 H :   -0.141058
  13 H :   -0.224966
  14 H :   -0.010272
Sum of atomic charges:    0.0000000

LOEWDIN ATOMIC CHARGES
----------------------
   0 C :    0.331214
   1 C :    0.331405
   2 C :    0.070743
   3 N :    0.508793
   4 C :   -0.580017
   5 C :    0.234398
   6 H :   -0.326787
   7 H :   -0.347077
   8 H :   -0.348768
   9 H :   -0.308130
  10 B :    0.105806
  11 P :    1.289277
  12 H :   -0.256009
  13 H :   -0.270138
  14 H :   -0.434711

  Mayer bond orders larger than 0.100000
B(  0-C ,  1-C ) :   1.1836 B(  0-C ,  4-C ) :  -0.2896 B(  0-C ,  5-C ) :   1.2045
B(  0-C ,  9-H ) :   1.0591 B(  1-C ,  2-C ) :   1.2781 B(  1-C ,  6-H ) :   0.9325
B(  2-C ,  3-N ) :   1.2987 B(  2-C ,  5-C ) :   0.1978 B(  2-C ,  6-H ) :  -0.1028
B(  2-C ,  7-H ) :   0.8843 B(  3-N ,  4-C ) :   0.9806 B(  3-N ,  5-C ) :   0.1233
B(  3-N , 11-P ) :  -0.1146 B(  4-C ,  5-C ) :   0.7757 B(  4-C , 11-P ) :   0.8909
B(  5-C ,  8-H ) :   0.9449 B(  5-C ,  9-H ) :  -0.1200 B(  5-C , 11-P ) :  -0.1514
B( 10-B , 11-P ) :   1.3517 B( 10-B , 12-H ) :   0.9260 B( 10-B , 13-H ) :   0.9366
B( 11-P , 14-H ) :   1.0095

MP2 TOTAL ENERGY:     -614.708500323 Eh
FINAL SINGLE POINT ENERGY      -614.708500322751

DIPOLE MOMENT
-------------
                                X             Y             Z
Electronic contribution:      2.88880      -2.19113      -1.48332
Nuclear contribution   :     -3.58237       2.79063       1.69480
                        -----------------------------------------
Total Dipole Moment    :     -0.69356       0.59949       0.21148
                        -----------------------------------------
Magnitude (a.u.)       :      0.94082
Magnitude (Debye)      :      2.39137

Rotational constants in cm-1:     0.149309     0.038398     0.031825
Rotational constants in MHz :  4476.159862  1151.137963   954.077492

                             ****ORCA TERMINATED NORMALLY****
TOTAL RUN TIME: 0 days 0 hours 23 minutes 3 seconds 201 msec
