                         Program Version 5.0.4 -  RELEASE  -
|  1> ! ri-mp2 aug-cc-pvdz aug-cc-pvdz/c tightscf
|  2> %pal nprocs 16 end
|  3> %maxcore 3800
|  4> %base "DZ_S-Cl_63_A"
|  5> %scf
|  6> STABPerform true
|  7> STABRestartUHFifUnstable true
|  8> end
|  9>
| 10> *xyz 0 2
| 11> S        -1.680579   -0.796726   -0.107912
| 12> C        -0.047819   -0.244116    0.482908
| 13> O         0.032666    1.117542    0.719195
| 14> O         0.844968   -0.698735   -0.477572
| 15> C        -0.073159    1.960057   -0.418439
| 16> H        -0.085543    2.978040   -0.039021
| 17> H        -0.994221    1.759514   -0.967211
| 18> H         0.777534    1.827319   -1.087740
| 19> C         2.189296   -0.744397   -0.029189
| 20> H         2.784123   -1.107896   -0.862759
| 21> H         2.292251   -1.430562    0.816159
| 22> H         2.539716    0.246168    0.267266
| 23> H         0.144414   -0.704689    1.455240
| 24> *
| 25>
| 26> $new_job
| 27> ! ri-mp2 aug-cc-pvtz aug-cc-pvtz/c tightscf
| 28> %pal nprocs 16 end
| 29> %maxcore 3800
| 30> %base "TZ_S-Cl_63_A"
| 31>
| 32> *xyz 0 2
| 33> S        -1.680579   -0.796726   -0.107912
| 34> C        -0.047819   -0.244116    0.482908
| 35> O         0.032666    1.117542    0.719195
| 36> O         0.844968   -0.698735   -0.477572
| 37> C        -0.073159    1.960057   -0.418439
| 38> H        -0.085543    2.978040   -0.039021
| 39> H        -0.994221    1.759514   -0.967211
| 40> H         0.777534    1.827319   -1.087740
| 41> C         2.189296   -0.744397   -0.029189
| 42> H         2.784123   -1.107896   -0.862759
| 43> H         2.292251   -1.430562    0.816159
| 44> H         2.539716    0.246168    0.267266
| 45> H         0.144414   -0.704689    1.455240
| 46> *
| 47>
| 48> $new_job
| 49> ! ri-mp2 aug-cc-pvqz aug-cc-pvqz/c tightscf
| 50> %pal nprocs 16 end
| 51> %maxcore 3800
| 52> %base "QZ_S-Cl_63_A"
| 53>
| 54> *xyz 0 2
| 55> S        -1.680579   -0.796726   -0.107912
| 56> C        -0.047819   -0.244116    0.482908
| 57> O         0.032666    1.117542    0.719195
| 58> O         0.844968   -0.698735   -0.477572
| 59> C        -0.073159    1.960057   -0.418439
| 60> H        -0.085543    2.978040   -0.039021
| 61> H        -0.994221    1.759514   -0.967211
| 62> H         0.777534    1.827319   -1.087740
| 63> C         2.189296   -0.744397   -0.029189
| 64> H         2.784123   -1.107896   -0.862759
| 65> H         2.292251   -1.430562    0.816159
| 66> H         2.539716    0.246168    0.267266
| 67> H         0.144414   -0.704689    1.455240
| 68> *
| 69>
| 70>
| 71>
| 72>
| 73>                          ****END OF INPUT****
 Total Charge           Charge          ....    0
 Multiplicity           Mult            ....    2
 Number of Electrons    NEL             ....   57
MP2 TOTAL ENERGY:     -665.870661834 Eh
FINAL SINGLE POINT ENERGY      -665.870661834481
MP2 TOTAL ENERGY:     -666.158301740 Eh
FINAL SINGLE POINT ENERGY      -666.158301739688

CARTESIAN COORDINATES (ANGSTROEM)
---------------------------------
  S     -1.680579   -0.796726   -0.107912
  C     -0.047819   -0.244116    0.482908
  O      0.032666    1.117542    0.719195
  O      0.844968   -0.698735   -0.477572
  C     -0.073159    1.960057   -0.418439
  H     -0.085543    2.978040   -0.039021
  H     -0.994221    1.759514   -0.967211
  H      0.777534    1.827319   -1.087740
  C      2.189296   -0.744397   -0.029189
  H      2.784123   -1.107896   -0.862759
  H      2.292251   -1.430562    0.816159
  H      2.539716    0.246168    0.267266
  H      0.144414   -0.704689    1.455240

 Multiplicity           Mult            ....    2
 Number of Electrons    NEL             ....   57
 Basis Dimension        Dim             ....  806

ORBITAL ENERGIES
----------------
                 SPIN UP ORBITALS
  NO   OCC          E(Eh)            E(eV)
   0   1.0000     -91.970074     -2502.6329
   1   1.0000     -20.581353      -560.0471
   2   1.0000     -20.574416      -559.8583
   3   1.0000     -11.371971      -309.4471
   4   1.0000     -11.284719      -307.0728
   5   1.0000     -11.271652      -306.7172
   6   1.0000      -8.972772      -244.1615
   7   1.0000      -6.668787      -181.4669
   8   1.0000      -6.650035      -180.9566
   9   1.0000      -6.648585      -180.9172
  10   1.0000      -1.443939       -39.2916
  11   1.0000      -1.368284       -37.2329
  12   1.0000      -1.041115       -28.3302
  13   1.0000      -0.953405       -25.9435
  14   1.0000      -0.938516       -25.5383
  15   1.0000      -0.817275       -22.2392
  16   1.0000      -0.718862       -19.5612
  17   1.0000      -0.702198       -19.1078
  18   1.0000      -0.670598       -18.2479
  19   1.0000      -0.626044       -17.0355
  20   1.0000      -0.612860       -16.6768
  21   1.0000      -0.584609       -15.9080
  22   1.0000      -0.537711       -14.6319
  23   1.0000      -0.533514       -14.5177
  24   1.0000      -0.479431       -13.0460
  25   1.0000      -0.469226       -12.7683
  26   1.0000      -0.445558       -12.1243
  27   1.0000      -0.431218       -11.7340
  28   1.0000      -0.380992       -10.3673
  29   0.0000       0.025196         0.6856
  30   0.0000       0.033525         0.9123
  31   0.0000       0.035400         0.9633
  32   0.0000       0.040548         1.1034
  33   0.0000       0.050974         1.3871

                 SPIN DOWN ORBITALS
  NO   OCC          E(Eh)            E(eV)
   0   1.0000     -91.960832     -2502.3815
   1   1.0000     -20.580132      -560.0139
   2   1.0000     -20.574138      -559.8508
   3   1.0000     -11.373098      -309.4777
   4   1.0000     -11.284569      -307.0687
   5   1.0000     -11.271704      -306.7187
   6   1.0000      -8.962584      -243.8843
   7   1.0000      -6.644855      -180.8157
   8   1.0000      -6.643261      -180.7723
   9   1.0000      -6.627126      -180.3333
  10   1.0000      -1.442043       -39.2400
  11   1.0000      -1.366457       -37.1832
  12   1.0000      -1.017328       -27.6829
  13   1.0000      -0.949300       -25.8318
  14   1.0000      -0.897793       -24.4302
  15   1.0000      -0.795435       -21.6449
  16   1.0000      -0.717841       -19.5334
  17   1.0000      -0.698550       -19.0085
  18   1.0000      -0.658616       -17.9218
  19   1.0000      -0.623854       -16.9759
  20   1.0000      -0.611696       -16.6451
  21   1.0000      -0.580193       -15.7878
  22   1.0000      -0.536956       -14.6113
  23   1.0000      -0.528929       -14.3929
  24   1.0000      -0.477406       -12.9909
  25   1.0000      -0.461876       -12.5683
  26   1.0000      -0.428472       -11.6593
  27   1.0000      -0.361179        -9.8282
  28   0.0000       0.016797         0.4571
  29   0.0000       0.025266         0.6875
  30   0.0000       0.033578         0.9137
  31   0.0000       0.036858         1.0030
  32   0.0000       0.040855         1.1117

MULLIKEN ATOMIC CHARGES AND SPIN POPULATIONS
--------------------------------------------
   0 S :   -0.185742    1.134881
   1 C :    0.673730   -0.140689
   2 O :   -0.750308    0.001932
   3 O :   -0.776153   -0.003457
   4 C :   -0.660227    0.005823
   5 H :    0.408877    0.000807
   6 H :    0.296404   -0.001276
   7 H :    0.289943   -0.000819
   8 C :   -0.645783    0.001595
   9 H :    0.405093   -0.001307
  10 H :    0.295473   -0.001005
  11 H :    0.285657   -0.000450
  12 H :    0.363035    0.003964
Sum of atomic charges         :   -0.0000000

LOEWDIN ATOMIC CHARGES AND SPIN POPULATIONS
-------------------------------------------
   0 S :    1.047533    0.761740
   1 C :   -1.246231    0.180467
   2 O :    0.795214    0.009338
   3 O :    0.758560    0.029249
   4 C :    0.519335    0.002825
   5 H :   -0.325163   -0.000137
   6 H :   -0.376215    0.000199
   7 H :   -0.323494   -0.000120
   8 C :    0.571112    0.003668
   9 H :   -0.319411    0.000527
  10 H :   -0.307314    0.000282
  11 H :   -0.312762    0.000661
  12 H :   -0.481165    0.011300

  Mayer bond orders larger than 0.100000
B(  0-S ,  1-C ) :   0.7042 B(  1-C ,  2-O ) :   0.7076 B(  1-C ,  3-O ) :   0.7214
B(  1-C , 12-H ) :   0.8375 B(  2-O ,  4-C ) :   0.8330 B(  3-O ,  8-C ) :   0.8644
B(  4-C ,  5-H ) :   0.8677 B(  4-C ,  6-H ) :   0.8999 B(  4-C ,  7-H ) :   0.8989
B(  8-C ,  9-H ) :   0.8563 B(  8-C , 10-H ) :   0.9111 B(  8-C , 11-H ) :   0.9024

MP2 TOTAL ENERGY:     -666.249378934 Eh
FINAL SINGLE POINT ENERGY      -666.249378934058

DIPOLE MOMENT
-------------
                                X             Y             Z
Electronic contribution:     -6.73601      -3.37993       0.47105
Nuclear contribution   :      7.51717       3.59583      -0.41056
                        -----------------------------------------
Total Dipole Moment    :      0.78115       0.21590       0.06049
                        -----------------------------------------
Magnitude (a.u.)       :      0.81270
Magnitude (Debye)      :      2.06571

Rotational constants in cm-1:     0.117748     0.082744     0.055921
Rotational constants in MHz :  3529.985234  2480.614059  1676.478791

                             ****ORCA TERMINATED NORMALLY****
TOTAL RUN TIME: 0 days 2 hours 13 minutes 51 seconds 962 msec
