                         Program Version 5.0.4 -  RELEASE  -
|  1> ! ri-mp2 aug-cc-pvdz aug-cc-pvdz/c tightscf
|  2> %pal nprocs 16 end
|  3> %maxcore 3800
|  4> %base "DZ_S-Cl_87_AB"
|  5> %scf
|  6> STABPerform true
|  7> STABRestartUHFifUnstable true
|  8> end
|  9>
| 10> *xyz 0 1
| 11> F         3.168469   -0.715500   -0.413540
| 12> C         1.011260   -0.033602    0.204353
| 13> C         2.474767    0.211306    0.348460
| 14> H         2.787037    0.077793    1.387561
| 15> H         2.732911    1.214204    0.011391
| 16> N         0.220613    0.928452    0.008294
| 17> S        -1.381967    0.957442   -0.136956
| 18> Cl        -2.061557   -0.980817    0.049997
| 19> H         0.661310   -1.063059    0.289330
| 20> *
| 21>
| 22> $new_job
| 23> ! ri-mp2 aug-cc-pvtz aug-cc-pvtz/c tightscf
| 24> %pal nprocs 16 end
| 25> %maxcore 3800
| 26> %base "TZ_S-Cl_87_AB"
| 27>
| 28> *xyz 0 1
| 29> F         3.168469   -0.715500   -0.413540
| 30> C         1.011260   -0.033602    0.204353
| 31> C         2.474767    0.211306    0.348460
| 32> H         2.787037    0.077793    1.387561
| 33> H         2.732911    1.214204    0.011391
| 34> N         0.220613    0.928452    0.008294
| 35> S        -1.381967    0.957442   -0.136956
| 36> Cl        -2.061557   -0.980817    0.049997
| 37> H         0.661310   -1.063059    0.289330
| 38> *
| 39>
| 40> $new_job
| 41> ! ri-mp2 aug-cc-pvqz aug-cc-pvqz/c tightscf
| 42> %pal nprocs 16 end
| 43> %maxcore 3800
| 44> %base "QZ_S-Cl_87_AB"
| 45>
| 46> *xyz 0 1
| 47> F         3.168469   -0.715500   -0.413540
| 48> C         1.011260   -0.033602    0.204353
| 49> C         2.474767    0.211306    0.348460
| 50> H         2.787037    0.077793    1.387561
| 51> H         2.732911    1.214204    0.011391
| 52> N         0.220613    0.928452    0.008294
| 53> S        -1.381967    0.957442   -0.136956
| 54> Cl        -2.061557   -0.980817    0.049997
| 55> H         0.661310   -1.063059    0.289330
| 56> *
| 57>
| 58>
| 59>
| 60>
| 61>                          ****END OF INPUT****
 Total Charge           Charge          ....    0
 Multiplicity           Mult            ....    1
 Number of Electrons    NEL             ....   64
MP2 TOTAL ENERGY:    -1089.324980860 Eh
FINAL SINGLE POINT ENERGY     -1089.324980859850
MP2 TOTAL ENERGY:    -1089.641865375 Eh
FINAL SINGLE POINT ENERGY     -1089.641865375054

CARTESIAN COORDINATES (ANGSTROEM)
---------------------------------
  F      3.168469   -0.715500   -0.413540
  C      1.011260   -0.033602    0.204353
  C      2.474767    0.211306    0.348460
  H      2.787037    0.077793    1.387561
  H      2.732911    1.214204    0.011391
  N      0.220613    0.928452    0.008294
  S     -1.381967    0.957442   -0.136956
  Cl    -2.061557   -0.980817    0.049997
  H      0.661310   -1.063059    0.289330

 Multiplicity           Mult            ....    1
 Number of Electrons    NEL             ....   64
 Basis Dimension        Dim             ....  626

ORBITAL ENERGIES
----------------

  NO   OCC          E(Eh)            E(eV)
   0   2.0000    -104.856929     -2853.3021
   1   2.0000     -92.050629     -2504.8250
   2   2.0000     -26.297021      -715.5783
   3   2.0000     -15.626575      -425.2207
   4   2.0000     -11.335408      -308.4521
   5   2.0000     -11.316652      -307.9417
   6   2.0000     -10.581551      -287.9387
   7   2.0000      -9.045414      -246.1382
   8   2.0000      -8.048447      -219.0094
   9   2.0000      -8.046732      -218.9627
  10   2.0000      -8.046512      -218.9567
  11   2.0000      -6.726709      -183.0431
  12   2.0000      -6.724654      -182.9871
  13   2.0000      -6.723412      -182.9533
  14   2.0000      -1.609659       -43.8010
  15   2.0000      -1.299063       -35.3493
  16   2.0000      -1.136047       -30.9134
  17   2.0000      -1.041823       -28.3494
  18   2.0000      -0.939001       -25.5515
  19   2.0000      -0.803973       -21.8772
  20   2.0000      -0.729511       -19.8510
  21   2.0000      -0.712466       -19.3872
  22   2.0000      -0.702969       -19.1288
  23   2.0000      -0.671925       -18.2840
  24   2.0000      -0.597309       -16.2536
  25   2.0000      -0.581028       -15.8106
  26   2.0000      -0.548593       -14.9280
  27   2.0000      -0.521274       -14.1846
  28   2.0000      -0.487701       -13.2710
  29   2.0000      -0.472993       -12.8708
  30   2.0000      -0.451537       -12.2870
  31   2.0000      -0.354674        -9.6512
  32   0.0000       0.025840         0.7032
  33   0.0000       0.034208         0.9308
  34   0.0000       0.041249         1.1224
  35   0.0000       0.048380         1.3165
  36   0.0000       0.058149         1.5823

MULLIKEN ATOMIC CHARGES
-----------------------
   0 F :   -0.673301
   1 C :   -0.207682
   2 C :    0.158262
   3 H :    0.340386
   4 H :    0.333578
   5 N :   -0.725317
   6 S :    0.606569
   7 Cl:   -0.339213
   8 H :    0.506719
Sum of atomic charges:   -0.0000000

LOEWDIN ATOMIC CHARGES
----------------------
   0 F :    0.759353
   1 C :   -0.137280
   2 C :   -0.086980
   3 H :   -0.344765
   4 H :   -0.367980
   5 N :   -0.116015
   6 S :    0.251213
   7 Cl:    0.463119
   8 H :   -0.420665

  Mayer bond orders larger than 0.100000
B(  0-F ,  2-C ) :   0.5005 B(  1-C ,  2-C ) :   1.0289 B(  1-C ,  5-N ) :   1.5932
B(  1-C ,  8-H ) :   0.6944 B(  2-C ,  3-H ) :   0.8221 B(  2-C ,  4-H ) :   0.8812
B(  5-N ,  6-S ) :   1.1685 B(  6-S ,  7-Cl) :   0.9312

MP2 TOTAL ENERGY:    -1089.745528073 Eh
FINAL SINGLE POINT ENERGY     -1089.745528073042

DIPOLE MOMENT
-------------
                                X             Y             Z
Electronic contribution:     -5.40781      -1.94597      -1.38992
Nuclear contribution   :      5.69628       2.18099       1.91223
                        -----------------------------------------
Total Dipole Moment    :      0.28846       0.23502       0.52231
                        -----------------------------------------
Magnitude (a.u.)       :      0.64129
Magnitude (Debye)      :      1.63004

Rotational constants in cm-1:     0.175140     0.032888     0.028420
Rotational constants in MHz :  5250.558721   985.959401   851.996482

                             ****ORCA TERMINATED NORMALLY****
TOTAL RUN TIME: 0 days 0 hours 26 minutes 4 seconds 827 msec
