                         Program Version 5.0.4 -  RELEASE  -
|  1> ! ri-mp2 aug-cc-pvdz aug-cc-pvdz/c tightscf
|  2> %pal nprocs 16 end
|  3> %maxcore 3800
|  4> %base "DZ_B-B_1_AB"
|  5> %scf
|  6> STABPerform true
|  7> STABRestartUHFifUnstable true
|  8> end
|  9>
| 10> *xyz 0 1
| 11> B        -0.834893    0.000004   -0.000000
| 12> B         0.834893    0.000004    0.000000
| 13> C        -1.644328    1.010130   -0.891243
| 14> H        -1.802012    1.894095   -0.257368
| 15> H        -2.639932    0.653517   -1.165041
| 16> H        -1.131855    1.366079   -1.785796
| 17> C         1.644328    1.010127    0.891246
| 18> H         1.802006    1.894097    0.257377
| 19> H         2.639934    0.653515    1.165039
| 20> H         1.131856    1.366068    1.785803
| 21> C        -1.644331   -1.010131    0.891231
| 22> H        -2.639941   -0.653527    1.165018
| 23> H        -1.131865   -1.366077    1.785789
| 24> H        -1.801999   -1.894097    0.257352
| 25> C         1.644331   -1.010128   -0.891234
| 26> H         2.639939   -0.653521   -1.165024
| 27> H         1.131863   -1.366076   -1.785791
| 28> H         1.802004   -1.894094   -0.257356
| 29> *
| 30>
| 31> $new_job
| 32> ! ri-mp2 aug-cc-pvtz aug-cc-pvtz/c tightscf
| 33> %pal nprocs 16 end
| 34> %maxcore 3800
| 35> %base "TZ_B-B_1_AB"
| 36>
| 37> *xyz 0 1
| 38> B        -0.834893    0.000004   -0.000000
| 39> B         0.834893    0.000004    0.000000
| 40> C        -1.644328    1.010130   -0.891243
| 41> H        -1.802012    1.894095   -0.257368
| 42> H        -2.639932    0.653517   -1.165041
| 43> H        -1.131855    1.366079   -1.785796
| 44> C         1.644328    1.010127    0.891246
| 45> H         1.802006    1.894097    0.257377
| 46> H         2.639934    0.653515    1.165039
| 47> H         1.131856    1.366068    1.785803
| 48> C        -1.644331   -1.010131    0.891231
| 49> H        -2.639941   -0.653527    1.165018
| 50> H        -1.131865   -1.366077    1.785789
| 51> H        -1.801999   -1.894097    0.257352
| 52> C         1.644331   -1.010128   -0.891234
| 53> H         2.639939   -0.653521   -1.165024
| 54> H         1.131863   -1.366076   -1.785791
| 55> H         1.802004   -1.894094   -0.257356
| 56> *
| 57>
| 58> $new_job
| 59> ! ri-mp2 aug-cc-pvqz aug-cc-pvqz/c tightscf
| 60> %pal nprocs 16 end
| 61> %maxcore 3800
| 62> %base "QZ_B-B_1_AB"
| 63>
| 64> *xyz 0 1
| 65> B        -0.834893    0.000004   -0.000000
| 66> B         0.834893    0.000004    0.000000
| 67> C        -1.644328    1.010130   -0.891243
| 68> H        -1.802012    1.894095   -0.257368
| 69> H        -2.639932    0.653517   -1.165041
| 70> H        -1.131855    1.366079   -1.785796
| 71> C         1.644328    1.010127    0.891246
| 72> H         1.802006    1.894097    0.257377
| 73> H         2.639934    0.653515    1.165039
| 74> H         1.131856    1.366068    1.785803
| 75> C        -1.644331   -1.010131    0.891231
| 76> H        -2.639941   -0.653527    1.165018
| 77> H        -1.131865   -1.366077    1.785789
| 78> H        -1.801999   -1.894097    0.257352
| 79> C         1.644331   -1.010128   -0.891234
| 80> H         2.639939   -0.653521   -1.165024
| 81> H         1.131863   -1.366076   -1.785791
| 82> H         1.802004   -1.894094   -0.257356
| 83> *
| 84>
| 85>
| 86>
| 87>
| 88>                          ****END OF INPUT****
 Total Charge           Charge          ....    0
 Multiplicity           Mult            ....    1
 Number of Electrons    NEL             ....   46
MP2 TOTAL ENERGY:     -208.622384862 Eh
FINAL SINGLE POINT ENERGY      -208.622384862136
MP2 TOTAL ENERGY:     -208.827002204 Eh
FINAL SINGLE POINT ENERGY      -208.827002204261

CARTESIAN COORDINATES (ANGSTROEM)
---------------------------------
  B     -0.834893    0.000004   -0.000000
  B      0.834893    0.000004    0.000000
  C     -1.644328    1.010130   -0.891243
  H     -1.802012    1.894095   -0.257368
  H     -2.639932    0.653517   -1.165041
  H     -1.131855    1.366079   -1.785796
  C      1.644328    1.010127    0.891246
  H      1.802006    1.894097    0.257377
  H      2.639934    0.653515    1.165039
  H      1.131856    1.366068    1.785803
  C     -1.644331   -1.010131    0.891231
  H     -2.639941   -0.653527    1.165018
  H     -1.131865   -1.366077    1.785789
  H     -1.801999   -1.894097    0.257352
  C      1.644331   -1.010128   -0.891234
  H      2.639939   -0.653521   -1.165024
  H      1.131863   -1.366076   -1.785791
  H      1.802004   -1.894094   -0.257356

 Multiplicity           Mult            ....    1
 Number of Electrons    NEL             ....   46
 Basis Dimension        Dim             .... 1032

ORBITAL ENERGIES
----------------

  NO   OCC          E(Eh)            E(eV)
   0   2.0000     -11.187629      -304.4309
   1   2.0000     -11.187629      -304.4309
   2   2.0000     -11.187620      -304.4306
   3   2.0000     -11.187620      -304.4306
   4   2.0000      -7.557769      -205.6573
   5   2.0000      -7.556899      -205.6337
   6   2.0000      -0.970237       -26.4015
   7   2.0000      -0.953830       -25.9550
   8   2.0000      -0.917608       -24.9694
   9   2.0000      -0.915741       -24.9186
  10   2.0000      -0.658557       -17.9202
  11   2.0000      -0.584553       -15.9065
  12   2.0000      -0.576036       -15.6747
  13   2.0000      -0.555778       -15.1235
  14   2.0000      -0.554344       -15.0845
  15   2.0000      -0.535160       -14.5624
  16   2.0000      -0.531816       -14.4715
  17   2.0000      -0.529320       -14.4035
  18   2.0000      -0.526564       -14.3285
  19   2.0000      -0.515845       -14.0368
  20   2.0000      -0.445214       -12.1149
  21   2.0000      -0.444048       -12.0832
  22   2.0000      -0.372364       -10.1325
  23   0.0000       0.020522         0.5584
  24   0.0000       0.028742         0.7821
  25   0.0000       0.033109         0.9009
  26   0.0000       0.033183         0.9030
  27   0.0000       0.044615         1.2140

MULLIKEN ATOMIC CHARGES
-----------------------
   0 B :    0.480651
   1 B :    0.480651
   2 C :   -1.162816
   3 H :    0.271033
   4 H :    0.320490
   5 H :    0.330967
   6 C :   -1.162816
   7 H :    0.271034
   8 H :    0.320490
   9 H :    0.330968
  10 C :   -1.162819
  11 H :    0.320491
  12 H :    0.330968
  13 H :    0.271035
  14 C :   -1.162819
  15 H :    0.320492
  16 H :    0.330967
  17 H :    0.271034
Sum of atomic charges:    0.0000000

LOEWDIN ATOMIC CHARGES
----------------------
   0 B :   -0.352174
   1 B :   -0.352174
   2 C :    1.055421
   3 H :   -0.288422
   4 H :   -0.297781
   5 H :   -0.293131
   6 C :    1.055421
   7 H :   -0.288422
   8 H :   -0.297781
   9 H :   -0.293131
  10 C :    1.055421
  11 H :   -0.297782
  12 H :   -0.293131
  13 H :   -0.288421
  14 C :    1.055421
  15 H :   -0.297782
  16 H :   -0.293131
  17 H :   -0.288421

  Mayer bond orders larger than 0.100000
B(  0-B ,  1-B ) :   0.9810 B(  0-B ,  2-C ) :   0.8875 B(  0-B , 10-C ) :   0.8875
B(  1-B ,  6-C ) :   0.8875 B(  1-B , 14-C ) :   0.8875 B(  2-C ,  3-H ) :   0.9019
B(  2-C ,  4-H ) :   0.9012 B(  2-C ,  5-H ) :   0.9053 B(  6-C ,  7-H ) :   0.9019
B(  6-C ,  8-H ) :   0.9012 B(  6-C ,  9-H ) :   0.9053 B( 10-C , 11-H ) :   0.9012
B( 10-C , 12-H ) :   0.9053 B( 10-C , 13-H ) :   0.9019 B( 14-C , 15-H ) :   0.9012
B( 14-C , 16-H ) :   0.9053 B( 14-C , 17-H ) :   0.9019

MP2 TOTAL ENERGY:     -208.887637839 Eh
FINAL SINGLE POINT ENERGY      -208.887637839422

DIPOLE MOMENT
-------------
                                X             Y             Z
Electronic contribution:      0.00000       0.00003      -0.00000
Nuclear contribution   :     -0.00000      -0.00003       0.00000
                        -----------------------------------------
Total Dipole Moment    :     -0.00000       0.00000       0.00000
                        -----------------------------------------
Magnitude (a.u.)       :      0.00000
Magnitude (Debye)      :      0.00001

Rotational constants in cm-1:     0.130181     0.067950     0.063839
Rotational constants in MHz :  3902.742955  2037.078197  1913.848413

                             ****ORCA TERMINATED NORMALLY****
TOTAL RUN TIME: 0 days 2 hours 5 minutes 5 seconds 907 msec
