                         Program Version 5.0.4 -  RELEASE  -
|  1> ! ri-mp2 aug-cc-pvdz aug-cc-pvdz/c tightscf
|  2> %pal nprocs 16 end
|  3> %maxcore 3800
|  4> %base "DZ_S-F_47_AB"
|  5> %scf
|  6> STABPerform true
|  7> STABRestartUHFifUnstable true
|  8> end
|  9>
| 10> *xyz 0 1
| 11> F        -1.912235    0.927233    0.454939
| 12> S        -1.296731   -0.236156   -0.505867
| 13> S         0.356347   -0.805047    0.410485
| 14> S         1.906065    0.434864   -0.207751
| 15> H         1.759217    1.356316    0.755666
| 16> *
| 17>
| 18> $new_job
| 19> ! ri-mp2 aug-cc-pvtz aug-cc-pvtz/c tightscf
| 20> %pal nprocs 16 end
| 21> %maxcore 3800
| 22> %base "TZ_S-F_47_AB"
| 23>
| 24> *xyz 0 1
| 25> F        -1.912235    0.927233    0.454939
| 26> S        -1.296731   -0.236156   -0.505867
| 27> S         0.356347   -0.805047    0.410485
| 28> S         1.906065    0.434864   -0.207751
| 29> H         1.759217    1.356316    0.755666
| 30> *
| 31>
| 32> $new_job
| 33> ! ri-mp2 aug-cc-pvqz aug-cc-pvqz/c tightscf
| 34> %pal nprocs 16 end
| 35> %maxcore 3800
| 36> %base "QZ_S-F_47_AB"
| 37>
| 38> *xyz 0 1
| 39> F        -1.912235    0.927233    0.454939
| 40> S        -1.296731   -0.236156   -0.505867
| 41> S         0.356347   -0.805047    0.410485
| 42> S         1.906065    0.434864   -0.207751
| 43> H         1.759217    1.356316    0.755666
| 44> *
| 45>
| 46>
| 47>
| 48>
| 49>                          ****END OF INPUT****
 Total Charge           Charge          ....    0
 Multiplicity           Mult            ....    1
 Number of Electrons    NEL             ....   58
MP2 TOTAL ENERGY:    -1293.229401055 Eh
FINAL SINGLE POINT ENERGY     -1293.229401055037
MP2 TOTAL ENERGY:    -1293.476209708 Eh
FINAL SINGLE POINT ENERGY     -1293.476209707692

CARTESIAN COORDINATES (ANGSTROEM)
---------------------------------
  F     -1.912235    0.927233    0.454939
  S     -1.296731   -0.236156   -0.505867
  S      0.356347   -0.805047    0.410485
  S      1.906065    0.434864   -0.207751
  H      1.759217    1.356316    0.755666

 Multiplicity           Mult            ....    1
 Number of Electrons    NEL             ....   58
 Basis Dimension        Dim             ....  378

ORBITAL ENERGIES
----------------

  NO   OCC          E(Eh)            E(eV)
   0   2.0000     -92.065187     -2505.2211
   1   2.0000     -92.032659     -2504.3360
   2   2.0000     -92.001880     -2503.4984
   3   2.0000     -26.315820      -716.0899
   4   2.0000      -9.057902      -246.4780
   5   2.0000      -9.030979      -245.7454
   6   2.0000      -9.002926      -244.9821
   7   2.0000      -6.738962      -183.3765
   8   2.0000      -6.737320      -183.3318
   9   2.0000      -6.735882      -183.2927
  10   2.0000      -6.711935      -182.6410
  11   2.0000      -6.710571      -182.6039
  12   2.0000      -6.709953      -182.5871
  13   2.0000      -6.684055      -181.8824
  14   2.0000      -6.683119      -181.8569
  15   2.0000      -6.682101      -181.8292
  16   2.0000      -1.614212       -43.9250
  17   2.0000      -1.113771       -30.3072
  18   2.0000      -0.992391       -27.0043
  19   2.0000      -0.851253       -23.1638
  20   2.0000      -0.697714       -18.9858
  21   2.0000      -0.695971       -18.9383
  22   2.0000      -0.677409       -18.4332
  23   2.0000      -0.593185       -16.1414
  24   2.0000      -0.519055       -14.1242
  25   2.0000      -0.514860       -14.0101
  26   2.0000      -0.423781       -11.5317
  27   2.0000      -0.396353       -10.7853
  28   2.0000      -0.384232       -10.4555
  29   0.0000       0.028314         0.7705
  30   0.0000       0.043838         1.1929
  31   0.0000       0.049237         1.3398
  32   0.0000       0.060197         1.6380
  33   0.0000       0.071316         1.9406

MULLIKEN ATOMIC CHARGES
-----------------------
   0 F :   -0.575280
   1 S :    0.495071
   2 S :    0.076515
   3 S :   -0.120879
   4 H :    0.124573
Sum of atomic charges:   -0.0000000

LOEWDIN ATOMIC CHARGES
----------------------
   0 F :   -0.017055
   1 S :   -0.021953
   2 S :    0.030218
   3 S :    0.936310
   4 H :   -0.927520

  Mayer bond orders larger than 0.100000
B(  0-F ,  1-S ) :   0.6076 B(  1-S ,  2-S ) :   1.2612 B(  2-S ,  3-S ) :   1.0675
B(  3-S ,  4-H ) :   0.9700

MP2 TOTAL ENERGY:    -1293.558063326 Eh
FINAL SINGLE POINT ENERGY     -1293.558063325635

DIPOLE MOMENT
-------------
                                X             Y             Z
Electronic contribution:     -2.99055      -0.44868      -0.30771
Nuclear contribution   :      3.39192       0.43061       0.29600
                        -----------------------------------------
Total Dipole Moment    :      0.40138      -0.01807      -0.01171
                        -----------------------------------------
Magnitude (a.u.)       :      0.40195
Magnitude (Debye)      :      1.02168

Rotational constants in cm-1:     0.254619     0.063256     0.057381
Rotational constants in MHz :  7633.279757  1896.365645  1720.231380

                             ****ORCA TERMINATED NORMALLY****
TOTAL RUN TIME: 0 days 0 hours 7 minutes 30 seconds 628 msec
