                         Program Version 5.0.4 -  RELEASE  -
|  1> ! ri-mp2 aug-cc-pvdz aug-cc-pvdz/c tightscf
|  2> %pal nprocs 16 end
|  3> %maxcore 3800
|  4> %base "DZ_Si-F_24_AB"
|  5> %scf
|  6> STABPerform true
|  7> STABRestartUHFifUnstable true
|  8> end
|  9>
| 10> *xyz 0 1
| 11> C        -1.064710   -0.000004   -0.000018
| 12> F        -1.553781   -0.880816    0.886522
| 13> Si         0.840897   -0.000009   -0.000013
| 14> F        -1.553777    1.208152    0.319550
| 15> F         1.354333    0.387025    1.425444
| 16> F         1.354422   -1.427977   -0.377546
| 17> F         1.354384    1.040981   -1.047874
| 18> F        -1.553836   -0.327349   -1.206065
| 19> *
| 20>
| 21> $new_job
| 22> ! ri-mp2 aug-cc-pvtz aug-cc-pvtz/c tightscf
| 23> %pal nprocs 16 end
| 24> %maxcore 3800
| 25> %base "TZ_Si-F_24_AB"
| 26>
| 27> *xyz 0 1
| 28> C        -1.064710   -0.000004   -0.000018
| 29> F        -1.553781   -0.880816    0.886522
| 30> Si         0.840897   -0.000009   -0.000013
| 31> F        -1.553777    1.208152    0.319550
| 32> F         1.354333    0.387025    1.425444
| 33> F         1.354422   -1.427977   -0.377546
| 34> F         1.354384    1.040981   -1.047874
| 35> F        -1.553836   -0.327349   -1.206065
| 36> *
| 37>
| 38> $new_job
| 39> ! ri-mp2 aug-cc-pvqz aug-cc-pvqz/c tightscf
| 40> %pal nprocs 16 end
| 41> %maxcore 3800
| 42> %base "QZ_Si-F_24_AB"
| 43>
| 44> *xyz 0 1
| 45> C        -1.064710   -0.000004   -0.000018
| 46> F        -1.553781   -0.880816    0.886522
| 47> Si         0.840897   -0.000009   -0.000013
| 48> F        -1.553777    1.208152    0.319550
| 49> F         1.354333    0.387025    1.425444
| 50> F         1.354422   -1.427977   -0.377546
| 51> F         1.354384    1.040981   -1.047874
| 52> F        -1.553836   -0.327349   -1.206065
| 53> *
| 54>
| 55>
| 56>
| 57>
| 58>                          ****END OF INPUT****
 Total Charge           Charge          ....    0
 Multiplicity           Mult            ....    1
 Number of Electrons    NEL             ....   74
MP2 TOTAL ENERGY:     -925.141747154 Eh
FINAL SINGLE POINT ENERGY      -925.141747154060
MP2 TOTAL ENERGY:     -925.727339901 Eh
FINAL SINGLE POINT ENERGY      -925.727339901049

CARTESIAN COORDINATES (ANGSTROEM)
---------------------------------
  C     -1.064710   -0.000004   -0.000018
  F     -1.553781   -0.880816    0.886522
  Si     0.840897   -0.000009   -0.000013
  F     -1.553777    1.208152    0.319550
  F      1.354333    0.387025    1.425444
  F      1.354422   -1.427977   -0.377546
  F      1.354384    1.040981   -1.047874
  F     -1.553836   -0.327349   -1.206065

 Multiplicity           Mult            ....    1
 Number of Electrons    NEL             ....   74
 Basis Dimension        Dim             ....  644

ORBITAL ENERGIES
----------------

  NO   OCC          E(Eh)            E(eV)
   0   2.0000     -68.926021     -1875.5724
   1   2.0000     -26.358553      -717.2527
   2   2.0000     -26.358550      -717.2526
   3   2.0000     -26.358521      -717.2518
   4   2.0000     -26.346669      -716.9293
   5   2.0000     -26.346666      -716.9292
   6   2.0000     -26.346654      -716.9289
   7   2.0000     -11.516946      -313.3920
   8   2.0000      -6.261699      -170.3895
   9   2.0000      -4.370642      -118.9312
  10   2.0000      -4.370642      -118.9312
  11   2.0000      -4.369369      -118.8966
  12   2.0000      -1.749533       -47.6072
  13   2.0000      -1.672821       -45.5198
  14   2.0000      -1.655583       -45.0507
  15   2.0000      -1.655579       -45.0506
  16   2.0000      -1.644904       -44.7601
  17   2.0000      -1.644901       -44.7600
  18   2.0000      -1.000091       -27.2139
  19   2.0000      -0.881013       -23.9736
  20   2.0000      -0.842128       -22.9155
  21   2.0000      -0.842127       -22.9154
  22   2.0000      -0.828009       -22.5313
  23   2.0000      -0.782642       -21.2968
  24   2.0000      -0.782640       -21.2967
  25   2.0000      -0.742694       -20.2097
  26   2.0000      -0.732456       -19.9311
  27   2.0000      -0.732455       -19.9311
  28   2.0000      -0.729338       -19.8463
  29   2.0000      -0.729338       -19.8463
  30   2.0000      -0.706327       -19.2201
  31   2.0000      -0.706325       -19.2201
  32   2.0000      -0.688435       -18.7333
  33   2.0000      -0.684595       -18.6288
  34   2.0000      -0.684593       -18.6287
  35   2.0000      -0.670480       -18.2447
  36   2.0000      -0.554135       -15.0788
  37   0.0000       0.037513         1.0208
  38   0.0000       0.040325         1.0973
  39   0.0000       0.040976         1.1150
  40   0.0000       0.040977         1.1150
  41   0.0000       0.078788         2.1439

MULLIKEN ATOMIC CHARGES
-----------------------
   0 C :    1.447898
   1 F :   -0.598055
   2 Si:    2.393632
   3 F :   -0.598056
   4 F :   -0.682454
   5 F :   -0.682451
   6 F :   -0.682453
   7 F :   -0.598060
Sum of atomic charges:    0.0000000

LOEWDIN ATOMIC CHARGES
----------------------
   0 C :   -2.119351
   1 F :    0.689434
   2 Si:   -1.340492
   3 F :    0.689446
   4 F :    0.463841
   5 F :    0.463841
   6 F :    0.463838
   7 F :    0.689443

  Mayer bond orders larger than 0.100000
B(  0-C ,  1-F ) :   0.5616 B(  0-C ,  2-Si) :   0.8081 B(  0-C ,  3-F ) :   0.5616
B(  0-C ,  7-F ) :   0.5616 B(  2-Si,  4-F ) :   0.5117 B(  2-Si,  5-F ) :   0.5117
B(  2-Si,  6-F ) :   0.5117

MP2 TOTAL ENERGY:     -925.921463692 Eh
FINAL SINGLE POINT ENERGY      -925.921463692096

DIPOLE MOMENT
-------------
                                X             Y             Z
Electronic contribution:     -0.18832      -0.00002      -0.00005
Nuclear contribution   :      0.48686      -0.00001      -0.00003
                        -----------------------------------------
Total Dipole Moment    :      0.29854      -0.00004      -0.00007
                        -----------------------------------------
Magnitude (a.u.)       :      0.29854
Magnitude (Debye)      :      0.75883

Rotational constants in cm-1:     0.079013     0.044096     0.044096
Rotational constants in MHz :  2368.751338  1321.958907  1321.953925

                             ****ORCA TERMINATED NORMALLY****
TOTAL RUN TIME: 0 days 0 hours 37 minutes 16 seconds 881 msec
