                         Program Version 5.0.4 -  RELEASE  -
|  1> ! ri-mp2 aug-cc-pvdz aug-cc-pvdz/c tightscf
|  2> %pal nprocs 16 end
|  3> %maxcore 3800
|  4> %base "DZ_P-Si_1_AB"
|  5> %scf
|  6> STABPerform true
|  7> STABRestartUHFifUnstable true
|  8> end
|  9>
| 10> *xyz 0 1
| 11> P        -2.038922   -0.887538   -0.193580
| 12> Si        -0.848606    1.001090    0.144056
| 13> C         3.100992   -0.542480   -0.077955
| 14> C         0.923799    0.729636   -0.396316
| 15> C         1.651420   -0.384517    0.355499
| 16> H         1.462899    1.673951   -0.271276
| 17> H         0.929145    0.518702   -1.469858
| 18> H         1.126983   -1.332080    0.204920
| 19> H         1.613745   -0.187179    1.430547
| 20> H         3.662310    0.377479    0.095128
| 21> H         3.166153   -0.773544   -1.142694
| 22> H         3.596781   -1.344979    0.469541
| 23> H        -3.210052   -0.397980    0.430021
| 24> H        -1.573063   -1.542762    0.970220
| 25> H        -0.884203    1.433292    1.561709
| 26> H        -1.483651    2.057083   -0.678708
| 27> *
| 28>
| 29> $new_job
| 30> ! ri-mp2 aug-cc-pvtz aug-cc-pvtz/c tightscf
| 31> %pal nprocs 16 end
| 32> %maxcore 3800
| 33> %base "TZ_P-Si_1_AB"
| 34>
| 35> *xyz 0 1
| 36> P        -2.038922   -0.887538   -0.193580
| 37> Si        -0.848606    1.001090    0.144056
| 38> C         3.100992   -0.542480   -0.077955
| 39> C         0.923799    0.729636   -0.396316
| 40> C         1.651420   -0.384517    0.355499
| 41> H         1.462899    1.673951   -0.271276
| 42> H         0.929145    0.518702   -1.469858
| 43> H         1.126983   -1.332080    0.204920
| 44> H         1.613745   -0.187179    1.430547
| 45> H         3.662310    0.377479    0.095128
| 46> H         3.166153   -0.773544   -1.142694
| 47> H         3.596781   -1.344979    0.469541
| 48> H        -3.210052   -0.397980    0.430021
| 49> H        -1.573063   -1.542762    0.970220
| 50> H        -0.884203    1.433292    1.561709
| 51> H        -1.483651    2.057083   -0.678708
| 52> *
| 53>
| 54> $new_job
| 55> ! ri-mp2 aug-cc-pvqz aug-cc-pvqz/c tightscf
| 56> %pal nprocs 16 end
| 57> %maxcore 3800
| 58> %base "QZ_P-Si_1_AB"
| 59>
| 60> *xyz 0 1
| 61> P        -2.038922   -0.887538   -0.193580
| 62> Si        -0.848606    1.001090    0.144056
| 63> C         3.100992   -0.542480   -0.077955
| 64> C         0.923799    0.729636   -0.396316
| 65> C         1.651420   -0.384517    0.355499
| 66> H         1.462899    1.673951   -0.271276
| 67> H         0.929145    0.518702   -1.469858
| 68> H         1.126983   -1.332080    0.204920
| 69> H         1.613745   -0.187179    1.430547
| 70> H         3.662310    0.377479    0.095128
| 71> H         3.166153   -0.773544   -1.142694
| 72> H         3.596781   -1.344979    0.469541
| 73> H        -3.210052   -0.397980    0.430021
| 74> H        -1.573063   -1.542762    0.970220
| 75> H        -0.884203    1.433292    1.561709
| 76> H        -1.483651    2.057083   -0.678708
| 77> *
| 78>
| 79>
| 80>
| 81>
| 82>                          ****END OF INPUT****
 Total Charge           Charge          ....    0
 Multiplicity           Mult            ....    1
 Number of Electrons    NEL             ....   58
MP2 TOTAL ENERGY:     -750.392892000 Eh
FINAL SINGLE POINT ENERGY      -750.392891999889
MP2 TOTAL ENERGY:     -750.592534469 Eh
FINAL SINGLE POINT ENERGY      -750.592534469466

CARTESIAN COORDINATES (ANGSTROEM)
---------------------------------
  P     -2.038922   -0.887538   -0.193580
  Si    -0.848606    1.001090    0.144056
  C      3.100992   -0.542480   -0.077955
  C      0.923799    0.729636   -0.396316
  C      1.651420   -0.384517    0.355499
  H      1.462899    1.673951   -0.271276
  H      0.929145    0.518702   -1.469858
  H      1.126983   -1.332080    0.204920
  H      1.613745   -0.187179    1.430547
  H      3.662310    0.377479    0.095128
  H      3.166153   -0.773544   -1.142694
  H      3.596781   -1.344979    0.469541
  H     -3.210052   -0.397980    0.430021
  H     -1.573063   -1.542762    0.970220
  H     -0.884203    1.433292    1.561709
  H     -1.483651    2.057083   -0.678708

 Multiplicity           Mult            ....    1
 Number of Electrons    NEL             ....   58
 Basis Dimension        Dim             ....  914

ORBITAL ENERGIES
----------------

  NO   OCC          E(Eh)            E(eV)
   0   2.0000     -79.927324     -2174.9331
   1   2.0000     -68.769564     -1871.3150
   2   2.0000     -11.228033      -305.5303
   3   2.0000     -11.213596      -305.1375
   4   2.0000     -11.211393      -305.0775
   5   2.0000      -7.472299      -203.3316
   6   2.0000      -6.118974      -166.5057
   7   2.0000      -5.366211      -146.0220
   8   2.0000      -5.365866      -146.0126
   9   2.0000      -5.365261      -145.9962
  10   2.0000      -4.225392      -114.9788
  11   2.0000      -4.225064      -114.9698
  12   2.0000      -4.224696      -114.9598
  13   2.0000      -1.063513       -28.9397
  14   2.0000      -0.934523       -25.4297
  15   2.0000      -0.847380       -23.0584
  16   2.0000      -0.810701       -22.0603
  17   2.0000      -0.676227       -18.4011
  18   2.0000      -0.637023       -17.3343
  19   2.0000      -0.579458       -15.7678
  20   2.0000      -0.553896       -15.0723
  21   2.0000      -0.546201       -14.8629
  22   2.0000      -0.518964       -14.1217
  23   2.0000      -0.492068       -13.3899
  24   2.0000      -0.481172       -13.0933
  25   2.0000      -0.473366       -12.8810
  26   2.0000      -0.444808       -12.1039
  27   2.0000      -0.419013       -11.4019
  28   2.0000      -0.361200        -9.8287
  29   0.0000       0.024126         0.6565
  30   0.0000       0.031062         0.8452
  31   0.0000       0.032158         0.8751
  32   0.0000       0.034486         0.9384
  33   0.0000       0.046500         1.2653

MULLIKEN ATOMIC CHARGES
-----------------------
   0 P :   -0.008358
   1 Si:    0.812376
   2 C :   -0.834770
   3 C :   -0.587598
   4 C :   -0.345071
   5 H :    0.271263
   6 H :    0.198997
   7 H :    0.251274
   8 H :    0.232284
   9 H :    0.218294
  10 H :    0.228512
  11 H :    0.253477
  12 H :   -0.093942
  13 H :   -0.056432
  14 H :   -0.230067
  15 H :   -0.310239
Sum of atomic charges:    0.0000000

LOEWDIN ATOMIC CHARGES
----------------------
   0 P :    1.428921
   1 Si:    0.522026
   2 C :    0.923628
   3 C :    0.449040
   4 C :    0.410980
   5 H :   -0.338650
   6 H :   -0.341707
   7 H :   -0.304445
   8 H :   -0.285533
   9 H :   -0.285167
  10 H :   -0.284161
  11 H :   -0.281188
  12 H :   -0.562027
  13 H :   -0.551270
  14 H :   -0.240885
  15 H :   -0.259564

  Mayer bond orders larger than 0.100000
B(  0-P ,  1-Si) :   0.8088 B(  0-P , 12-H ) :   0.9169 B(  0-P , 13-H ) :   0.9030
B(  1-Si,  3-C ) :   0.8651 B(  1-Si, 14-H ) :   0.7781 B(  1-Si, 15-H ) :   0.7474
B(  2-C ,  4-C ) :   0.9173 B(  2-C ,  9-H ) :   0.9682 B(  2-C , 10-H ) :   0.9540
B(  2-C , 11-H ) :   1.0080 B(  3-C ,  4-C ) :   0.8648 B(  3-C ,  5-H ) :   0.9096
B(  3-C ,  6-H ) :   0.9464 B(  4-C ,  7-H ) :   0.8670 B(  4-C ,  8-H ) :   0.8899

MP2 TOTAL ENERGY:     -750.653521239 Eh
FINAL SINGLE POINT ENERGY      -750.653521239420

DIPOLE MOMENT
-------------
                                X             Y             Z
Electronic contribution:    -10.29760      -1.15553      -1.61834
Nuclear contribution   :     10.66947       1.29924       1.82109
                        -----------------------------------------
Total Dipole Moment    :      0.37186       0.14371       0.20275
                        -----------------------------------------
Magnitude (a.u.)       :      0.44726
Magnitude (Debye)      :      1.13685

Rotational constants in cm-1:     0.176417     0.044221     0.037735
Rotational constants in MHz :  5288.840292  1325.708627  1131.278337

                             ****ORCA TERMINATED NORMALLY****
TOTAL RUN TIME: 0 days 0 hours 57 minutes 33 seconds 780 msec
