                         Program Version 5.0.4 -  RELEASE  -
|  1> ! ri-mp2 aug-cc-pvdz aug-cc-pvdz/c tightscf
|  2> %pal nprocs 16 end
|  3> %maxcore 3800
|  4> %base "DZ_P-Cl_22_AB"
|  5> %scf
|  6> STABPerform true
|  7> STABRestartUHFifUnstable true
|  8> end
|  9>
| 10> *xyz 0 1
| 11> Cl        -1.974640   -0.493992    0.000000
| 12> P        -0.041107   -1.287686    0.000000
| 13> C         0.692117   -0.340618    1.395341
| 14> C         0.692117    1.178169    1.270987
| 15> C         1.373629    1.671097    0.000000
| 16> C         0.692117    1.178169   -1.270987
| 17> C         0.692117   -0.340618   -1.395341
| 18> H         1.719889   -0.716315    1.463483
| 19> H         0.188525   -0.664934    2.306943
| 20> H         1.190648    1.604868   -2.144183
| 21> H        -0.337874    1.539972   -1.293978
| 22> H         1.719889   -0.716315   -1.463483
| 23> H         0.188525   -0.664934   -2.306943
| 24> H         1.190648    1.604868    2.144183
| 25> H        -0.337874    1.539972    1.293978
| 26> H         2.420085    1.346383    0.000000
| 27> H         1.390446    2.762398    0.000000
| 28> *
| 29>
| 30> $new_job
| 31> ! ri-mp2 aug-cc-pvtz aug-cc-pvtz/c tightscf
| 32> %pal nprocs 16 end
| 33> %maxcore 3800
| 34> %base "TZ_P-Cl_22_AB"
| 35>
| 36> *xyz 0 1
| 37> Cl        -1.974640   -0.493992    0.000000
| 38> P        -0.041107   -1.287686    0.000000
| 39> C         0.692117   -0.340618    1.395341
| 40> C         0.692117    1.178169    1.270987
| 41> C         1.373629    1.671097    0.000000
| 42> C         0.692117    1.178169   -1.270987
| 43> C         0.692117   -0.340618   -1.395341
| 44> H         1.719889   -0.716315    1.463483
| 45> H         0.188525   -0.664934    2.306943
| 46> H         1.190648    1.604868   -2.144183
| 47> H        -0.337874    1.539972   -1.293978
| 48> H         1.719889   -0.716315   -1.463483
| 49> H         0.188525   -0.664934   -2.306943
| 50> H         1.190648    1.604868    2.144183
| 51> H        -0.337874    1.539972    1.293978
| 52> H         2.420085    1.346383    0.000000
| 53> H         1.390446    2.762398    0.000000
| 54> *
| 55>
| 56> $new_job
| 57> ! ri-mp2 aug-cc-pvqz aug-cc-pvqz/c tightscf
| 58> %pal nprocs 16 end
| 59> %maxcore 3800
| 60> %base "QZ_P-Cl_22_AB"
| 61>
| 62> *xyz 0 1
| 63> Cl        -1.974640   -0.493992    0.000000
| 64> P        -0.041107   -1.287686    0.000000
| 65> C         0.692117   -0.340618    1.395341
| 66> C         0.692117    1.178169    1.270987
| 67> C         1.373629    1.671097    0.000000
| 68> C         0.692117    1.178169   -1.270987
| 69> C         0.692117   -0.340618   -1.395341
| 70> H         1.719889   -0.716315    1.463483
| 71> H         0.188525   -0.664934    2.306943
| 72> H         1.190648    1.604868   -2.144183
| 73> H        -0.337874    1.539972   -1.293978
| 74> H         1.719889   -0.716315   -1.463483
| 75> H         0.188525   -0.664934   -2.306943
| 76> H         1.190648    1.604868    2.144183
| 77> H        -0.337874    1.539972    1.293978
| 78> H         2.420085    1.346383    0.000000
| 79> H         1.390446    2.762398    0.000000
| 80> *
| 81>
| 82>
| 83>
| 84>
| 85>                          ****END OF INPUT****
 Total Charge           Charge          ....    0
 Multiplicity           Mult            ....    1
 Number of Electrons    NEL             ....   72
MP2 TOTAL ENERGY:     -996.473932125 Eh
FINAL SINGLE POINT ENERGY      -996.473932125141
MP2 TOTAL ENERGY:     -996.766072728 Eh
FINAL SINGLE POINT ENERGY      -996.766072728166

CARTESIAN COORDINATES (ANGSTROEM)
---------------------------------
  Cl    -1.974640   -0.493992    0.000000
  P     -0.041107   -1.287686    0.000000
  C      0.692117   -0.340618    1.395341
  C      0.692117    1.178169    1.270987
  C      1.373629    1.671097    0.000000
  C      0.692117    1.178169   -1.270987
  C      0.692117   -0.340618   -1.395341
  H      1.719889   -0.716315    1.463483
  H      0.188525   -0.664934    2.306943
  H      1.190648    1.604868   -2.144183
  H     -0.337874    1.539972   -1.293978
  H      1.719889   -0.716315   -1.463483
  H      0.188525   -0.664934   -2.306943
  H      1.190648    1.604868    2.144183
  H     -0.337874    1.539972    1.293978
  H      2.420085    1.346383    0.000000
  H      1.390446    2.762398    0.000000

 Multiplicity           Mult            ....    1
 Number of Electrons    NEL             ....   72
 Basis Dimension        Dim             .... 1028

ORBITAL ENERGIES
----------------

  NO   OCC          E(Eh)            E(eV)
   0   2.0000    -104.815296     -2852.1692
   1   2.0000     -79.977518     -2176.2989
   2   2.0000     -11.234248      -305.6994
   3   2.0000     -11.234239      -305.6992
   4   2.0000     -11.226558      -305.4902
   5   2.0000     -11.226495      -305.4885
   6   2.0000     -11.223779      -305.4145
   7   2.0000     -10.541872      -286.8589
   8   2.0000      -8.008700      -217.9278
   9   2.0000      -8.007411      -217.8927
  10   2.0000      -8.007326      -217.8904
  11   2.0000      -7.515362      -204.5034
  12   2.0000      -5.409309      -147.1948
  13   2.0000      -5.408080      -147.1613
  14   2.0000      -5.407031      -147.1328
  15   2.0000      -1.122602       -30.5476
  16   2.0000      -1.079711       -29.3804
  17   2.0000      -1.022495       -27.8235
  18   2.0000      -0.969658       -26.3857
  19   2.0000      -0.847571       -23.0636
  20   2.0000      -0.807471       -21.9724
  21   2.0000      -0.724940       -19.7266
  22   2.0000      -0.647918       -17.6307
  23   2.0000      -0.617899       -16.8139
  24   2.0000      -0.611921       -16.6512
  25   2.0000      -0.583937       -15.8897
  26   2.0000      -0.549343       -14.9484
  27   2.0000      -0.532342       -14.4858
  28   2.0000      -0.511916       -13.9300
  29   2.0000      -0.501581       -13.6487
  30   2.0000      -0.489516       -13.3204
  31   2.0000      -0.470322       -12.7981
  32   2.0000      -0.459796       -12.5117
  33   2.0000      -0.454425       -12.3655
  34   2.0000      -0.416385       -11.3304
  35   2.0000      -0.345274        -9.3954
  36   0.0000       0.023330         0.6348
  37   0.0000       0.028905         0.7866
  38   0.0000       0.031142         0.8474
  39   0.0000       0.036433         0.9914
  40   0.0000       0.046165         1.2562

MULLIKEN ATOMIC CHARGES
-----------------------
   0 Cl:   -0.618655
   1 P :    0.687024
   2 C :   -0.639951
   3 C :   -0.416125
   4 C :   -0.443669
   5 C :   -0.416125
   6 C :   -0.639951
   7 H :    0.208989
   8 H :    0.293866
   9 H :    0.270094
  10 H :    0.242924
  11 H :    0.208989
  12 H :    0.293866
  13 H :    0.270094
  14 H :    0.242924
  15 H :    0.201826
  16 H :    0.253884
Sum of atomic charges:    0.0000000

LOEWDIN ATOMIC CHARGES
----------------------
   0 Cl:    0.791391
   1 P :    0.308364
   2 C :    0.308650
   3 C :    0.442995
   4 C :    0.499400
   5 C :    0.442995
   6 C :    0.308650
   7 H :   -0.349468
   8 H :   -0.357318
   9 H :   -0.265992
  10 H :   -0.313330
  11 H :   -0.349468
  12 H :   -0.357318
  13 H :   -0.265992
  14 H :   -0.313330
  15 H :   -0.267630
  16 H :   -0.262600

  Mayer bond orders larger than 0.100000
B(  0-Cl,  1-P ) :   0.7316 B(  0-Cl,  2-C ) :  -0.1046 B(  0-Cl,  6-C ) :  -0.1046
B(  1-P ,  2-C ) :   0.7691 B(  1-P ,  6-C ) :   0.7691 B(  2-C ,  3-C ) :   0.9174
B(  2-C ,  7-H ) :   0.9253 B(  2-C ,  8-H ) :   0.9627 B(  3-C ,  4-C ) :   0.9020
B(  3-C , 13-H ) :   0.8960 B(  3-C , 14-H ) :   0.9163 B(  4-C ,  5-C ) :   0.9020
B(  4-C , 15-H ) :   0.9330 B(  4-C , 16-H ) :   0.9433 B(  5-C ,  6-C ) :   0.9174
B(  5-C ,  9-H ) :   0.8960 B(  5-C , 10-H ) :   0.9163 B(  6-C , 11-H ) :   0.9253
B(  6-C , 12-H ) :   0.9627

MP2 TOTAL ENERGY:     -996.857168782 Eh
FINAL SINGLE POINT ENERGY      -996.857168782163

DIPOLE MOMENT
-------------
                                X             Y             Z
Electronic contribution:    -11.08547      -8.99567      -0.00000
Nuclear contribution   :     12.07734       9.47510      -0.00000
                        -----------------------------------------
Total Dipole Moment    :      0.99186       0.47943      -0.00000
                        -----------------------------------------
Magnitude (a.u.)       :      1.10166
Magnitude (Debye)      :      2.80019

Rotational constants in cm-1:     0.083966     0.048122     0.044825
Rotational constants in MHz :  2517.244387  1442.674093  1343.830202

                             ****ORCA TERMINATED NORMALLY****
TOTAL RUN TIME: 0 days 2 hours 22 minutes 14 seconds 102 msec
