                         Program Version 5.0.4 -  RELEASE  -
|  1> ! ri-mp2 aug-cc-pvdz aug-cc-pvdz/c tightscf
|  2> %pal nprocs 16 end
|  3> %maxcore 3800
|  4> %base "DZ_P-N_55_AB"
|  5>
|  6> *xyz 0 1
|  7> C         0.410961   -0.113773    0.527934
|  8> N        -2.320351    0.157232   -0.202895
|  9> F        -2.191153   -0.860073   -1.148074
| 10> F        -1.773276    1.249724   -0.874942
| 11> C         1.100542   -1.256276    0.131876
| 12> C         1.036093    1.126598    0.424744
| 13> C         2.386352   -1.161203   -0.370470
| 14> C         2.998325    0.076319   -0.467219
| 15> C         2.324188    1.219475   -0.066813
| 16> H         2.803193    2.186333   -0.143187
| 17> H         0.508555    2.022413    0.722610
| 18> H         2.912148   -2.054029   -0.680680
| 19> H         4.005901    0.152001   -0.854153
| 20> H         0.626069   -2.225671    0.217236
| 21> P        -1.269153   -0.331214    1.167719
| 22> H        -1.435018    0.932847    1.769488
| 23> *
| 24>
| 25> $new_job
| 26> ! ri-mp2 aug-cc-pvtz aug-cc-pvtz/c tightscf
| 27> %pal nprocs 16 end
| 28> %maxcore 3800
| 29> %base "TZ_P-N_55_AB"
| 30>
| 31> *xyz 0 1
| 32> C         0.410961   -0.113773    0.527934
| 33> N        -2.320351    0.157232   -0.202895
| 34> F        -2.191153   -0.860073   -1.148074
| 35> F        -1.773276    1.249724   -0.874942
| 36> C         1.100542   -1.256276    0.131876
| 37> C         1.036093    1.126598    0.424744
| 38> C         2.386352   -1.161203   -0.370470
| 39> C         2.998325    0.076319   -0.467219
| 40> C         2.324188    1.219475   -0.066813
| 41> H         2.803193    2.186333   -0.143187
| 42> H         0.508555    2.022413    0.722610
| 43> H         2.912148   -2.054029   -0.680680
| 44> H         4.005901    0.152001   -0.854153
| 45> H         0.626069   -2.225671    0.217236
| 46> P        -1.269153   -0.331214    1.167719
| 47> H        -1.435018    0.932847    1.769488
| 48> *
| 49>
| 50> $new_job
| 51> ! ri-mp2 aug-cc-pvqz aug-cc-pvqz/c tightscf
| 52> %pal nprocs 16 end
| 53> %maxcore 3800
| 54> %base "QZ_P-N_55_AB"
| 55>
| 56> *xyz 0 1
| 57> C         0.410961   -0.113773    0.527934
| 58> N        -2.320351    0.157232   -0.202895
| 59> F        -2.191153   -0.860073   -1.148074
| 60> F        -1.773276    1.249724   -0.874942
| 61> C         1.100542   -1.256276    0.131876
| 62> C         1.036093    1.126598    0.424744
| 63> C         2.386352   -1.161203   -0.370470
| 64> C         2.998325    0.076319   -0.467219
| 65> C         2.324188    1.219475   -0.066813
| 66> H         2.803193    2.186333   -0.143187
| 67> H         0.508555    2.022413    0.722610
| 68> H         2.912148   -2.054029   -0.680680
| 69> H         4.005901    0.152001   -0.854153
| 70> H         0.626069   -2.225671    0.217236
| 71> P        -1.269153   -0.331214    1.167719
| 72> H        -1.435018    0.932847    1.769488
| 73> *
| 74>
| 75>
| 76>
| 77>
| 78>                          ****END OF INPUT****
 Total Charge           Charge          ....    0
 Multiplicity           Mult            ....    1
 Number of Electrons    NEL             ....   82
MP2 TOTAL ENERGY:     -826.182252041 Eh
FINAL SINGLE POINT ENERGY      -826.182252040821
MP2 TOTAL ENERGY:     -826.635169894 Eh
FINAL SINGLE POINT ENERGY      -826.635169894340

CARTESIAN COORDINATES (ANGSTROEM)
---------------------------------
  C      0.410961   -0.113773    0.527934
  N     -2.320351    0.157232   -0.202895
  F     -2.191153   -0.860073   -1.148074
  F     -1.773276    1.249724   -0.874942
  C      1.100542   -1.256276    0.131876
  C      1.036093    1.126598    0.424744
  C      2.386352   -1.161203   -0.370470
  C      2.998325    0.076319   -0.467219
  C      2.324188    1.219475   -0.066813
  H      2.803193    2.186333   -0.143187
  H      0.508555    2.022413    0.722610
  H      2.912148   -2.054029   -0.680680
  H      4.005901    0.152001   -0.854153
  H      0.626069   -2.225671    0.217236
  P     -1.269153   -0.331214    1.167719
  H     -1.435018    0.932847    1.769488

 Multiplicity           Mult            ....    1
 Number of Electrons    NEL             ....   82
 Basis Dimension        Dim             .... 1080

ORBITAL ENERGIES
----------------

  NO   OCC          E(Eh)            E(eV)
   0   2.0000     -79.990668     -2176.6567
   1   2.0000     -26.328515      -716.4353
   2   2.0000     -26.327070      -716.3960
   3   2.0000     -15.746419      -428.4819
   4   2.0000     -11.256805      -306.3132
   5   2.0000     -11.256391      -306.3020
   6   2.0000     -11.254368      -306.2469
   7   2.0000     -11.253817      -306.2319
   8   2.0000     -11.246947      -306.0450
   9   2.0000     -11.246759      -306.0399
  10   2.0000      -7.530849      -204.9248
  11   2.0000      -5.424617      -147.6113
  12   2.0000      -5.424087      -147.5969
  13   2.0000      -5.423071      -147.5693
  14   2.0000      -1.676737       -45.6263
  15   2.0000      -1.591892       -43.3176
  16   2.0000      -1.177560       -32.0430
  17   2.0000      -1.108048       -30.1515
  18   2.0000      -1.041326       -28.3359
  19   2.0000      -1.037595       -28.2344
  20   2.0000      -0.885218       -24.0880
  21   2.0000      -0.847824       -23.0705
  22   2.0000      -0.816876       -22.2283
  23   2.0000      -0.753260       -20.4973
  24   2.0000      -0.750596       -20.4248
  25   2.0000      -0.736793       -20.0492
  26   2.0000      -0.704435       -19.1686
  27   2.0000      -0.675334       -18.3768
  28   2.0000      -0.650269       -17.6947
  29   2.0000      -0.644891       -17.5484
  30   2.0000      -0.629253       -17.1228
  31   2.0000      -0.607770       -16.5383
  32   2.0000      -0.605777       -16.4840
  33   2.0000      -0.563135       -15.3237
  34   2.0000      -0.527007       -14.3406
  35   2.0000      -0.516404       -14.0521
  36   2.0000      -0.508539       -13.8381
  37   2.0000      -0.455671       -12.3994
  38   2.0000      -0.406173       -11.0525
  39   2.0000      -0.358939        -9.7672
  40   2.0000      -0.356276        -9.6948
  41   0.0000       0.020982         0.5710
  42   0.0000       0.027202         0.7402
  43   0.0000       0.030375         0.8266
  44   0.0000       0.041052         1.1171
  45   0.0000       0.043929         1.1954

MULLIKEN ATOMIC CHARGES
-----------------------
   0 C :   -0.202473
   1 N :    0.220266
   2 F :   -0.406058
   3 F :   -0.408689
   4 C :   -0.189210
   5 C :   -0.348945
   6 C :   -0.317048
   7 C :   -0.304217
   8 C :   -0.341648
   9 H :    0.249523
  10 H :    0.376153
  11 H :    0.249251
  12 H :    0.352257
  13 H :    0.392770
  14 P :    0.790882
  15 H :   -0.112814
Sum of atomic charges:   -0.0000000

LOEWDIN ATOMIC CHARGES
----------------------
   0 C :   -0.323091
   1 N :   -0.872680
   2 F :    0.388987
   3 F :    0.409551
   4 C :    0.229651
   5 C :    0.240752
   6 C :    0.344410
   7 C :    0.342710
   8 C :    0.347080
   9 H :   -0.318699
  10 H :   -0.344994
  11 H :   -0.319149
  12 H :   -0.314875
  13 H :   -0.343859
  14 P :    0.993849
  15 H :   -0.459643

  Mayer bond orders larger than 0.100000
B(  0-C ,  4-C ) :   0.8531 B(  0-C ,  5-C ) :   0.8540 B(  0-C ,  6-C ) :  -0.2574
B(  0-C ,  8-C ) :  -0.2695 B(  0-C , 10-H ) :  -0.1000 B(  0-C , 13-H ) :  -0.1539
B(  0-C , 14-P ) :   0.9530 B(  0-C , 15-H ) :  -0.1406 B(  1-N ,  2-F ) :   0.6978
B(  1-N ,  3-F ) :   0.6847 B(  1-N , 14-P ) :   0.5267 B(  4-C ,  6-C ) :   1.3311
B(  4-C ,  8-C ) :   0.1257 B(  4-C , 11-H ) :  -0.1257 B(  4-C , 13-H ) :   0.8951
B(  4-C , 14-P ) :  -0.2488 B(  5-C ,  6-C ) :   0.1266 B(  5-C ,  7-C ) :   0.1173
B(  5-C ,  8-C ) :   1.3480 B(  5-C ,  9-H ) :  -0.1304 B(  5-C , 10-H ) :   0.8953
B(  6-C ,  7-C ) :   1.1236 B(  6-C ,  8-C ) :  -0.1099 B(  6-C , 11-H ) :   1.1134
B(  7-C ,  8-C ) :   1.1262 B(  7-C , 12-H ) :   0.9813 B(  8-C ,  9-H ) :   1.1154
B( 14-P , 15-H ) :   0.9408

MP2 TOTAL ENERGY:     -826.782411295 Eh
FINAL SINGLE POINT ENERGY      -826.782411294626

DIPOLE MOMENT
-------------
                                X             Y             Z
Electronic contribution:    -12.67957      -0.78080      -1.25614
Nuclear contribution   :     13.89170       0.90383       1.83162
                        -----------------------------------------
Total Dipole Moment    :      1.21214       0.12303       0.57548
                        -----------------------------------------
Magnitude (a.u.)       :      1.34744
Magnitude (Debye)      :      3.42491

Rotational constants in cm-1:     0.072602     0.024863     0.023520
Rotational constants in MHz :  2176.562860   745.383958   705.100854

                             ****ORCA TERMINATED NORMALLY****
TOTAL RUN TIME: 0 days 0 hours 31 minutes 20 seconds 338 msec
