                         Program Version 5.0.4 -  RELEASE  -
|  1> ! ri-mp2 aug-cc-pvdz aug-cc-pvdz/c tightscf
|  2> %pal nprocs 16 end
|  3> %maxcore 3800
|  4> %base "DZ_S-F_78_AB"
|  5>
|  6> *xyz 0 1
|  7> F         2.433207    0.000005    1.013543
|  8> S         1.887738   -0.000003   -0.528499
|  9> C         0.158942    0.000000   -0.236584
| 10> C        -0.530355    1.204466   -0.132734
| 11> H         0.015061    2.133891   -0.219894
| 12> C        -1.896170    1.202581    0.081388
| 13> H        -2.431652    2.138737    0.162912
| 14> C        -2.576500    0.000001    0.188311
| 15> C        -0.530356   -1.204466   -0.132731
| 16> H         0.015060   -2.133892   -0.219889
| 17> C        -1.896170   -1.202580    0.081391
| 18> H        -2.431654   -2.138735    0.162919
| 19> H        -3.645838    0.000001    0.353800
| 20> *
| 21>
| 22> $new_job
| 23> ! ri-mp2 aug-cc-pvtz aug-cc-pvtz/c tightscf
| 24> %pal nprocs 16 end
| 25> %maxcore 3800
| 26> %base "TZ_S-F_78_AB"
| 27>
| 28> *xyz 0 1
| 29> F         2.433207    0.000005    1.013543
| 30> S         1.887738   -0.000003   -0.528499
| 31> C         0.158942    0.000000   -0.236584
| 32> C        -0.530355    1.204466   -0.132734
| 33> H         0.015061    2.133891   -0.219894
| 34> C        -1.896170    1.202581    0.081388
| 35> H        -2.431652    2.138737    0.162912
| 36> C        -2.576500    0.000001    0.188311
| 37> C        -0.530356   -1.204466   -0.132731
| 38> H         0.015060   -2.133892   -0.219889
| 39> C        -1.896170   -1.202580    0.081391
| 40> H        -2.431654   -2.138735    0.162919
| 41> H        -3.645838    0.000001    0.353800
| 42> *
| 43>
| 44> $new_job
| 45> ! ri-mp2 aug-cc-pvqz aug-cc-pvqz/c tightscf
| 46> %pal nprocs 16 end
| 47> %maxcore 3800
| 48> %base "QZ_S-F_78_AB"
| 49>
| 50> *xyz 0 1
| 51> F         2.433207    0.000005    1.013543
| 52> S         1.887738   -0.000003   -0.528499
| 53> C         0.158942    0.000000   -0.236584
| 54> C        -0.530355    1.204466   -0.132734
| 55> H         0.015061    2.133891   -0.219894
| 56> C        -1.896170    1.202581    0.081388
| 57> H        -2.431652    2.138737    0.162912
| 58> C        -2.576500    0.000001    0.188311
| 59> C        -0.530356   -1.204466   -0.132731
| 60> H         0.015060   -2.133892   -0.219889
| 61> C        -1.896170   -1.202580    0.081391
| 62> H        -2.431654   -2.138735    0.162919
| 63> H        -3.645838    0.000001    0.353800
| 64> *
| 65>
| 66>
| 67>
| 68>
| 69>                          ****END OF INPUT****
 Total Charge           Charge          ....    0
 Multiplicity           Mult            ....    1
 Number of Electrons    NEL             ....   66
MP2 TOTAL ENERGY:     -728.243230970 Eh
FINAL SINGLE POINT ENERGY      -728.243230970009
MP2 TOTAL ENERGY:     -728.580760103 Eh
FINAL SINGLE POINT ENERGY      -728.580760102537

CARTESIAN COORDINATES (ANGSTROEM)
---------------------------------
  F      2.433207    0.000005    1.013543
  S      1.887738   -0.000003   -0.528499
  C      0.158942    0.000000   -0.236584
  C     -0.530355    1.204466   -0.132734
  H      0.015061    2.133891   -0.219894
  C     -1.896170    1.202581    0.081388
  H     -2.431652    2.138737    0.162912
  C     -2.576500    0.000001    0.188311
  C     -0.530356   -1.204466   -0.132731
  H      0.015060   -2.133892   -0.219889
  C     -1.896170   -1.202580    0.081391
  H     -2.431654   -2.138735    0.162919
  H     -3.645838    0.000001    0.353800

 Multiplicity           Mult            ....    1
 Number of Electrons    NEL             ....   66
 Basis Dimension        Dim             ....  874

ORBITAL ENERGIES
----------------

  NO   OCC          E(Eh)            E(eV)
   0   2.0000     -92.023473     -2504.0860
   1   2.0000     -26.292156      -715.4459
   2   2.0000     -11.272115      -306.7298
   3   2.0000     -11.258885      -306.3698
   4   2.0000     -11.258839      -306.3686
   5   2.0000     -11.258707      -306.3650
   6   2.0000     -11.249160      -306.1052
   7   2.0000     -11.249066      -306.1026
   8   2.0000      -9.017831      -245.3876
   9   2.0000      -6.699469      -182.3018
  10   2.0000      -6.697599      -182.2509
  11   2.0000      -6.696372      -182.2175
  12   2.0000      -1.588896       -43.2360
  13   2.0000      -1.183480       -32.2041
  14   2.0000      -1.067438       -29.0465
  15   2.0000      -1.040934       -28.3253
  16   2.0000      -0.947007       -25.7694
  17   2.0000      -0.851344       -23.1663
  18   2.0000      -0.822955       -22.3937
  19   2.0000      -0.727502       -19.7963
  20   2.0000      -0.680244       -18.5104
  21   2.0000      -0.676401       -18.4058
  22   2.0000      -0.661635       -18.0040
  23   2.0000      -0.648658       -17.6509
  24   2.0000      -0.633911       -17.2496
  25   2.0000      -0.610748       -16.6193
  26   2.0000      -0.557200       -15.1622
  27   2.0000      -0.527850       -14.3635
  28   2.0000      -0.517983       -14.0950
  29   2.0000      -0.477357       -12.9895
  30   2.0000      -0.370170       -10.0728
  31   2.0000      -0.366864        -9.9829
  32   2.0000      -0.358542        -9.7564
  33   0.0000       0.021694         0.5903
  34   0.0000       0.027464         0.7473
  35   0.0000       0.033105         0.9008
  36   0.0000       0.043542         1.1848
  37   0.0000       0.046528         1.2661

MULLIKEN ATOMIC CHARGES
-----------------------
   0 F :   -0.646238
   1 S :    0.461806
   2 C :   -0.516941
   3 C :   -0.131326
   4 H :    0.455207
   5 C :   -0.294769
   6 H :    0.267971
   7 C :   -0.219197
   8 C :   -0.131326
   9 H :    0.455208
  10 C :   -0.294766
  11 H :    0.267970
  12 H :    0.326401
Sum of atomic charges:   -0.0000000

LOEWDIN ATOMIC CHARGES
----------------------
   0 F :    0.075671
   1 S :    0.727825
   2 C :   -0.597841
   3 C :    0.215895
   4 H :   -0.350482
   5 C :    0.340082
   6 H :   -0.320865
   7 C :    0.339626
   8 C :    0.215894
   9 H :   -0.350482
  10 C :    0.340081
  11 H :   -0.320864
  12 H :   -0.314541

  Mayer bond orders larger than 0.100000
B(  0-F ,  1-S ) :   0.5815 B(  1-S ,  2-C ) :   1.3392 B(  1-S ,  3-C ) :  -0.2780
B(  1-S ,  8-C ) :  -0.2780 B(  2-C ,  3-C ) :   1.0744 B(  2-C ,  5-C ) :  -0.1070
B(  2-C ,  8-C ) :   1.0744 B(  2-C , 10-C ) :  -0.1070 B(  3-C ,  4-H ) :   0.8370
B(  3-C ,  5-C ) :   1.3028 B(  3-C ,  6-H ) :  -0.1142 B(  3-C , 10-C ) :   0.1371
B(  5-C ,  6-H ) :   1.0783 B(  5-C ,  7-C ) :   1.1021 B(  5-C ,  8-C ) :   0.1371
B(  5-C , 10-C ) :  -0.1188 B(  6-H ,  7-C ) :  -0.1071 B(  7-C , 10-C ) :   1.1021
B(  7-C , 11-H ) :  -0.1071 B(  7-C , 12-H ) :   0.9966 B(  8-C ,  9-H ) :   0.8370
B(  8-C , 10-C ) :   1.3028 B(  8-C , 11-H ) :  -0.1142 B( 10-C , 11-H ) :   1.0783

MP2 TOTAL ENERGY:     -728.690554908 Eh
FINAL SINGLE POINT ENERGY      -728.690554908057

DIPOLE MOMENT
-------------
                                X             Y             Z
Electronic contribution:      9.32320       0.00000       0.42618
Nuclear contribution   :    -10.58081      -0.00000      -0.72034
                        -----------------------------------------
Total Dipole Moment    :     -1.25761      -0.00000      -0.29416
                        -----------------------------------------
Magnitude (a.u.)       :      1.29155
Magnitude (Debye)      :      3.28286

Rotational constants in cm-1:     0.142419     0.037073     0.032904
Rotational constants in MHz :  4269.610081  1111.432392   986.439833

                             ****ORCA TERMINATED NORMALLY****
TOTAL RUN TIME: 0 days 0 hours 23 minutes 16 seconds 14 msec
