                         Program Version 5.0.4 -  RELEASE  -
|  1> ! ri-mp2 aug-cc-pvdz aug-cc-pvdz/c tightscf
|  2> %pal nprocs 16 end
|  3> %maxcore 3800
|  4> %base "DZ_P-Cl_10_AB"
|  5> %scf
|  6> STABPerform true
|  7> STABRestartUHFifUnstable true
|  8> end
|  9>
| 10> *xyz 0 1
| 11> Cl        -2.993040    0.000000    0.245568
| 12> P        -1.190205    0.000000   -0.699923
| 13> C         0.000001   -1.247688    0.000014
| 14> O        -0.000005   -2.433313    0.000025
| 15> C         0.000000    1.247688    0.000014
| 16> P         1.190220    0.000000    0.699931
| 17> O        -0.000006    2.433313    0.000025
| 18> Cl         2.993031    0.000000   -0.245609
| 19> *
| 20>
| 21> $new_job
| 22> ! ri-mp2 aug-cc-pvtz aug-cc-pvtz/c tightscf
| 23> %pal nprocs 16 end
| 24> %maxcore 3800
| 25> %base "TZ_P-Cl_10_AB"
| 26>
| 27> *xyz 0 1
| 28> Cl        -2.993040    0.000000    0.245568
| 29> P        -1.190205    0.000000   -0.699923
| 30> C         0.000001   -1.247688    0.000014
| 31> O        -0.000005   -2.433313    0.000025
| 32> C         0.000000    1.247688    0.000014
| 33> P         1.190220    0.000000    0.699931
| 34> O        -0.000006    2.433313    0.000025
| 35> Cl         2.993031    0.000000   -0.245609
| 36> *
| 37>
| 38> $new_job
| 39> ! ri-mp2 aug-cc-pvqz aug-cc-pvqz/c tightscf
| 40> %pal nprocs 16 end
| 41> %maxcore 3800
| 42> %base "QZ_P-Cl_10_AB"
| 43>
| 44> *xyz 0 1
| 45> Cl        -2.993040    0.000000    0.245568
| 46> P        -1.190205    0.000000   -0.699923
| 47> C         0.000001   -1.247688    0.000014
| 48> O        -0.000005   -2.433313    0.000025
| 49> C         0.000000    1.247688    0.000014
| 50> P         1.190220    0.000000    0.699931
| 51> O        -0.000006    2.433313    0.000025
| 52> Cl         2.993031    0.000000   -0.245609
| 53> *
| 54>
| 55>
| 56>
| 57>
| 58>                          ****END OF INPUT****
 Total Charge           Charge          ....    0
 Multiplicity           Mult            ....    1
 Number of Electrons    NEL             ....   92
MP2 TOTAL ENERGY:    -1827.133695660 Eh
FINAL SINGLE POINT ENERGY     -1827.133695659545
MP2 TOTAL ENERGY:    -1827.523720400 Eh
FINAL SINGLE POINT ENERGY     -1827.523720399801

CARTESIAN COORDINATES (ANGSTROEM)
---------------------------------
  Cl    -2.993040    0.000000    0.245568
  P     -1.190205    0.000000   -0.699923
  C      0.000001   -1.247688    0.000014
  O     -0.000005   -2.433313    0.000025
  C      0.000000    1.247688    0.000014
  P      1.190220    0.000000    0.699931
  O     -0.000006    2.433313    0.000025
  Cl     2.993031    0.000000   -0.245609

 Multiplicity           Mult            ....    1
 Number of Electrons    NEL             ....   92
 Basis Dimension        Dim             ....  656

ORBITAL ENERGIES
----------------

  NO   OCC          E(Eh)            E(eV)
   0   2.0000    -104.880667     -2853.9480
   1   2.0000    -104.880667     -2853.9480
   2   2.0000     -80.044714     -2178.1274
   3   2.0000     -80.044714     -2178.1274
   4   2.0000     -20.614295      -560.9435
   5   2.0000     -20.614294      -560.9435
   6   2.0000     -11.391326      -309.9738
   7   2.0000     -11.391315      -309.9734
   8   2.0000     -10.606231      -288.6102
   9   2.0000     -10.606231      -288.6102
  10   2.0000      -8.073088      -219.6799
  11   2.0000      -8.073088      -219.6799
  12   2.0000      -8.071467      -219.6358
  13   2.0000      -8.071467      -219.6358
  14   2.0000      -8.071312      -219.6316
  15   2.0000      -8.071311      -219.6316
  16   2.0000      -7.583425      -206.3555
  17   2.0000      -7.583424      -206.3555
  18   2.0000      -5.477034      -149.0377
  19   2.0000      -5.477013      -149.0371
  20   2.0000      -5.475764      -149.0031
  21   2.0000      -5.475753      -149.0028
  22   2.0000      -5.475663      -149.0004
  23   2.0000      -5.475652      -149.0001
  24   2.0000      -1.459008       -39.7016
  25   2.0000      -1.456870       -39.6434
  26   2.0000      -1.163806       -31.6688
  27   2.0000      -1.154353       -31.4116
  28   2.0000      -1.048983       -28.5443
  29   2.0000      -0.850007       -23.1299
  30   2.0000      -0.833526       -22.6814
  31   2.0000      -0.732028       -19.9195
  32   2.0000      -0.694429       -18.8964
  33   2.0000      -0.660500       -17.9731
  34   2.0000      -0.653060       -17.7707
  35   2.0000      -0.634613       -17.2687
  36   2.0000      -0.623280       -16.9603
  37   2.0000      -0.591415       -16.0932
  38   2.0000      -0.532536       -14.4911
  39   2.0000      -0.529237       -14.4013
  40   2.0000      -0.523350       -14.2411
  41   2.0000      -0.515508       -14.0277
  42   2.0000      -0.509304       -13.8589
  43   2.0000      -0.423040       -11.5115
  44   2.0000      -0.398841       -10.8530
  45   2.0000      -0.361379        -9.8336
  46   0.0000      -0.014140        -0.3848
  47   0.0000       0.036849         1.0027
  48   0.0000       0.042271         1.1502
  49   0.0000       0.046113         1.2548
  50   0.0000       0.049113         1.3364

MULLIKEN ATOMIC CHARGES
-----------------------
   0 Cl:   -0.395476
   1 P :    0.968467
   2 C :    0.111027
   3 O :   -0.684015
   4 C :    0.111027
   5 P :    0.968463
   6 O :   -0.684015
   7 Cl:   -0.395477
Sum of atomic charges:    0.0000000

LOEWDIN ATOMIC CHARGES
----------------------
   0 Cl:    0.726102
   1 P :   -0.048915
   2 C :   -1.198021
   3 O :    0.520835
   4 C :   -1.198021
   5 P :   -0.048914
   6 O :    0.520835
   7 Cl:    0.726100

  Mayer bond orders larger than 0.100000
B(  0-Cl,  1-P ) :   0.8663 B(  1-P ,  2-C ) :   0.9331 B(  1-P ,  4-C ) :   0.9331
B(  2-C ,  3-O ) :   1.5368 B(  2-C ,  5-P ) :   0.9331 B(  4-C ,  5-P ) :   0.9331
B(  4-C ,  6-O ) :   1.5368 B(  5-P ,  7-Cl) :   0.8663

MP2 TOTAL ENERGY:    -1827.655858328 Eh
FINAL SINGLE POINT ENERGY     -1827.655858328110

DIPOLE MOMENT
-------------
                                X             Y             Z
Electronic contribution:      0.00000      -0.00000      -0.00006
Nuclear contribution   :     -0.00000       0.00000       0.00005
                        -----------------------------------------
Total Dipole Moment    :      0.00000      -0.00000      -0.00001
                        -----------------------------------------
Magnitude (a.u.)       :      0.00001
Magnitude (Debye)      :      0.00003

Rotational constants in cm-1:     0.064470     0.022252     0.017748
Rotational constants in MHz :  1932.760798   667.101422   532.086513

                             ****ORCA TERMINATED NORMALLY****
TOTAL RUN TIME: 0 days 0 hours 40 minutes 38 seconds 760 msec
