                         Program Version 5.0.4 -  RELEASE  -
|  1> ! ri-mp2 aug-cc-pvdz aug-cc-pvdz/c tightscf
|  2> %pal nprocs 16 end
|  3> %maxcore 3800
|  4> %base "DZ_Si-Si_147_A"
|  5> %scf
|  6> STABPerform true
|  7> STABRestartUHFifUnstable true
|  8> end
|  9>
| 10> *xyz 0 2
| 11> Si        -0.560940    0.000000    0.000004
| 12> B         1.352629    0.000000   -0.000010
| 13> H        -1.400453    1.213795    0.000011
| 14> H        -1.400450   -1.213798    0.000011
| 15> H         1.945464    1.030369   -0.000011
| 16> H         1.945462   -1.030369   -0.000011
| 17> *
| 18>
| 19> $new_job
| 20> ! ri-mp2 aug-cc-pvtz aug-cc-pvtz/c tightscf
| 21> %pal nprocs 16 end
| 22> %maxcore 3800
| 23> %base "TZ_Si-Si_147_A"
| 24>
| 25> *xyz 0 2
| 26> Si        -0.560940    0.000000    0.000004
| 27> B         1.352629    0.000000   -0.000010
| 28> H        -1.400453    1.213795    0.000011
| 29> H        -1.400450   -1.213798    0.000011
| 30> H         1.945464    1.030369   -0.000011
| 31> H         1.945462   -1.030369   -0.000011
| 32> *
| 33>
| 34> $new_job
| 35> ! ri-mp2 aug-cc-pvqz aug-cc-pvqz/c tightscf
| 36> %pal nprocs 16 end
| 37> %maxcore 3800
| 38> %base "QZ_Si-Si_147_A"
| 39>
| 40> *xyz 0 2
| 41> Si        -0.560940    0.000000    0.000004
| 42> B         1.352629    0.000000   -0.000010
| 43> H        -1.400453    1.213795    0.000011
| 44> H        -1.400450   -1.213798    0.000011
| 45> H         1.945464    1.030369   -0.000011
| 46> H         1.945462   -1.030369   -0.000011
| 47> *
| 48>
| 49>
| 50>
| 51>
| 52>                          ****END OF INPUT****
 Total Charge           Charge          ....    0
 Multiplicity           Mult            ....    2
 Number of Electrons    NEL             ....   23
MP2 TOTAL ENERGY:     -316.057744364 Eh
FINAL SINGLE POINT ENERGY      -316.057744364040
MP2 TOTAL ENERGY:     -316.114981806 Eh
FINAL SINGLE POINT ENERGY      -316.114981805856

CARTESIAN COORDINATES (ANGSTROEM)
---------------------------------
  Si    -0.560940    0.000000    0.000004
  B      1.352629    0.000000   -0.000010
  H     -1.400453    1.213795    0.000011
  H     -1.400450   -1.213798    0.000011
  H      1.945464    1.030369   -0.000011
  H      1.945462   -1.030369   -0.000011

 Multiplicity           Mult            ....    2
 Number of Electrons    NEL             ....   23
 Basis Dimension        Dim             ....  348

ORBITAL ENERGIES
----------------
                 SPIN UP ORBITALS
  NO   OCC          E(Eh)            E(eV)
   0   1.0000     -68.778278     -1871.5521
   1   1.0000      -7.602082      -206.8632
   2   1.0000      -6.131576      -166.8487
   3   1.0000      -4.244834      -115.5078
   4   1.0000      -4.234866      -115.2366
   5   1.0000      -4.234155      -115.2172
   6   1.0000      -0.763810       -20.7843
   7   1.0000      -0.647075       -17.6078
   8   1.0000      -0.518307       -14.1038
   9   1.0000      -0.476128       -12.9561
  10   1.0000      -0.441850       -12.0233
  11   1.0000      -0.310960        -8.4617
  12   0.0000       0.028030         0.7627
  13   0.0000       0.030804         0.8382
  14   0.0000       0.032387         0.8813
  15   0.0000       0.042028         1.1436
  16   0.0000       0.049821         1.3557

                 SPIN DOWN ORBITALS
  NO   OCC          E(Eh)            E(eV)
   0   1.0000     -68.774205     -1871.4413
   1   1.0000      -7.601908      -206.8584
   2   1.0000      -6.125963      -166.6959
   3   1.0000      -4.231811      -115.1534
   4   1.0000      -4.231606      -115.1479
   5   1.0000      -4.225835      -114.9908
   6   1.0000      -0.725668       -19.7464
   7   1.0000      -0.635211       -17.2850
   8   1.0000      -0.516762       -14.0618
   9   1.0000      -0.478468       -13.0198
  10   1.0000      -0.436129       -11.8677
  11   0.0000       0.004012         0.1092
  12   0.0000       0.029389         0.7997
  13   0.0000       0.031119         0.8468
  14   0.0000       0.032460         0.8833
  15   0.0000       0.050140         1.3644

MULLIKEN ATOMIC CHARGES AND SPIN POPULATIONS
--------------------------------------------
   0 Si:    0.620174    0.921876
   1 B :    0.141688    0.203455
   2 H :   -0.191508   -0.038584
   3 H :   -0.191508   -0.038585
   4 H :   -0.189423   -0.024081
   5 H :   -0.189423   -0.024081
Sum of atomic charges         :   -0.0000000

LOEWDIN ATOMIC CHARGES AND SPIN POPULATIONS
-------------------------------------------
   0 Si:    1.170205    0.420503
   1 B :    0.170080    0.278245
   2 H :   -0.362297    0.103590
   3 H :   -0.362297    0.103590
   4 H :   -0.307845    0.047036
   5 H :   -0.307846    0.047036

  Mayer bond orders larger than 0.100000
B(  0-Si,  1-B ) :   1.3626 B(  0-Si,  2-H ) :   0.9102 B(  0-Si,  3-H ) :   0.9102
B(  1-B ,  4-H ) :   0.9211 B(  1-B ,  5-H ) :   0.9211

MP2 TOTAL ENERGY:     -316.133027986 Eh
FINAL SINGLE POINT ENERGY      -316.133027985922

DIPOLE MOMENT
-------------
                                X             Y             Z
Electronic contribution:     -0.34874       0.00000      -0.00001
Nuclear contribution   :      0.03434      -0.00000       0.00001
                        -----------------------------------------
Total Dipole Moment    :     -0.31440       0.00000       0.00000
                        -----------------------------------------
Magnitude (a.u.)       :      0.31440
Magnitude (Debye)      :      0.79914

Rotational constants in cm-1:     3.298640     0.419350     0.372052
Rotational constants in MHz : 98890.730513 12571.789042 11153.824687

                             ****ORCA TERMINATED NORMALLY****
TOTAL RUN TIME: 0 days 0 hours 6 minutes 12 seconds 120 msec
