                         Program Version 5.0.4 -  RELEASE  -
|  1> ! ri-mp2 aug-cc-pvdz aug-cc-pvdz/c tightscf
|  2> %pal nprocs 16 end
|  3> %maxcore 3800
|  4> %base "DZ_P-C_14_AB"
|  5> %scf
|  6> STABPerform true
|  7> STABRestartUHFifUnstable true
|  8> end
|  9>
| 10> *xyz 0 1
| 11> C         0.707820   -0.948315   -0.182545
| 12> P        -0.770859    0.030030    0.099446
| 13> O        -1.074736    0.366889    1.490281
| 14> C         1.910561   -0.304228    0.431818
| 15> C         2.915239    0.205394   -0.257508
| 16> H         0.830342   -1.082092   -1.257662
| 17> H         0.517371   -1.927027    0.263175
| 18> H         1.915851   -0.251416    1.514829
| 19> H         2.933832    0.176040   -1.340379
| 20> H         3.758530    0.667930    0.236884
| 21> O        -1.859814   -0.836932   -0.668959
| 22> H        -2.764628   -0.623632   -0.412393
| 23> O        -0.612510    1.315036   -0.837150
| 24> H        -0.453642    2.112689   -0.320114
| 25> *
| 26>
| 27> $new_job
| 28> ! ri-mp2 aug-cc-pvtz aug-cc-pvtz/c tightscf
| 29> %pal nprocs 16 end
| 30> %maxcore 3800
| 31> %base "TZ_P-C_14_AB"
| 32>
| 33> *xyz 0 1
| 34> C         0.707820   -0.948315   -0.182545
| 35> P        -0.770859    0.030030    0.099446
| 36> O        -1.074736    0.366889    1.490281
| 37> C         1.910561   -0.304228    0.431818
| 38> C         2.915239    0.205394   -0.257508
| 39> H         0.830342   -1.082092   -1.257662
| 40> H         0.517371   -1.927027    0.263175
| 41> H         1.915851   -0.251416    1.514829
| 42> H         2.933832    0.176040   -1.340379
| 43> H         3.758530    0.667930    0.236884
| 44> O        -1.859814   -0.836932   -0.668959
| 45> H        -2.764628   -0.623632   -0.412393
| 46> O        -0.612510    1.315036   -0.837150
| 47> H        -0.453642    2.112689   -0.320114
| 48> *
| 49>
| 50> $new_job
| 51> ! ri-mp2 aug-cc-pvqz aug-cc-pvqz/c tightscf
| 52> %pal nprocs 16 end
| 53> %maxcore 3800
| 54> %base "QZ_P-C_14_AB"
| 55>
| 56> *xyz 0 1
| 57> C         0.707820   -0.948315   -0.182545
| 58> P        -0.770859    0.030030    0.099446
| 59> O        -1.074736    0.366889    1.490281
| 60> C         1.910561   -0.304228    0.431818
| 61> C         2.915239    0.205394   -0.257508
| 62> H         0.830342   -1.082092   -1.257662
| 63> H         0.517371   -1.927027    0.263175
| 64> H         1.915851   -0.251416    1.514829
| 65> H         2.933832    0.176040   -1.340379
| 66> H         3.758530    0.667930    0.236884
| 67> O        -1.859814   -0.836932   -0.668959
| 68> H        -2.764628   -0.623632   -0.412393
| 69> O        -0.612510    1.315036   -0.837150
| 70> H        -0.453642    2.112689   -0.320114
| 71> *
| 72>
| 73>
| 74>
| 75>
| 76>                          ****END OF INPUT****
 Total Charge           Charge          ....    0
 Multiplicity           Mult            ....    1
 Number of Electrons    NEL             ....   64
MP2 TOTAL ENERGY:     -684.262526214 Eh
FINAL SINGLE POINT ENERGY      -684.262526213781
MP2 TOTAL ENERGY:     -684.640596935 Eh
FINAL SINGLE POINT ENERGY      -684.640596934765

CARTESIAN COORDINATES (ANGSTROEM)
---------------------------------
  C      0.707820   -0.948315   -0.182545
  P     -0.770859    0.030030    0.099446
  O     -1.074736    0.366889    1.490281
  C      1.910561   -0.304228    0.431818
  C      2.915239    0.205394   -0.257508
  H      0.830342   -1.082092   -1.257662
  H      0.517371   -1.927027    0.263175
  H      1.915851   -0.251416    1.514829
  H      2.933832    0.176040   -1.340379
  H      3.758530    0.667930    0.236884
  O     -1.859814   -0.836932   -0.668959
  H     -2.764628   -0.623632   -0.412393
  O     -0.612510    1.315036   -0.837150
  H     -0.453642    2.112689   -0.320114

 Multiplicity           Mult            ....    1
 Number of Electrons    NEL             ....   64
 Basis Dimension        Dim             ....  886

ORBITAL ENERGIES
----------------

  NO   OCC          E(Eh)            E(eV)
   0   2.0000     -80.066506     -2178.7204
   1   2.0000     -20.600779      -560.5757
   2   2.0000     -20.595684      -560.4371
   3   2.0000     -20.503998      -557.9422
   4   2.0000     -11.248056      -306.0752
   5   2.0000     -11.247174      -306.0512
   6   2.0000     -11.232212      -305.6440
   7   2.0000      -7.589554      -206.5223
   8   2.0000      -5.487851      -149.3320
   9   2.0000      -5.487149      -149.3129
  10   2.0000      -5.486141      -149.2855
  11   2.0000      -1.437101       -39.1055
  12   2.0000      -1.385084       -37.6901
  13   2.0000      -1.297886       -35.3173
  14   2.0000      -1.093906       -29.7667
  15   2.0000      -0.975505       -26.5448
  16   2.0000      -0.843766       -22.9600
  17   2.0000      -0.774238       -21.0681
  18   2.0000      -0.743984       -20.2448
  19   2.0000      -0.680305       -18.5120
  20   2.0000      -0.660903       -17.9841
  21   2.0000      -0.652501       -17.7555
  22   2.0000      -0.621232       -16.9046
  23   2.0000      -0.608108       -16.5475
  24   2.0000      -0.576845       -15.6968
  25   2.0000      -0.560656       -15.2562
  26   2.0000      -0.542856       -14.7719
  27   2.0000      -0.522499       -14.2179
  28   2.0000      -0.508791       -13.8449
  29   2.0000      -0.466026       -12.6812
  30   2.0000      -0.459536       -12.5046
  31   2.0000      -0.376734       -10.2515
  32   0.0000       0.023943         0.6515
  33   0.0000       0.029821         0.8115
  34   0.0000       0.035705         0.9716
  35   0.0000       0.037013         1.0072
  36   0.0000       0.044187         1.2024

MULLIKEN ATOMIC CHARGES
-----------------------
   0 C :   -0.619927
   1 P :    2.442370
   2 O :   -1.173423
   3 C :   -0.433433
   4 C :   -0.808314
   5 H :    0.308312
   6 H :    0.343608
   7 H :    0.418009
   8 H :    0.346414
   9 H :    0.343332
  10 O :   -0.998843
  11 H :    0.375243
  12 O :   -0.926509
  13 H :    0.383162
Sum of atomic charges:    0.0000000

LOEWDIN ATOMIC CHARGES
----------------------
   0 C :    0.426791
   1 P :   -0.640486
   2 O :    0.320818
   3 C :    0.295070
   4 C :    0.795008
   5 H :   -0.349120
   6 H :   -0.329789
   7 H :   -0.329514
   8 H :   -0.348562
   9 H :   -0.351301
  10 O :    1.109813
  11 H :   -0.846512
  12 O :    1.112370
  13 H :   -0.864586

  Mayer bond orders larger than 0.100000
B(  0-C ,  1-P ) :   0.8755 B(  0-C ,  3-C ) :   0.8762 B(  0-C ,  5-H ) :   0.8775
B(  0-C ,  6-H ) :   0.8571 B(  1-P ,  2-O ) :   1.3602 B(  1-P , 10-O ) :   0.5110
B(  1-P , 12-O ) :   0.6519 B(  3-C ,  4-C ) :   1.8163 B(  3-C ,  7-H ) :   0.8092
B(  4-C ,  8-H ) :   0.8914 B(  4-C ,  9-H ) :   0.9658 B( 10-O , 11-H ) :   0.9360
B( 12-O , 13-H ) :   0.9068

MP2 TOTAL ENERGY:     -684.762074219 Eh
FINAL SINGLE POINT ENERGY      -684.762074219460

DIPOLE MOMENT
-------------
                                X             Y             Z
Electronic contribution:     -7.04343       0.93242       0.68827
Nuclear contribution   :      7.30268      -0.92839      -1.38908
                        -----------------------------------------
Total Dipole Moment    :      0.25924       0.00402      -0.70081
                        -----------------------------------------
Magnitude (a.u.)       :      0.74724
Magnitude (Debye)      :      1.89933

Rotational constants in cm-1:     0.132145     0.048307     0.048297
Rotational constants in MHz :  3961.598562  1448.211515  1447.904486

                             ****ORCA TERMINATED NORMALLY****
TOTAL RUN TIME: 0 days 1 hours 7 minutes 23 seconds 922 msec
