                         Program Version 5.0.4 -  RELEASE  -
|  1> ! ri-mp2 aug-cc-pvdz aug-cc-pvdz/c tightscf
|  2> %pal nprocs 16 end
|  3> %maxcore 3800
|  4> %base "DZ_P-Si_2_AB"
|  5> %scf
|  6> STABPerform true
|  7> STABRestartUHFifUnstable true
|  8> end
|  9>
| 10> *xyz 0 1
| 11> Si        -0.103515    1.400501   -0.160470
| 12> P         1.372587   -0.303396   -0.036820
| 13> O         1.021668   -1.537202   -0.755235
| 14> O         1.543467   -0.468848    1.544683
| 15> C        -1.764967    0.782745    0.421678
| 16> C        -2.366121   -0.321601   -0.450756
| 17> H        -2.447003    1.637247    0.472031
| 18> H        -1.649738    0.429332    1.450668
| 19> C        -3.700407   -0.821122    0.081068
| 20> H        -1.663944   -1.154218   -0.526812
| 21> H        -2.497568    0.052992   -1.469343
| 22> H        -3.589441   -1.235311    1.084891
| 23> H        -4.113663   -1.602477   -0.557516
| 24> H        -4.431215   -0.011798    0.136155
| 25> H         1.924909   -1.318198    1.802510
| 26> O         2.797251    0.278409   -0.501310
| 27> H         3.117061   -0.180197   -1.287901
| 28> H        -0.116047    1.795727   -1.585359
| 29> H         0.416935    2.511818    0.662522
| 30> *
| 31>
| 32> $new_job
| 33> ! ri-mp2 aug-cc-pvtz aug-cc-pvtz/c tightscf
| 34> %pal nprocs 16 end
| 35> %maxcore 3800
| 36> %base "TZ_P-Si_2_AB"
| 37>
| 38> *xyz 0 1
| 39> Si        -0.103515    1.400501   -0.160470
| 40> P         1.372587   -0.303396   -0.036820
| 41> O         1.021668   -1.537202   -0.755235
| 42> O         1.543467   -0.468848    1.544683
| 43> C        -1.764967    0.782745    0.421678
| 44> C        -2.366121   -0.321601   -0.450756
| 45> H        -2.447003    1.637247    0.472031
| 46> H        -1.649738    0.429332    1.450668
| 47> C        -3.700407   -0.821122    0.081068
| 48> H        -1.663944   -1.154218   -0.526812
| 49> H        -2.497568    0.052992   -1.469343
| 50> H        -3.589441   -1.235311    1.084891
| 51> H        -4.113663   -1.602477   -0.557516
| 52> H        -4.431215   -0.011798    0.136155
| 53> H         1.924909   -1.318198    1.802510
| 54> O         2.797251    0.278409   -0.501310
| 55> H         3.117061   -0.180197   -1.287901
| 56> H        -0.116047    1.795727   -1.585359
| 57> H         0.416935    2.511818    0.662522
| 58> *
| 59>
| 60> $new_job
| 61> ! ri-mp2 aug-cc-pvqz aug-cc-pvqz/c tightscf
| 62> %pal nprocs 16 end
| 63> %maxcore 3800
| 64> %base "QZ_P-Si_2_AB"
| 65>
| 66> *xyz 0 1
| 67> Si        -0.103515    1.400501   -0.160470
| 68> P         1.372587   -0.303396   -0.036820
| 69> O         1.021668   -1.537202   -0.755235
| 70> O         1.543467   -0.468848    1.544683
| 71> C        -1.764967    0.782745    0.421678
| 72> C        -2.366121   -0.321601   -0.450756
| 73> H        -2.447003    1.637247    0.472031
| 74> H        -1.649738    0.429332    1.450668
| 75> C        -3.700407   -0.821122    0.081068
| 76> H        -1.663944   -1.154218   -0.526812
| 77> H        -2.497568    0.052992   -1.469343
| 78> H        -3.589441   -1.235311    1.084891
| 79> H        -4.113663   -1.602477   -0.557516
| 80> H        -4.431215   -0.011798    0.136155
| 81> H         1.924909   -1.318198    1.802510
| 82> O         2.797251    0.278409   -0.501310
| 83> H         3.117061   -0.180197   -1.287901
| 84> H        -0.116047    1.795727   -1.585359
| 85> H         0.416935    2.511818    0.662522
| 86> *
| 87>
| 88>
| 89>
| 90>
| 91>                          ****END OF INPUT****
 Total Charge           Charge          ....    0
 Multiplicity           Mult            ....    1
 Number of Electrons    NEL             ....   82
MP2 TOTAL ENERGY:     -975.677740328 Eh
FINAL SINGLE POINT ENERGY      -975.677740328338
MP2 TOTAL ENERGY:     -976.097878214 Eh
FINAL SINGLE POINT ENERGY      -976.097878213882

CARTESIAN COORDINATES (ANGSTROEM)
---------------------------------
  Si    -0.103515    1.400501   -0.160470
  P      1.372587   -0.303396   -0.036820
  O      1.021668   -1.537202   -0.755235
  O      1.543467   -0.468848    1.544683
  C     -1.764967    0.782745    0.421678
  C     -2.366121   -0.321601   -0.450756
  H     -2.447003    1.637247    0.472031
  H     -1.649738    0.429332    1.450668
  C     -3.700407   -0.821122    0.081068
  H     -1.663944   -1.154218   -0.526812
  H     -2.497568    0.052992   -1.469343
  H     -3.589441   -1.235311    1.084891
  H     -4.113663   -1.602477   -0.557516
  H     -4.431215   -0.011798    0.136155
  H      1.924909   -1.318198    1.802510
  O      2.797251    0.278409   -0.501310
  H      3.117061   -0.180197   -1.287901
  H     -0.116047    1.795727   -1.585359
  H      0.416935    2.511818    0.662522

 Multiplicity           Mult            ....    1
 Number of Electrons    NEL             ....   82
 Basis Dimension        Dim             .... 1154

ORBITAL ENERGIES
----------------

  NO   OCC          E(Eh)            E(eV)
   0   2.0000     -80.056200     -2178.4400
   1   2.0000     -68.781032     -1871.6270
   2   2.0000     -20.596964      -560.4719
   3   2.0000     -20.593238      -560.3705
   4   2.0000     -20.502344      -557.8972
   5   2.0000     -11.223206      -305.3990
   6   2.0000     -11.219389      -305.2951
   7   2.0000     -11.211091      -305.0693
   8   2.0000      -7.580237      -206.2687
   9   2.0000      -6.131864      -166.8565
  10   2.0000      -5.478062      -149.0657
  11   2.0000      -5.477386      -149.0472
  12   2.0000      -5.476312      -149.0180
  13   2.0000      -4.238320      -115.3305
  14   2.0000      -4.237931      -115.3200
  15   2.0000      -4.237406      -115.3057
  16   2.0000      -1.429116       -38.8882
  17   2.0000      -1.379571       -37.5400
  18   2.0000      -1.292098       -35.1598
  19   2.0000      -1.063085       -28.9280
  20   2.0000      -0.936930       -25.4952
  21   2.0000      -0.858817       -23.3696
  22   2.0000      -0.810572       -22.0568
  23   2.0000      -0.739683       -20.1278
  24   2.0000      -0.717588       -19.5266
  25   2.0000      -0.668702       -18.1963
  26   2.0000      -0.640034       -17.4162
  27   2.0000      -0.631922       -17.1955
  28   2.0000      -0.610902       -16.6235
  29   2.0000      -0.579577       -15.7711
  30   2.0000      -0.557746       -15.1770
  31   2.0000      -0.550336       -14.9754
  32   2.0000      -0.547001       -14.8847
  33   2.0000      -0.544980       -14.8297
  34   2.0000      -0.501098       -13.6356
  35   2.0000      -0.495293       -13.4776
  36   2.0000      -0.477784       -13.0012
  37   2.0000      -0.476934       -12.9780
  38   2.0000      -0.460727       -12.5370
  39   2.0000      -0.440472       -11.9859
  40   2.0000      -0.413618       -11.2551
  41   0.0000       0.021953         0.5974
  42   0.0000       0.029961         0.8153
  43   0.0000       0.030454         0.8287
  44   0.0000       0.033283         0.9057
  45   0.0000       0.043284         1.1778

MULLIKEN ATOMIC CHARGES
-----------------------
   0 Si:    0.833112
   1 P :    2.252061
   2 O :   -1.255015
   3 O :   -0.901800
   4 C :   -0.529552
   5 C :   -0.395518
   6 H :    0.270593
   7 H :    0.196538
   8 C :   -0.841026
   9 H :    0.312376
  10 H :    0.244242
  11 H :    0.223341
  12 H :    0.263756
  13 H :    0.220017
  14 H :    0.366266
  15 O :   -1.035829
  16 H :    0.390697
  17 H :   -0.299009
  18 H :   -0.315252
Sum of atomic charges:    0.0000000

LOEWDIN ATOMIC CHARGES
----------------------
   0 Si:    0.786551
   1 P :   -0.645032
   2 O :    0.263672
   3 O :    1.047284
   4 C :    0.479067
   5 C :    0.428573
   6 H :   -0.333067
   7 H :   -0.336272
   8 C :    0.925592
   9 H :   -0.316984
  10 H :   -0.282735
  11 H :   -0.283931
  12 H :   -0.280407
  13 H :   -0.284885
  14 H :   -0.858877
  15 O :    1.049090
  16 H :   -0.892584
  17 H :   -0.229477
  18 H :   -0.235577

  Mayer bond orders larger than 0.100000
B(  0-Si,  1-P ) :   0.8643 B(  0-Si,  4-C ) :   0.8795 B(  0-Si, 17-H ) :   0.7405
B(  0-Si, 18-H ) :   0.7522 B(  1-P ,  2-O ) :   1.3164 B(  1-P ,  3-O ) :   0.5657
B(  1-P , 15-O ) :   0.4549 B(  3-O , 14-H ) :   0.9219 B(  4-C ,  5-C ) :   0.8414
B(  4-C ,  6-H ) :   0.9249 B(  4-C ,  7-H ) :   0.9505 B(  5-C ,  8-C ) :   0.9134
B(  5-C ,  9-H ) :   0.8446 B(  5-C , 10-H ) :   0.8931 B(  8-C , 11-H ) :   0.9505
B(  8-C , 12-H ) :   0.9974 B(  8-C , 13-H ) :   0.9842 B( 15-O , 16-H ) :   0.9009

MP2 TOTAL ENERGY:     -976.231422180 Eh
FINAL SINGLE POINT ENERGY      -976.231422179600

DIPOLE MOMENT
-------------
                                X             Y             Z
Electronic contribution:     16.18155      -0.61815       0.05200
Nuclear contribution   :    -16.24754       1.10035       0.23093
                        -----------------------------------------
Total Dipole Moment    :     -0.06599       0.48220       0.28293
                        -----------------------------------------
Magnitude (a.u.)       :      0.56296
Magnitude (Debye)      :      1.43093

Rotational constants in cm-1:     0.081107     0.025599     0.023268
Rotational constants in MHz :  2431.511871   767.453168   697.553659

                             ****ORCA TERMINATED NORMALLY****
TOTAL RUN TIME: 0 days 3 hours 39 minutes 28 seconds 146 msec
