                         Program Version 5.0.4 -  RELEASE  -
|  1> ! ri-mp2 aug-cc-pvdz aug-cc-pvdz/c tightscf
|  2> %pal nprocs 16 end
|  3> %maxcore 3800
|  4> %base "DZ_B-P_44_A"
|  5> %scf
|  6> STABPerform true
|  7> STABRestartUHFifUnstable true
|  8> end
|  9>
| 10> *xyz 0 2
| 11> P         0.698498   -0.098784   -0.000000
| 12> C        -1.139620    0.013092   -0.000000
| 13> H        -1.500980    0.544423   -0.881771
| 14> H        -1.500980    0.544422    0.881771
| 15> H        -1.567034   -0.988166   -0.000001
| 16> H         0.929243    1.302531    0.000001
| 17> *
| 18>
| 19> $new_job
| 20> ! ri-mp2 aug-cc-pvtz aug-cc-pvtz/c tightscf
| 21> %pal nprocs 16 end
| 22> %maxcore 3800
| 23> %base "TZ_B-P_44_A"
| 24>
| 25> *xyz 0 2
| 26> P         0.698498   -0.098784   -0.000000
| 27> C        -1.139620    0.013092   -0.000000
| 28> H        -1.500980    0.544423   -0.881771
| 29> H        -1.500980    0.544422    0.881771
| 30> H        -1.567034   -0.988166   -0.000001
| 31> H         0.929243    1.302531    0.000001
| 32> *
| 33>
| 34> $new_job
| 35> ! ri-mp2 aug-cc-pvqz aug-cc-pvqz/c tightscf
| 36> %pal nprocs 16 end
| 37> %maxcore 3800
| 38> %base "QZ_B-P_44_A"
| 39>
| 40> *xyz 0 2
| 41> P         0.698498   -0.098784   -0.000000
| 42> C        -1.139620    0.013092   -0.000000
| 43> H        -1.500980    0.544423   -0.881771
| 44> H        -1.500980    0.544422    0.881771
| 45> H        -1.567034   -0.988166   -0.000001
| 46> H         0.929243    1.302531    0.000001
| 47> *
| 48>
| 49>
| 50>
| 51>
| 52>                          ****END OF INPUT****
 Total Charge           Charge          ....    0
 Multiplicity           Mult            ....    2
 Number of Electrons    NEL             ....   25
MP2 TOTAL ENERGY:     -381.176515547 Eh
FINAL SINGLE POINT ENERGY      -381.176515546868
MP2 TOTAL ENERGY:     -381.257698294 Eh
FINAL SINGLE POINT ENERGY      -381.257698293994

CARTESIAN COORDINATES (ANGSTROEM)
---------------------------------
  P      0.698498   -0.098784   -0.000000
  C     -1.139620    0.013092   -0.000000
  H     -1.500980    0.544423   -0.881771
  H     -1.500980    0.544422    0.881771
  H     -1.567034   -0.988166   -0.000001
  H      0.929243    1.302531    0.000001

 Multiplicity           Mult            ....    2
 Number of Electrons    NEL             ....   25
 Basis Dimension        Dim             ....  348

ORBITAL ENERGIES
----------------
                 SPIN UP ORBITALS
  NO   OCC          E(Eh)            E(eV)
   0   1.0000     -79.945326     -2175.4229
   1   1.0000     -11.229146      -305.5606
   2   1.0000      -7.488194      -203.7641
   3   1.0000      -5.393132      -146.7546
   4   1.0000      -5.379042      -146.3712
   5   1.0000      -5.377285      -146.3234
   6   1.0000      -0.987039       -26.8587
   7   1.0000      -0.787108       -21.4183
   8   1.0000      -0.584523       -15.9057
   9   1.0000      -0.582038       -15.8381
  10   1.0000      -0.489755       -13.3269
  11   1.0000      -0.401756       -10.9323
  12   1.0000      -0.350130        -9.5275
  13   0.0000       0.026011         0.7078
  14   0.0000       0.038034         1.0350
  15   0.0000       0.041770         1.1366
  16   0.0000       0.044568         1.2128
  17   0.0000       0.066278         1.8035

                 SPIN DOWN ORBITALS
  NO   OCC          E(Eh)            E(eV)
   0   1.0000     -79.938349     -2175.2331
   1   1.0000     -11.230245      -305.5905
   2   1.0000      -7.479610      -203.5305
   3   1.0000      -5.374359      -146.2437
   4   1.0000      -5.374082      -146.2362
   5   1.0000      -5.360067      -145.8548
   6   1.0000      -0.974765       -26.5247
   7   1.0000      -0.730003       -19.8644
   8   1.0000      -0.580786       -15.8040
   9   1.0000      -0.565284       -15.3821
  10   1.0000      -0.485879       -13.2214
  11   1.0000      -0.381059       -10.3691
  12   0.0000       0.026543         0.7223
  13   0.0000       0.033541         0.9127
  14   0.0000       0.038327         1.0429
  15   0.0000       0.045071         1.2265
  16   0.0000       0.050483         1.3737

MULLIKEN ATOMIC CHARGES AND SPIN POPULATIONS
--------------------------------------------
   0 P :    0.270050    1.104760
   1 C :   -0.893935   -0.092830
   2 H :    0.230367    0.019746
   3 H :    0.230367    0.019746
   4 H :    0.258417    0.001302
   5 H :   -0.095267   -0.052724
Sum of atomic charges         :    0.0000000

LOEWDIN ATOMIC CHARGES AND SPIN POPULATIONS
-------------------------------------------
   0 P :    1.242762    0.600494
   1 C :    0.570455    0.173474
   2 H :   -0.394520    0.022505
   3 H :   -0.394521    0.022504
   4 H :   -0.413853    0.007811
   5 H :   -0.610323    0.173211

  Mayer bond orders larger than 0.100000
B(  0-P ,  1-C ) :   0.9411 B(  0-P ,  5-H ) :   0.9259 B(  1-C ,  2-H ) :   0.9307
B(  1-C ,  3-H ) :   0.9307 B(  1-C ,  4-H ) :   0.9298

MP2 TOTAL ENERGY:     -381.282026416 Eh
FINAL SINGLE POINT ENERGY      -381.282026416304

DIPOLE MOMENT
-------------
                                X             Y             Z
Electronic contribution:      3.82042      -1.26223       0.00000
Nuclear contribution   :     -4.29901       1.49521       0.00000
                        -----------------------------------------
Total Dipole Moment    :     -0.47859       0.23298       0.00000
                        -----------------------------------------
Magnitude (a.u.)       :      0.53229
Magnitude (Debye)      :      1.35298

Rotational constants in cm-1:     3.315141     0.423467     0.403692
Rotational constants in MHz : 99385.432683 12695.220819 12102.368498

                             ****ORCA TERMINATED NORMALLY****
TOTAL RUN TIME: 0 days 0 hours 6 minutes 53 seconds 322 msec
