                         Program Version 5.0.4 -  RELEASE  -
|  1> ! ri-mp2 aug-cc-pvdz aug-cc-pvdz/c tightscf
|  2> %pal nprocs 16 end
|  3> %maxcore 3800
|  4> %base "DZ_Si-S_53_AB"
|  5> %scf
|  6> STABPerform true
|  7> STABRestartUHFifUnstable true
|  8> end
|  9>
| 10> *xyz 0 1
| 11> Si        -1.464243    0.073344   -0.362361
| 12> S         0.371010   -0.875240   -0.982230
| 13> S         1.555797   -0.471209    0.661946
| 14> C         2.459737    0.994614    0.124301
| 15> H         3.149871    1.238788    0.932156
| 16> H         1.789710    1.834000   -0.042802
| 17> H         3.026279    0.784376   -0.779397
| 18> C        -1.223848    1.897084   -0.068662
| 19> H        -0.542190    2.065645    0.765652
| 20> H        -2.177903    2.365115    0.181394
| 21> H        -0.822828    2.393679   -0.951733
| 22> C        -2.154774   -0.761594    1.149563
| 23> H        -1.456054   -0.680091    1.982697
| 24> H        -2.339453   -1.818922    0.961837
| 25> H        -3.095968   -0.296408    1.448728
| 26> H        -2.347657   -0.150434   -1.532136
| 27> *
| 28>
| 29> $new_job
| 30> ! ri-mp2 aug-cc-pvtz aug-cc-pvtz/c tightscf
| 31> %pal nprocs 16 end
| 32> %maxcore 3800
| 33> %base "TZ_Si-S_53_AB"
| 34>
| 35> *xyz 0 1
| 36> Si        -1.464243    0.073344   -0.362361
| 37> S         0.371010   -0.875240   -0.982230
| 38> S         1.555797   -0.471209    0.661946
| 39> C         2.459737    0.994614    0.124301
| 40> H         3.149871    1.238788    0.932156
| 41> H         1.789710    1.834000   -0.042802
| 42> H         3.026279    0.784376   -0.779397
| 43> C        -1.223848    1.897084   -0.068662
| 44> H        -0.542190    2.065645    0.765652
| 45> H        -2.177903    2.365115    0.181394
| 46> H        -0.822828    2.393679   -0.951733
| 47> C        -2.154774   -0.761594    1.149563
| 48> H        -1.456054   -0.680091    1.982697
| 49> H        -2.339453   -1.818922    0.961837
| 50> H        -3.095968   -0.296408    1.448728
| 51> H        -2.347657   -0.150434   -1.532136
| 52> *
| 53>
| 54> $new_job
| 55> ! ri-mp2 aug-cc-pvqz aug-cc-pvqz/c tightscf
| 56> %pal nprocs 16 end
| 57> %maxcore 3800
| 58> %base "QZ_Si-S_53_AB"
| 59>
| 60> *xyz 0 1
| 61> Si        -1.464243    0.073344   -0.362361
| 62> S         0.371010   -0.875240   -0.982230
| 63> S         1.555797   -0.471209    0.661946
| 64> C         2.459737    0.994614    0.124301
| 65> H         3.149871    1.238788    0.932156
| 66> H         1.789710    1.834000   -0.042802
| 67> H         3.026279    0.784376   -0.779397
| 68> C        -1.223848    1.897084   -0.068662
| 69> H        -0.542190    2.065645    0.765652
| 70> H        -2.177903    2.365115    0.181394
| 71> H        -0.822828    2.393679   -0.951733
| 72> C        -2.154774   -0.761594    1.149563
| 73> H        -1.456054   -0.680091    1.982697
| 74> H        -2.339453   -1.818922    0.961837
| 75> H        -3.095968   -0.296408    1.448728
| 76> H        -2.347657   -0.150434   -1.532136
| 77> *
| 78>
| 79>
| 80>
| 81>
| 82>                          ****END OF INPUT****
 Total Charge           Charge          ....    0
 Multiplicity           Mult            ....    1
 Number of Electrons    NEL             ....   74
MP2 TOTAL ENERGY:    -1204.333062756 Eh
FINAL SINGLE POINT ENERGY     -1204.333062756262
MP2 TOTAL ENERGY:    -1204.600651668 Eh
FINAL SINGLE POINT ENERGY     -1204.600651668364

CARTESIAN COORDINATES (ANGSTROEM)
---------------------------------
  Si    -1.464243    0.073344   -0.362361
  S      0.371010   -0.875240   -0.982230
  S      1.555797   -0.471209    0.661946
  C      2.459737    0.994614    0.124301
  H      3.149871    1.238788    0.932156
  H      1.789710    1.834000   -0.042802
  H      3.026279    0.784376   -0.779397
  C     -1.223848    1.897084   -0.068662
  H     -0.542190    2.065645    0.765652
  H     -2.177903    2.365115    0.181394
  H     -0.822828    2.393679   -0.951733
  C     -2.154774   -0.761594    1.149563
  H     -1.456054   -0.680091    1.982697
  H     -2.339453   -1.818922    0.961837
  H     -3.095968   -0.296408    1.448728
  H     -2.347657   -0.150434   -1.532136

 Multiplicity           Mult            ....    1
 Number of Electrons    NEL             ....   74
 Basis Dimension        Dim             ....  952

ORBITAL ENERGIES
----------------

  NO   OCC          E(Eh)            E(eV)
   0   2.0000     -91.972752     -2502.7058
   1   2.0000     -91.953149     -2502.1724
   2   2.0000     -68.780851     -1871.6221
   3   2.0000     -11.256897      -306.3157
   4   2.0000     -11.208572      -305.0008
   5   2.0000     -11.203869      -304.8728
   6   2.0000      -8.972790      -244.1620
   7   2.0000      -8.955910      -243.7027
   8   2.0000      -6.654203      -181.0701
   9   2.0000      -6.653037      -181.0383
  10   2.0000      -6.652132      -181.0137
  11   2.0000      -6.637273      -180.6094
  12   2.0000      -6.636071      -180.5767
  13   2.0000      -6.635538      -180.5622
  14   2.0000      -6.128297      -166.7594
  15   2.0000      -4.235232      -115.2465
  16   2.0000      -4.234410      -115.2241
  17   2.0000      -4.233896      -115.2102
  18   2.0000      -1.069734       -29.1089
  19   2.0000      -0.975383       -26.5415
  20   2.0000      -0.945544       -25.7295
  21   2.0000      -0.934838       -25.4382
  22   2.0000      -0.810794       -22.0628
  23   2.0000      -0.656872       -17.8744
  24   2.0000      -0.604536       -16.4502
  25   2.0000      -0.595658       -16.2087
  26   2.0000      -0.576365       -15.6837
  27   2.0000      -0.570423       -15.5220
  28   2.0000      -0.554599       -15.0914
  29   2.0000      -0.552116       -15.0239
  30   2.0000      -0.522258       -14.2114
  31   2.0000      -0.474886       -12.9223
  32   2.0000      -0.464795       -12.6477
  33   2.0000      -0.454575       -12.3696
  34   2.0000      -0.433314       -11.7911
  35   2.0000      -0.362469        -9.8633
  36   2.0000      -0.341050        -9.2805
  37   0.0000       0.022131         0.6022
  38   0.0000       0.030146         0.8203
  39   0.0000       0.033207         0.9036
  40   0.0000       0.036780         1.0008
  41   0.0000       0.046232         1.2580

MULLIKEN ATOMIC CHARGES
-----------------------
   0 Si:    1.420770
   1 S :   -0.453586
   2 S :   -0.024568
   3 C :   -1.014935
   4 H :    0.359774
   5 H :    0.337496
   6 H :    0.304365
   7 C :   -1.073495
   8 H :    0.270482
   9 H :    0.277517
  10 H :    0.275902
  11 C :   -1.098854
  12 H :    0.237896
  13 H :    0.301884
  14 H :    0.289696
  15 H :   -0.410345
Sum of atomic charges:    0.0000000

LOEWDIN ATOMIC CHARGES
----------------------
   0 Si:   -0.078874
   1 S :    0.685176
   2 S :    0.722248
   3 C :    0.452665
   4 H :   -0.395945
   5 H :   -0.406566
   6 H :   -0.387212
   7 C :    0.896730
   8 H :   -0.370481
   9 H :   -0.345724
  10 H :   -0.354885
  11 C :    0.893536
  12 H :   -0.367670
  13 H :   -0.359665
  14 H :   -0.349381
  15 H :   -0.233952

  Mayer bond orders larger than 0.100000
B(  0-Si,  1-S ) :   0.5819 B(  0-Si,  7-C ) :   0.8638 B(  0-Si, 11-C ) :   0.8767
B(  0-Si, 15-H ) :   0.7612 B(  1-S ,  2-S ) :   1.1115 B(  2-S ,  3-C ) :   0.9981
B(  3-C ,  4-H ) :   0.8380 B(  3-C ,  5-H ) :   0.8560 B(  3-C ,  6-H ) :   0.9061
B(  7-C ,  8-H ) :   0.9459 B(  7-C ,  9-H ) :   0.9377 B(  7-C , 10-H ) :   0.9359
B( 11-C , 12-H ) :   0.9596 B( 11-C , 13-H ) :   0.9244 B( 11-C , 14-H ) :   0.9222

MP2 TOTAL ENERGY:    -1204.683382317 Eh
FINAL SINGLE POINT ENERGY     -1204.683382317212

DIPOLE MOMENT
-------------
                                X             Y             Z
Electronic contribution:      4.65944      -6.95728      -2.75208
Nuclear contribution   :     -4.80954       7.80984       3.01255
                        -----------------------------------------
Total Dipole Moment    :     -0.15011       0.85256       0.26047
                        -----------------------------------------
Magnitude (a.u.)       :      0.90401
Magnitude (Debye)      :      2.29782

Rotational constants in cm-1:     0.086271     0.040452     0.036759
Rotational constants in MHz :  2586.348761  1212.716947  1102.009987

                             ****ORCA TERMINATED NORMALLY****
TOTAL RUN TIME: 0 days 1 hours 34 minutes 35 seconds 794 msec
