                         Program Version 5.0.4 -  RELEASE  -
|  1> ! ri-mp2 aug-cc-pvdz aug-cc-pvdz/c tightscf
|  2> %pal nprocs 16 end
|  3> %maxcore 3800
|  4> %base "DZ_P-S_27_AB"
|  5> %scf
|  6> STABPerform true
|  7> STABRestartUHFifUnstable true
|  8> end
|  9>
| 10> *xyz 0 1
| 11> S         0.251858   -1.089376   -0.240025
| 12> P        -1.408877    0.083446    0.083434
| 13> O        -1.325209    1.084521    1.147425
| 14> C         1.685618    0.070605    0.017324
| 15> C         2.880581   -0.731412   -0.488445
| 16> H         2.790173   -0.953813   -1.551361
| 17> H         2.988705   -1.671048    0.053977
| 18> C         1.841915    0.386390    1.497799
| 19> H         2.720337    1.020825    1.637580
| 20> H         1.984386   -0.525292    2.077373
| 21> H         0.969420    0.911235    1.880133
| 22> C         1.520294    1.342231   -0.801343
| 23> H         1.336667    1.118456   -1.851170
| 24> H         2.437365    1.930698   -0.728996
| 25> H         0.703339    1.954583   -0.423894
| 26> H         3.789929   -0.148010   -0.335638
| 27> O        -2.552826   -1.009553    0.268399
| 28> H        -2.617629   -1.323503    1.177978
| 29> O        -1.776898    0.674382   -1.344158
| 30> H        -2.330245    1.462518   -1.272422
| 31> *
| 32>
| 33> $new_job
| 34> ! ri-mp2 aug-cc-pvtz aug-cc-pvtz/c tightscf
| 35> %pal nprocs 16 end
| 36> %maxcore 3800
| 37> %base "TZ_P-S_27_AB"
| 38>
| 39> *xyz 0 1
| 40> S         0.251858   -1.089376   -0.240025
| 41> P        -1.408877    0.083446    0.083434
| 42> O        -1.325209    1.084521    1.147425
| 43> C         1.685618    0.070605    0.017324
| 44> C         2.880581   -0.731412   -0.488445
| 45> H         2.790173   -0.953813   -1.551361
| 46> H         2.988705   -1.671048    0.053977
| 47> C         1.841915    0.386390    1.497799
| 48> H         2.720337    1.020825    1.637580
| 49> H         1.984386   -0.525292    2.077373
| 50> H         0.969420    0.911235    1.880133
| 51> C         1.520294    1.342231   -0.801343
| 52> H         1.336667    1.118456   -1.851170
| 53> H         2.437365    1.930698   -0.728996
| 54> H         0.703339    1.954583   -0.423894
| 55> H         3.789929   -0.148010   -0.335638
| 56> O        -2.552826   -1.009553    0.268399
| 57> H        -2.617629   -1.323503    1.177978
| 58> O        -1.776898    0.674382   -1.344158
| 59> H        -2.330245    1.462518   -1.272422
| 60> *
| 61>
| 62> $new_job
| 63> ! ri-mp2 aug-cc-pvqz aug-cc-pvqz/c tightscf
| 64> %pal nprocs 16 end
| 65> %maxcore 3800
| 66> %base "QZ_P-S_27_AB"
| 67>
| 68> *xyz 0 1
| 69> S         0.251858   -1.089376   -0.240025
| 70> P        -1.408877    0.083446    0.083434
| 71> O        -1.325209    1.084521    1.147425
| 72> C         1.685618    0.070605    0.017324
| 73> C         2.880581   -0.731412   -0.488445
| 74> H         2.790173   -0.953813   -1.551361
| 75> H         2.988705   -1.671048    0.053977
| 76> C         1.841915    0.386390    1.497799
| 77> H         2.720337    1.020825    1.637580
| 78> H         1.984386   -0.525292    2.077373
| 79> H         0.969420    0.911235    1.880133
| 80> C         1.520294    1.342231   -0.801343
| 81> H         1.336667    1.118456   -1.851170
| 82> H         2.437365    1.930698   -0.728996
| 83> H         0.703339    1.954583   -0.423894
| 84> H         3.789929   -0.148010   -0.335638
| 85> O        -2.552826   -1.009553    0.268399
| 86> H        -2.617629   -1.323503    1.177978
| 87> O        -1.776898    0.674382   -1.344158
| 88> H        -2.330245    1.462518   -1.272422
| 89> *
| 90>
| 91>
| 92>
| 93>
| 94>                          ****END OF INPUT****
 Total Charge           Charge          ....    0
 Multiplicity           Mult            ....    1
 Number of Electrons    NEL             ....   90
MP2 TOTAL ENERGY:    -1122.357848591 Eh
FINAL SINGLE POINT ENERGY     -1122.357848591394
MP2 TOTAL ENERGY:    -1122.829702576 Eh
FINAL SINGLE POINT ENERGY     -1122.829702575755

CARTESIAN COORDINATES (ANGSTROEM)
---------------------------------
  S      0.251858   -1.089376   -0.240025
  P     -1.408877    0.083446    0.083434
  O     -1.325209    1.084521    1.147425
  C      1.685618    0.070605    0.017324
  C      2.880581   -0.731412   -0.488445
  H      2.790173   -0.953813   -1.551361
  H      2.988705   -1.671048    0.053977
  C      1.841915    0.386390    1.497799
  H      2.720337    1.020825    1.637580
  H      1.984386   -0.525292    2.077373
  H      0.969420    0.911235    1.880133
  C      1.520294    1.342231   -0.801343
  H      1.336667    1.118456   -1.851170
  H      2.437365    1.930698   -0.728996
  H      0.703339    1.954583   -0.423894
  H      3.789929   -0.148010   -0.335638
  O     -2.552826   -1.009553    0.268399
  H     -2.617629   -1.323503    1.177978
  O     -1.776898    0.674382   -1.344158
  H     -2.330245    1.462518   -1.272422

 Multiplicity           Mult            ....    1
 Number of Electrons    NEL             ....   90
 Basis Dimension        Dim             .... 1234

ORBITAL ENERGIES
----------------

  NO   OCC          E(Eh)            E(eV)
   0   2.0000     -91.957113     -2502.2803
   1   2.0000     -80.086980     -2179.2775
   2   2.0000     -20.603311      -560.6446
   3   2.0000     -20.601399      -560.5926
   4   2.0000     -20.511076      -558.1347
   5   2.0000     -11.284856      -307.0765
   6   2.0000     -11.228204      -305.5350
   7   2.0000     -11.222085      -305.3685
   8   2.0000     -11.214274      -305.1559
   9   2.0000      -8.961750      -243.8616
  10   2.0000      -7.607297      -207.0051
  11   2.0000      -6.643133      -180.7688
  12   2.0000      -6.642084      -180.7403
  13   2.0000      -6.641426      -180.7224
  14   2.0000      -5.505542      -149.8134
  15   2.0000      -5.505197      -149.8040
  16   2.0000      -5.504260      -149.7785
  17   2.0000      -1.442651       -39.2565
  18   2.0000      -1.388678       -37.7879
  19   2.0000      -1.305607       -35.5274
  20   2.0000      -1.127985       -30.6940
  21   2.0000      -0.976615       -26.5750
  22   2.0000      -0.951074       -25.8800
  23   2.0000      -0.944720       -25.7071
  24   2.0000      -0.844137       -22.9701
  25   2.0000      -0.753283       -20.4979
  26   2.0000      -0.740976       -20.1630
  27   2.0000      -0.679695       -18.4954
  28   2.0000      -0.657369       -17.8879
  29   2.0000      -0.630518       -17.1573
  30   2.0000      -0.619882       -16.8678
  31   2.0000      -0.617268       -16.7967
  32   2.0000      -0.596691       -16.2368
  33   2.0000      -0.576351       -15.6833
  34   2.0000      -0.562742       -15.3130
  35   2.0000      -0.556602       -15.1459
  36   2.0000      -0.547433       -14.8964
  37   2.0000      -0.526660       -14.3311
  38   2.0000      -0.505252       -13.7486
  39   2.0000      -0.495031       -13.4705
  40   2.0000      -0.490182       -13.3385
  41   2.0000      -0.471796       -12.8382
  42   2.0000      -0.453292       -12.3347
  43   2.0000      -0.427521       -11.6334
  44   2.0000      -0.377297       -10.2668
  45   0.0000       0.023519         0.6400
  46   0.0000       0.030013         0.8167
  47   0.0000       0.030269         0.8237
  48   0.0000       0.035923         0.9775
  49   0.0000       0.041851         1.1388

MULLIKEN ATOMIC CHARGES
-----------------------
   0 S :   -0.427365
   1 P :    2.565226
   2 O :   -1.209313
   3 C :    1.299066
   4 C :   -1.105891
   5 H :    0.266488
   6 H :    0.274821
   7 C :   -1.184862
   8 H :    0.273067
   9 H :    0.264577
  10 H :    0.360514
  11 C :   -1.195579
  12 H :    0.260566
  13 H :    0.296324
  14 H :    0.278468
  15 H :    0.289661
  16 O :   -1.143602
  17 H :    0.390381
  18 O :   -0.969743
  19 H :    0.417194
Sum of atomic charges:   -0.0000000

LOEWDIN ATOMIC CHARGES
----------------------
   0 S :    1.259342
   1 P :   -1.083585
   2 O :    0.318006
   3 C :   -0.674141
   4 C :    0.799287
   5 H :   -0.290226
   6 H :   -0.292685
   7 C :    0.826480
   8 H :   -0.271802
   9 H :   -0.287538
  10 H :   -0.355450
  11 C :    0.825303
  12 H :   -0.284603
  13 H :   -0.270107
  14 H :   -0.324980
  15 H :   -0.275640
  16 O :    1.049139
  17 H :   -0.869957
  18 O :    1.059525
  19 H :   -0.856368

  Mayer bond orders larger than 0.100000
B(  0-S ,  1-P ) :   1.0785 B(  0-S ,  3-C ) :   0.4977 B(  0-S ,  4-C ) :   0.1122
B(  1-P ,  2-O ) :   1.3154 B(  1-P , 16-O ) :   0.3444 B(  1-P , 18-O ) :   0.5357
B(  3-C ,  4-C ) :   0.2967 B(  3-C ,  5-H ) :  -0.1324 B(  3-C ,  6-H ) :  -0.1372
B(  3-C ,  7-C ) :   0.5863 B(  3-C , 11-C ) :   0.5669 B(  3-C , 15-H ) :  -0.1017
B(  4-C ,  5-H ) :   1.0385 B(  4-C ,  6-H ) :   1.0266 B(  4-C ,  7-C ) :   0.1332
B(  4-C , 11-C ) :   0.1147 B(  4-C , 15-H ) :   0.9707 B(  7-C ,  8-H ) :   0.9456
B(  7-C ,  9-H ) :   1.0061 B(  7-C , 10-H ) :   0.9356 B( 11-C , 12-H ) :   0.9878
B( 11-C , 13-H ) :   0.9339 B( 11-C , 14-H ) :   1.0057 B( 16-O , 17-H ) :   0.9100
B( 18-O , 19-H ) :   0.8771

MP2 TOTAL ENERGY:    -1122.979687290 Eh
FINAL SINGLE POINT ENERGY     -1122.979687290315

DIPOLE MOMENT
-------------
                                X             Y             Z
Electronic contribution:    -15.49316      -3.75340      -0.73019
Nuclear contribution   :     15.91033       3.71761       0.58868
                        -----------------------------------------
Total Dipole Moment    :      0.41717      -0.03579      -0.14151
                        -----------------------------------------
Magnitude (a.u.)       :      0.44197
Magnitude (Debye)      :      1.12341

Rotational constants in cm-1:     0.070163     0.027110     0.026274
Rotational constants in MHz :  2103.433011   812.723261   787.665414

                             ****ORCA TERMINATED NORMALLY****
TOTAL RUN TIME: 0 days 4 hours 42 minutes 13 seconds 654 msec
