                         Program Version 5.0.4 -  RELEASE  -
|  1> ! ri-mp2 aug-cc-pvdz aug-cc-pvdz/c tightscf
|  2> %pal nprocs 16 end
|  3> %maxcore 3800
|  4> %base "DZ_P-S_12_AB"
|  5> %scf
|  6> STABPerform true
|  7> STABRestartUHFifUnstable true
|  8> end
|  9>
| 10> *xyz 0 1
| 11> P         0.493665   -0.705587   -0.088786
| 12> C         1.675496    0.702790   -0.017482
| 13> H         1.452411    1.410313    0.778222
| 14> H         1.658592    1.226225   -0.972195
| 15> H         2.678860    0.300174    0.133210
| 16> S        -1.373105    0.291290    0.081555
| 17> H        -1.859948   -0.159225   -1.080458
| 18> H         0.581814   -1.071074    1.273029
| 19> *
| 20>
| 21> $new_job
| 22> ! ri-mp2 aug-cc-pvtz aug-cc-pvtz/c tightscf
| 23> %pal nprocs 16 end
| 24> %maxcore 3800
| 25> %base "TZ_P-S_12_AB"
| 26>
| 27> *xyz 0 1
| 28> P         0.493665   -0.705587   -0.088786
| 29> C         1.675496    0.702790   -0.017482
| 30> H         1.452411    1.410313    0.778222
| 31> H         1.658592    1.226225   -0.972195
| 32> H         2.678860    0.300174    0.133210
| 33> S        -1.373105    0.291290    0.081555
| 34> H        -1.859948   -0.159225   -1.080458
| 35> H         0.581814   -1.071074    1.273029
| 36> *
| 37>
| 38> $new_job
| 39> ! ri-mp2 aug-cc-pvqz aug-cc-pvqz/c tightscf
| 40> %pal nprocs 16 end
| 41> %maxcore 3800
| 42> %base "QZ_P-S_12_AB"
| 43>
| 44> *xyz 0 1
| 45> P         0.493665   -0.705587   -0.088786
| 46> C         1.675496    0.702790   -0.017482
| 47> H         1.452411    1.410313    0.778222
| 48> H         1.658592    1.226225   -0.972195
| 49> H         2.678860    0.300174    0.133210
| 50> S        -1.373105    0.291290    0.081555
| 51> H        -1.859948   -0.159225   -1.080458
| 52> H         0.581814   -1.071074    1.273029
| 53> *
| 54>
| 55>
| 56>
| 57>
| 58>                          ****END OF INPUT****
 Total Charge           Charge          ....    0
 Multiplicity           Mult            ....    1
 Number of Electrons    NEL             ....   42
MP2 TOTAL ENERGY:     -779.493597931 Eh
FINAL SINGLE POINT ENERGY      -779.493597930909
MP2 TOTAL ENERGY:     -779.634094953 Eh
FINAL SINGLE POINT ENERGY      -779.634094953424

CARTESIAN COORDINATES (ANGSTROEM)
---------------------------------
  P      0.493665   -0.705587   -0.088786
  C      1.675496    0.702790   -0.017482
  H      1.452411    1.410313    0.778222
  H      1.658592    1.226225   -0.972195
  H      2.678860    0.300174    0.133210
  S     -1.373105    0.291290    0.081555
  H     -1.859948   -0.159225   -1.080458
  H      0.581814   -1.071074    1.273029

 Multiplicity           Mult            ....    1
 Number of Electrons    NEL             ....   42
 Basis Dimension        Dim             ....  478

ORBITAL ENERGIES
----------------

  NO   OCC          E(Eh)            E(eV)
   0   2.0000     -91.956124     -2502.2533
   1   2.0000     -79.966528     -2175.9998
   2   2.0000     -11.232248      -305.6450
   3   2.0000      -8.959323      -243.7956
   4   2.0000      -7.506252      -204.2555
   5   2.0000      -6.640658      -180.7015
   6   2.0000      -6.639983      -180.6831
   7   2.0000      -6.639093      -180.6589
   8   2.0000      -5.400123      -146.9448
   9   2.0000      -5.399569      -146.9298
  10   2.0000      -5.398741      -146.9072
  11   2.0000      -1.016371       -27.6568
  12   2.0000      -0.953018       -25.9329
  13   2.0000      -0.767670       -20.8894
  14   2.0000      -0.591257       -16.0889
  15   2.0000      -0.589581       -16.0433
  16   2.0000      -0.534836       -14.5536
  17   2.0000      -0.507803       -13.8180
  18   2.0000      -0.475935       -12.9508
  19   2.0000      -0.375729       -10.2241
  20   2.0000      -0.356635        -9.7045
  21   0.0000       0.026563         0.7228
  22   0.0000       0.034707         0.9444
  23   0.0000       0.039000         1.0612
  24   0.0000       0.041466         1.1284
  25   0.0000       0.054198         1.4748

MULLIKEN ATOMIC CHARGES
-----------------------
   0 P :    0.464676
   1 C :   -0.956737
   2 H :    0.261451
   3 H :    0.273074
   4 H :    0.281939
   5 S :   -0.354446
   6 H :    0.107976
   7 H :   -0.077932
Sum of atomic charges:    0.0000000

LOEWDIN ATOMIC CHARGES
----------------------
   0 P :    0.707815
   1 C :    0.643705
   2 H :   -0.378422
   3 H :   -0.388881
   4 H :   -0.381627
   5 S :    1.237511
   6 H :   -0.920931
   7 H :   -0.519170

  Mayer bond orders larger than 0.100000
B(  0-P ,  1-C ) :   0.9169 B(  0-P ,  5-S ) :   0.9896 B(  0-P ,  7-H ) :   0.9219
B(  1-C ,  2-H ) :   0.9194 B(  1-C ,  3-H ) :   0.9297 B(  1-C ,  4-H ) :   0.8967
B(  5-S ,  6-H ) :   1.0046

MP2 TOTAL ENERGY:     -779.677961863 Eh
FINAL SINGLE POINT ENERGY      -779.677961863104

DIPOLE MOMENT
-------------
                                X             Y             Z
Electronic contribution:     -3.55973      -2.22222      -0.27168
Nuclear contribution   :      4.02245       2.33373       0.21063
                        -----------------------------------------
Total Dipole Moment    :      0.46272       0.11151      -0.06105
                        -----------------------------------------
Magnitude (a.u.)       :      0.47986
Magnitude (Debye)      :      1.21971

Rotational constants in cm-1:     0.506193     0.137561     0.115158
Rotational constants in MHz : 15175.271857  4123.986302  3452.352810

                             ****ORCA TERMINATED NORMALLY****
TOTAL RUN TIME: 0 days 0 hours 10 minutes 51 seconds 588 msec
