                         Program Version 5.0.4 -  RELEASE  -
|  1> ! ri-mp2 aug-cc-pvdz aug-cc-pvdz/c tightscf
|  2> %pal nprocs 16 end
|  3> %maxcore 3800
|  4> %base "DZ_B-Cl_26_A"
|  5> %scf
|  6> STABPerform true
|  7> STABRestartUHFifUnstable true
|  8> end
|  9>
| 10> *xyz 0 2
| 11> Cl         3.034562    0.070836    0.003060
| 12> B         1.404593   -0.515046   -0.037211
| 13> P        -1.215939   -0.043914   -0.111454
| 14> O        -1.629319   -0.865958   -1.228122
| 15> O        -1.478839   -0.652165    1.327872
| 16> H        -1.973327   -1.479228    1.290772
| 17> O        -1.849607    1.392321   -0.088481
| 18> H        -1.534322    1.983685    0.604243
| 19> O         0.349793    0.316460   -0.022414
| 20> *
| 21>
| 22> $new_job
| 23> ! ri-mp2 aug-cc-pvtz aug-cc-pvtz/c tightscf
| 24> %pal nprocs 16 end
| 25> %maxcore 3800
| 26> %base "TZ_B-Cl_26_A"
| 27>
| 28> *xyz 0 2
| 29> Cl         3.034562    0.070836    0.003060
| 30> B         1.404593   -0.515046   -0.037211
| 31> P        -1.215939   -0.043914   -0.111454
| 32> O        -1.629319   -0.865958   -1.228122
| 33> O        -1.478839   -0.652165    1.327872
| 34> H        -1.973327   -1.479228    1.290772
| 35> O        -1.849607    1.392321   -0.088481
| 36> H        -1.534322    1.983685    0.604243
| 37> O         0.349793    0.316460   -0.022414
| 38> *
| 39>
| 40> $new_job
| 41> ! ri-mp2 aug-cc-pvqz aug-cc-pvqz/c tightscf
| 42> %pal nprocs 16 end
| 43> %maxcore 3800
| 44> %base "QZ_B-Cl_26_A"
| 45>
| 46> *xyz 0 2
| 47> Cl         3.034562    0.070836    0.003060
| 48> B         1.404593   -0.515046   -0.037211
| 49> P        -1.215939   -0.043914   -0.111454
| 50> O        -1.629319   -0.865958   -1.228122
| 51> O        -1.478839   -0.652165    1.327872
| 52> H        -1.973327   -1.479228    1.290772
| 53> O        -1.849607    1.392321   -0.088481
| 54> H        -1.534322    1.983685    0.604243
| 55> O         0.349793    0.316460   -0.022414
| 56> *
| 57>
| 58>
| 59>
| 60>
| 61>                          ****END OF INPUT****
 Total Charge           Charge          ....    0
 Multiplicity           Mult            ....    2
 Number of Electrons    NEL             ....   71
MP2 TOTAL ENERGY:    -1126.833215010 Eh
FINAL SINGLE POINT ENERGY     -1126.833215009535
MP2 TOTAL ENERGY:    -1127.252482309 Eh
FINAL SINGLE POINT ENERGY     -1127.252482309178

CARTESIAN COORDINATES (ANGSTROEM)
---------------------------------
  Cl     3.034562    0.070836    0.003060
  B      1.404593   -0.515046   -0.037211
  P     -1.215939   -0.043914   -0.111454
  O     -1.629319   -0.865958   -1.228122
  O     -1.478839   -0.652165    1.327872
  H     -1.973327   -1.479228    1.290772
  O     -1.849607    1.392321   -0.088481
  H     -1.534322    1.983685    0.604243
  O      0.349793    0.316460   -0.022414

 Multiplicity           Mult            ....    2
 Number of Electrons    NEL             ....   71
 Basis Dimension        Dim             ....  660

ORBITAL ENERGIES
----------------
                 SPIN UP ORBITALS
  NO   OCC          E(Eh)            E(eV)
   0   1.0000    -104.852704     -2853.1871
   1   1.0000     -80.121724     -2180.2229
   2   1.0000     -20.631163      -561.4025
   3   1.0000     -20.624902      -561.2321
   4   1.0000     -20.622870      -561.1768
   5   1.0000     -20.527955      -558.5941
   6   1.0000     -10.580451      -287.9087
   7   1.0000      -8.048803      -219.0191
   8   1.0000      -8.045725      -218.9353
   9   1.0000      -8.045528      -218.9300
  10   1.0000      -7.731382      -210.3816
  11   1.0000      -7.639370      -207.8778
  12   1.0000      -5.538388      -150.7072
  13   1.0000      -5.538012      -150.6970
  14   1.0000      -5.536819      -150.6645
  15   1.0000      -1.492180       -40.6043
  16   1.0000      -1.423778       -38.7430
  17   1.0000      -1.414222       -38.4829
  18   1.0000      -1.325463       -36.0677
  19   1.0000      -1.136743       -30.9324
  20   1.0000      -0.905942       -24.6519
  21   1.0000      -0.807492       -21.9730
  22   1.0000      -0.796450       -21.6725
  23   1.0000      -0.709868       -19.3165
  24   1.0000      -0.674068       -18.3423
  25   1.0000      -0.645724       -17.5710
  26   1.0000      -0.638914       -17.3857
  27   1.0000      -0.628486       -17.1020
  28   1.0000      -0.602092       -16.3838
  29   1.0000      -0.584429       -15.9031
  30   1.0000      -0.560401       -15.2493
  31   1.0000      -0.509351       -13.8602
  32   1.0000      -0.497076       -13.5261
  33   1.0000      -0.496354       -13.5065
  34   1.0000      -0.486295       -13.2328
  35   1.0000      -0.374079       -10.1792
  36   0.0000       0.018814         0.5119
  37   0.0000       0.028795         0.7836
  38   0.0000       0.036892         1.0039
  39   0.0000       0.042620         1.1597
  40   0.0000       0.050115         1.3637

                 SPIN DOWN ORBITALS
  NO   OCC          E(Eh)            E(eV)
   0   1.0000    -104.851498     -2853.1543
   1   1.0000     -80.121679     -2180.2217
   2   1.0000     -20.628750      -561.3368
   3   1.0000     -20.624942      -561.2332
   4   1.0000     -20.622882      -561.1772
   5   1.0000     -20.528018      -558.5958
   6   1.0000     -10.579034      -287.8702
   7   1.0000      -8.045591      -218.9317
   8   1.0000      -8.045329      -218.9245
   9   1.0000      -8.043347      -218.8706
  10   1.0000      -7.709273      -209.7800
  11   1.0000      -7.639301      -207.8759
  12   1.0000      -5.538276      -150.7042
  13   1.0000      -5.537974      -150.6959
  14   1.0000      -5.536792      -150.6638
  15   1.0000      -1.489246       -40.5244
  16   1.0000      -1.418063       -38.5875
  17   1.0000      -1.414144       -38.4808
  18   1.0000      -1.325492       -36.0685
  19   1.0000      -1.125477       -30.6258
  20   1.0000      -0.902353       -24.5543
  21   1.0000      -0.804243       -21.8846
  22   1.0000      -0.793434       -21.5904
  23   1.0000      -0.696184       -18.9441
  24   1.0000      -0.668328       -18.1861
  25   1.0000      -0.641415       -17.4538
  26   1.0000      -0.623290       -16.9606
  27   1.0000      -0.618257       -16.8236
  28   1.0000      -0.590246       -16.0614
  29   1.0000      -0.583146       -15.8682
  30   1.0000      -0.557660       -15.1747
  31   1.0000      -0.501994       -13.6599
  32   1.0000      -0.496386       -13.5073
  33   1.0000      -0.490690       -13.3523
  34   1.0000      -0.483347       -13.1525
  35   0.0000       0.016021         0.4359
  36   0.0000       0.028595         0.7781
  37   0.0000       0.034123         0.9285
  38   0.0000       0.043002         1.1701
  39   0.0000       0.050157         1.3648

MULLIKEN ATOMIC CHARGES AND SPIN POPULATIONS
--------------------------------------------
   0 Cl:   -0.194535    0.044936
   1 B :    0.648949    0.953676
   2 P :    2.608988   -0.015865
   3 O :   -1.097915   -0.000547
   4 O :   -0.836622   -0.000319
   5 H :    0.383553   -0.001223
   6 O :   -0.881050    0.000294
   7 H :    0.378285    0.000410
   8 O :   -1.009652    0.018638
Sum of atomic charges         :    0.0000000

LOEWDIN ATOMIC CHARGES AND SPIN POPULATIONS
-------------------------------------------
   0 Cl:    1.150705    0.166187
   1 B :   -1.503485    0.581357
   2 P :   -1.014780    0.062394
   3 O :    0.306099    0.006267
   4 O :    1.103067    0.007824
   5 H :   -0.855476    0.003203
   6 O :    1.090476    0.001352
   7 H :   -0.842011    0.002226
   8 O :    0.565405    0.169191

  Mayer bond orders larger than 0.100000
B(  0-Cl,  1-B ) :   1.1516 B(  1-B ,  8-O ) :   0.7458 B(  2-P ,  3-O ) :   1.4424
B(  2-P ,  4-O ) :   0.6937 B(  2-P ,  6-O ) :   0.6560 B(  2-P ,  8-O ) :   0.6238
B(  4-O ,  5-H ) :   0.9007 B(  6-O ,  7-H ) :   0.8638

MP2 TOTAL ENERGY:    -1127.389619947 Eh
FINAL SINGLE POINT ENERGY     -1127.389619946930

DIPOLE MOMENT
-------------
                                X             Y             Z
Electronic contribution:      7.27293      -0.39684      -0.54483
Nuclear contribution   :     -7.34952       0.80329       1.88645
                        -----------------------------------------
Total Dipole Moment    :     -0.07659       0.40645       1.34162
                        -----------------------------------------
Magnitude (a.u.)       :      1.40392
Magnitude (Debye)      :      3.56849

Rotational constants in cm-1:     0.145881     0.028649     0.028360
Rotational constants in MHz :  4373.415240   858.873106   850.206338

                             ****ORCA TERMINATED NORMALLY****
TOTAL RUN TIME: 0 days 1 hours 11 minutes 39 seconds 734 msec
