                         Program Version 5.0.4 -  RELEASE  -
|  1> ! ri-mp2 aug-cc-pvdz aug-cc-pvdz/c tightscf
|  2> %pal nprocs 16 end
|  3> %maxcore 3800
|  4> %base "DZ_B-B_12_AB"
|  5> %scf
|  6> STABPerform true
|  7> STABRestartUHFifUnstable true
|  8> end
|  9>
| 10> *xyz 0 1
| 11> B         1.056246   -0.000010    0.842243
| 12> B        -0.502498   -0.000003    0.228607
| 13> Cl        -1.323244    1.506365   -0.088305
| 14> Cl        -1.323243   -1.506364   -0.088344
| 15> Cl         2.406664    0.000004   -0.256144
| 16> H         1.308245   -0.000024    2.003232
| 17> *
| 18>
| 19> $new_job
| 20> ! ri-mp2 aug-cc-pvtz aug-cc-pvtz/c tightscf
| 21> %pal nprocs 16 end
| 22> %maxcore 3800
| 23> %base "TZ_B-B_12_AB"
| 24>
| 25> *xyz 0 1
| 26> B         1.056246   -0.000010    0.842243
| 27> B        -0.502498   -0.000003    0.228607
| 28> Cl        -1.323244    1.506365   -0.088305
| 29> Cl        -1.323243   -1.506364   -0.088344
| 30> Cl         2.406664    0.000004   -0.256144
| 31> H         1.308245   -0.000024    2.003232
| 32> *
| 33>
| 34> $new_job
| 35> ! ri-mp2 aug-cc-pvqz aug-cc-pvqz/c tightscf
| 36> %pal nprocs 16 end
| 37> %maxcore 3800
| 38> %base "QZ_B-B_12_AB"
| 39>
| 40> *xyz 0 1
| 41> B         1.056246   -0.000010    0.842243
| 42> B        -0.502498   -0.000003    0.228607
| 43> Cl        -1.323244    1.506365   -0.088305
| 44> Cl        -1.323243   -1.506364   -0.088344
| 45> Cl         2.406664    0.000004   -0.256144
| 46> H         1.308245   -0.000024    2.003232
| 47> *
| 48>
| 49>
| 50>
| 51>
| 52>                          ****END OF INPUT****
 Total Charge           Charge          ....    0
 Multiplicity           Mult            ....    1
 Number of Electrons    NEL             ....   62
MP2 TOTAL ENERGY:    -1429.176454264 Eh
FINAL SINGLE POINT ENERGY     -1429.176454263594
MP2 TOTAL ENERGY:    -1429.396801271 Eh
FINAL SINGLE POINT ENERGY     -1429.396801271039

CARTESIAN COORDINATES (ANGSTROEM)
---------------------------------
  B      1.056246   -0.000010    0.842243
  B     -0.502498   -0.000003    0.228607
  Cl    -1.323244    1.506365   -0.088305
  Cl    -1.323243   -1.506364   -0.088344
  Cl     2.406664    0.000004   -0.256144
  H      1.308245   -0.000024    2.003232

 Multiplicity           Mult            ....    1
 Number of Electrons    NEL             ....   62
 Basis Dimension        Dim             ....  458

ORBITAL ENERGIES
----------------

  NO   OCC          E(Eh)            E(eV)
   0   2.0000    -104.853919     -2853.2202
   1   2.0000    -104.853919     -2853.2202
   2   2.0000    -104.848727     -2853.0789
   3   2.0000     -10.581591      -287.9397
   4   2.0000     -10.581583      -287.9395
   5   2.0000     -10.576227      -287.7938
   6   2.0000      -8.048364      -219.0071
   7   2.0000      -8.048363      -219.0071
   8   2.0000      -8.047322      -218.9788
   9   2.0000      -8.047320      -218.9787
  10   2.0000      -8.047031      -218.9709
  11   2.0000      -8.047031      -218.9708
  12   2.0000      -8.043022      -218.8617
  13   2.0000      -8.042102      -218.8367
  14   2.0000      -8.041661      -218.8247
  15   2.0000      -7.710344      -209.8091
  16   2.0000      -7.666586      -208.6184
  17   2.0000      -1.155818       -31.4514
  18   2.0000      -1.126589       -30.6561
  19   2.0000      -1.111991       -30.2588
  20   2.0000      -0.749727       -20.4011
  21   2.0000      -0.663808       -18.0631
  22   2.0000      -0.585008       -15.9189
  23   2.0000      -0.583321       -15.8730
  24   2.0000      -0.564433       -15.3590
  25   2.0000      -0.521154       -14.1813
  26   2.0000      -0.497483       -13.5372
  27   2.0000      -0.487344       -13.2613
  28   2.0000      -0.478072       -13.0090
  29   2.0000      -0.467252       -12.7146
  30   2.0000      -0.420313       -11.4373
  31   0.0000       0.028114         0.7650
  32   0.0000       0.031830         0.8661
  33   0.0000       0.034644         0.9427
  34   0.0000       0.037217         1.0127
  35   0.0000       0.051336         1.3969

MULLIKEN ATOMIC CHARGES
-----------------------
   0 B :    0.469890
   1 B :    0.411985
   2 Cl:   -0.229069
   3 Cl:   -0.229069
   4 Cl:   -0.231736
   5 H :   -0.192000
Sum of atomic charges:    0.0000000

LOEWDIN ATOMIC CHARGES
----------------------
   0 B :   -1.140088
   1 B :   -2.343094
   2 Cl:    1.244302
   3 Cl:    1.244301
   4 Cl:    1.300690
   5 H :   -0.306111

  Mayer bond orders larger than 0.100000
B(  0-B ,  1-B ) :   0.9919 B(  0-B ,  4-Cl) :   1.0859 B(  0-B ,  5-H ) :   0.9208
B(  1-B ,  2-Cl) :   1.0500 B(  1-B ,  3-Cl) :   1.0500

MP2 TOTAL ENERGY:    -1429.472034437 Eh
FINAL SINGLE POINT ENERGY     -1429.472034436613

DIPOLE MOMENT
-------------
                                X             Y             Z
Electronic contribution:     -1.05842       0.00002      -1.26307
Nuclear contribution   :      1.08791      -0.00002       1.58837
                        -----------------------------------------
Total Dipole Moment    :      0.02949      -0.00000       0.32530
                        -----------------------------------------
Magnitude (a.u.)       :      0.32664
Magnitude (Debye)      :      0.83025

Rotational constants in cm-1:     0.095777     0.046679     0.033255
Rotational constants in MHz :  2871.325662  1399.411627   996.964094

                             ****ORCA TERMINATED NORMALLY****
TOTAL RUN TIME: 0 days 0 hours 12 minutes 9 seconds 648 msec
