                         Program Version 5.0.4 -  RELEASE  -
|  1> ! ri-mp2 aug-cc-pvdz aug-cc-pvdz/c tightscf
|  2> %pal nprocs 16 end
|  3> %maxcore 3800
|  4> %base "DZ_B-P_5_AB"
|  5> %scf
|  6> STABPerform true
|  7> STABRestartUHFifUnstable true
|  8> end
|  9>
| 10> *xyz 0 1
| 11> B         1.750345    0.941754   -0.126173
| 12> P         0.767941   -0.585454    0.096176
| 13> C        -1.825474    0.581124    0.290476
| 14> C        -0.961859   -0.396207   -0.494273
| 15> H        -1.418016   -1.387154   -0.504490
| 16> H        -0.880821   -0.087980   -1.538508
| 17> H        -1.414167    1.589290    0.243445
| 18> H        -2.842045    0.608353   -0.106244
| 19> H        -1.885616    0.297010    1.341650
| 20> H         2.680961    1.144718    0.584510
| 21> H         1.564188    1.621971   -1.085125
| 22> H         0.648680   -0.822678    1.475768
| 23> *
| 24>
| 25> $new_job
| 26> ! ri-mp2 aug-cc-pvtz aug-cc-pvtz/c tightscf
| 27> %pal nprocs 16 end
| 28> %maxcore 3800
| 29> %base "TZ_B-P_5_AB"
| 30>
| 31> *xyz 0 1
| 32> B         1.750345    0.941754   -0.126173
| 33> P         0.767941   -0.585454    0.096176
| 34> C        -1.825474    0.581124    0.290476
| 35> C        -0.961859   -0.396207   -0.494273
| 36> H        -1.418016   -1.387154   -0.504490
| 37> H        -0.880821   -0.087980   -1.538508
| 38> H        -1.414167    1.589290    0.243445
| 39> H        -2.842045    0.608353   -0.106244
| 40> H        -1.885616    0.297010    1.341650
| 41> H         2.680961    1.144718    0.584510
| 42> H         1.564188    1.621971   -1.085125
| 43> H         0.648680   -0.822678    1.475768
| 44> *
| 45>
| 46> $new_job
| 47> ! ri-mp2 aug-cc-pvqz aug-cc-pvqz/c tightscf
| 48> %pal nprocs 16 end
| 49> %maxcore 3800
| 50> %base "QZ_B-P_5_AB"
| 51>
| 52> *xyz 0 1
| 53> B         1.750345    0.941754   -0.126173
| 54> P         0.767941   -0.585454    0.096176
| 55> C        -1.825474    0.581124    0.290476
| 56> C        -0.961859   -0.396207   -0.494273
| 57> H        -1.418016   -1.387154   -0.504490
| 58> H        -0.880821   -0.087980   -1.538508
| 59> H        -1.414167    1.589290    0.243445
| 60> H        -2.842045    0.608353   -0.106244
| 61> H        -1.885616    0.297010    1.341650
| 62> H         2.680961    1.144718    0.584510
| 63> H         1.564188    1.621971   -1.085125
| 64> H         0.648680   -0.822678    1.475768
| 65> *
| 66>
| 67>
| 68>
| 69>
| 70>                          ****END OF INPUT****
 Total Charge           Charge          ....    0
 Multiplicity           Mult            ....    1
 Number of Electrons    NEL             ....   40
MP2 TOTAL ENERGY:     -446.325143859 Eh
FINAL SINGLE POINT ENERGY      -446.325143858679
MP2 TOTAL ENERGY:     -446.472759602 Eh
FINAL SINGLE POINT ENERGY      -446.472759601578

CARTESIAN COORDINATES (ANGSTROEM)
---------------------------------
  B      1.750345    0.941754   -0.126173
  P      0.767941   -0.585454    0.096176
  C     -1.825474    0.581124    0.290476
  C     -0.961859   -0.396207   -0.494273
  H     -1.418016   -1.387154   -0.504490
  H     -0.880821   -0.087980   -1.538508
  H     -1.414167    1.589290    0.243445
  H     -2.842045    0.608353   -0.106244
  H     -1.885616    0.297010    1.341650
  H      2.680961    1.144718    0.584510
  H      1.564188    1.621971   -1.085125
  H      0.648680   -0.822678    1.475768

 Multiplicity           Mult            ....    1
 Number of Electrons    NEL             ....   40
 Basis Dimension        Dim             ....  692

ORBITAL ENERGIES
----------------

  NO   OCC          E(Eh)            E(eV)
   0   2.0000     -79.920001     -2174.7338
   1   2.0000     -11.239747      -305.8491
   2   2.0000     -11.224386      -305.4311
   3   2.0000      -7.601673      -206.8520
   4   2.0000      -7.466863      -203.1837
   5   2.0000      -5.361526      -145.8945
   6   2.0000      -5.361420      -145.8917
   7   2.0000      -5.360892      -145.8773
   8   2.0000      -1.046605       -28.4796
   9   2.0000      -0.890061       -24.2198
  10   2.0000      -0.800622       -21.7860
  11   2.0000      -0.665827       -18.1181
  12   2.0000      -0.620966       -16.8973
  13   2.0000      -0.582947       -15.8628
  14   2.0000      -0.542984       -14.7753
  15   2.0000      -0.518883       -14.1195
  16   2.0000      -0.502675       -13.6785
  17   2.0000      -0.471847       -12.8396
  18   2.0000      -0.447468       -12.1762
  19   2.0000      -0.333323        -9.0702
  20   0.0000       0.023552         0.6409
  21   0.0000       0.030134         0.8200
  22   0.0000       0.033053         0.8994
  23   0.0000       0.035953         0.9783
  24   0.0000       0.044053         1.1987

MULLIKEN ATOMIC CHARGES
-----------------------
   0 B :    0.232532
   1 P :    0.291369
   2 C :   -0.873609
   3 C :   -0.535912
   4 H :    0.285057
   5 H :    0.248652
   6 H :    0.252548
   7 H :    0.295263
   8 H :    0.249943
   9 H :   -0.247387
  10 H :   -0.141447
  11 H :   -0.057009
Sum of atomic charges:   -0.0000000

LOEWDIN ATOMIC CHARGES
----------------------
   0 B :    0.093603
   1 P :    1.302328
   2 C :    0.849850
   3 C :    0.310186
   4 H :   -0.354952
   5 H :   -0.359626
   6 H :   -0.301824
   7 H :   -0.283772
   8 H :   -0.300749
   9 H :   -0.271271
  10 H :   -0.256517
  11 H :   -0.427255

  Mayer bond orders larger than 0.100000
B(  0-B ,  1-P ) :   1.3328 B(  0-B ,  9-H ) :   0.9179 B(  0-B , 10-H ) :   0.9331
B(  1-P ,  3-C ) :   0.8026 B(  1-P , 11-H ) :   0.9512 B(  2-C ,  3-C ) :   0.9746
B(  2-C ,  6-H ) :   0.9399 B(  2-C ,  7-H ) :   0.9121 B(  2-C ,  8-H ) :   0.9412
B(  3-C ,  4-H ) :   0.8894 B(  3-C ,  5-H ) :   0.8909

MP2 TOTAL ENERGY:     -446.517630053 Eh
FINAL SINGLE POINT ENERGY      -446.517630053356

DIPOLE MOMENT
-------------
                                X             Y             Z
Electronic contribution:      5.14620      -2.68898      -0.33484
Nuclear contribution   :     -5.78512       2.80908       0.42822
                        -----------------------------------------
Total Dipole Moment    :     -0.63892       0.12010       0.09338
                        -----------------------------------------
Magnitude (a.u.)       :      0.65679
Magnitude (Debye)      :      1.66942

Rotational constants in cm-1:     0.349104     0.119183     0.102512
Rotational constants in MHz : 10465.885167  3573.029853  3073.237615

                             ****ORCA TERMINATED NORMALLY****
TOTAL RUN TIME: 0 days 0 hours 30 minutes 52 seconds 715 msec
