                         Program Version 5.0.4 -  RELEASE  -
|  1> ! ri-mp2 aug-cc-pvdz aug-cc-pvdz/c tightscf
|  2> %pal nprocs 16 end
|  3> %maxcore 3800
|  4> %base "DZ_B-F_8_A"
|  5> %scf
|  6> STABPerform true
|  7> STABRestartUHFifUnstable true
|  8> end
|  9>
| 10> *xyz 0 2
| 11> F        -1.578380   -0.356502   -0.000004
| 12> B        -0.800690    0.684306    0.000005
| 13> C         0.763276    0.615940    0.000003
| 14> F         1.257467   -0.686681   -0.000001
| 15> H         1.156005    1.135737    0.879215
| 16> H         1.156004    1.135742   -0.879207
| 17> *
| 18>
| 19> $new_job
| 20> ! ri-mp2 aug-cc-pvtz aug-cc-pvtz/c tightscf
| 21> %pal nprocs 16 end
| 22> %maxcore 3800
| 23> %base "TZ_B-F_8_A"
| 24>
| 25> *xyz 0 2
| 26> F        -1.578380   -0.356502   -0.000004
| 27> B        -0.800690    0.684306    0.000005
| 28> C         0.763276    0.615940    0.000003
| 29> F         1.257467   -0.686681   -0.000001
| 30> H         1.156005    1.135737    0.879215
| 31> H         1.156004    1.135742   -0.879207
| 32> *
| 33>
| 34> $new_job
| 35> ! ri-mp2 aug-cc-pvqz aug-cc-pvqz/c tightscf
| 36> %pal nprocs 16 end
| 37> %maxcore 3800
| 38> %base "QZ_B-F_8_A"
| 39>
| 40> *xyz 0 2
| 41> F        -1.578380   -0.356502   -0.000004
| 42> B        -0.800690    0.684306    0.000005
| 43> C         0.763276    0.615940    0.000003
| 44> F         1.257467   -0.686681   -0.000001
| 45> H         1.156005    1.135737    0.879215
| 46> H         1.156004    1.135742   -0.879207
| 47> *
| 48>
| 49>
| 50>
| 51>
| 52>                          ****END OF INPUT****
 Total Charge           Charge          ....    0
 Multiplicity           Mult            ....    2
 Number of Electrons    NEL             ....   31
MP2 TOTAL ENERGY:     -263.211648462 Eh
FINAL SINGLE POINT ENERGY      -263.211648462467
MP2 TOTAL ENERGY:     -263.437230299 Eh
FINAL SINGLE POINT ENERGY      -263.437230298987

CARTESIAN COORDINATES (ANGSTROEM)
---------------------------------
  F     -1.578380   -0.356502   -0.000004
  B     -0.800690    0.684306    0.000005
  C      0.763276    0.615940    0.000003
  F      1.257467   -0.686681   -0.000001
  H      1.156005    1.135737    0.879215
  H      1.156004    1.135742   -0.879207

 Multiplicity           Mult            ....    2
 Number of Electrons    NEL             ....   31
 Basis Dimension        Dim             ....  412

ORBITAL ENERGIES
----------------
                 SPIN UP ORBITALS
  NO   OCC          E(Eh)            E(eV)
   0   1.0000     -26.329566      -716.4639
   1   1.0000     -26.285125      -715.2546
   2   1.0000     -11.310787      -307.7822
   3   1.0000      -7.694484      -209.3776
   4   1.0000      -1.648823       -44.8667
   5   1.0000      -1.595251       -43.4090
   6   1.0000      -0.980434       -26.6790
   7   1.0000      -0.809814       -22.0362
   8   1.0000      -0.741720       -20.1832
   9   1.0000      -0.713372       -19.4119
  10   1.0000      -0.694969       -18.9111
  11   1.0000      -0.691023       -18.8037
  12   1.0000      -0.683019       -18.5859
  13   1.0000      -0.546833       -14.8801
  14   1.0000      -0.545389       -14.8408
  15   1.0000      -0.371213       -10.1012
  16   0.0000       0.023820         0.6482
  17   0.0000       0.031172         0.8482
  18   0.0000       0.037504         1.0205
  19   0.0000       0.041402         1.1266
  20   0.0000       0.056914         1.5487

                 SPIN DOWN ORBITALS
  NO   OCC          E(Eh)            E(eV)
   0   1.0000     -26.326337      -716.3760
   1   1.0000     -26.283212      -715.2026
   2   1.0000     -11.307247      -307.6858
   3   1.0000      -7.675449      -208.8596
   4   1.0000      -1.639953       -44.6254
   5   1.0000      -1.589336       -43.2480
   6   1.0000      -0.967869       -26.3370
   7   1.0000      -0.798672       -21.7330
   8   1.0000      -0.716688       -19.5021
   9   1.0000      -0.711674       -19.3656
  10   1.0000      -0.691136       -18.8068
  11   1.0000      -0.682015       -18.5586
  12   1.0000      -0.666250       -18.1296
  13   1.0000      -0.543805       -14.7977
  14   1.0000      -0.519464       -14.1353
  15   0.0000       0.018481         0.5029
  16   0.0000       0.032353         0.8804
  17   0.0000       0.037277         1.0144
  18   0.0000       0.040795         1.1101
  19   0.0000       0.058480         1.5913

MULLIKEN ATOMIC CHARGES AND SPIN POPULATIONS
--------------------------------------------
   0 F :   -0.685543   -0.013542
   1 B :    0.785697    0.993763
   2 C :   -0.013158    0.023123
   3 F :   -0.634191    0.025762
   4 H :    0.273597   -0.014553
   5 H :    0.273597   -0.014553
Sum of atomic charges         :    0.0000000

LOEWDIN ATOMIC CHARGES AND SPIN POPULATIONS
-------------------------------------------
   0 F :    0.734083    0.150832
   1 B :   -0.650884    0.586278
   2 C :    0.002006    0.172948
   3 F :    0.718937    0.033754
   4 H :   -0.402071    0.028094
   5 H :   -0.402070    0.028094

  Mayer bond orders larger than 0.100000
B(  0-F ,  1-B ) :   0.4948 B(  1-B ,  2-C ) :   0.9928 B(  2-C ,  3-F ) :   0.5587
B(  2-C ,  4-H ) :   0.8809 B(  2-C ,  5-H ) :   0.8809

MP2 TOTAL ENERGY:     -263.509820284 Eh
FINAL SINGLE POINT ENERGY      -263.509820283979

DIPOLE MOMENT
-------------
                                X             Y             Z
Electronic contribution:     -2.88726      -1.71986      -0.00001
Nuclear contribution   :      3.03377       2.54839       0.00001
                        -----------------------------------------
Total Dipole Moment    :      0.14651       0.82853       0.00000
                        -----------------------------------------
Magnitude (a.u.)       :      0.84138
Magnitude (Debye)      :      2.13863

Rotational constants in cm-1:     0.678126     0.176421     0.143719
Rotational constants in MHz : 20329.699789  5288.968509  4308.586367

                             ****ORCA TERMINATED NORMALLY****
TOTAL RUN TIME: 0 days 0 hours 10 minutes 10 seconds 899 msec
