                         Program Version 5.0.4 -  RELEASE  -
|  1> ! ri-mp2 aug-cc-pvdz aug-cc-pvdz/c tightscf
|  2> %pal nprocs 16 end
|  3> %maxcore 3800
|  4> %base "DZ_B-P_37_A"
|  5> %scf
|  6> STABPerform true
|  7> STABRestartUHFifUnstable true
|  8> end
|  9>
| 10> *xyz 0 2
| 11> C        -0.656977    0.000000   -0.374867
| 12> C         0.042136    1.258809    0.148040
| 13> C         1.527888    1.257753   -0.198270
| 14> C         2.219425   -0.000000    0.312845
| 15> C         1.527888   -1.257753   -0.198270
| 16> C         0.042136   -1.258809    0.148040
| 17> H        -0.076504    1.301527    1.235603
| 18> H        -0.438044    2.152951   -0.253627
| 19> H         2.005120    2.148467    0.215236
| 20> H         1.643126    1.317610   -1.285231
| 21> H         2.201054    0.000000    1.407651
| 22> H         3.270708   -0.000000    0.018802
| 23> H         2.005120   -2.148467    0.215236
| 24> H         1.643126   -1.317610   -1.285231
| 25> H        -0.438044   -2.152951   -0.253627
| 26> H        -0.076505   -1.301526    1.235603
| 27> P        -2.470067    0.000000   -0.013882
| 28> H        -0.579771   -0.000000   -1.468035
| 29> H        -2.323359   -0.000000    1.400745
| 30> *
| 31>
| 32> $new_job
| 33> ! ri-mp2 aug-cc-pvtz aug-cc-pvtz/c tightscf
| 34> %pal nprocs 16 end
| 35> %maxcore 3800
| 36> %base "TZ_B-P_37_A"
| 37>
| 38> *xyz 0 2
| 39> C        -0.656977    0.000000   -0.374867
| 40> C         0.042136    1.258809    0.148040
| 41> C         1.527888    1.257753   -0.198270
| 42> C         2.219425   -0.000000    0.312845
| 43> C         1.527888   -1.257753   -0.198270
| 44> C         0.042136   -1.258809    0.148040
| 45> H        -0.076504    1.301527    1.235603
| 46> H        -0.438044    2.152951   -0.253627
| 47> H         2.005120    2.148467    0.215236
| 48> H         1.643126    1.317610   -1.285231
| 49> H         2.201054    0.000000    1.407651
| 50> H         3.270708   -0.000000    0.018802
| 51> H         2.005120   -2.148467    0.215236
| 52> H         1.643126   -1.317610   -1.285231
| 53> H        -0.438044   -2.152951   -0.253627
| 54> H        -0.076505   -1.301526    1.235603
| 55> P        -2.470067    0.000000   -0.013882
| 56> H        -0.579771   -0.000000   -1.468035
| 57> H        -2.323359   -0.000000    1.400745
| 58> *
| 59>
| 60> $new_job
| 61> ! ri-mp2 aug-cc-pvqz aug-cc-pvqz/c tightscf
| 62> %pal nprocs 16 end
| 63> %maxcore 3800
| 64> %base "QZ_B-P_37_A"
| 65>
| 66> *xyz 0 2
| 67> C        -0.656977    0.000000   -0.374867
| 68> C         0.042136    1.258809    0.148040
| 69> C         1.527888    1.257753   -0.198270
| 70> C         2.219425   -0.000000    0.312845
| 71> C         1.527888   -1.257753   -0.198270
| 72> C         0.042136   -1.258809    0.148040
| 73> H        -0.076504    1.301527    1.235603
| 74> H        -0.438044    2.152951   -0.253627
| 75> H         2.005120    2.148467    0.215236
| 76> H         1.643126    1.317610   -1.285231
| 77> H         2.201054    0.000000    1.407651
| 78> H         3.270708   -0.000000    0.018802
| 79> H         2.005120   -2.148467    0.215236
| 80> H         1.643126   -1.317610   -1.285231
| 81> H        -0.438044   -2.152951   -0.253627
| 82> H        -0.076505   -1.301526    1.235603
| 83> P        -2.470067    0.000000   -0.013882
| 84> H        -0.579771   -0.000000   -1.468035
| 85> H        -2.323359   -0.000000    1.400745
| 86> *
| 87>
| 88>
| 89>
| 90>
| 91>                          ****END OF INPUT****
 Total Charge           Charge          ....    0
 Multiplicity           Mult            ....    2
 Number of Electrons    NEL             ....   63
MP2 TOTAL ENERGY:     -575.936844941 Eh
FINAL SINGLE POINT ENERGY      -575.936844940561
MP2 TOTAL ENERGY:     -576.196370066 Eh
FINAL SINGLE POINT ENERGY      -576.196370065748

CARTESIAN COORDINATES (ANGSTROEM)
---------------------------------
  C     -0.656977    0.000000   -0.374867
  C      0.042136    1.258809    0.148040
  C      1.527888    1.257753   -0.198270
  C      2.219425   -0.000000    0.312845
  C      1.527888   -1.257753   -0.198270
  C      0.042136   -1.258809    0.148040
  H     -0.076504    1.301527    1.235603
  H     -0.438044    2.152951   -0.253627
  H      2.005120    2.148467    0.215236
  H      1.643126    1.317610   -1.285231
  H      2.201054    0.000000    1.407651
  H      3.270708   -0.000000    0.018802
  H      2.005120   -2.148467    0.215236
  H      1.643126   -1.317610   -1.285231
  H     -0.438044   -2.152951   -0.253627
  H     -0.076505   -1.301526    1.235603
  P     -2.470067    0.000000   -0.013882
  H     -0.579771   -0.000000   -1.468035
  H     -2.323359   -0.000000    1.400745

 Multiplicity           Mult            ....    2
 Number of Electrons    NEL             ....   63
 Basis Dimension        Dim             .... 1116

ORBITAL ENERGIES
----------------
                 SPIN UP ORBITALS
  NO   OCC          E(Eh)            E(eV)
   0   1.0000     -79.936952     -2175.1951
   1   1.0000     -11.230703      -305.6030
   2   1.0000     -11.222779      -305.3873
   3   1.0000     -11.222745      -305.3864
   4   1.0000     -11.217594      -305.2463
   5   1.0000     -11.217462      -305.2426
   6   1.0000     -11.216065      -305.2046
   7   1.0000      -7.480484      -203.5543
   8   1.0000      -5.385428      -146.5449
   9   1.0000      -5.371297      -146.1604
  10   1.0000      -5.369511      -146.1118
  11   1.0000      -1.126544       -30.6548
  12   1.0000      -1.019796       -27.7501
  13   1.0000      -1.011162       -27.5151
  14   1.0000      -0.866344       -23.5744
  15   1.0000      -0.838923       -22.8283
  16   1.0000      -0.778676       -21.1889
  17   1.0000      -0.756611       -20.5884
  18   1.0000      -0.649226       -17.6663
  19   1.0000      -0.611093       -16.6287
  20   1.0000      -0.605989       -16.4898
  21   1.0000      -0.587015       -15.9735
  22   1.0000      -0.536068       -14.5872
  23   1.0000      -0.532256       -14.4834
  24   1.0000      -0.515489       -14.0272
  25   1.0000      -0.489140       -13.3102
  26   1.0000      -0.485379       -13.2078
  27   1.0000      -0.458284       -12.4705
  28   1.0000      -0.446861       -12.1597
  29   1.0000      -0.439035       -11.9468
  30   1.0000      -0.379557       -10.3283
  31   1.0000      -0.345229        -9.3942
  32   0.0000       0.024959         0.6792
  33   0.0000       0.030020         0.8169
  34   0.0000       0.031153         0.8477
  35   0.0000       0.033304         0.9062
  36   0.0000       0.045731         1.2444

                 SPIN DOWN ORBITALS
  NO   OCC          E(Eh)            E(eV)
   0   1.0000     -79.929963     -2175.0049
   1   1.0000     -11.231901      -305.6356
   2   1.0000     -11.221887      -305.3631
   3   1.0000     -11.221861      -305.3624
   4   1.0000     -11.217432      -305.2419
   5   1.0000     -11.217279      -305.2377
   6   1.0000     -11.216061      -305.2045
   7   1.0000      -7.471898      -203.3207
   8   1.0000      -5.366632      -146.0335
   9   1.0000      -5.366190      -146.0214
  10   1.0000      -5.352393      -145.6460
  11   1.0000      -1.124683       -30.6042
  12   1.0000      -1.015310       -27.6280
  13   1.0000      -1.009551       -27.4713
  14   1.0000      -0.848588       -23.0913
  15   1.0000      -0.836169       -22.7533
  16   1.0000      -0.763226       -20.7684
  17   1.0000      -0.730693       -19.8832
  18   1.0000      -0.647723       -17.6254
  19   1.0000      -0.610526       -16.6133
  20   1.0000      -0.604714       -16.4551
  21   1.0000      -0.582341       -15.8463
  22   1.0000      -0.532747       -14.4968
  23   1.0000      -0.525962       -14.3121
  24   1.0000      -0.513005       -13.9596
  25   1.0000      -0.488555       -13.2943
  26   1.0000      -0.484453       -13.1826
  27   1.0000      -0.458050       -12.4642
  28   1.0000      -0.437657       -11.9093
  29   1.0000      -0.435726       -11.8567
  30   1.0000      -0.364747        -9.9253
  31   0.0000       0.025059         0.6819
  32   0.0000       0.028161         0.7663
  33   0.0000       0.031187         0.8486
  34   0.0000       0.033755         0.9185
  35   0.0000       0.038936         1.0595

MULLIKEN ATOMIC CHARGES AND SPIN POPULATIONS
--------------------------------------------
   0 C :   -0.222158   -0.025107
   1 C :   -0.409435    0.003184
   2 C :   -0.466794    0.009309
   3 C :   -0.421953    0.000488
   4 C :   -0.467093    0.009307
   5 C :   -0.409170    0.003174
   6 H :    0.221304   -0.016733
   7 H :    0.286982   -0.020082
   8 H :    0.237714    0.000757
   9 H :    0.158326   -0.000854
  10 H :    0.136963    0.000344
  11 H :    0.252244   -0.000232
  12 H :    0.237615    0.000756
  13 H :    0.158233   -0.000856
  14 H :    0.287147   -0.020077
  15 H :    0.221669   -0.016737
  16 P :    0.119480    1.118200
  17 H :    0.222679    0.017122
  18 H :   -0.143757   -0.061964
Sum of atomic charges         :   -0.0000000

LOEWDIN ATOMIC CHARGES AND SPIN POPULATIONS
-------------------------------------------
   0 C :   -0.185386    0.153517
   1 C :    0.425282    0.028806
   2 C :    0.532613    0.003282
   3 C :    0.530659    0.000435
   4 C :    0.532613    0.003282
   5 C :    0.425282    0.028806
   6 H :   -0.287676    0.005735
   7 H :   -0.276442    0.015404
   8 H :   -0.258011    0.000721
   9 H :   -0.262983    0.000311
  10 H :   -0.262980    0.000051
  11 H :   -0.258814    0.000129
  12 H :   -0.258011    0.000721
  13 H :   -0.262983    0.000311
  14 H :   -0.276442    0.015404
  15 H :   -0.287676    0.005735
  16 P :    1.353072    0.567901
  17 H :   -0.371782    0.005953
  18 H :   -0.550338    0.163495

  Mayer bond orders larger than 0.100000
B(  0-C ,  1-C ) :   0.8782 B(  0-C ,  5-C ) :   0.8782 B(  0-C , 16-P ) :   0.8350
B(  0-C , 17-H ) :   0.9295 B(  1-C ,  2-C ) :   0.8662 B(  1-C ,  6-H ) :   0.9371
B(  1-C ,  7-H ) :   0.9311 B(  2-C ,  3-C ) :   0.8924 B(  2-C ,  8-H ) :   0.9732
B(  2-C ,  9-H ) :   0.9880 B(  3-C ,  4-C ) :   0.8927 B(  3-C , 10-H ) :   1.0156
B(  3-C , 11-H ) :   0.9463 B(  4-C ,  5-C ) :   0.8664 B(  4-C , 12-H ) :   0.9732
B(  4-C , 13-H ) :   0.9878 B(  5-C , 14-H ) :   0.9310 B(  5-C , 15-H ) :   0.9370
B( 16-P , 18-H ) :   0.9713

MP2 TOTAL ENERGY:     -576.275368208 Eh
FINAL SINGLE POINT ENERGY      -576.275368207727

DIPOLE MOMENT
-------------
                                X             Y             Z
Electronic contribution:    -10.82551      -0.00000      -1.14580
Nuclear contribution   :     11.49772       0.00000       1.22941
                        -----------------------------------------
Total Dipole Moment    :      0.67221       0.00000       0.08362
                        -----------------------------------------
Magnitude (a.u.)       :      0.67739
Magnitude (Debye)      :      1.72179

Rotational constants in cm-1:     0.141996     0.046713     0.037847
Rotational constants in MHz :  4256.934384  1400.428439  1134.614196

                             ****ORCA TERMINATED NORMALLY****
TOTAL RUN TIME: 0 days 8 hours 26 minutes 22 seconds 498 msec
