                         Program Version 5.0.4 -  RELEASE  -
|  1> ! ri-mp2 aug-cc-pvdz aug-cc-pvdz/c tightscf
|  2> %pal nprocs 16 end
|  3> %maxcore 3800
|  4> %base "DZ_P-Si_46_AB"
|  5> %scf
|  6> STABPerform true
|  7> STABRestartUHFifUnstable true
|  8> end
|  9>
| 10> *xyz 0 1
| 11> Si         0.515710    0.228340    0.363208
| 12> P        -1.721008    0.156135    0.388079
| 13> C        -1.975052   -1.644522    0.043285
| 14> H        -1.484831   -1.982744   -0.869972
| 15> H        -3.043006   -1.843576   -0.044337
| 16> H        -1.598135   -2.231629    0.880595
| 17> O         1.105541   -0.363050    1.784995
| 18> C         1.375603   -0.780699   -0.945377
| 19> C        -2.081134    0.888043   -1.270857
| 20> H        -1.773402    1.932642   -1.270855
| 21> H        -3.155024    0.852411   -1.453790
| 22> H        -1.574214    0.373082   -2.087681
| 23> C         2.890790   -0.569339   -0.987528
| 24> H         0.936122   -0.541688   -1.917521
| 25> H         1.152750   -1.834280   -0.759837
| 26> H         3.143406    0.464447   -1.232263
| 27> H         3.362508   -1.199515   -1.742402
| 28> H         3.348450   -0.804459   -0.026295
| 29> H         0.749279   -0.001627    2.599509
| 30> O         0.834684    1.836579    0.190679
| 31> H         1.748246    2.129019    0.176231
| 32> *
| 33>
| 34> $new_job
| 35> ! ri-mp2 aug-cc-pvtz aug-cc-pvtz/c tightscf
| 36> %pal nprocs 16 end
| 37> %maxcore 3800
| 38> %base "TZ_P-Si_46_AB"
| 39>
| 40> *xyz 0 1
| 41> Si         0.515710    0.228340    0.363208
| 42> P        -1.721008    0.156135    0.388079
| 43> C        -1.975052   -1.644522    0.043285
| 44> H        -1.484831   -1.982744   -0.869972
| 45> H        -3.043006   -1.843576   -0.044337
| 46> H        -1.598135   -2.231629    0.880595
| 47> O         1.105541   -0.363050    1.784995
| 48> C         1.375603   -0.780699   -0.945377
| 49> C        -2.081134    0.888043   -1.270857
| 50> H        -1.773402    1.932642   -1.270855
| 51> H        -3.155024    0.852411   -1.453790
| 52> H        -1.574214    0.373082   -2.087681
| 53> C         2.890790   -0.569339   -0.987528
| 54> H         0.936122   -0.541688   -1.917521
| 55> H         1.152750   -1.834280   -0.759837
| 56> H         3.143406    0.464447   -1.232263
| 57> H         3.362508   -1.199515   -1.742402
| 58> H         3.348450   -0.804459   -0.026295
| 59> H         0.749279   -0.001627    2.599509
| 60> O         0.834684    1.836579    0.190679
| 61> H         1.748246    2.129019    0.176231
| 62> *
| 63>
| 64> $new_job
| 65> ! ri-mp2 aug-cc-pvqz aug-cc-pvqz/c tightscf
| 66> %pal nprocs 16 end
| 67> %maxcore 3800
| 68> %base "QZ_P-Si_46_AB"
| 69>
| 70> *xyz 0 1
| 71> Si         0.515710    0.228340    0.363208
| 72> P        -1.721008    0.156135    0.388079
| 73> C        -1.975052   -1.644522    0.043285
| 74> H        -1.484831   -1.982744   -0.869972
| 75> H        -3.043006   -1.843576   -0.044337
| 76> H        -1.598135   -2.231629    0.880595
| 77> O         1.105541   -0.363050    1.784995
| 78> C         1.375603   -0.780699   -0.945377
| 79> C        -2.081134    0.888043   -1.270857
| 80> H        -1.773402    1.932642   -1.270855
| 81> H        -3.155024    0.852411   -1.453790
| 82> H        -1.574214    0.373082   -2.087681
| 83> C         2.890790   -0.569339   -0.987528
| 84> H         0.936122   -0.541688   -1.917521
| 85> H         1.152750   -1.834280   -0.759837
| 86> H         3.143406    0.464447   -1.232263
| 87> H         3.362508   -1.199515   -1.742402
| 88> H         3.348450   -0.804459   -0.026295
| 89> H         0.749279   -0.001627    2.599509
| 90> O         0.834684    1.836579    0.190679
| 91> H         1.748246    2.129019    0.176231
| 92> *
| 93>
| 94>
| 95>
| 96>
| 97>                          ****END OF INPUT****
 Total Charge           Charge          ....    0
 Multiplicity           Mult            ....    1
 Number of Electrons    NEL             ....   82
MP2 TOTAL ENERGY:     -939.837166420 Eh
FINAL SINGLE POINT ENERGY      -939.837166419779
MP2 TOTAL ENERGY:     -940.217089442 Eh
FINAL SINGLE POINT ENERGY      -940.217089441594

CARTESIAN COORDINATES (ANGSTROEM)
---------------------------------
  Si     0.515710    0.228340    0.363208
  P     -1.721008    0.156135    0.388079
  C     -1.975052   -1.644522    0.043285
  H     -1.484831   -1.982744   -0.869972
  H     -3.043006   -1.843576   -0.044337
  H     -1.598135   -2.231629    0.880595
  O      1.105541   -0.363050    1.784995
  C      1.375603   -0.780699   -0.945377
  C     -2.081134    0.888043   -1.270857
  H     -1.773402    1.932642   -1.270855
  H     -3.155024    0.852411   -1.453790
  H     -1.574214    0.373082   -2.087681
  C      2.890790   -0.569339   -0.987528
  H      0.936122   -0.541688   -1.917521
  H      1.152750   -1.834280   -0.759837
  H      3.143406    0.464447   -1.232263
  H      3.362508   -1.199515   -1.742402
  H      3.348450   -0.804459   -0.026295
  H      0.749279   -0.001627    2.599509
  O      0.834684    1.836579    0.190679
  H      1.748246    2.129019    0.176231

 Multiplicity           Mult            ....    1
 Number of Electrons    NEL             ....   82
 Basis Dimension        Dim             .... 1246

ORBITAL ENERGIES
----------------

  NO   OCC          E(Eh)            E(eV)
   0   2.0000     -79.912594     -2174.5322
   1   2.0000     -68.791276     -1871.9058
   2   2.0000     -20.551260      -559.2282
   3   2.0000     -20.550366      -559.2039
   4   2.0000     -11.220996      -305.3388
   5   2.0000     -11.220244      -305.3184
   6   2.0000     -11.219147      -305.2885
   7   2.0000     -11.205428      -304.9152
   8   2.0000      -7.456369      -202.8981
   9   2.0000      -6.133706      -166.9066
  10   2.0000      -5.350583      -145.5968
  11   2.0000      -5.350424      -145.5924
  12   2.0000      -5.349597      -145.5699
  13   2.0000      -4.241213      -115.4093
  14   2.0000      -4.240861      -115.3997
  15   2.0000      -4.240139      -115.3801
  16   2.0000      -1.348778       -36.7021
  17   2.0000      -1.326741       -36.1024
  18   2.0000      -1.024457       -27.8769
  19   2.0000      -0.997253       -27.1366
  20   2.0000      -0.935144       -25.4465
  21   2.0000      -0.851214       -23.1627
  22   2.0000      -0.767596       -20.8874
  23   2.0000      -0.717473       -19.5234
  24   2.0000      -0.701201       -19.0806
  25   2.0000      -0.614386       -16.7183
  26   2.0000      -0.593837       -16.1591
  27   2.0000      -0.590820       -16.0770
  28   2.0000      -0.583050       -15.8656
  29   2.0000      -0.582194       -15.8423
  30   2.0000      -0.555582       -15.1181
  31   2.0000      -0.552267       -15.0279
  32   2.0000      -0.548093       -14.9144
  33   2.0000      -0.536414       -14.5966
  34   2.0000      -0.514432       -13.9984
  35   2.0000      -0.502389       -13.6707
  36   2.0000      -0.490648       -13.3512
  37   2.0000      -0.459112       -12.4931
  38   2.0000      -0.452244       -12.3062
  39   2.0000      -0.406277       -11.0554
  40   2.0000      -0.319717        -8.6999
  41   0.0000       0.022640         0.6161
  42   0.0000       0.029090         0.7916
  43   0.0000       0.032761         0.8915
  44   0.0000       0.033577         0.9137
  45   0.0000       0.044456         1.2097

MULLIKEN ATOMIC CHARGES
-----------------------
   0 Si:    1.748697
   1 P :    0.374319
   2 C :   -1.190005
   3 H :    0.293431
   4 H :    0.384547
   5 H :    0.322524
   6 O :   -1.174857
   7 C :   -0.537012
   8 C :   -1.195952
   9 H :    0.340720
  10 H :    0.382004
  11 H :    0.299425
  12 C :   -0.857840
  13 H :    0.258404
  14 H :    0.251776
  15 H :    0.207801
  16 H :    0.298792
  17 H :    0.236385
  18 H :    0.362817
  19 O :   -1.166144
  20 H :    0.360166
Sum of atomic charges:   -0.0000000

LOEWDIN ATOMIC CHARGES
----------------------
   0 Si:   -0.630163
   1 P :    0.962207
   2 C :    0.720231
   3 H :   -0.361463
   4 H :   -0.358824
   5 H :   -0.361353
   6 O :    1.131042
   7 C :    0.546124
   8 C :    0.724500
   9 H :   -0.367342
  10 H :   -0.358275
  11 H :   -0.355985
  12 C :    0.877495
  13 H :   -0.335356
  14 H :   -0.337079
  15 H :   -0.297184
  16 H :   -0.281550
  17 H :   -0.293877
  18 H :   -0.879414
  19 O :    1.127818
  20 H :   -0.871550

  Mayer bond orders larger than 0.100000
B(  0-Si,  1-P ) :   0.9831 B(  0-Si,  6-O ) :   0.4601 B(  0-Si,  7-C ) :   0.7376
B(  0-Si, 19-O ) :   0.4302 B(  1-P ,  2-C ) :   0.8330 B(  1-P ,  8-C ) :   0.8515
B(  2-C ,  3-H ) :   0.8795 B(  2-C ,  4-H ) :   0.8729 B(  2-C ,  5-H ) :   0.8986
B(  6-O , 18-H ) :   0.9438 B(  7-C , 12-C ) :   0.8596 B(  7-C , 13-H ) :   0.9335
B(  7-C , 14-H ) :   0.8929 B(  7-C , 19-O ) :  -0.1003 B(  8-C ,  9-H ) :   0.8749
B(  8-C , 10-H ) :   0.8595 B(  8-C , 11-H ) :   0.8971 B( 12-C , 15-H ) :   0.9844
B( 12-C , 16-H ) :   0.9744 B( 12-C , 17-H ) :   0.9688 B( 19-O , 20-H ) :   0.9244

MP2 TOTAL ENERGY:     -940.335279087 Eh
FINAL SINGLE POINT ENERGY      -940.335279086997

DIPOLE MOMENT
-------------
                                X             Y             Z
Electronic contribution:     -3.13144       4.72656       7.82436
Nuclear contribution   :      3.49118      -4.88421      -8.20480
                        -----------------------------------------
Total Dipole Moment    :      0.35974      -0.15765      -0.38044
                        -----------------------------------------
Magnitude (a.u.)       :      0.54681
Magnitude (Debye)      :      1.38988

Rotational constants in cm-1:     0.063442     0.030820     0.030151
Rotational constants in MHz :  1901.941833   923.968075   903.908824

                             ****ORCA TERMINATED NORMALLY****
TOTAL RUN TIME: 0 days 2 hours 16 minutes 10 seconds 722 msec
