                         Program Version 5.0.4 -  RELEASE  -
|  1> ! ri-mp2 aug-cc-pvdz aug-cc-pvdz/c tightscf
|  2> %pal nprocs 16 end
|  3> %maxcore 3800
|  4> %base "DZ_S-F_51_AB"
|  5> %scf
|  6> STABPerform true
|  7> STABRestartUHFifUnstable true
|  8> end
|  9>
| 10> *xyz 0 1
| 11> F         2.163195    0.140940    0.000012
| 12> S         0.833685   -0.832808   -0.000005
| 13> C        -0.414153    0.345029   -0.000001
| 14> S        -1.900043   -0.295953   -0.000006
| 15> O        -0.098700    1.623090    0.000009
| 16> H         0.867484    1.736813    0.000010
| 17> *
| 18>
| 19> $new_job
| 20> ! ri-mp2 aug-cc-pvtz aug-cc-pvtz/c tightscf
| 21> %pal nprocs 16 end
| 22> %maxcore 3800
| 23> %base "TZ_S-F_51_AB"
| 24>
| 25> *xyz 0 1
| 26> F         2.163195    0.140940    0.000012
| 27> S         0.833685   -0.832808   -0.000005
| 28> C        -0.414153    0.345029   -0.000001
| 29> S        -1.900043   -0.295953   -0.000006
| 30> O        -0.098700    1.623090    0.000009
| 31> H         0.867484    1.736813    0.000010
| 32> *
| 33>
| 34> $new_job
| 35> ! ri-mp2 aug-cc-pvqz aug-cc-pvqz/c tightscf
| 36> %pal nprocs 16 end
| 37> %maxcore 3800
| 38> %base "QZ_S-F_51_AB"
| 39>
| 40> *xyz 0 1
| 41> F         2.163195    0.140940    0.000012
| 42> S         0.833685   -0.832808   -0.000005
| 43> C        -0.414153    0.345029   -0.000001
| 44> S        -1.900043   -0.295953   -0.000006
| 45> O        -0.098700    1.623090    0.000009
| 46> H         0.867484    1.736813    0.000010
| 47> *
| 48>
| 49>
| 50>
| 51>
| 52>                          ****END OF INPUT****
 Total Charge           Charge          ....    0
 Multiplicity           Mult            ....    1
 Number of Electrons    NEL             ....   56
MP2 TOTAL ENERGY:    -1008.617461926 Eh
FINAL SINGLE POINT ENERGY     -1008.617461925521
MP2 TOTAL ENERGY:    -1008.896923165 Eh
FINAL SINGLE POINT ENERGY     -1008.896923164826

CARTESIAN COORDINATES (ANGSTROEM)
---------------------------------
  F      2.163195    0.140940    0.000012
  S      0.833685   -0.832808   -0.000005
  C     -0.414153    0.345029   -0.000001
  S     -1.900043   -0.295953   -0.000006
  O     -0.098700    1.623090    0.000009
  H      0.867484    1.736813    0.000010

 Multiplicity           Mult            ....    1
 Number of Electrons    NEL             ....   56
 Basis Dimension        Dim             ....  454

ORBITAL ENERGIES
----------------

  NO   OCC          E(Eh)            E(eV)
   0   2.0000     -92.084801     -2505.7548
   1   2.0000     -91.944915     -2501.9483
   2   2.0000     -26.347621      -716.9552
   3   2.0000     -20.661739      -562.2345
   4   2.0000     -11.429140      -311.0027
   5   2.0000      -9.079285      -247.0599
   6   2.0000      -8.949686      -243.5333
   7   2.0000      -6.760468      -183.9617
   8   2.0000      -6.758251      -183.9014
   9   2.0000      -6.756998      -183.8673
  10   2.0000      -6.631184      -180.4437
  11   2.0000      -6.629558      -180.3994
  12   2.0000      -6.628869      -180.3807
  13   2.0000      -1.644115       -44.7387
  14   2.0000      -1.490903       -40.5695
  15   2.0000      -1.126480       -30.6531
  16   2.0000      -0.992161       -26.9981
  17   2.0000      -0.851017       -23.1573
  18   2.0000      -0.793755       -21.5992
  19   2.0000      -0.729045       -19.8383
  20   2.0000      -0.719156       -19.5692
  21   2.0000      -0.669366       -18.2144
  22   2.0000      -0.653373       -17.7792
  23   2.0000      -0.597708       -16.2645
  24   2.0000      -0.525400       -14.2969
  25   2.0000      -0.469325       -12.7710
  26   2.0000      -0.372029       -10.1234
  27   2.0000      -0.367940       -10.0122
  28   0.0000       0.022793         0.6202
  29   0.0000       0.046818         1.2740
  30   0.0000       0.048312         1.3146
  31   0.0000       0.051254         1.3947
  32   0.0000       0.069235         1.8840

MULLIKEN ATOMIC CHARGES
-----------------------
   0 F :   -0.617144
   1 S :    0.841956
   2 C :   -0.195717
   3 S :    0.128074
   4 O :   -0.607131
   5 H :    0.449962
Sum of atomic charges:    0.0000000

LOEWDIN ATOMIC CHARGES
----------------------
   0 F :    0.144483
   1 S :    0.603760
   2 C :   -1.815957
   3 S :    0.905023
   4 O :    1.103667
   5 H :   -0.940976

  Mayer bond orders larger than 0.100000
B(  0-F ,  1-S ) :   0.5860 B(  1-S ,  2-C ) :   1.1132 B(  2-C ,  3-S ) :   1.5960
B(  2-C ,  4-O ) :   1.0465 B(  4-O ,  5-H ) :   0.8295

MP2 TOTAL ENERGY:    -1008.991708520 Eh
FINAL SINGLE POINT ENERGY     -1008.991708519774

DIPOLE MOMENT
-------------
                                X             Y             Z
Electronic contribution:      2.07252      -1.42856       0.00000
Nuclear contribution   :     -1.16066       1.55507      -0.00000
                        -----------------------------------------
Total Dipole Moment    :      0.91186       0.12651      -0.00000
                        -----------------------------------------
Magnitude (a.u.)       :      0.92059
Magnitude (Debye)      :      2.33996

Rotational constants in cm-1:     0.234112     0.073328     0.055838
Rotational constants in MHz :  7018.493703  2198.315964  1673.992119

                             ****ORCA TERMINATED NORMALLY****
TOTAL RUN TIME: 0 days 0 hours 7 minutes 41 seconds 771 msec
