                         Program Version 5.0.4 -  RELEASE  -
|  1> ! ri-mp2 aug-cc-pvdz aug-cc-pvdz/c tightscf
|  2> %pal nprocs 16 end
|  3> %maxcore 3800
|  4> %base "DZ_S-Cl_75_AB"
|  5>
|  6> *xyz 0 1
|  7> Cl         2.582790    0.624010   -0.000005
|  8> S         1.352081   -0.989605    0.000005
|  9> C        -0.262244   -0.274401    0.000002
| 10> C        -0.565758    1.077605    0.000004
| 11> N        -1.169363   -1.235702   -0.000001
| 12> C        -2.448429   -0.887504   -0.000002
| 13> C        -1.903596    1.423016    0.000002
| 14> C        -2.868198    0.430349   -0.000002
| 15> H         0.210612    1.825929    0.000007
| 16> H        -2.189539    2.466588    0.000003
| 17> H        -3.921944    0.668908   -0.000004
| 18> H        -3.164965   -1.700404   -0.000005
| 19> *
| 20>
| 21> $new_job
| 22> ! ri-mp2 aug-cc-pvtz aug-cc-pvtz/c tightscf
| 23> %pal nprocs 16 end
| 24> %maxcore 3800
| 25> %base "TZ_S-Cl_75_AB"
| 26>
| 27> *xyz 0 1
| 28> Cl         2.582790    0.624010   -0.000005
| 29> S         1.352081   -0.989605    0.000005
| 30> C        -0.262244   -0.274401    0.000002
| 31> C        -0.565758    1.077605    0.000004
| 32> N        -1.169363   -1.235702   -0.000001
| 33> C        -2.448429   -0.887504   -0.000002
| 34> C        -1.903596    1.423016    0.000002
| 35> C        -2.868198    0.430349   -0.000002
| 36> H         0.210612    1.825929    0.000007
| 37> H        -2.189539    2.466588    0.000003
| 38> H        -3.921944    0.668908   -0.000004
| 39> H        -3.164965   -1.700404   -0.000005
| 40> *
| 41>
| 42> $new_job
| 43> ! ri-mp2 aug-cc-pvqz aug-cc-pvqz/c tightscf
| 44> %pal nprocs 16 end
| 45> %maxcore 3800
| 46> %base "QZ_S-Cl_75_AB"
| 47>
| 48> *xyz 0 1
| 49> Cl         2.582790    0.624010   -0.000005
| 50> S         1.352081   -0.989605    0.000005
| 51> C        -0.262244   -0.274401    0.000002
| 52> C        -0.565758    1.077605    0.000004
| 53> N        -1.169363   -1.235702   -0.000001
| 54> C        -2.448429   -0.887504   -0.000002
| 55> C        -1.903596    1.423016    0.000002
| 56> C        -2.868198    0.430349   -0.000002
| 57> H         0.210612    1.825929    0.000007
| 58> H        -2.189539    2.466588    0.000003
| 59> H        -3.921944    0.668908   -0.000004
| 60> H        -3.164965   -1.700404   -0.000005
| 61> *
| 62>
| 63>
| 64>
| 65>
| 66>                          ****END OF INPUT****
 Total Charge           Charge          ....    0
 Multiplicity           Mult            ....    1
 Number of Electrons    NEL             ....   74
MP2 TOTAL ENERGY:    -1104.289129389 Eh
FINAL SINGLE POINT ENERGY     -1104.289129389053
MP2 TOTAL ENERGY:    -1104.616364518 Eh
FINAL SINGLE POINT ENERGY     -1104.616364518188

CARTESIAN COORDINATES (ANGSTROEM)
---------------------------------
  Cl     2.582790    0.624010   -0.000005
  S      1.352081   -0.989605    0.000005
  C     -0.262244   -0.274401    0.000002
  C     -0.565758    1.077605    0.000004
  N     -1.169363   -1.235702   -0.000001
  C     -2.448429   -0.887504   -0.000002
  C     -1.903596    1.423016    0.000002
  C     -2.868198    0.430349   -0.000002
  H      0.210612    1.825929    0.000007
  H     -2.189539    2.466588    0.000003
  H     -3.921944    0.668908   -0.000004
  H     -3.164965   -1.700404   -0.000005

 Multiplicity           Mult            ....    1
 Number of Electrons    NEL             ....   74
 Basis Dimension        Dim             ....  832

ORBITAL ENERGIES
----------------

  NO   OCC          E(Eh)            E(eV)
   0   2.0000    -104.858659     -2853.3492
   1   2.0000     -92.019696     -2503.9832
   2   2.0000     -15.578112      -423.9020
   3   2.0000     -11.323336      -308.1236
   4   2.0000     -11.289099      -307.1920
   5   2.0000     -11.271062      -306.7012
   6   2.0000     -11.251987      -306.1821
   7   2.0000     -11.247430      -306.0581
   8   2.0000     -10.583161      -287.9825
   9   2.0000      -9.017812      -245.3871
  10   2.0000      -8.050180      -219.0565
  11   2.0000      -8.048301      -219.0054
  12   2.0000      -8.048083      -218.9995
  13   2.0000      -6.699020      -182.2896
  14   2.0000      -6.697289      -182.2425
  15   2.0000      -6.696115      -182.2106
  16   2.0000      -1.292769       -35.1780
  17   2.0000      -1.155310       -31.4376
  18   2.0000      -1.108522       -30.1644
  19   2.0000      -1.062010       -28.8988
  20   2.0000      -0.946559       -25.7572
  21   2.0000      -0.879831       -23.9414
  22   2.0000      -0.835263       -22.7287
  23   2.0000      -0.722498       -19.6602
  24   2.0000      -0.687787       -18.7156
  25   2.0000      -0.654033       -17.7971
  26   2.0000      -0.609156       -16.5760
  27   2.0000      -0.593293       -16.1443
  28   2.0000      -0.582235       -15.8434
  29   2.0000      -0.538047       -14.6410
  30   2.0000      -0.519804       -14.1446
  31   2.0000      -0.518607       -14.1120
  32   2.0000      -0.464437       -12.6380
  33   2.0000      -0.431035       -11.7291
  34   2.0000      -0.419466       -11.4143
  35   2.0000      -0.393378       -10.7044
  36   2.0000      -0.328343        -8.9347
  37   0.0000       0.021095         0.5740
  38   0.0000       0.028330         0.7709
  39   0.0000       0.035537         0.9670
  40   0.0000       0.045118         1.2277
  41   0.0000       0.056307         1.5322

MULLIKEN ATOMIC CHARGES
-----------------------
   0 Cl:   -0.356082
   1 S :    0.239001
   2 C :    0.007573
   3 C :   -0.148578
   4 N :   -0.430308
   5 C :   -0.263697
   6 C :   -0.227090
   7 C :   -0.313249
   8 H :    0.393791
   9 H :    0.267925
  10 H :    0.340738
  11 H :    0.489975
Sum of atomic charges:    0.0000000

LOEWDIN ATOMIC CHARGES
----------------------
   0 Cl:    0.527095
   1 S :    0.463448
   2 C :   -0.936134
   3 C :    0.191556
   4 N :    0.443445
   5 C :    0.067623
   6 C :    0.322488
   7 C :    0.331249
   8 H :   -0.430254
   9 H :   -0.308493
  10 H :   -0.327441
  11 H :   -0.344583

  Mayer bond orders larger than 0.100000
B(  0-Cl,  1-S ) :   1.0107 B(  0-Cl,  2-C ) :  -0.1060 B(  1-S ,  2-C ) :   0.9810
B(  1-S ,  3-C ) :  -0.2385 B(  2-C ,  3-C ) :   0.9922 B(  2-C ,  4-N ) :   1.1669
B(  2-C ,  6-C ) :  -0.1852 B(  3-C ,  5-C ) :   0.1348 B(  3-C ,  6-C ) :   1.2110
B(  3-C ,  8-H ) :   0.8796 B(  4-N ,  5-C ) :   1.2543 B(  5-C ,  7-C ) :   1.2596
B(  5-C , 11-H ) :   0.8397 B(  6-C ,  7-C ) :   1.1819 B(  6-C ,  9-H ) :   1.0650
B(  7-C , 10-H ) :   0.9700

MP2 TOTAL ENERGY:    -1104.722741843 Eh
FINAL SINGLE POINT ENERGY     -1104.722741843341

DIPOLE MOMENT
-------------
                                X             Y             Z
Electronic contribution:     11.24609      -1.50050      -0.00001
Nuclear contribution   :    -12.22628       2.28267       0.00001
                        -----------------------------------------
Total Dipole Moment    :     -0.98019       0.78217       0.00000
                        -----------------------------------------
Magnitude (a.u.)       :      1.25402
Magnitude (Debye)      :      3.18746

Rotational constants in cm-1:     0.129457     0.029959     0.024329
Rotational constants in MHz :  3881.019850   898.153539   729.362889

                             ****ORCA TERMINATED NORMALLY****
TOTAL RUN TIME: 0 days 0 hours 16 minutes 41 seconds 227 msec
