                         Program Version 5.0.4 -  RELEASE  -
|  1> ! ri-mp2 aug-cc-pvdz aug-cc-pvdz/c tightscf
|  2> %pal nprocs 16 end
|  3> %maxcore 3800
|  4> %base "DZ_Si-Cl_90_AB"
|  5>
|  6> *xyz 0 1
|  7> C         3.649961    0.198172    0.322361
|  8> C         2.765057    1.262658    0.307253
|  9> C         1.453825    1.083872   -0.100018
| 10> C         3.216221   -1.056287   -0.074422
| 11> C         1.907743   -1.248890   -0.479433
| 12> C         1.032766   -0.177067   -0.487316
| 13> H         4.673165    0.345253    0.639696
| 14> H         3.095640    2.246716    0.611960
| 15> H         0.758888    1.911802   -0.125423
| 16> H         3.900510   -1.894262   -0.067587
| 17> H         1.550538   -2.220471   -0.791232
| 18> O        -0.249740   -0.399081   -0.916620
| 19> Si        -1.667985    0.083382   -0.309522
| 20> O        -2.875390   -0.618719   -1.122267
| 21> Cl        -1.753583   -0.462687    1.664504
| 22> H        -3.025385   -1.561558   -1.032113
| 23> O        -1.793281    1.688793   -0.455925
| 24> H        -2.596792    2.128154   -0.170599
| 25> *
| 26>
| 27> $new_job
| 28> ! ri-mp2 aug-cc-pvtz aug-cc-pvtz/c tightscf
| 29> %pal nprocs 16 end
| 30> %maxcore 3800
| 31> %base "TZ_Si-Cl_90_AB"
| 32>
| 33> *xyz 0 1
| 34> C         3.649961    0.198172    0.322361
| 35> C         2.765057    1.262658    0.307253
| 36> C         1.453825    1.083872   -0.100018
| 37> C         3.216221   -1.056287   -0.074422
| 38> C         1.907743   -1.248890   -0.479433
| 39> C         1.032766   -0.177067   -0.487316
| 40> H         4.673165    0.345253    0.639696
| 41> H         3.095640    2.246716    0.611960
| 42> H         0.758888    1.911802   -0.125423
| 43> H         3.900510   -1.894262   -0.067587
| 44> H         1.550538   -2.220471   -0.791232
| 45> O        -0.249740   -0.399081   -0.916620
| 46> Si        -1.667985    0.083382   -0.309522
| 47> O        -2.875390   -0.618719   -1.122267
| 48> Cl        -1.753583   -0.462687    1.664504
| 49> H        -3.025385   -1.561558   -1.032113
| 50> O        -1.793281    1.688793   -0.455925
| 51> H        -2.596792    2.128154   -0.170599
| 52> *
| 53>
| 54> $new_job
| 55> ! ri-mp2 aug-cc-pvqz aug-cc-pvqz/c tightscf
| 56> %pal nprocs 16 end
| 57> %maxcore 3800
| 58> %base "QZ_Si-Cl_90_AB"
| 59>
| 60> *xyz 0 1
| 61> C         3.649961    0.198172    0.322361
| 62> C         2.765057    1.262658    0.307253
| 63> C         1.453825    1.083872   -0.100018
| 64> C         3.216221   -1.056287   -0.074422
| 65> C         1.907743   -1.248890   -0.479433
| 66> C         1.032766   -0.177067   -0.487316
| 67> H         4.673165    0.345253    0.639696
| 68> H         3.095640    2.246716    0.611960
| 69> H         0.758888    1.911802   -0.125423
| 70> H         3.900510   -1.894262   -0.067587
| 71> H         1.550538   -2.220471   -0.791232
| 72> O        -0.249740   -0.399081   -0.916620
| 73> Si        -1.667985    0.083382   -0.309522
| 74> O        -2.875390   -0.618719   -1.122267
| 75> Cl        -1.753583   -0.462687    1.664504
| 76> H        -3.025385   -1.561558   -1.032113
| 77> O        -1.793281    1.688793   -0.455925
| 78> H        -2.596792    2.128154   -0.170599
| 79> *
| 80>
| 81>
| 82>
| 83>
| 84>                          ****END OF INPUT****
 Total Charge           Charge          ....    0
 Multiplicity           Mult            ....    1
 Number of Electrons    NEL             ....   98
MP2 TOTAL ENERGY:    -1206.211389529 Eh
FINAL SINGLE POINT ENERGY     -1206.211389528626
MP2 TOTAL ENERGY:    -1206.726388224 Eh
FINAL SINGLE POINT ENERGY     -1206.726388224043

CARTESIAN COORDINATES (ANGSTROEM)
---------------------------------
  C      3.649961    0.198172    0.322361
  C      2.765057    1.262658    0.307253
  C      1.453825    1.083872   -0.100018
  C      3.216221   -1.056287   -0.074422
  C      1.907743   -1.248890   -0.479433
  C      1.032766   -0.177067   -0.487316
  H      4.673165    0.345253    0.639696
  H      3.095640    2.246716    0.611960
  H      0.758888    1.911802   -0.125423
  H      3.900510   -1.894262   -0.067587
  H      1.550538   -2.220471   -0.791232
  O     -0.249740   -0.399081   -0.916620
  Si    -1.667985    0.083382   -0.309522
  O     -2.875390   -0.618719   -1.122267
  Cl    -1.753583   -0.462687    1.664504
  H     -3.025385   -1.561558   -1.032113
  O     -1.793281    1.688793   -0.455925
  H     -2.596792    2.128154   -0.170599

 Multiplicity           Mult            ....    1
 Number of Electrons    NEL             ....   98
 Basis Dimension        Dim             .... 1210

ORBITAL ENERGIES
----------------

  NO   OCC          E(Eh)            E(eV)
   0   2.0000    -104.828800     -2852.5367
   1   2.0000     -68.864820     -1873.9070
   2   2.0000     -20.579460      -559.9956
   3   2.0000     -20.576814      -559.9236
   4   2.0000     -20.576629      -559.9186
   5   2.0000     -11.304548      -307.6124
   6   2.0000     -11.237659      -305.7922
   7   2.0000     -11.237497      -305.7879
   8   2.0000     -11.229705      -305.5758
   9   2.0000     -11.229359      -305.5664
  10   2.0000     -11.227883      -305.5262
  11   2.0000     -10.556647      -287.2610
  12   2.0000      -8.023451      -218.3292
  13   2.0000      -8.022391      -218.3004
  14   2.0000      -8.022380      -218.3001
  15   2.0000      -6.199978      -168.7100
  16   2.0000      -4.309011      -117.2541
  17   2.0000      -4.308344      -117.2360
  18   2.0000      -4.308271      -117.2340
  19   2.0000      -1.409248       -38.3476
  20   2.0000      -1.373309       -37.3696
  21   2.0000      -1.356937       -36.9241
  22   2.0000      -1.155415       -31.4404
  23   2.0000      -1.099619       -29.9222
  24   2.0000      -1.024459       -27.8770
  25   2.0000      -1.012707       -27.5571
  26   2.0000      -0.850912       -23.1545
  27   2.0000      -0.838075       -22.8052
  28   2.0000      -0.783865       -21.3301
  29   2.0000      -0.732276       -19.9262
  30   2.0000      -0.731784       -19.9129
  31   2.0000      -0.680151       -18.5078
  32   2.0000      -0.658278       -17.9127
  33   2.0000      -0.647796       -17.6274
  34   2.0000      -0.614999       -16.7350
  35   2.0000      -0.604678       -16.4541
  36   2.0000      -0.594822       -16.1859
  37   2.0000      -0.587540       -15.9878
  38   2.0000      -0.554896       -15.0995
  39   2.0000      -0.551291       -15.0014
  40   2.0000      -0.543282       -14.7834
  41   2.0000      -0.522762       -14.2251
  42   2.0000      -0.518341       -14.1048
  43   2.0000      -0.494416       -13.4537
  44   2.0000      -0.487572       -13.2675
  45   2.0000      -0.469590       -12.7782
  46   2.0000      -0.468812       -12.7570
  47   2.0000      -0.344432        -9.3725
  48   2.0000      -0.326739        -8.8910
  49   0.0000       0.022011         0.5990
  50   0.0000       0.028203         0.7674
  51   0.0000       0.028671         0.7802
  52   0.0000       0.038163         1.0385
  53   0.0000       0.040360         1.0983

MULLIKEN ATOMIC CHARGES
-----------------------
   0 C :   -0.381637
   1 C :   -0.368208
   2 C :   -0.389496
   3 C :   -0.349087
   4 C :   -0.511319
   5 C :    1.036266
   6 H :    0.308625
   7 H :    0.246817
   8 H :    0.367522
   9 H :    0.259533
  10 H :    0.340860
  11 O :   -1.083179
  12 Si:    2.581203
  13 O :   -1.120592
  14 Cl:   -0.652261
  15 H :    0.361217
  16 O :   -1.031751
  17 H :    0.385488
Sum of atomic charges:    0.0000000

LOEWDIN ATOMIC CHARGES
----------------------
   0 C :    0.332256
   1 C :    0.336013
   2 C :    0.304987
   3 C :    0.328687
   4 C :    0.309738
   5 C :   -0.568772
   6 H :   -0.326002
   7 H :   -0.317749
   8 H :   -0.351244
   9 H :   -0.319822
  10 H :   -0.323809
  11 O :    0.695707
  12 Si:   -1.558947
  13 O :    1.096574
  14 Cl:    1.001301
  15 H :   -0.883848
  16 O :    1.112028
  17 H :   -0.867100

  Mayer bond orders larger than 0.100000
B(  0-C ,  1-C ) :   1.2034 B(  0-C ,  3-C ) :   1.1651 B(  0-C ,  6-H ) :   1.0228
B(  1-C ,  2-C ) :   1.2500 B(  1-C ,  4-C ) :   0.1436 B(  1-C ,  5-C ) :  -0.3154
B(  1-C ,  7-H ) :   1.1135 B(  2-C ,  3-C ) :   0.1129 B(  2-C ,  5-C ) :   1.2371
B(  2-C ,  7-H ) :  -0.1200 B(  2-C ,  8-H ) :   0.8496 B(  2-C , 11-O ) :   0.1557
B(  3-C ,  4-C ) :   1.3710 B(  3-C ,  5-C ) :  -0.3485 B(  3-C ,  9-H ) :   1.1176
B(  4-C ,  5-C ) :   1.1020 B(  4-C ,  9-H ) :  -0.1441 B(  4-C , 10-H ) :   0.8890
B(  4-C , 11-O ) :   0.1792 B(  5-C , 11-O ) :   0.1484 B(  8-H , 11-O ) :   0.1090
B( 11-O , 12-Si) :   0.7444 B( 12-Si, 13-O ) :   0.3820 B( 12-Si, 14-Cl) :   0.3421
B( 12-Si, 16-O ) :   0.5588 B( 13-O , 15-H ) :   0.8751 B( 16-O , 17-H ) :   0.8938

MP2 TOTAL ENERGY:    -1206.892676570 Eh
FINAL SINGLE POINT ENERGY     -1206.892676570348

DIPOLE MOMENT
-------------
                                X             Y             Z
Electronic contribution:    -10.71961      -1.69316       3.36093
Nuclear contribution   :     10.51172       1.56685      -3.22153
                        -----------------------------------------
Total Dipole Moment    :     -0.20788      -0.12631       0.13941
                        -----------------------------------------
Magnitude (a.u.)       :      0.28036
Magnitude (Debye)      :      0.71263

Rotational constants in cm-1:     0.055977     0.016207     0.016025
Rotational constants in MHz :  1678.136932   485.886374   480.407373

                             ****ORCA TERMINATED NORMALLY****
TOTAL RUN TIME: 0 days 0 hours 49 minutes 11 seconds 227 msec
