                         Program Version 5.0.4 -  RELEASE  -
|  1> ! ri-mp2 aug-cc-pvdz aug-cc-pvdz/c tightscf
|  2> %pal nprocs 16 end
|  3> %maxcore 3800
|  4> %base "DZ_B-S_36_AB"
|  5>
|  6> *xyz 0 1
|  7> C        -3.478788   -0.081478    0.000003
|  8> C        -3.012911    1.218435   -0.000037
|  9> C        -1.649846    1.427170   -0.000030
| 10> C        -2.633083   -1.171020    0.000049
| 11> C        -1.269678   -0.949518    0.000054
| 12> C        -0.771564    0.347980    0.000014
| 13> H        -3.713665    2.038725   -0.000074
| 14> H        -1.245160    2.428408   -0.000059
| 15> H        -3.044284   -2.168310    0.000081
| 16> H        -0.600172   -1.796311    0.000091
| 17> C         0.690810    0.668549    0.000019
| 18> S         1.761758   -0.761230   -0.000035
| 19> B         3.507169   -0.206931   -0.000010
| 20> S         4.613016   -1.632869   -0.000062
| 21> O         1.071888    1.808729    0.000048
| 22> N        -4.934621   -0.314243   -0.000005
| 23> O        -5.316899   -1.463383    0.000038
| 24> O        -5.655625    0.658667   -0.000054
| 25> S         4.175312    1.443388    0.000055
| 26> H         5.762677   -0.943690   -0.000039
| 27> H         3.001183    2.094081    0.000072
| 28> *
| 29>
| 30> $new_job
| 31> ! ri-mp2 aug-cc-pvtz aug-cc-pvtz/c tightscf
| 32> %pal nprocs 16 end
| 33> %maxcore 3800
| 34> %base "TZ_B-S_36_AB"
| 35>
| 36> *xyz 0 1
| 37> C        -3.478788   -0.081478    0.000003
| 38> C        -3.012911    1.218435   -0.000037
| 39> C        -1.649846    1.427170   -0.000030
| 40> C        -2.633083   -1.171020    0.000049
| 41> C        -1.269678   -0.949518    0.000054
| 42> C        -0.771564    0.347980    0.000014
| 43> H        -3.713665    2.038725   -0.000074
| 44> H        -1.245160    2.428408   -0.000059
| 45> H        -3.044284   -2.168310    0.000081
| 46> H        -0.600172   -1.796311    0.000091
| 47> C         0.690810    0.668549    0.000019
| 48> S         1.761758   -0.761230   -0.000035
| 49> B         3.507169   -0.206931   -0.000010
| 50> S         4.613016   -1.632869   -0.000062
| 51> O         1.071888    1.808729    0.000048
| 52> N        -4.934621   -0.314243   -0.000005
| 53> O        -5.316899   -1.463383    0.000038
| 54> O        -5.655625    0.658667   -0.000054
| 55> S         4.175312    1.443388    0.000055
| 56> H         5.762677   -0.943690   -0.000039
| 57> H         3.001183    2.094081    0.000072
| 58> *
| 59>
| 60> $new_job
| 61> ! ri-mp2 aug-cc-pvqz aug-cc-pvqz/c tightscf
| 62> %pal nprocs 16 end
| 63> %maxcore 3800
| 64> %base "QZ_B-S_36_AB"
| 65>
| 66> *xyz 0 1
| 67> C        -3.478788   -0.081478    0.000003
| 68> C        -3.012911    1.218435   -0.000037
| 69> C        -1.649846    1.427170   -0.000030
| 70> C        -2.633083   -1.171020    0.000049
| 71> C        -1.269678   -0.949518    0.000054
| 72> C        -0.771564    0.347980    0.000014
| 73> H        -3.713665    2.038725   -0.000074
| 74> H        -1.245160    2.428408   -0.000059
| 75> H        -3.044284   -2.168310    0.000081
| 76> H        -0.600172   -1.796311    0.000091
| 77> C         0.690810    0.668549    0.000019
| 78> S         1.761758   -0.761230   -0.000035
| 79> B         3.507169   -0.206931   -0.000010
| 80> S         4.613016   -1.632869   -0.000062
| 81> O         1.071888    1.808729    0.000048
| 82> N        -4.934621   -0.314243   -0.000005
| 83> O        -5.316899   -1.463383    0.000038
| 84> O        -5.655625    0.658667   -0.000054
| 85> S         4.175312    1.443388    0.000055
| 86> H         5.762677   -0.943690   -0.000039
| 87> H         3.001183    2.094081    0.000072
| 88> *
| 89>
| 90>
| 91>
| 92>
| 93>                          ****END OF INPUT****
 Total Charge           Charge          ....    0
 Multiplicity           Mult            ....    1
 Number of Electrons    NEL             ....  132
MP2 TOTAL ENERGY:    -1767.155255423 Eh
FINAL SINGLE POINT ENERGY     -1767.155255423041
MP2 TOTAL ENERGY:    -1767.779867072 Eh
FINAL SINGLE POINT ENERGY     -1767.779867072301

CARTESIAN COORDINATES (ANGSTROEM)
---------------------------------
  C     -3.478788   -0.081478    0.000003
  C     -3.012911    1.218435   -0.000037
  C     -1.649846    1.427170   -0.000030
  C     -2.633083   -1.171020    0.000049
  C     -1.269678   -0.949518    0.000054
  C     -0.771564    0.347980    0.000014
  H     -3.713665    2.038725   -0.000074
  H     -1.245160    2.428408   -0.000059
  H     -3.044284   -2.168310    0.000081
  H     -0.600172   -1.796311    0.000091
  C      0.690810    0.668549    0.000019
  S      1.761758   -0.761230   -0.000035
  B      3.507169   -0.206931   -0.000010
  S      4.613016   -1.632869   -0.000062
  O      1.071888    1.808729    0.000048
  N     -4.934621   -0.314243   -0.000005
  O     -5.316899   -1.463383    0.000038
  O     -5.655625    0.658667   -0.000054
  S      4.175312    1.443388    0.000055
  H      5.762677   -0.943690   -0.000039
  H      3.001183    2.094081    0.000072

 Multiplicity           Mult            ....    1
 Number of Electrons    NEL             ....  132
 Basis Dimension        Dim             .... 1488

ORBITAL ENERGIES
----------------

  NO   OCC          E(Eh)            E(eV)
   0   2.0000     -91.989744     -2503.1682
   1   2.0000     -91.971634     -2502.6754
   2   2.0000     -91.963355     -2502.4501
   3   2.0000     -20.613165      -560.9127
   4   2.0000     -20.612977      -560.9076
   5   2.0000     -20.591206      -560.3152
   6   2.0000     -15.866008      -431.7360
   7   2.0000     -11.403681      -310.3099
   8   2.0000     -11.329622      -308.2947
   9   2.0000     -11.295209      -307.3583
  10   2.0000     -11.287027      -307.1356
  11   2.0000     -11.285684      -307.0991
  12   2.0000     -11.285017      -307.0809
  13   2.0000     -11.281480      -306.9847
  14   2.0000      -8.995293      -244.7744
  15   2.0000      -8.976700      -244.2684
  16   2.0000      -8.969035      -244.0599
  17   2.0000      -7.696954      -209.4448
  18   2.0000      -6.676844      -181.6862
  19   2.0000      -6.675630      -181.6531
  20   2.0000      -6.675368      -181.6460
  21   2.0000      -6.658234      -181.1798
  22   2.0000      -6.657318      -181.1548
  23   2.0000      -6.656763      -181.1397
  24   2.0000      -6.650529      -180.9701
  25   2.0000      -6.649754      -180.9490
  26   2.0000      -6.649284      -180.9362
  27   2.0000      -1.631796       -44.4034
  28   2.0000      -1.447727       -39.3946
  29   2.0000      -1.422391       -38.7052
  30   2.0000      -1.226147       -33.3652
  31   2.0000      -1.128059       -30.6960
  32   2.0000      -1.077083       -29.3089
  33   2.0000      -1.062081       -28.9007
  34   2.0000      -1.020622       -27.7725
  35   2.0000      -0.981292       -26.7023
  36   2.0000      -0.976559       -26.5735
  37   2.0000      -0.889045       -24.1921
  38   2.0000      -0.871325       -23.7100
  39   2.0000      -0.806813       -21.9545
  40   2.0000      -0.801735       -21.8163
  41   2.0000      -0.748523       -20.3684
  42   2.0000      -0.741410       -20.1748
  43   2.0000      -0.721257       -19.6264
  44   2.0000      -0.713618       -19.4185
  45   2.0000      -0.674693       -18.3593
  46   2.0000      -0.669375       -18.2146
  47   2.0000      -0.643973       -17.5234
  48   2.0000      -0.615669       -16.7532
  49   2.0000      -0.613881       -16.7046
  50   2.0000      -0.608499       -16.5581
  51   2.0000      -0.592753       -16.1296
  52   2.0000      -0.550983       -14.9930
  53   2.0000      -0.548878       -14.9357
  54   2.0000      -0.541169       -14.7260
  55   2.0000      -0.510031       -13.8787
  56   2.0000      -0.509681       -13.8691
  57   2.0000      -0.479081       -13.0364
  58   2.0000      -0.470262       -12.7965
  59   2.0000      -0.469958       -12.7882
  60   2.0000      -0.454953       -12.3799
  61   2.0000      -0.439421       -11.9572
  62   2.0000      -0.409361       -11.1393
  63   2.0000      -0.391654       -10.6574
  64   2.0000      -0.385772       -10.4974
  65   2.0000      -0.380687       -10.3590
  66   0.0000       0.002824         0.0768
  67   0.0000       0.019844         0.5400
  68   0.0000       0.025425         0.6919
  69   0.0000       0.028839         0.7847
  70   0.0000       0.036030         0.9804

MULLIKEN ATOMIC CHARGES
-----------------------
   0 C :   -0.140528
   1 C :   -0.117610
   2 C :   -0.183167
   3 C :   -0.150795
   4 C :   -0.162218
   5 C :    0.004991
   6 H :    0.351055
   7 H :    0.242398
   8 H :    0.372152
   9 H :    0.216536
  10 C :    0.602995
  11 S :    0.225371
  12 B :    0.113192
  13 S :   -0.016520
  14 O :   -0.850758
  15 N :    0.799283
  16 O :   -0.612263
  17 O :   -0.610880
  18 S :   -0.036679
  19 H :    0.020515
  20 H :   -0.067072
Sum of atomic charges:   -0.0000000

LOEWDIN ATOMIC CHARGES
----------------------
   0 C :   -0.289669
   1 C :    0.346217
   2 C :    0.336079
   3 C :    0.342647
   4 C :    0.307059
   5 C :   -0.201257
   6 H :   -0.344484
   7 H :   -0.340653
   8 H :   -0.344626
   9 H :   -0.393322
  10 C :   -1.028008
  11 S :    1.315103
  12 B :   -2.125508
  13 S :    1.547656
  14 O :    0.725297
  15 N :   -0.838496
  16 O :    0.559376
  17 O :    0.559815
  18 S :    1.660086
  19 H :   -0.815833
  20 H :   -0.977477

  Mayer bond orders larger than 0.100000
B(  0-C ,  1-C ) :   1.1524 B(  0-C ,  2-C ) :  -0.2422 B(  0-C ,  3-C ) :   1.2871
B(  0-C ,  4-C ) :  -0.2688 B(  0-C ,  6-H ) :  -0.1248 B(  0-C ,  8-H ) :  -0.1032
B(  0-C , 15-N ) :   0.8657 B(  0-C , 16-O ) :   0.3038 B(  0-C , 17-O ) :   0.3246
B(  1-C ,  2-C ) :   1.2599 B(  1-C ,  5-C ) :  -0.2354 B(  1-C ,  6-H ) :   0.8941
B(  1-C ,  7-H ) :  -0.1404 B(  1-C , 15-N ) :  -0.1585 B(  2-C ,  3-C ) :   0.1727
B(  2-C ,  5-C ) :   1.0532 B(  2-C ,  6-H ) :  -0.1168 B(  2-C ,  7-H ) :   0.9861
B(  2-C , 10-C ) :  -0.2495 B(  2-C , 14-O ) :  -0.1264 B(  3-C ,  4-C ) :   1.1890
B(  3-C ,  5-C ) :  -0.2700 B(  3-C ,  8-H ) :   0.8934 B(  3-C ,  9-H ) :  -0.1592
B(  3-C , 15-N ) :  -0.1669 B(  4-C ,  5-C ) :   1.0095 B(  4-C ,  8-H ) :  -0.1441
B(  4-C ,  9-H ) :   1.0823 B(  4-C , 10-C ) :  -0.3881 B(  5-C ,  9-H ) :  -0.1068
B(  5-C , 10-C ) :   0.8603 B(  5-C , 11-S ) :  -0.1825 B(  5-C , 14-O ) :   0.5877
B( 10-C , 11-S ) :   0.8637 B( 10-C , 12-B ) :  -0.1337 B( 10-C , 14-O ) :   0.9699
B( 11-S , 12-B ) :   1.1492 B( 12-B , 13-S ) :   1.1947 B( 12-B , 18-S ) :   1.1582
B( 12-B , 19-H ) :  -0.1136 B( 12-B , 20-H ) :  -0.1221 B( 13-S , 19-H ) :   1.0953
B( 14-O , 20-H ) :   0.1250 B( 15-N , 16-O ) :   1.1741 B( 15-N , 17-O ) :   1.1669
B( 18-S , 20-H ) :   1.0357

MP2 TOTAL ENERGY:    -1767.987485497 Eh
FINAL SINGLE POINT ENERGY     -1767.987485497173

DIPOLE MOMENT
-------------
                                X             Y             Z
Electronic contribution:      4.03992      -1.72236      -0.00007
Nuclear contribution   :     -3.03864       1.78235       0.00008
                        -----------------------------------------
Total Dipole Moment    :      1.00128       0.05999       0.00001
                        -----------------------------------------
Magnitude (a.u.)       :      1.00308
Magnitude (Debye)      :      2.54962

Rotational constants in cm-1:     0.046038     0.005159     0.004639
Rotational constants in MHz :  1380.185114   154.673799   139.086709

                             ****ORCA TERMINATED NORMALLY****
TOTAL RUN TIME: 0 days 1 hours 34 minutes 34 seconds 936 msec
