                         Program Version 5.0.4 -  RELEASE  -
|  1> ! ri-mp2 aug-cc-pvdz aug-cc-pvdz/c tightscf
|  2> %pal nprocs 16 end
|  3> %maxcore 3800
|  4> %base "DZ_B-P_4_A"
|  5> %scf
|  6> STABPerform true
|  7> STABRestartUHFifUnstable true
|  8> end
|  9>
| 10> *xyz 0 2
| 11> P         1.215640   -0.096355   -0.084260
| 12> C        -0.465805    0.644022    0.098094
| 13> C        -1.613622   -0.348064   -0.061905
| 14> H        -1.570560   -1.123027    0.703945
| 15> H        -1.578832   -0.840896   -1.033955
| 16> H        -2.578139    0.155087    0.022825
| 17> H        -0.547244    1.441117   -0.643035
| 18> H        -0.521199    1.125352    1.078415
| 19> H         1.037942   -1.088059    0.918571
| 20> *
| 21>
| 22> $new_job
| 23> ! ri-mp2 aug-cc-pvtz aug-cc-pvtz/c tightscf
| 24> %pal nprocs 16 end
| 25> %maxcore 3800
| 26> %base "TZ_B-P_4_A"
| 27>
| 28> *xyz 0 2
| 29> P         1.215640   -0.096355   -0.084260
| 30> C        -0.465805    0.644022    0.098094
| 31> C        -1.613622   -0.348064   -0.061905
| 32> H        -1.570560   -1.123027    0.703945
| 33> H        -1.578832   -0.840896   -1.033955
| 34> H        -2.578139    0.155087    0.022825
| 35> H        -0.547244    1.441117   -0.643035
| 36> H        -0.521199    1.125352    1.078415
| 37> H         1.037942   -1.088059    0.918571
| 38> *
| 39>
| 40> $new_job
| 41> ! ri-mp2 aug-cc-pvqz aug-cc-pvqz/c tightscf
| 42> %pal nprocs 16 end
| 43> %maxcore 3800
| 44> %base "QZ_B-P_4_A"
| 45>
| 46> *xyz 0 2
| 47> P         1.215640   -0.096355   -0.084260
| 48> C        -0.465805    0.644022    0.098094
| 49> C        -1.613622   -0.348064   -0.061905
| 50> H        -1.570560   -1.123027    0.703945
| 51> H        -1.578832   -0.840896   -1.033955
| 52> H        -2.578139    0.155087    0.022825
| 53> H        -0.547244    1.441117   -0.643035
| 54> H        -0.521199    1.125352    1.078415
| 55> H         1.037942   -1.088059    0.918571
| 56> *
| 57>
| 58>
| 59>
| 60>
| 61>                          ****END OF INPUT****
 Total Charge           Charge          ....    0
 Multiplicity           Mult            ....    2
 Number of Electrons    NEL             ....   33
MP2 TOTAL ENERGY:     -420.362650761 Eh
FINAL SINGLE POINT ENERGY      -420.362650760842
MP2 TOTAL ENERGY:     -420.481263619 Eh
FINAL SINGLE POINT ENERGY      -420.481263619361

CARTESIAN COORDINATES (ANGSTROEM)
---------------------------------
  P      1.215640   -0.096355   -0.084260
  C     -0.465805    0.644022    0.098094
  C     -1.613622   -0.348064   -0.061905
  H     -1.570560   -1.123027    0.703945
  H     -1.578832   -0.840896   -1.033955
  H     -2.578139    0.155087    0.022825
  H     -0.547244    1.441117   -0.643035
  H     -0.521199    1.125352    1.078415
  H      1.037942   -1.088059    0.918571

 Multiplicity           Mult            ....    2
 Number of Electrons    NEL             ....   33
 Basis Dimension        Dim             ....  520

ORBITAL ENERGIES
----------------
                 SPIN UP ORBITALS
  NO   OCC          E(Eh)            E(eV)
   0   1.0000     -79.941682     -2175.3238
   1   1.0000     -11.232982      -305.6650
   2   1.0000     -11.224232      -305.4269
   3   1.0000      -7.484890      -203.6742
   4   1.0000      -5.389802      -146.6640
   5   1.0000      -5.375722      -146.2808
   6   1.0000      -5.373953      -146.2327
   7   1.0000      -1.045124       -28.4393
   8   1.0000      -0.885896       -24.1065
   9   1.0000      -0.773922       -21.0595
  10   1.0000      -0.624203       -16.9854
  11   1.0000      -0.580922       -15.8077
  12   1.0000      -0.536347       -14.5947
  13   1.0000      -0.510725       -13.8975
  14   1.0000      -0.469799       -12.7839
  15   1.0000      -0.394021       -10.7219
  16   1.0000      -0.348958        -9.4956
  17   0.0000       0.026044         0.7087
  18   0.0000       0.036289         0.9875
  19   0.0000       0.037244         1.0135
  20   0.0000       0.039974         1.0877
  21   0.0000       0.055685         1.5153

                 SPIN DOWN ORBITALS
  NO   OCC          E(Eh)            E(eV)
   0   1.0000     -79.934719     -2175.1343
   1   1.0000     -11.234126      -305.6961
   2   1.0000     -11.223297      -305.4014
   3   1.0000      -7.476331      -203.4413
   4   1.0000      -5.371065      -146.1541
   5   1.0000      -5.370690      -146.1439
   6   1.0000      -5.356832      -145.7668
   7   1.0000      -1.039172       -28.2773
   8   1.0000      -0.869307       -23.6550
   9   1.0000      -0.727821       -19.8050
  10   1.0000      -0.619410       -16.8550
  11   1.0000      -0.574182       -15.6243
  12   1.0000      -0.529963       -14.4210
  13   1.0000      -0.506084       -13.7713
  14   1.0000      -0.465000       -12.6533
  15   1.0000      -0.375378       -10.2146
  16   0.0000       0.025744         0.7005
  17   0.0000       0.030619         0.8332
  18   0.0000       0.036536         0.9942
  19   0.0000       0.040348         1.0979
  20   0.0000       0.049071         1.3353

MULLIKEN ATOMIC CHARGES AND SPIN POPULATIONS
--------------------------------------------
   0 P :    0.217772    1.117247
   1 C :   -0.571880   -0.083970
   2 C :   -0.831335    0.011125
   3 H :    0.254030   -0.007412
   4 H :    0.262677   -0.006733
   5 H :    0.263728    0.006187
   6 H :    0.272794    0.001089
   7 H :    0.240766    0.017813
   8 H :   -0.108553   -0.055347
Sum of atomic charges         :   -0.0000000

LOEWDIN ATOMIC CHARGES AND SPIN POPULATIONS
-------------------------------------------
   0 P :    1.289338    0.587583
   1 C :    0.173458    0.163004
   2 C :    0.805182    0.027112
   3 H :   -0.314996    0.003863
   4 H :   -0.306848    0.012457
   5 H :   -0.290915    0.003207
   6 H :   -0.394583    0.007831
   7 H :   -0.376348    0.025697
   8 H :   -0.584289    0.169247

  Mayer bond orders larger than 0.100000
B(  0-P ,  1-C ) :   0.8738 B(  0-P ,  8-H ) :   0.9333 B(  1-C ,  2-C ) :   0.9843
B(  1-C ,  6-H ) :   0.8971 B(  1-C ,  7-H ) :   0.9059 B(  2-C ,  3-H ) :   0.9272
B(  2-C ,  4-H ) :   0.9254 B(  2-C ,  5-H ) :   0.9266

MP2 TOTAL ENERGY:     -420.516889344 Eh
FINAL SINGLE POINT ENERGY      -420.516889343539

DIPOLE MOMENT
-------------
                                X             Y             Z
Electronic contribution:      6.47799       0.31829      -0.95262
Nuclear contribution   :     -7.02141      -0.24230       1.14423
                        -----------------------------------------
Total Dipole Moment    :     -0.54342       0.07598       0.19161
                        -----------------------------------------
Magnitude (a.u.)       :      0.58120
Magnitude (Debye)      :      1.47729

Rotational constants in cm-1:     0.954771     0.174556     0.159644
Rotational constants in MHz : 28623.302866  5233.056448  4786.009455

                             ****ORCA TERMINATED NORMALLY****
TOTAL RUN TIME: 0 days 0 hours 29 minutes 58 seconds 594 msec
