                         Program Version 5.0.4 -  RELEASE  -
|  1> ! ri-mp2 aug-cc-pvdz aug-cc-pvdz/c tightscf
|  2> %pal nprocs 16 end
|  3> %maxcore 3800
|  4> %base "DZ_S-Cl_52_A"
|  5> %scf
|  6> STABPerform true
|  7> STABRestartUHFifUnstable true
|  8> end
|  9>
| 10> *xyz 0 2
| 11> S         0.968595   -1.338371   -0.000004
| 12> C        -0.019534   -0.001368    0.000001
| 13> S         0.898618    1.380898    0.000000
| 14> S        -1.736787   -0.117350    0.000003
| 15> H        -1.969604    1.205377    0.000004
| 16> *
| 17>
| 18> $new_job
| 19> ! ri-mp2 aug-cc-pvtz aug-cc-pvtz/c tightscf
| 20> %pal nprocs 16 end
| 21> %maxcore 3800
| 22> %base "TZ_S-Cl_52_A"
| 23>
| 24> *xyz 0 2
| 25> S         0.968595   -1.338371   -0.000004
| 26> C        -0.019534   -0.001368    0.000001
| 27> S         0.898618    1.380898    0.000000
| 28> S        -1.736787   -0.117350    0.000003
| 29> H        -1.969604    1.205377    0.000004
| 30> *
| 31>
| 32> $new_job
| 33> ! ri-mp2 aug-cc-pvqz aug-cc-pvqz/c tightscf
| 34> %pal nprocs 16 end
| 35> %maxcore 3800
| 36> %base "QZ_S-Cl_52_A"
| 37>
| 38> *xyz 0 2
| 39> S         0.968595   -1.338371   -0.000004
| 40> C        -0.019534   -0.001368    0.000001
| 41> S         0.898618    1.380898    0.000000
| 42> S        -1.736787   -0.117350    0.000003
| 43> H        -1.969604    1.205377    0.000004
| 44> *
| 45>
| 46>
| 47>
| 48>
| 49>                          ****END OF INPUT****
 Total Charge           Charge          ....    0
 Multiplicity           Mult            ....    2
 Number of Electrons    NEL             ....   55
MP2 TOTAL ENERGY:    -1231.552030528 Eh
FINAL SINGLE POINT ENERGY     -1231.552030528467
MP2 TOTAL ENERGY:    -1231.730374486 Eh
FINAL SINGLE POINT ENERGY     -1231.730374485970

CARTESIAN COORDINATES (ANGSTROEM)
---------------------------------
  S      0.968595   -1.338371   -0.000004
  C     -0.019534   -0.001368    0.000001
  S      0.898618    1.380898    0.000000
  S     -1.736787   -0.117350    0.000003
  H     -1.969604    1.205377    0.000004

 Multiplicity           Mult            ....    2
 Number of Electrons    NEL             ....   55
 Basis Dimension        Dim             ....  378

ORBITAL ENERGIES
----------------
                 SPIN UP ORBITALS
  NO   OCC          E(Eh)            E(eV)
   0   1.0000     -92.015925     -2503.8806
   1   1.0000     -92.015865     -2503.8790
   2   1.0000     -91.947787     -2502.0265
   3   1.0000     -11.390792      -309.9592
   4   1.0000      -9.018891      -245.4165
   5   1.0000      -9.018816      -245.4145
   6   1.0000      -8.951137      -243.5728
   7   1.0000      -6.713344      -182.6794
   8   1.0000      -6.700356      -182.3260
   9   1.0000      -6.699119      -182.2923
  10   1.0000      -6.698401      -182.2727
  11   1.0000      -6.696149      -182.2115
  12   1.0000      -6.695246      -182.1869
  13   1.0000      -6.634570      -180.5358
  14   1.0000      -6.630994      -180.4385
  15   1.0000      -6.630060      -180.4131
  16   1.0000      -1.179599       -32.0985
  17   1.0000      -1.028237       -27.9797
  18   1.0000      -0.964889       -26.2560
  19   1.0000      -0.742303       -20.1991
  20   1.0000      -0.623983       -16.9794
  21   1.0000      -0.588084       -16.0026
  22   1.0000      -0.540522       -14.7084
  23   1.0000      -0.520945       -14.1756
  24   1.0000      -0.461875       -12.5683
  25   1.0000      -0.411257       -11.1909
  26   1.0000      -0.358365        -9.7516
  27   1.0000      -0.355555        -9.6751
  28   0.0000       0.026208         0.7131
  29   0.0000       0.029313         0.7976
  30   0.0000       0.046131         1.2553
  31   0.0000       0.051800         1.4095
  32   0.0000       0.068247         1.8571

                 SPIN DOWN ORBITALS
  NO   OCC          E(Eh)            E(eV)
   0   1.0000     -92.015990     -2503.8824
   1   1.0000     -92.006958     -2503.6366
   2   1.0000     -91.945571     -2501.9662
   3   1.0000     -11.391190      -309.9700
   4   1.0000      -9.018903      -245.4168
   5   1.0000      -9.009019      -245.1479
   6   1.0000      -8.948626      -243.5045
   7   1.0000      -6.700211      -182.3220
   8   1.0000      -6.699320      -182.2978
   9   1.0000      -6.698623      -182.2788
  10   1.0000      -6.691789      -182.0928
  11   1.0000      -6.689197      -182.0223
  12   1.0000      -6.674022      -181.6094
  13   1.0000      -6.630213      -180.4173
  14   1.0000      -6.629004      -180.3844
  15   1.0000      -6.624348      -180.2577
  16   1.0000      -1.162563       -31.6349
  17   1.0000      -1.008304       -27.4374
  18   1.0000      -0.922525       -25.1032
  19   1.0000      -0.719888       -19.5892
  20   1.0000      -0.599454       -16.3120
  21   1.0000      -0.574580       -15.6351
  22   1.0000      -0.536905       -14.6099
  23   1.0000      -0.503108       -13.6903
  24   1.0000      -0.403129       -10.9697
  25   1.0000      -0.346808        -9.4371
  26   1.0000      -0.342349        -9.3158
  27   0.0000      -0.014135        -0.3846
  28   0.0000       0.026615         0.7242
  29   0.0000       0.028437         0.7738
  30   0.0000       0.047299         1.2871
  31   0.0000       0.054351         1.4790

MULLIKEN ATOMIC CHARGES AND SPIN POPULATIONS
--------------------------------------------
   0 S :    0.336958    0.980337
   1 C :   -0.604236   -0.153261
   2 S :    0.004475    0.181828
   3 S :    0.157138   -0.010406
   4 H :    0.105665    0.001502
Sum of atomic charges         :    0.0000000

LOEWDIN ATOMIC CHARGES AND SPIN POPULATIONS
-------------------------------------------
   0 S :    0.834209    0.634555
   1 C :   -2.181227    0.197863
   2 S :    0.765530    0.155398
   3 S :    1.392015    0.012593
   4 H :   -0.810528   -0.000408

  Mayer bond orders larger than 0.100000
B(  0-S ,  1-C ) :   1.0533 B(  0-S ,  2-S ) :   0.2303 B(  1-C ,  2-S ) :   1.4642
B(  1-C ,  3-S ) :   0.9563 B(  3-S ,  4-H ) :   1.0303

MP2 TOTAL ENERGY:    -1231.790856441 Eh
FINAL SINGLE POINT ENERGY     -1231.790856440953

DIPOLE MOMENT
-------------
                                X             Y             Z
Electronic contribution:      1.07602      -1.49222      -0.00000
Nuclear contribution   :     -1.86690       1.14238       0.00000
                        -----------------------------------------
Total Dipole Moment    :     -0.79089      -0.34984       0.00000
                        -----------------------------------------
Magnitude (a.u.)       :      0.86481
Magnitude (Debye)      :      2.19816

Rotational constants in cm-1:     0.140133     0.107572     0.060856
Rotational constants in MHz :  4201.079662  3224.929308  1824.423453

                             ****ORCA TERMINATED NORMALLY****
TOTAL RUN TIME: 0 days 0 hours 11 minutes 8 seconds 47 msec
