                         Program Version 5.0.4 -  RELEASE  -
|  1> ! ri-mp2 aug-cc-pvdz aug-cc-pvdz/c tightscf
|  2> %pal nprocs 16 end
|  3> %maxcore 3800
|  4> %base "DZ_S-S_8_A"
|  5> %scf
|  6> STABPerform true
|  7> STABRestartUHFifUnstable true
|  8> end
|  9>
| 10> *xyz 0 2
| 11> S        -2.817868   -0.000078   -0.723137
| 12> C        -1.463487    0.000056    0.406891
| 13> O        -1.680293    0.000177    1.588075
| 14> C        -0.087741   -0.000004   -0.209140
| 15> C         0.671336    1.263403    0.209034
| 16> C         2.089850    1.257744   -0.345830
| 17> H         0.695882    1.302288    1.300306
| 18> H         0.131627    2.149940   -0.129373
| 19> C         2.845805   -0.000019    0.064482
| 20> H         2.620444    2.148425   -0.005073
| 21> H         2.051992    1.316746   -1.438433
| 22> C         2.089814   -1.257814   -0.345666
| 23> H         2.980942    0.000054    1.150617
| 24> H         3.844680   -0.000063   -0.375246
| 25> C         0.671299   -1.263368    0.209203
| 26> H         2.620384   -2.148464   -0.004794
| 27> H         2.051948   -1.316957   -1.438261
| 28> H         0.131576   -2.149943   -0.129085
| 29> H         0.695849   -1.302112    1.300480
| 30> H        -0.198339   -0.000075   -1.299395
| 31> *
| 32>
| 33> $new_job
| 34> ! ri-mp2 aug-cc-pvtz aug-cc-pvtz/c tightscf
| 35> %pal nprocs 16 end
| 36> %maxcore 3800
| 37> %base "TZ_S-S_8_A"
| 38>
| 39> *xyz 0 2
| 40> S        -2.817868   -0.000078   -0.723137
| 41> C        -1.463487    0.000056    0.406891
| 42> O        -1.680293    0.000177    1.588075
| 43> C        -0.087741   -0.000004   -0.209140
| 44> C         0.671336    1.263403    0.209034
| 45> C         2.089850    1.257744   -0.345830
| 46> H         0.695882    1.302288    1.300306
| 47> H         0.131627    2.149940   -0.129373
| 48> C         2.845805   -0.000019    0.064482
| 49> H         2.620444    2.148425   -0.005073
| 50> H         2.051992    1.316746   -1.438433
| 51> C         2.089814   -1.257814   -0.345666
| 52> H         2.980942    0.000054    1.150617
| 53> H         3.844680   -0.000063   -0.375246
| 54> C         0.671299   -1.263368    0.209203
| 55> H         2.620384   -2.148464   -0.004794
| 56> H         2.051948   -1.316957   -1.438261
| 57> H         0.131576   -2.149943   -0.129085
| 58> H         0.695849   -1.302112    1.300480
| 59> H        -0.198339   -0.000075   -1.299395
| 60> *
| 61>
| 62> $new_job
| 63> ! ri-mp2 aug-cc-pvqz aug-cc-pvqz/c tightscf
| 64> %pal nprocs 16 end
| 65> %maxcore 3800
| 66> %base "QZ_S-S_8_A"
| 67>
| 68> *xyz 0 2
| 69> S        -2.817868   -0.000078   -0.723137
| 70> C        -1.463487    0.000056    0.406891
| 71> O        -1.680293    0.000177    1.588075
| 72> C        -0.087741   -0.000004   -0.209140
| 73> C         0.671336    1.263403    0.209034
| 74> C         2.089850    1.257744   -0.345830
| 75> H         0.695882    1.302288    1.300306
| 76> H         0.131627    2.149940   -0.129373
| 77> C         2.845805   -0.000019    0.064482
| 78> H         2.620444    2.148425   -0.005073
| 79> H         2.051992    1.316746   -1.438433
| 80> C         2.089814   -1.257814   -0.345666
| 81> H         2.980942    0.000054    1.150617
| 82> H         3.844680   -0.000063   -0.375246
| 83> C         0.671299   -1.263368    0.209203
| 84> H         2.620384   -2.148464   -0.004794
| 85> H         2.051948   -1.316957   -1.438261
| 86> H         0.131576   -2.149943   -0.129085
| 87> H         0.695849   -1.302112    1.300480
| 88> H        -0.198339   -0.000075   -1.299395
| 89> *
| 90>
| 91>
| 92>
| 93>
| 94>                          ****END OF INPUT****
 Total Charge           Charge          ....    0
 Multiplicity           Mult            ....    2
 Number of Electrons    NEL             ....   77
MP2 TOTAL ENERGY:     -745.232162263 Eh
FINAL SINGLE POINT ENERGY      -745.232162262549
MP2 TOTAL ENERGY:     -745.588501367 Eh
FINAL SINGLE POINT ENERGY      -745.588501366611

CARTESIAN COORDINATES (ANGSTROEM)
---------------------------------
  S     -2.817868   -0.000078   -0.723137
  C     -1.463487    0.000056    0.406891
  O     -1.680293    0.000177    1.588075
  C     -0.087741   -0.000004   -0.209140
  C      0.671336    1.263403    0.209034
  C      2.089850    1.257744   -0.345830
  H      0.695882    1.302288    1.300306
  H      0.131627    2.149940   -0.129373
  C      2.845805   -0.000019    0.064482
  H      2.620444    2.148425   -0.005073
  H      2.051992    1.316746   -1.438433
  C      2.089814   -1.257814   -0.345666
  H      2.980942    0.000054    1.150617
  H      3.844680   -0.000063   -0.375246
  C      0.671299   -1.263368    0.209203
  H      2.620384   -2.148464   -0.004794
  H      2.051948   -1.316957   -1.438261
  H      0.131576   -2.149943   -0.129085
  H      0.695849   -1.302112    1.300480
  H     -0.198339   -0.000075   -1.299395

 Multiplicity           Mult            ....    2
 Number of Electrons    NEL             ....   77
 Basis Dimension        Dim             .... 1230

ORBITAL ENERGIES
----------------
                 SPIN UP ORBITALS
  NO   OCC          E(Eh)            E(eV)
   0   1.0000     -91.996852     -2503.3616
   1   1.0000     -20.557237      -559.3908
   2   1.0000     -11.362979      -309.2024
   3   1.0000     -11.251994      -306.1823
   4   1.0000     -11.231620      -305.6279
   5   1.0000     -11.231603      -305.6274
   6   1.0000     -11.225718      -305.4673
   7   1.0000     -11.225662      -305.4658
   8   1.0000     -11.222635      -305.3834
   9   1.0000      -8.999926      -244.9005
  10   1.0000      -6.696009      -182.2077
  11   1.0000      -6.676903      -181.6878
  12   1.0000      -6.675850      -181.6591
  13   1.0000      -1.412572       -38.4380
  14   1.0000      -1.143007       -31.1028
  15   1.0000      -1.061587       -28.8873
  16   1.0000      -1.020647       -27.7732
  17   1.0000      -1.013019       -27.5657
  18   1.0000      -0.872001       -23.7284
  19   1.0000      -0.848688       -23.0940
  20   1.0000      -0.775862       -21.1123
  21   1.0000      -0.741043       -20.1648
  22   1.0000      -0.673920       -18.3383
  23   1.0000      -0.655542       -17.8382
  24   1.0000      -0.627804       -17.0834
  25   1.0000      -0.616315       -16.7708
  26   1.0000      -0.599247       -16.3063
  27   1.0000      -0.583586       -15.8802
  28   1.0000      -0.570659       -15.5284
  29   1.0000      -0.542784       -14.7699
  30   1.0000      -0.515848       -14.0369
  31   1.0000      -0.507405       -13.8072
  32   1.0000      -0.498098       -13.5539
  33   1.0000      -0.481948       -13.1145
  34   1.0000      -0.469922       -12.7872
  35   1.0000      -0.451350       -12.2818
  36   1.0000      -0.444113       -12.0849
  37   1.0000      -0.407248       -11.0818
  38   1.0000      -0.404596       -11.0096
  39   0.0000       0.022428         0.6103
  40   0.0000       0.028593         0.7781
  41   0.0000       0.029778         0.8103
  42   0.0000       0.034796         0.9468
  43   0.0000       0.045752         1.2450

                 SPIN DOWN ORBITALS
  NO   OCC          E(Eh)            E(eV)
   0   1.0000     -91.987436     -2503.1054
   1   1.0000     -20.556411      -559.3684
   2   1.0000     -11.363773      -309.2240
   3   1.0000     -11.251548      -306.1702
   4   1.0000     -11.231565      -305.6264
   5   1.0000     -11.231547      -305.6259
   6   1.0000     -11.225712      -305.4672
   7   1.0000     -11.225656      -305.4656
   8   1.0000     -11.222635      -305.3834
   9   1.0000      -8.989530      -244.6176
  10   1.0000      -6.671939      -181.5527
  11   1.0000      -6.670118      -181.5031
  12   1.0000      -6.653676      -181.0557
  13   1.0000      -1.409520       -38.3550
  14   1.0000      -1.141775       -31.0693
  15   1.0000      -1.047483       -28.5035
  16   1.0000      -1.020561       -27.7709
  17   1.0000      -0.962723       -26.1970
  18   1.0000      -0.857885       -23.3442
  19   1.0000      -0.848601       -23.0916
  20   1.0000      -0.771557       -20.9951
  21   1.0000      -0.732540       -19.9334
  22   1.0000      -0.668626       -18.1942
  23   1.0000      -0.646525       -17.5928
  24   1.0000      -0.623632       -16.9699
  25   1.0000      -0.616221       -16.7682
  26   1.0000      -0.589981       -16.0542
  27   1.0000      -0.583130       -15.8678
  28   1.0000      -0.565313       -15.3829
  29   1.0000      -0.542697       -14.7675
  30   1.0000      -0.515338       -14.0231
  31   1.0000      -0.500924       -13.6308
  32   1.0000      -0.497987       -13.5509
  33   1.0000      -0.472132       -12.8474
  34   1.0000      -0.467120       -12.7110
  35   1.0000      -0.443900       -12.0791
  36   1.0000      -0.400618       -10.9014
  37   1.0000      -0.385027       -10.4771
  38   0.0000       0.001312         0.0357
  39   0.0000       0.022846         0.6217
  40   0.0000       0.028604         0.7784
  41   0.0000       0.030761         0.8371
  42   0.0000       0.035054         0.9539

MULLIKEN ATOMIC CHARGES AND SPIN POPULATIONS
--------------------------------------------
   0 S :   -0.116187    1.154143
   1 C :    0.718646   -0.174963
   2 O :   -0.835654   -0.000305
   3 C :    0.086008    0.017477
   4 C :   -0.429084    0.000294
   5 C :   -0.473764    0.000285
   6 H :    0.227264    0.000922
   7 H :    0.301883   -0.000128
   8 C :   -0.416935   -0.000007
   9 H :    0.240716    0.000032
  10 H :    0.141449    0.000255
  11 C :   -0.473353    0.000284
  12 H :    0.130318    0.000014
  13 H :    0.242319    0.000007
  14 C :   -0.429398    0.000300
  15 H :    0.240815    0.000029
  16 H :    0.142032    0.000250
  17 H :    0.301753   -0.000130
  18 H :    0.227291    0.000924
  19 H :    0.173880    0.000317
Sum of atomic charges         :    0.0000000

LOEWDIN ATOMIC CHARGES AND SPIN POPULATIONS
-------------------------------------------
   0 S :    1.084173    0.737117
   1 C :   -1.335441    0.186817
   2 O :    0.622193    0.019709
   3 C :   -0.073028    0.025314
   4 C :    0.508274    0.002133
   5 C :    0.542507    0.000268
   6 H :   -0.271469    0.000421
   7 H :   -0.252490   -0.000106
   8 C :    0.537680    0.000066
   9 H :   -0.255619    0.000056
  10 H :   -0.259913   -0.000016
  11 C :    0.542508    0.000267
  12 H :   -0.260340   -0.000009
  13 H :   -0.257385   -0.000006
  14 C :    0.508270    0.002132
  15 H :   -0.255621    0.000056
  16 H :   -0.259913   -0.000016
  17 H :   -0.252489   -0.000106
  18 H :   -0.271467    0.000421
  19 H :   -0.340429    0.025485

  Mayer bond orders larger than 0.100000
B(  0-S ,  1-C ) :   0.9268 B(  0-S ,  3-C ) :  -0.1707 B(  1-C ,  2-O ) :   1.1625
B(  1-C ,  3-C ) :   1.0141 B(  2-O ,  3-C ) :   0.1495 B(  3-C ,  4-C ) :   0.7917
B(  3-C , 14-C ) :   0.7921 B(  3-C , 19-H ) :   0.9307 B(  4-C ,  5-C ) :   0.8759
B(  4-C ,  6-H ) :   0.9543 B(  4-C ,  7-H ) :   0.9187 B(  5-C ,  8-C ) :   0.8737
B(  5-C ,  9-H ) :   0.9687 B(  5-C , 10-H ) :   1.0176 B(  8-C , 11-C ) :   0.8735
B(  8-C , 12-H ) :   1.0283 B(  8-C , 13-H ) :   0.9536 B( 11-C , 14-C ) :   0.8757
B( 11-C , 15-H ) :   0.9686 B( 11-C , 16-H ) :   1.0174 B( 14-C , 17-H ) :   0.9187
B( 14-C , 18-H ) :   0.9541

MP2 TOTAL ENERGY:     -745.701103062 Eh
FINAL SINGLE POINT ENERGY      -745.701103061839

DIPOLE MOMENT
-------------
                                X             Y             Z
Electronic contribution:    -16.96303       0.00006       0.15637
Nuclear contribution   :     17.85881      -0.00016      -1.03080
                        -----------------------------------------
Total Dipole Moment    :      0.89578      -0.00009      -0.87443
                        -----------------------------------------
Magnitude (a.u.)       :      1.25182
Magnitude (Debye)      :      3.18187

Rotational constants in cm-1:     0.095641     0.025618     0.024590
Rotational constants in MHz :  2867.236483   768.011709   737.194779

                             ****ORCA TERMINATED NORMALLY****
TOTAL RUN TIME: 0 days 11 hours 3 minutes 54 seconds 124 msec
