                         Program Version 5.0.4 -  RELEASE  -
|  1> ! ri-mp2 aug-cc-pvdz aug-cc-pvdz/c tightscf
|  2> %pal nprocs 16 end
|  3> %maxcore 3800
|  4> %base "DZ_S-Cl_19_AB"
|  5>
|  6> *xyz 0 1
|  7> Cl         2.628350   -0.099790   -0.071070
|  8> S         1.000878   -1.037883   -0.800097
|  9> C        -0.301602   -0.062932   -0.059319
| 10> N        -1.560974   -0.911377   -0.135420
| 11> O        -2.354870   -0.812749    0.750583
| 12> O        -1.618510   -1.605290   -1.121717
| 13> N        -0.076981    0.289256    1.418657
| 14> O         0.221537   -0.638220    2.115284
| 15> O        -0.233717    1.437568    1.724703
| 16> N        -0.606030    1.255502   -0.797052
| 17> O        -1.765323    1.498680   -0.991811
| 18> O         0.353572    1.900822   -1.106745
| 19> *
| 20>
| 21> $new_job
| 22> ! ri-mp2 aug-cc-pvtz aug-cc-pvtz/c tightscf
| 23> %pal nprocs 16 end
| 24> %maxcore 3800
| 25> %base "TZ_S-Cl_19_AB"
| 26>
| 27> *xyz 0 1
| 28> Cl         2.628350   -0.099790   -0.071070
| 29> S         1.000878   -1.037883   -0.800097
| 30> C        -0.301602   -0.062932   -0.059319
| 31> N        -1.560974   -0.911377   -0.135420
| 32> O        -2.354870   -0.812749    0.750583
| 33> O        -1.618510   -1.605290   -1.121717
| 34> N        -0.076981    0.289256    1.418657
| 35> O         0.221537   -0.638220    2.115284
| 36> O        -0.233717    1.437568    1.724703
| 37> N        -0.606030    1.255502   -0.797052
| 38> O        -1.765323    1.498680   -0.991811
| 39> O         0.353572    1.900822   -1.106745
| 40> *
| 41>
| 42> $new_job
| 43> ! ri-mp2 aug-cc-pvqz aug-cc-pvqz/c tightscf
| 44> %pal nprocs 16 end
| 45> %maxcore 3800
| 46> %base "QZ_S-Cl_19_AB"
| 47>
| 48> *xyz 0 1
| 49> Cl         2.628350   -0.099790   -0.071070
| 50> S         1.000878   -1.037883   -0.800097
| 51> C        -0.301602   -0.062932   -0.059319
| 52> N        -1.560974   -0.911377   -0.135420
| 53> O        -2.354870   -0.812749    0.750583
| 54> O        -1.618510   -1.605290   -1.121717
| 55> N        -0.076981    0.289256    1.418657
| 56> O         0.221537   -0.638220    2.115284
| 57> O        -0.233717    1.437568    1.724703
| 58> N        -0.606030    1.255502   -0.797052
| 59> O        -1.765323    1.498680   -0.991811
| 60> O         0.353572    1.900822   -1.106745
| 61> *
| 62>
| 63>
| 64>
| 65>
| 66>                          ****END OF INPUT****
 Total Charge           Charge          ....    0
 Multiplicity           Mult            ....    1
 Number of Electrons    NEL             ....  108
MP2 TOTAL ENERGY:    -1509.260839994 Eh
FINAL SINGLE POINT ENERGY     -1509.260839993609
MP2 TOTAL ENERGY:    -1509.894891362 Eh
FINAL SINGLE POINT ENERGY     -1509.894891361905

CARTESIAN COORDINATES (ANGSTROEM)
---------------------------------
  Cl     2.628350   -0.099790   -0.071070
  S      1.000878   -1.037883   -0.800097
  C     -0.301602   -0.062932   -0.059319
  N     -1.560974   -0.911377   -0.135420
  O     -2.354870   -0.812749    0.750583
  O     -1.618510   -1.605290   -1.121717
  N     -0.076981    0.289256    1.418657
  O      0.221537   -0.638220    2.115284
  O     -0.233717    1.437568    1.724703
  N     -0.606030    1.255502   -0.797052
  O     -1.765323    1.498680   -0.991811
  O      0.353572    1.900822   -1.106745

 Multiplicity           Mult            ....    1
 Number of Electrons    NEL             ....  108
 Basis Dimension        Dim             ....  968

ORBITAL ENERGIES
----------------

  NO   OCC          E(Eh)            E(eV)
   0   2.0000    -104.909653     -2854.7368
   1   2.0000     -92.094629     -2506.0223
   2   2.0000     -20.678347      -562.6864
   3   2.0000     -20.670719      -562.4789
   4   2.0000     -20.670314      -562.4679
   5   2.0000     -20.666387      -562.3610
   6   2.0000     -20.665893      -562.3475
   7   2.0000     -20.663601      -562.2852
   8   2.0000     -15.929241      -433.4567
   9   2.0000     -15.924831      -433.3367
  10   2.0000     -15.920458      -433.2177
  11   2.0000     -11.508370      -313.1587
  12   2.0000     -10.633794      -289.3603
  13   2.0000      -9.091944      -247.4044
  14   2.0000      -8.100805      -220.4341
  15   2.0000      -8.098633      -220.3750
  16   2.0000      -8.098362      -220.3676
  17   2.0000      -6.772613      -184.2922
  18   2.0000      -6.771464      -184.2609
  19   2.0000      -6.769754      -184.2144
  20   2.0000      -1.710626       -46.5485
  21   2.0000      -1.687661       -45.9236
  22   2.0000      -1.682741       -45.7897
  23   2.0000      -1.493390       -40.6372
  24   2.0000      -1.488513       -40.5045
  25   2.0000      -1.484238       -40.3882
  26   2.0000      -1.267034       -34.4777
  27   2.0000      -1.190778       -32.4027
  28   2.0000      -1.030978       -28.0543
  29   2.0000      -1.022679       -27.8285
  30   2.0000      -1.002590       -27.2819
  31   2.0000      -0.880316       -23.9546
  32   2.0000      -0.865646       -23.5554
  33   2.0000      -0.863887       -23.5076
  34   2.0000      -0.806845       -21.9554
  35   2.0000      -0.796135       -21.6639
  36   2.0000      -0.792495       -21.5649
  37   2.0000      -0.786530       -21.4026
  38   2.0000      -0.782410       -21.2904
  39   2.0000      -0.777708       -21.1625
  40   2.0000      -0.692745       -18.8506
  41   2.0000      -0.612351       -16.6629
  42   2.0000      -0.597830       -16.2678
  43   2.0000      -0.590483       -16.0679
  44   2.0000      -0.564690       -15.3660
  45   2.0000      -0.564061       -15.3489
  46   2.0000      -0.553488       -15.0612
  47   2.0000      -0.544361       -14.8128
  48   2.0000      -0.541566       -14.7368
  49   2.0000      -0.528673       -14.3859
  50   2.0000      -0.511790       -13.9265
  51   2.0000      -0.508302       -13.8316
  52   2.0000      -0.504769       -13.7355
  53   2.0000      -0.431752       -11.7486
  54   0.0000       0.013958         0.3798
  55   0.0000       0.015652         0.4259
  56   0.0000       0.023388         0.6364
  57   0.0000       0.031658         0.8614
  58   0.0000       0.037992         1.0338

MULLIKEN ATOMIC CHARGES
-----------------------
   0 Cl:   -0.279069
   1 S :    0.319058
   2 C :    0.591573
   3 N :    0.909594
   4 O :   -0.515231
   5 O :   -0.602575
   6 N :    0.945484
   7 O :   -0.560908
   8 O :   -0.577150
   9 N :    0.881893
  10 O :   -0.550703
  11 O :   -0.561966
Sum of atomic charges:    0.0000000

LOEWDIN ATOMIC CHARGES
----------------------
   0 Cl:    0.603836
   1 S :    0.443438
   2 C :   -1.439612
   3 N :   -0.997005
   4 O :    0.594067
   5 O :    0.542739
   6 N :   -1.002362
   7 O :    0.549715
   8 O :    0.574939
   9 N :   -0.979920
  10 O :    0.570882
  11 O :    0.539283

  Mayer bond orders larger than 0.100000
B(  0-Cl,  1-S ) :   1.0484 B(  0-Cl,  2-C ) :  -0.1895 B(  1-S ,  2-C ) :   0.6830
B(  2-C ,  3-N ) :   0.8635 B(  2-C ,  6-N ) :   0.8643 B(  2-C ,  9-N ) :   0.8098
B(  3-N ,  4-O ) :   1.3105 B(  3-N ,  5-O ) :   1.2019 B(  4-O ,  5-O ) :   0.1489
B(  6-N ,  7-O ) :   1.2722 B(  6-N ,  8-O ) :   1.2615 B(  7-O ,  8-O ) :   0.1264
B(  9-N , 10-O ) :   1.2679 B(  9-N , 11-O ) :   1.2555 B( 10-O , 11-O ) :   0.1508

MP2 TOTAL ENERGY:    -1510.111044709 Eh
FINAL SINGLE POINT ENERGY     -1510.111044709143

DIPOLE MOMENT
-------------
                                X             Y             Z
Electronic contribution:      4.52476      -0.75132      -0.53124
Nuclear contribution   :     -3.62645       0.19261       0.14062
                        -----------------------------------------
Total Dipole Moment    :      0.89831      -0.55870      -0.39062
                        -----------------------------------------
Magnitude (a.u.)       :      1.12769
Magnitude (Debye)      :      2.86636

Rotational constants in cm-1:     0.033940     0.022679     0.022284
Rotational constants in MHz :  1017.506549   679.902768   668.045971

                             ****ORCA TERMINATED NORMALLY****
TOTAL RUN TIME: 0 days 0 hours 29 minutes 28 seconds 120 msec
