                         Program Version 5.0.4 -  RELEASE  -
|  1> ! ri-mp2 aug-cc-pvdz aug-cc-pvdz/c tightscf
|  2> %pal nprocs 16 end
|  3> %maxcore 3800
|  4> %base "DZ_B-F_8_AB"
|  5> %scf
|  6> STABPerform true
|  7> STABRestartUHFifUnstable true
|  8> end
|  9>
| 10> *xyz 0 1
| 11> F         1.654246   -0.732016    0.000004
| 12> F         0.691856    1.306623   -0.000034
| 13> B         0.558315    0.002591   -0.000004
| 14> C        -0.839339   -0.708162    0.000021
| 15> F        -1.888510    0.197047    0.000010
| 16> H        -0.936928   -1.354417    0.877953
| 17> H        -0.936942   -1.354454   -0.877883
| 18> *
| 19>
| 20> $new_job
| 21> ! ri-mp2 aug-cc-pvtz aug-cc-pvtz/c tightscf
| 22> %pal nprocs 16 end
| 23> %maxcore 3800
| 24> %base "TZ_B-F_8_AB"
| 25>
| 26> *xyz 0 1
| 27> F         1.654246   -0.732016    0.000004
| 28> F         0.691856    1.306623   -0.000034
| 29> B         0.558315    0.002591   -0.000004
| 30> C        -0.839339   -0.708162    0.000021
| 31> F        -1.888510    0.197047    0.000010
| 32> H        -0.936928   -1.354417    0.877953
| 33> H        -0.936942   -1.354454   -0.877883
| 34> *
| 35>
| 36> $new_job
| 37> ! ri-mp2 aug-cc-pvqz aug-cc-pvqz/c tightscf
| 38> %pal nprocs 16 end
| 39> %maxcore 3800
| 40> %base "QZ_B-F_8_AB"
| 41>
| 42> *xyz 0 1
| 43> F         1.654246   -0.732016    0.000004
| 44> F         0.691856    1.306623   -0.000034
| 45> B         0.558315    0.002591   -0.000004
| 46> C        -0.839339   -0.708162    0.000021
| 47> F        -1.888510    0.197047    0.000010
| 48> H        -0.936928   -1.354417    0.877953
| 49> H        -0.936942   -1.354454   -0.877883
| 50> *
| 51>
| 52>
| 53>
| 54>
| 55>                          ****END OF INPUT****
 Total Charge           Charge          ....    0
 Multiplicity           Mult            ....    1
 Number of Electrons    NEL             ....   40
MP2 TOTAL ENERGY:     -363.020097686 Eh
FINAL SINGLE POINT ENERGY      -363.020097686244
MP2 TOTAL ENERGY:     -363.335318313 Eh
FINAL SINGLE POINT ENERGY      -363.335318312603

CARTESIAN COORDINATES (ANGSTROEM)
---------------------------------
  F      1.654246   -0.732016    0.000004
  F      0.691856    1.306623   -0.000034
  B      0.558315    0.002591   -0.000004
  C     -0.839339   -0.708162    0.000021
  F     -1.888510    0.197047    0.000010
  H     -0.936928   -1.354417    0.877953
  H     -0.936942   -1.354454   -0.877883

 Multiplicity           Mult            ....    1
 Number of Electrons    NEL             ....   40
 Basis Dimension        Dim             ....  492

ORBITAL ENERGIES
----------------

  NO   OCC          E(Eh)            E(eV)
   0   2.0000     -26.325770      -716.3606
   1   2.0000     -26.322882      -716.2820
   2   2.0000     -26.290196      -715.3926
   3   2.0000     -11.313069      -307.8442
   4   2.0000      -7.721529      -210.1135
   5   2.0000      -1.658749       -45.1369
   6   2.0000      -1.627194       -44.2782
   7   2.0000      -1.600464       -43.5508
   8   2.0000      -0.982812       -26.7437
   9   2.0000      -0.830066       -22.5872
  10   2.0000      -0.778171       -21.1751
  11   2.0000      -0.754634       -20.5346
  12   2.0000      -0.734735       -19.9932
  13   2.0000      -0.703941       -19.1552
  14   2.0000      -0.699040       -19.0218
  15   2.0000      -0.672172       -18.2907
  16   2.0000      -0.664505       -18.0821
  17   2.0000      -0.660823       -17.9819
  18   2.0000      -0.547584       -14.9005
  19   2.0000      -0.518721       -14.1151
  20   0.0000       0.022320         0.6074
  21   0.0000       0.032492         0.8842
  22   0.0000       0.038182         1.0390
  23   0.0000       0.041855         1.1389
  24   0.0000       0.058365         1.5882

MULLIKEN ATOMIC CHARGES
-----------------------
   0 F :   -0.751087
   1 F :   -0.760258
   2 B :    1.584813
   3 C :    0.044667
   4 F :   -0.642120
   5 H :    0.261993
   6 H :    0.261992
Sum of atomic charges:    0.0000000

LOEWDIN ATOMIC CHARGES
----------------------
   0 F :    0.818238
   1 F :    0.824963
   2 B :   -1.708162
   3 C :    0.047423
   4 F :    0.745354
   5 H :   -0.363908
   6 H :   -0.363907

  Mayer bond orders larger than 0.100000
B(  0-F ,  2-B ) :   0.4093 B(  1-F ,  2-B ) :   0.4377 B(  2-B ,  3-C ) :   0.9740
B(  3-C ,  4-F ) :   0.5753 B(  3-C ,  5-H ) :   0.8834 B(  3-C ,  6-H ) :   0.8834

MP2 TOTAL ENERGY:     -363.436726259 Eh
FINAL SINGLE POINT ENERGY      -363.436726259226

DIPOLE MOMENT
-------------
                                X             Y             Z
Electronic contribution:      2.60748       2.43787      -0.00007
Nuclear contribution   :     -2.54814      -3.18833       0.00009
                        -----------------------------------------
Total Dipole Moment    :      0.05934      -0.75047       0.00002
                        -----------------------------------------
Magnitude (a.u.)       :      0.75281
Magnitude (Debye)      :      1.91348

Rotational constants in cm-1:     0.310109     0.117049     0.086328
Rotational constants in MHz :  9296.827309  3509.048007  2588.044868

                             ****ORCA TERMINATED NORMALLY****
TOTAL RUN TIME: 0 days 0 hours 11 minutes 43 seconds 237 msec
