                         Program Version 5.0.4 -  RELEASE  -
|  1> ! ri-mp2 aug-cc-pvdz aug-cc-pvdz/c tightscf
|  2> %pal nprocs 16 end
|  3> %maxcore 3800
|  4> %base "DZ_Si-Si_6_AB"
|  5> %scf
|  6> STABPerform true
|  7> STABRestartUHFifUnstable true
|  8> end
|  9>
| 10> *xyz 0 1
| 11> Si        -0.796027    0.855494   -0.000005
| 12> Si         0.796026   -0.855492   -0.000005
| 13> C         2.459738   -0.103500    0.000002
| 14> H         0.647867   -1.699236   -1.203841
| 15> H         0.647863   -1.699258    1.203815
| 16> C        -2.459739    0.103500    0.000006
| 17> H        -0.647870    1.699236   -1.203843
| 18> H        -0.647862    1.699261    1.203814
| 19> C        -3.532698   -0.434213    0.000012
| 20> C         3.532700    0.434208    0.000007
| 21> H         4.487284    0.904688    0.000019
| 22> H        -4.487282   -0.904691    0.000012
| 23> *
| 24>
| 25> $new_job
| 26> ! ri-mp2 aug-cc-pvtz aug-cc-pvtz/c tightscf
| 27> %pal nprocs 16 end
| 28> %maxcore 3800
| 29> %base "TZ_Si-Si_6_AB"
| 30>
| 31> *xyz 0 1
| 32> Si        -0.796027    0.855494   -0.000005
| 33> Si         0.796026   -0.855492   -0.000005
| 34> C         2.459738   -0.103500    0.000002
| 35> H         0.647867   -1.699236   -1.203841
| 36> H         0.647863   -1.699258    1.203815
| 37> C        -2.459739    0.103500    0.000006
| 38> H        -0.647870    1.699236   -1.203843
| 39> H        -0.647862    1.699261    1.203814
| 40> C        -3.532698   -0.434213    0.000012
| 41> C         3.532700    0.434208    0.000007
| 42> H         4.487284    0.904688    0.000019
| 43> H        -4.487282   -0.904691    0.000012
| 44> *
| 45>
| 46> $new_job
| 47> ! ri-mp2 aug-cc-pvqz aug-cc-pvqz/c tightscf
| 48> %pal nprocs 16 end
| 49> %maxcore 3800
| 50> %base "QZ_Si-Si_6_AB"
| 51>
| 52> *xyz 0 1
| 53> Si        -0.796027    0.855494   -0.000005
| 54> Si         0.796026   -0.855492   -0.000005
| 55> C         2.459738   -0.103500    0.000002
| 56> H         0.647867   -1.699236   -1.203841
| 57> H         0.647863   -1.699258    1.203815
| 58> C        -2.459739    0.103500    0.000006
| 59> H        -0.647870    1.699236   -1.203843
| 60> H        -0.647862    1.699261    1.203814
| 61> C        -3.532698   -0.434213    0.000012
| 62> C         3.532700    0.434208    0.000007
| 63> H         4.487284    0.904688    0.000019
| 64> H        -4.487282   -0.904691    0.000012
| 65> *
| 66>
| 67>
| 68>
| 69>
| 70>                          ****END OF INPUT****
 Total Charge           Charge          ....    0
 Multiplicity           Mult            ....    1
 Number of Electrons    NEL             ....   58
MP2 TOTAL ENERGY:     -733.445419614 Eh
FINAL SINGLE POINT ENERGY      -733.445419613998
MP2 TOTAL ENERGY:     -733.655332722 Eh
FINAL SINGLE POINT ENERGY      -733.655332721643

CARTESIAN COORDINATES (ANGSTROEM)
---------------------------------
  Si    -0.796027    0.855494   -0.000005
  Si     0.796026   -0.855492   -0.000005
  C      2.459738   -0.103500    0.000002
  H      0.647867   -1.699236   -1.203841
  H      0.647863   -1.699258    1.203815
  C     -2.459739    0.103500    0.000006
  H     -0.647870    1.699236   -1.203843
  H     -0.647862    1.699261    1.203814
  C     -3.532698   -0.434213    0.000012
  C      3.532700    0.434208    0.000007
  H      4.487284    0.904688    0.000019
  H     -4.487282   -0.904691    0.000012

 Multiplicity           Mult            ....    1
 Number of Electrons    NEL             ....   58
 Basis Dimension        Dim             ....  764

ORBITAL ENERGIES
----------------

  NO   OCC          E(Eh)            E(eV)
   0   2.0000     -68.784424     -1871.7193
   1   2.0000     -68.784422     -1871.7193
   2   2.0000     -11.243149      -305.9416
   3   2.0000     -11.243149      -305.9416
   4   2.0000     -11.220997      -305.3389
   5   2.0000     -11.220997      -305.3388
   6   2.0000      -6.133946      -166.9132
   7   2.0000      -6.133795      -166.9090
   8   2.0000      -4.240605      -115.3927
   9   2.0000      -4.240504      -115.3900
  10   2.0000      -4.240285      -115.3840
  11   2.0000      -4.240040      -115.3774
  12   2.0000      -4.239957      -115.3751
  13   2.0000      -4.239730      -115.3689
  14   2.0000      -1.032092       -28.0847
  15   2.0000      -1.031258       -28.0620
  16   2.0000      -0.800096       -21.7717
  17   2.0000      -0.763724       -20.7820
  18   2.0000      -0.721240       -19.6259
  19   2.0000      -0.693757       -18.8781
  20   2.0000      -0.559673       -15.2295
  21   2.0000      -0.548023       -14.9125
  22   2.0000      -0.515654       -14.0317
  23   2.0000      -0.488543       -13.2939
  24   2.0000      -0.456364       -12.4183
  25   2.0000      -0.416316       -11.3285
  26   2.0000      -0.407935       -11.1005
  27   2.0000      -0.405676       -11.0390
  28   2.0000      -0.374678       -10.1955
  29   0.0000       0.022204         0.6042
  30   0.0000       0.025224         0.6864
  31   0.0000       0.032611         0.8874
  32   0.0000       0.039136         1.0649
  33   0.0000       0.039587         1.0772

MULLIKEN ATOMIC CHARGES
-----------------------
   0 Si:    1.108286
   1 Si:    1.108289
   2 C :   -0.695949
   3 H :   -0.229965
   4 H :   -0.229968
   5 C :   -0.695949
   6 H :   -0.229965
   7 H :   -0.229968
   8 C :   -0.411016
   9 C :   -0.411017
  10 H :    0.458610
  11 H :    0.458610
Sum of atomic charges:    0.0000000

LOEWDIN ATOMIC CHARGES
----------------------
   0 Si:    0.614297
   1 Si:    0.614296
   2 C :   -0.069746
   3 H :   -0.274556
   4 H :   -0.274556
   5 C :   -0.069745
   6 H :   -0.274556
   7 H :   -0.274556
   8 C :    0.459411
   9 C :    0.459411
  10 H :   -0.454850
  11 H :   -0.454851

  Mayer bond orders larger than 0.100000
B(  0-Si,  1-Si) :   0.9212 B(  0-Si,  5-C ) :   0.7626 B(  0-Si,  6-H ) :   0.8156
B(  0-Si,  7-H ) :   0.8156 B(  0-Si,  8-C ) :  -0.1875 B(  1-Si,  2-C ) :   0.7626
B(  1-Si,  3-H ) :   0.8156 B(  1-Si,  4-H ) :   0.8156 B(  1-Si,  9-C ) :  -0.1875
B(  2-C ,  9-C ) :   2.1960 B(  5-C ,  8-C ) :   2.1960 B(  8-C , 11-H ) :   0.8403
B(  9-C , 10-H ) :   0.8403

MP2 TOTAL ENERGY:     -733.721687014 Eh
FINAL SINGLE POINT ENERGY      -733.721687013745

DIPOLE MOMENT
-------------
                                X             Y             Z
Electronic contribution:     -0.00000       0.00000       0.00003
Nuclear contribution   :      0.00000       0.00000      -0.00002
                        -----------------------------------------
Total Dipole Moment    :      0.00000       0.00000       0.00001
                        -----------------------------------------
Magnitude (a.u.)       :      0.00001
Magnitude (Debye)      :      0.00002

Rotational constants in cm-1:     0.259342     0.031874     0.028955
Rotational constants in MHz :  7774.881365   955.551089   868.046590

                             ****ORCA TERMINATED NORMALLY****
TOTAL RUN TIME: 0 days 0 hours 44 minutes 43 seconds 749 msec
