                         Program Version 5.0.4 -  RELEASE  -
|  1> ! ri-mp2 aug-cc-pvdz aug-cc-pvdz/c tightscf
|  2> %pal nprocs 16 end
|  3> %maxcore 3800
|  4> %base "DZ_Si-Cl_83_A"
|  5> %scf
|  6> STABPerform true
|  7> STABRestartUHFifUnstable true
|  8> end
|  9>
| 10> *xyz 0 2
| 11> C        -0.251705    0.945574   -0.014613
| 12> O        -0.685264    2.041164   -0.259675
| 13> Si         1.608414    0.695255    0.328127
| 14> O        -0.997082   -0.150876    0.104980
| 15> Cl         2.231597   -1.193407   -0.164440
| 16> C        -2.417675    0.007398   -0.089420
| 17> C        -3.052370   -1.344269    0.094707
| 18> H        -2.586041    0.409936   -1.088026
| 19> H        -2.784462    0.738866    0.630551
| 20> H        -2.660171   -2.058567   -0.628306
| 21> H        -4.130498   -1.267308   -0.047017
| 22> H        -2.863704   -1.728878    1.096391
| 23> H         2.359202    1.685778   -0.468368
| 24> *
| 25>
| 26> $new_job
| 27> ! ri-mp2 aug-cc-pvtz aug-cc-pvtz/c tightscf
| 28> %pal nprocs 16 end
| 29> %maxcore 3800
| 30> %base "TZ_Si-Cl_83_A"
| 31>
| 32> *xyz 0 2
| 33> C        -0.251705    0.945574   -0.014613
| 34> O        -0.685264    2.041164   -0.259675
| 35> Si         1.608414    0.695255    0.328127
| 36> O        -0.997082   -0.150876    0.104980
| 37> Cl         2.231597   -1.193407   -0.164440
| 38> C        -2.417675    0.007398   -0.089420
| 39> C        -3.052370   -1.344269    0.094707
| 40> H        -2.586041    0.409936   -1.088026
| 41> H        -2.784462    0.738866    0.630551
| 42> H        -2.660171   -2.058567   -0.628306
| 43> H        -4.130498   -1.267308   -0.047017
| 44> H        -2.863704   -1.728878    1.096391
| 45> H         2.359202    1.685778   -0.468368
| 46> *
| 47>
| 48> $new_job
| 49> ! ri-mp2 aug-cc-pvqz aug-cc-pvqz/c tightscf
| 50> %pal nprocs 16 end
| 51> %maxcore 3800
| 52> %base "QZ_Si-Cl_83_A"
| 53>
| 54> *xyz 0 2
| 55> C        -0.251705    0.945574   -0.014613
| 56> O        -0.685264    2.041164   -0.259675
| 57> Si         1.608414    0.695255    0.328127
| 58> O        -0.997082   -0.150876    0.104980
| 59> Cl         2.231597   -1.193407   -0.164440
| 60> C        -2.417675    0.007398   -0.089420
| 61> C        -3.052370   -1.344269    0.094707
| 62> H        -2.586041    0.409936   -1.088026
| 63> H        -2.784462    0.738866    0.630551
| 64> H        -2.660171   -2.058567   -0.628306
| 65> H        -4.130498   -1.267308   -0.047017
| 66> H        -2.863704   -1.728878    1.096391
| 67> H         2.359202    1.685778   -0.468368
| 68> *
| 69>
| 70>
| 71>
| 72>
| 73>                          ****END OF INPUT****
 Total Charge           Charge          ....    0
 Multiplicity           Mult            ....    2
 Number of Electrons    NEL             ....   71
MP2 TOTAL ENERGY:    -1016.358513815 Eh
FINAL SINGLE POINT ENERGY     -1016.358513814831
MP2 TOTAL ENERGY:    -1016.686076187 Eh
FINAL SINGLE POINT ENERGY     -1016.686076186767

CARTESIAN COORDINATES (ANGSTROEM)
---------------------------------
  C     -0.251705    0.945574   -0.014613
  O     -0.685264    2.041164   -0.259675
  Si     1.608414    0.695255    0.328127
  O     -0.997082   -0.150876    0.104980
  Cl     2.231597   -1.193407   -0.164440
  C     -2.417675    0.007398   -0.089420
  C     -3.052370   -1.344269    0.094707
  H     -2.586041    0.409936   -1.088026
  H     -2.784462    0.738866    0.630551
  H     -2.660171   -2.058567   -0.628306
  H     -4.130498   -1.267308   -0.047017
  H     -2.863704   -1.728878    1.096391
  H      2.359202    1.685778   -0.468368

 Multiplicity           Mult            ....    2
 Number of Electrons    NEL             ....   71
 Basis Dimension        Dim             ....  844

ORBITAL ENERGIES
----------------
                 SPIN UP ORBITALS
  NO   OCC          E(Eh)            E(eV)
   0   1.0000    -104.840882     -2852.8654
   1   1.0000     -68.841283     -1873.2666
   2   1.0000     -20.609580      -560.8152
   3   1.0000     -20.560296      -559.4741
   4   1.0000     -11.375696      -309.5484
   5   1.0000     -11.294536      -307.3400
   6   1.0000     -11.228041      -305.5305
   7   1.0000     -10.568024      -287.5706
   8   1.0000      -8.035726      -218.6632
   9   1.0000      -8.033856      -218.6123
  10   1.0000      -8.033353      -218.5986
  11   1.0000      -6.187562      -168.3721
  12   1.0000      -4.299471      -116.9945
  13   1.0000      -4.290586      -116.7528
  14   1.0000      -4.289496      -116.7231
  15   1.0000      -1.472627       -40.0722
  16   1.0000      -1.375347       -37.4251
  17   1.0000      -1.112718       -30.2786
  18   1.0000      -1.052214       -28.6322
  19   1.0000      -0.897136       -24.4123
  20   1.0000      -0.809358       -22.0238
  21   1.0000      -0.757502       -20.6127
  22   1.0000      -0.691867       -18.8267
  23   1.0000      -0.689713       -18.7681
  24   1.0000      -0.647555       -17.6209
  25   1.0000      -0.597642       -16.2627
  26   1.0000      -0.565400       -15.3853
  27   1.0000      -0.560136       -15.2421
  28   1.0000      -0.539623       -14.6839
  29   1.0000      -0.523750       -14.2520
  30   1.0000      -0.518241       -14.1021
  31   1.0000      -0.502579       -13.6759
  32   1.0000      -0.487319       -13.2606
  33   1.0000      -0.471673       -12.8349
  34   1.0000      -0.438007       -11.9188
  35   1.0000      -0.353863        -9.6291
  36   0.0000       0.024772         0.6741
  37   0.0000       0.032353         0.8804
  38   0.0000       0.034942         0.9508
  39   0.0000       0.036209         0.9853
  40   0.0000       0.044831         1.2199

                 SPIN DOWN ORBITALS
  NO   OCC          E(Eh)            E(eV)
   0   1.0000    -104.839916     -2852.8391
   1   1.0000     -68.835315     -1873.1042
   2   1.0000     -20.609702      -560.8185
   3   1.0000     -20.557390      -559.3950
   4   1.0000     -11.375223      -309.5356
   5   1.0000     -11.294506      -307.3391
   6   1.0000     -11.228041      -305.5305
   7   1.0000     -10.566979      -287.5421
   8   1.0000      -8.033892      -218.6133
   9   1.0000      -8.032831      -218.5845
  10   1.0000      -8.031293      -218.5426
  11   1.0000      -6.178112      -168.1150
  12   1.0000      -4.286741      -116.6482
  13   1.0000      -4.285711      -116.6201
  14   1.0000      -4.277181      -116.3880
  15   1.0000      -1.470929       -40.0260
  16   1.0000      -1.370463       -37.2922
  17   1.0000      -1.104878       -30.0653
  18   1.0000      -1.051766       -28.6200
  19   1.0000      -0.894093       -24.3295
  20   1.0000      -0.802615       -21.8403
  21   1.0000      -0.739868       -20.1328
  22   1.0000      -0.691384       -18.8135
  23   1.0000      -0.685725       -18.6595
  24   1.0000      -0.630843       -17.1661
  25   1.0000      -0.592755       -16.1297
  26   1.0000      -0.563531       -15.3345
  27   1.0000      -0.556701       -15.1486
  28   1.0000      -0.530933       -14.4474
  29   1.0000      -0.518303       -14.1037
  30   1.0000      -0.515088       -14.0163
  31   1.0000      -0.484855       -13.1936
  32   1.0000      -0.478945       -13.0327
  33   1.0000      -0.464769       -12.6470
  34   1.0000      -0.428262       -11.6536
  35   0.0000       0.013970         0.3802
  36   0.0000       0.025615         0.6970
  37   0.0000       0.035385         0.9629
  38   0.0000       0.036404         0.9906
  39   0.0000       0.037801         1.0286

MULLIKEN ATOMIC CHARGES AND SPIN POPULATIONS
--------------------------------------------
   0 C :    0.594602   -0.015679
   1 O :   -0.760106    0.062932
   2 Si:    1.098350    0.872491
   3 O :   -0.647038    0.003712
   4 Cl:   -0.556667    0.035798
   5 C :   -0.056916    0.003150
   6 C :   -0.828134   -0.000041
   7 H :    0.282125    0.000126
   8 H :    0.284297   -0.000180
   9 H :    0.254654   -0.000009
  10 H :    0.274580    0.000096
  11 H :    0.251469    0.000049
  12 H :   -0.191215    0.037555
Sum of atomic charges         :   -0.0000000

LOEWDIN ATOMIC CHARGES AND SPIN POPULATIONS
-------------------------------------------
   0 C :   -1.246455    0.137438
   1 O :    0.599135    0.050869
   2 Si:   -0.062257    0.544240
   3 O :    0.741465    0.004356
   4 Cl:    0.783937    0.136188
   5 C :    0.133889    0.000755
   6 C :    0.909267    0.000300
   7 H :   -0.306411   -0.000082
   8 H :   -0.307671    0.000249
   9 H :   -0.289992    0.000026
  10 H :   -0.288813    0.000069
  11 H :   -0.290115    0.000125
  12 H :   -0.375981    0.125468

  Mayer bond orders larger than 0.100000
B(  0-C ,  1-O ) :   1.4760 B(  0-C ,  2-Si) :   0.8123 B(  0-C ,  3-O ) :   1.0534
B(  1-O ,  5-C ) :   0.1226 B(  2-Si,  4-Cl) :   0.6720 B(  2-Si, 12-H ) :   0.9656
B(  3-O ,  5-C ) :   0.7339 B(  5-C ,  6-C ) :   0.9674 B(  5-C ,  7-H ) :   0.8630
B(  5-C ,  8-H ) :   0.8559 B(  6-C ,  9-H ) :   0.9239 B(  6-C , 10-H ) :   0.9813
B(  6-C , 11-H ) :   0.9254

MP2 TOTAL ENERGY:    -1016.793134967 Eh
FINAL SINGLE POINT ENERGY     -1016.793134966618

DIPOLE MOMENT
-------------
                                X             Y             Z
Electronic contribution:     15.09174       0.12305       0.48460
Nuclear contribution   :    -15.48602      -0.50891      -0.28281
                        -----------------------------------------
Total Dipole Moment    :     -0.39428      -0.38586       0.20179
                        -----------------------------------------
Magnitude (a.u.)       :      0.58743
Magnitude (Debye)      :      1.49312

Rotational constants in cm-1:     0.091786     0.032637     0.024701
Rotational constants in MHz :  2751.673893   978.432772   740.509206

                             ****ORCA TERMINATED NORMALLY****
TOTAL RUN TIME: 0 days 2 hours 12 minutes 46 seconds 576 msec
