                         Program Version 5.0.4 -  RELEASE  -
|  1> ! ri-mp2 aug-cc-pvdz aug-cc-pvdz/c tightscf
|  2> %pal nprocs 16 end
|  3> %maxcore 3800
|  4> %base "DZ_B-F_1_A"
|  5> %scf
|  6> STABPerform true
|  7> STABRestartUHFifUnstable true
|  8> end
|  9>
| 10> *xyz 0 2
| 11> F        -1.670522    0.182854    0.000000
| 12> S         1.078537   -0.004596    0.000000
| 13> B        -0.607280   -0.578005   -0.000001
| 14> H         0.814505    1.317871   -0.000002
| 15> *
| 16>
| 17> $new_job
| 18> ! ri-mp2 aug-cc-pvtz aug-cc-pvtz/c tightscf
| 19> %pal nprocs 16 end
| 20> %maxcore 3800
| 21> %base "TZ_B-F_1_A"
| 22>
| 23> *xyz 0 2
| 24> F        -1.670522    0.182854    0.000000
| 25> S         1.078537   -0.004596    0.000000
| 26> B        -0.607280   -0.578005   -0.000001
| 27> H         0.814505    1.317871   -0.000002
| 28> *
| 29>
| 30> $new_job
| 31> ! ri-mp2 aug-cc-pvqz aug-cc-pvqz/c tightscf
| 32> %pal nprocs 16 end
| 33> %maxcore 3800
| 34> %base "QZ_B-F_1_A"
| 35>
| 36> *xyz 0 2
| 37> F        -1.670522    0.182854    0.000000
| 38> S         1.078537   -0.004596    0.000000
| 39> B        -0.607280   -0.578005   -0.000001
| 40> H         0.814505    1.317871   -0.000002
| 41> *
| 42>
| 43>
| 44>
| 45>
| 46>                          ****END OF INPUT****
 Total Charge           Charge          ....    0
 Multiplicity           Mult            ....    2
 Number of Electrons    NEL             ....   31
MP2 TOTAL ENERGY:     -522.678374036 Eh
FINAL SINGLE POINT ENERGY      -522.678374036473
MP2 TOTAL ENERGY:     -522.835871874 Eh
FINAL SINGLE POINT ENERGY      -522.835871874067

CARTESIAN COORDINATES (ANGSTROEM)
---------------------------------
  F     -1.670522    0.182854    0.000000
  S      1.078537   -0.004596    0.000000
  B     -0.607280   -0.578005   -0.000001
  H      0.814505    1.317871   -0.000002

 Multiplicity           Mult            ....    2
 Number of Electrons    NEL             ....   31
 Basis Dimension        Dim             ....  290

ORBITAL ENERGIES
----------------
                 SPIN UP ORBITALS
  NO   OCC          E(Eh)            E(eV)
   0   1.0000     -91.976075     -2502.7962
   1   1.0000     -26.328918      -716.4463
   2   1.0000      -8.981285      -244.3932
   3   1.0000      -7.714385      -209.9191
   4   1.0000      -6.662913      -181.3071
   5   1.0000      -6.661651      -181.2727
   6   1.0000      -6.660498      -181.2414
   7   1.0000      -1.647332       -44.8262
   8   1.0000      -1.012487       -27.5512
   9   1.0000      -0.805265       -21.9124
  10   1.0000      -0.724165       -19.7055
  11   1.0000      -0.701806       -19.0971
  12   1.0000      -0.633959       -17.2509
  13   1.0000      -0.503279       -13.6949
  14   1.0000      -0.415391       -11.3034
  15   1.0000      -0.369299       -10.0491
  16   0.0000       0.028950         0.7878
  17   0.0000       0.039054         1.0627
  18   0.0000       0.041480         1.1287
  19   0.0000       0.042140         1.1467
  20   0.0000       0.071744         1.9523

                 SPIN DOWN ORBITALS
  NO   OCC          E(Eh)            E(eV)
   0   1.0000     -91.975392     -2502.7776
   1   1.0000     -26.325730      -716.3595
   2   1.0000      -8.980095      -244.3608
   3   1.0000      -7.693389      -209.3477
   4   1.0000      -6.661907      -181.2797
   5   1.0000      -6.660805      -181.2497
   6   1.0000      -6.659995      -181.2277
   7   1.0000      -1.638418       -44.5836
   8   1.0000      -0.999356       -27.1939
   9   1.0000      -0.792752       -21.5719
  10   1.0000      -0.700508       -19.0618
  11   1.0000      -0.696241       -18.9457
  12   1.0000      -0.602296       -16.3893
  13   1.0000      -0.494339       -13.4516
  14   1.0000      -0.414789       -11.2870
  15   0.0000       0.021494         0.5849
  16   0.0000       0.038675         1.0524
  17   0.0000       0.039691         1.0801
  18   0.0000       0.042766         1.1637
  19   0.0000       0.068224         1.8565

MULLIKEN ATOMIC CHARGES AND SPIN POPULATIONS
--------------------------------------------
   0 F :   -0.656405   -0.010966
   1 S :   -0.136859   -0.027744
   2 B :    0.681463    0.996913
   3 H :    0.111801    0.041797
Sum of atomic charges         :    0.0000000

LOEWDIN ATOMIC CHARGES AND SPIN POPULATIONS
-------------------------------------------
   0 F :    0.640017    0.157125
   1 S :    1.515794    0.172384
   2 B :   -1.323716    0.634391
   3 H :   -0.832096    0.036099

  Mayer bond orders larger than 0.100000
B(  0-F ,  2-B ) :   0.4851 B(  1-S ,  2-B ) :   1.2632 B(  1-S ,  3-H ) :   0.9764

MP2 TOTAL ENERGY:     -522.886795475 Eh
FINAL SINGLE POINT ENERGY      -522.886795474777

DIPOLE MOMENT
-------------
                                X             Y             Z
Electronic contribution:     -2.52304      -1.19084       0.00000
Nuclear contribution   :      2.70412       1.48448      -0.00000
                        -----------------------------------------
Total Dipole Moment    :      0.18108       0.29364      -0.00000
                        -----------------------------------------
Magnitude (a.u.)       :      0.34499
Magnitude (Debye)      :      0.87689

Rotational constants in cm-1:     2.836754     0.177736     0.167256
Rotational constants in MHz : 85043.740009  5328.384031  5014.219938

                             ****ORCA TERMINATED NORMALLY****
TOTAL RUN TIME: 0 days 0 hours 5 minutes 9 seconds 394 msec
