                         Program Version 5.0.4 -  RELEASE  -
|  1> ! ri-mp2 aug-cc-pvdz aug-cc-pvdz/c tightscf
|  2> %pal nprocs 16 end
|  3> %maxcore 3800
|  4> %base "DZ_Si-S_36_AB"
|  5> %scf
|  6> STABPerform true
|  7> STABRestartUHFifUnstable true
|  8> end
|  9>
| 10> *xyz 0 1
| 11> S         0.630339   -0.663082    0.007490
| 12> Si        -1.336595    0.181310    0.001357
| 13> O         1.522955    0.754058   -0.116292
| 14> H         1.786647    1.012584    0.774018
| 15> H        -2.235605   -0.987655    0.099349
| 16> H        -1.586640    0.934248   -1.242579
| 17> H        -1.521142    1.079325    1.160709
| 18> *
| 19>
| 20> $new_job
| 21> ! ri-mp2 aug-cc-pvtz aug-cc-pvtz/c tightscf
| 22> %pal nprocs 16 end
| 23> %maxcore 3800
| 24> %base "TZ_Si-S_36_AB"
| 25>
| 26> *xyz 0 1
| 27> S         0.630339   -0.663082    0.007490
| 28> Si        -1.336595    0.181310    0.001357
| 29> O         1.522955    0.754058   -0.116292
| 30> H         1.786647    1.012584    0.774018
| 31> H        -2.235605   -0.987655    0.099349
| 32> H        -1.586640    0.934248   -1.242579
| 33> H        -1.521142    1.079325    1.160709
| 34> *
| 35>
| 36> $new_job
| 37> ! ri-mp2 aug-cc-pvqz aug-cc-pvqz/c tightscf
| 38> %pal nprocs 16 end
| 39> %maxcore 3800
| 40> %base "QZ_Si-S_36_AB"
| 41>
| 42> *xyz 0 1
| 43> S         0.630339   -0.663082    0.007490
| 44> Si        -1.336595    0.181310    0.001357
| 45> O         1.522955    0.754058   -0.116292
| 46> H         1.786647    1.012584    0.774018
| 47> H        -2.235605   -0.987655    0.099349
| 48> H        -1.586640    0.934248   -1.242579
| 49> H        -1.521142    1.079325    1.160709
| 50> *
| 51>
| 52>
| 53>
| 54>
| 55>                          ****END OF INPUT****
 Total Charge           Charge          ....    0
 Multiplicity           Mult            ....    1
 Number of Electrons    NEL             ....   42
MP2 TOTAL ENERGY:     -764.103704516 Eh
FINAL SINGLE POINT ENERGY      -764.103704516340
MP2 TOTAL ENERGY:     -764.262241810 Eh
FINAL SINGLE POINT ENERGY      -764.262241810213

CARTESIAN COORDINATES (ANGSTROEM)
---------------------------------
  S      0.630339   -0.663082    0.007490
  Si    -1.336595    0.181310    0.001357
  O      1.522955    0.754058   -0.116292
  H      1.786647    1.012584    0.774018
  H     -2.235605   -0.987655    0.099349
  H     -1.586640    0.934248   -1.242579
  H     -1.521142    1.079325    1.160709

 Multiplicity           Mult            ....    1
 Number of Electrons    NEL             ....   42
 Basis Dimension        Dim             ....  432

ORBITAL ENERGIES
----------------

  NO   OCC          E(Eh)            E(eV)
   0   2.0000     -91.992063     -2503.2313
   1   2.0000     -68.798879     -1872.1127
   2   2.0000     -20.599848      -560.5504
   3   2.0000      -8.990359      -244.6401
   4   2.0000      -6.671970      -181.5535
   5   2.0000      -6.670328      -181.5088
   6   2.0000      -6.669655      -181.4905
   7   2.0000      -6.146819      -167.2634
   8   2.0000      -4.253483      -115.7432
   9   2.0000      -4.252879      -115.7267
  10   2.0000      -4.252548      -115.7177
  11   2.0000      -1.380344       -37.5611
  12   2.0000      -0.941279       -25.6135
  13   2.0000      -0.732240       -19.9253
  14   2.0000      -0.680650       -18.5214
  15   2.0000      -0.583233       -15.8706
  16   2.0000      -0.572325       -15.5738
  17   2.0000      -0.505371       -13.7518
  18   2.0000      -0.498750       -13.5717
  19   2.0000      -0.419780       -11.4228
  20   2.0000      -0.372036       -10.1236
  21   0.0000       0.024878         0.6770
  22   0.0000       0.032996         0.8979
  23   0.0000       0.038797         1.0557
  24   0.0000       0.042345         1.1523
  25   0.0000       0.055142         1.5005

MULLIKEN ATOMIC CHARGES
-----------------------
   0 S :    0.031054
   1 Si:    0.897544
   2 O :   -0.761527
   3 H :    0.344326
   4 H :   -0.184468
   5 H :   -0.158284
   6 H :   -0.168647
Sum of atomic charges:    0.0000000

LOEWDIN ATOMIC CHARGES
----------------------
   0 S :    0.705691
   1 Si:    0.596325
   2 O :    0.672560
   3 H :   -1.002486
   4 H :   -0.334153
   5 H :   -0.318511
   6 H :   -0.319425

  Mayer bond orders larger than 0.100000
B(  0-S ,  1-Si) :   0.7353 B(  0-S ,  2-O ) :   0.8267 B(  1-Si,  4-H ) :   0.8734
B(  1-Si,  5-H ) :   0.8500 B(  1-Si,  6-H ) :   0.8461 B(  2-O ,  3-H ) :   0.9070

MP2 TOTAL ENERGY:     -764.314853101 Eh
FINAL SINGLE POINT ENERGY      -764.314853100536

DIPOLE MOMENT
-------------
                                X             Y             Z
Electronic contribution:      3.08095      -1.80519      -0.22724
Nuclear contribution   :     -3.41485       2.02650       0.77657
                        -----------------------------------------
Total Dipole Moment    :     -0.33390       0.22131       0.54933
                        -----------------------------------------
Magnitude (a.u.)       :      0.67987
Magnitude (Debye)      :      1.72810

Rotational constants in cm-1:     0.529289     0.144429     0.119409
Rotational constants in MHz : 15867.694326  4329.871490  3579.785288

                             ****ORCA TERMINATED NORMALLY****
TOTAL RUN TIME: 0 days 0 hours 7 minutes 54 seconds 958 msec
