                         Program Version 5.0.4 -  RELEASE  -
|  1> ! ri-mp2 aug-cc-pvdz aug-cc-pvdz/c tightscf
|  2> %pal nprocs 16 end
|  3> %maxcore 3800
|  4> %base "DZ_S-Cl_84_AB"
|  5>
|  6> *xyz 0 1
|  7> C        -1.482570    1.197318    0.256728
|  8> C        -2.811011    1.198356   -0.129407
|  9> C        -3.477834    0.000000   -0.322549
| 10> C        -2.811011   -1.198356   -0.129407
| 11> C        -1.482570   -1.197317    0.256728
| 12> C         0.637944    0.000000    0.857656
| 13> C        -0.808461    0.000000    0.461021
| 14> S         1.588269    0.000000   -0.684764
| 15> Cl         3.488204    0.000000    0.056691
| 16> H         0.896452   -0.887782    1.430844
| 17> H         0.896452    0.887782    1.430844
| 18> H        -0.960148    2.134202    0.404311
| 19> H        -3.327163    2.137089   -0.279627
| 20> H        -4.516987    0.000000   -0.623215
| 21> H        -3.327163   -2.137089   -0.279627
| 22> H        -0.960148   -2.134202    0.404312
| 23> *
| 24>
| 25> $new_job
| 26> ! ri-mp2 aug-cc-pvtz aug-cc-pvtz/c tightscf
| 27> %pal nprocs 16 end
| 28> %maxcore 3800
| 29> %base "TZ_S-Cl_84_AB"
| 30>
| 31> *xyz 0 1
| 32> C        -1.482570    1.197318    0.256728
| 33> C        -2.811011    1.198356   -0.129407
| 34> C        -3.477834    0.000000   -0.322549
| 35> C        -2.811011   -1.198356   -0.129407
| 36> C        -1.482570   -1.197317    0.256728
| 37> C         0.637944    0.000000    0.857656
| 38> C        -0.808461    0.000000    0.461021
| 39> S         1.588269    0.000000   -0.684764
| 40> Cl         3.488204    0.000000    0.056691
| 41> H         0.896452   -0.887782    1.430844
| 42> H         0.896452    0.887782    1.430844
| 43> H        -0.960148    2.134202    0.404311
| 44> H        -3.327163    2.137089   -0.279627
| 45> H        -4.516987    0.000000   -0.623215
| 46> H        -3.327163   -2.137089   -0.279627
| 47> H        -0.960148   -2.134202    0.404312
| 48> *
| 49>
| 50> $new_job
| 51> ! ri-mp2 aug-cc-pvqz aug-cc-pvqz/c tightscf
| 52> %pal nprocs 16 end
| 53> %maxcore 3800
| 54> %base "QZ_S-Cl_84_AB"
| 55>
| 56> *xyz 0 1
| 57> C        -1.482570    1.197318    0.256728
| 58> C        -2.811011    1.198356   -0.129407
| 59> C        -3.477834    0.000000   -0.322549
| 60> C        -2.811011   -1.198356   -0.129407
| 61> C        -1.482570   -1.197317    0.256728
| 62> C         0.637944    0.000000    0.857656
| 63> C        -0.808461    0.000000    0.461021
| 64> S         1.588269    0.000000   -0.684764
| 65> Cl         3.488204    0.000000    0.056691
| 66> H         0.896452   -0.887782    1.430844
| 67> H         0.896452    0.887782    1.430844
| 68> H        -0.960148    2.134202    0.404311
| 69> H        -3.327163    2.137089   -0.279627
| 70> H        -4.516987    0.000000   -0.623215
| 71> H        -3.327163   -2.137089   -0.279627
| 72> H        -0.960148   -2.134202    0.404312
| 73> *
| 74>
| 75>
| 76>
| 77>
| 78>                          ****END OF INPUT****
 Total Charge           Charge          ....    0
 Multiplicity           Mult            ....    1
 Number of Electrons    NEL             ....   82
MP2 TOTAL ENERGY:    -1127.455569850 Eh
FINAL SINGLE POINT ENERGY     -1127.455569849733
MP2 TOTAL ENERGY:    -1127.810308360 Eh
FINAL SINGLE POINT ENERGY     -1127.810308359698

CARTESIAN COORDINATES (ANGSTROEM)
---------------------------------
  C     -1.482570    1.197318    0.256728
  C     -2.811011    1.198356   -0.129407
  C     -3.477834    0.000000   -0.322549
  C     -2.811011   -1.198356   -0.129407
  C     -1.482570   -1.197317    0.256728
  C      0.637944    0.000000    0.857656
  C     -0.808461    0.000000    0.461021
  S      1.588269    0.000000   -0.684764
  Cl     3.488204    0.000000    0.056691
  H      0.896452   -0.887782    1.430844
  H      0.896452    0.887782    1.430844
  H     -0.960148    2.134202    0.404311
  H     -3.327163    2.137089   -0.279627
  H     -4.516987    0.000000   -0.623215
  H     -3.327163   -2.137089   -0.279627
  H     -0.960148   -2.134202    0.404312

 Multiplicity           Mult            ....    1
 Number of Electrons    NEL             ....   82
 Basis Dimension        Dim             .... 1050

ORBITAL ENERGIES
----------------

  NO   OCC          E(Eh)            E(eV)
   0   2.0000    -104.845812     -2852.9996
   1   2.0000     -92.003787     -2503.5503
   2   2.0000     -11.277584      -306.8787
   3   2.0000     -11.256344      -306.3007
   4   2.0000     -11.244660      -305.9828
   5   2.0000     -11.244629      -305.9819
   6   2.0000     -11.243444      -305.9497
   7   2.0000     -11.242478      -305.9234
   8   2.0000     -11.241728      -305.9030
   9   2.0000     -10.570211      -287.6301
  10   2.0000      -9.001963      -244.9559
  11   2.0000      -8.037223      -218.7040
  12   2.0000      -8.035370      -218.6535
  13   2.0000      -8.035191      -218.6487
  14   2.0000      -6.683175      -181.8584
  15   2.0000      -6.681424      -181.8108
  16   2.0000      -6.680239      -181.7785
  17   2.0000      -1.179505       -32.0960
  18   2.0000      -1.141330       -31.0572
  19   2.0000      -1.073103       -29.2006
  20   2.0000      -1.030798       -28.0494
  21   2.0000      -0.980861       -26.6906
  22   2.0000      -0.861431       -23.4407
  23   2.0000      -0.844069       -22.9683
  24   2.0000      -0.805834       -21.9279
  25   2.0000      -0.711777       -19.3684
  26   2.0000      -0.662335       -18.0230
  27   2.0000      -0.650870       -17.7111
  28   2.0000      -0.603836       -16.4312
  29   2.0000      -0.602385       -16.3917
  30   2.0000      -0.585773       -15.9397
  31   2.0000      -0.574419       -15.6307
  32   2.0000      -0.520611       -14.1666
  33   2.0000      -0.510643       -13.8953
  34   2.0000      -0.507264       -13.8034
  35   2.0000      -0.495330       -13.4786
  36   2.0000      -0.494298       -13.4505
  37   2.0000      -0.439120       -11.9491
  38   2.0000      -0.361081        -9.8255
  39   2.0000      -0.345529        -9.4023
  40   2.0000      -0.344440        -9.3727
  41   0.0000       0.023203         0.6314
  42   0.0000       0.027718         0.7542
  43   0.0000       0.029631         0.8063
  44   0.0000       0.040251         1.0953
  45   0.0000       0.042078         1.1450

MULLIKEN ATOMIC CHARGES
-----------------------
   0 C :   -0.439361
   1 C :   -0.295917
   2 C :   -0.311420
   3 C :   -0.295916
   4 C :   -0.439358
   5 C :   -0.068846
   6 C :    0.269822
   7 S :    0.142495
   8 Cl:   -0.363336
   9 H :    0.193739
  10 H :    0.193739
  11 H :    0.302730
  12 H :    0.244290
  13 H :    0.320318
  14 H :    0.244292
  15 H :    0.302729
Sum of atomic charges:   -0.0000000

LOEWDIN ATOMIC CHARGES
----------------------
   0 C :    0.319788
   1 C :    0.347152
   2 C :    0.339405
   3 C :    0.347152
   4 C :    0.319787
   5 C :   -0.013910
   6 C :   -0.237659
   7 S :    0.479777
   8 Cl:    0.465980
   9 H :   -0.390350
  10 H :   -0.390350
  11 H :   -0.314807
  12 H :   -0.318658
  13 H :   -0.319844
  14 H :   -0.318658
  15 H :   -0.314806

  Mayer bond orders larger than 0.100000
B(  0-C ,  1-C ) :   1.3863 B(  0-C ,  3-C ) :   0.1593 B(  0-C ,  5-C ) :  -0.1633
B(  0-C ,  6-C ) :   1.0227 B(  0-C , 11-H ) :   0.9496 B(  0-C , 12-H ) :  -0.1206
B(  1-C ,  2-C ) :   1.1303 B(  1-C ,  3-C ) :  -0.1016 B(  1-C ,  4-C ) :   0.1593
B(  1-C ,  6-C ) :  -0.3367 B(  1-C , 12-H ) :   1.1179 B(  2-C ,  3-C ) :   1.1303
B(  2-C , 13-H ) :   1.0089 B(  3-C ,  4-C ) :   1.3863 B(  3-C ,  6-C ) :  -0.3367
B(  3-C , 14-H ) :   1.1179 B(  4-C ,  5-C ) :  -0.1633 B(  4-C ,  6-C ) :   1.0227
B(  4-C , 14-H ) :  -0.1206 B(  4-C , 15-H ) :   0.9496 B(  5-C ,  6-C ) :   0.8949
B(  5-C ,  7-S ) :   0.8033 B(  5-C ,  8-Cl) :  -0.2407 B(  5-C ,  9-H ) :   0.9855
B(  5-C , 10-H ) :   0.9855 B(  7-S ,  8-Cl) :   0.9365

MP2 TOTAL ENERGY:    -1127.923600519 Eh
FINAL SINGLE POINT ENERGY     -1127.923600519174

DIPOLE MOMENT
-------------
                                X             Y             Z
Electronic contribution:     14.87399       0.00000      -1.96917
Nuclear contribution   :    -15.85987      -0.00000       2.35680
                        -----------------------------------------
Total Dipole Moment    :     -0.98587       0.00000       0.38762
                        -----------------------------------------
Magnitude (a.u.)       :      1.05934
Magnitude (Debye)      :      2.69262

Rotational constants in cm-1:     0.136373     0.016988     0.016108
Rotational constants in MHz :  4088.363620   509.288901   482.907112

                             ****ORCA TERMINATED NORMALLY****
TOTAL RUN TIME: 0 days 0 hours 33 minutes 25 seconds 902 msec
