                         Program Version 5.0.4 -  RELEASE  -
|  1> ! ri-mp2 aug-cc-pvdz aug-cc-pvdz/c tightscf
|  2> %pal nprocs 16 end
|  3> %maxcore 3800
|  4> %base "DZ_P-N_27_AB"
|  5>
|  6> *xyz 0 1
|  7> P         0.060959    0.648541   -0.822153
|  8> N        -1.340182    0.234820    0.049532
|  9> N         1.189978   -0.608056   -0.009620
| 10> F         0.512264    1.873600    0.044081
| 11> O         0.758092   -1.737946   -0.203045
| 12> O         2.201418   -0.327114    0.565485
| 13> O        -1.989188   -0.859573   -0.500032
| 14> O        -1.128523    0.058529    1.414519
| 15> H        -1.831122    0.564310    1.842690
| 16> H        -1.376597   -1.613336   -0.401914
| 17> *
| 18>
| 19> $new_job
| 20> ! ri-mp2 aug-cc-pvtz aug-cc-pvtz/c tightscf
| 21> %pal nprocs 16 end
| 22> %maxcore 3800
| 23> %base "TZ_P-N_27_AB"
| 24>
| 25> *xyz 0 1
| 26> P         0.060959    0.648541   -0.822153
| 27> N        -1.340182    0.234820    0.049532
| 28> N         1.189978   -0.608056   -0.009620
| 29> F         0.512264    1.873600    0.044081
| 30> O         0.758092   -1.737946   -0.203045
| 31> O         2.201418   -0.327114    0.565485
| 32> O        -1.989188   -0.859573   -0.500032
| 33> O        -1.128523    0.058529    1.414519
| 34> H        -1.831122    0.564310    1.842690
| 35> H        -1.376597   -1.613336   -0.401914
| 36> *
| 37>
| 38> $new_job
| 39> ! ri-mp2 aug-cc-pvqz aug-cc-pvqz/c tightscf
| 40> %pal nprocs 16 end
| 41> %maxcore 3800
| 42> %base "QZ_P-N_27_AB"
| 43>
| 44> *xyz 0 1
| 45> P         0.060959    0.648541   -0.822153
| 46> N        -1.340182    0.234820    0.049532
| 47> N         1.189978   -0.608056   -0.009620
| 48> F         0.512264    1.873600    0.044081
| 49> O         0.758092   -1.737946   -0.203045
| 50> O         2.201418   -0.327114    0.565485
| 51> O        -1.989188   -0.859573   -0.500032
| 52> O        -1.128523    0.058529    1.414519
| 53> H        -1.831122    0.564310    1.842690
| 54> H        -1.376597   -1.613336   -0.401914
| 55> *
| 56>
| 57>
| 58>
| 59>
| 60>                          ****END OF INPUT****
 Total Charge           Charge          ....    0
 Multiplicity           Mult            ....    1
 Number of Electrons    NEL             ....   72
MP2 TOTAL ENERGY:     -851.036620517 Eh
FINAL SINGLE POINT ENERGY      -851.036620517481
MP2 TOTAL ENERGY:     -851.507996544 Eh
FINAL SINGLE POINT ENERGY      -851.507996543521

CARTESIAN COORDINATES (ANGSTROEM)
---------------------------------
  P      0.060959    0.648541   -0.822153
  N     -1.340182    0.234820    0.049532
  N      1.189978   -0.608056   -0.009620
  F      0.512264    1.873600    0.044081
  O      0.758092   -1.737946   -0.203045
  O      2.201418   -0.327114    0.565485
  O     -1.989188   -0.859573   -0.500032
  O     -1.128523    0.058529    1.414519
  H     -1.831122    0.564310    1.842690
  H     -1.376597   -1.613336   -0.401914

 Multiplicity           Mult            ....    1
 Number of Electrons    NEL             ....   72
 Basis Dimension        Dim             ....  736

ORBITAL ENERGIES
----------------

  NO   OCC          E(Eh)            E(eV)
   0   2.0000     -80.110568     -2179.9194
   1   2.0000     -26.359823      -717.2873
   2   2.0000     -20.645346      -561.7884
   3   2.0000     -20.637964      -561.5876
   4   2.0000     -20.631916      -561.4230
   5   2.0000     -20.616936      -561.0153
   6   2.0000     -15.846296      -431.1996
   7   2.0000     -15.713886      -427.5966
   8   2.0000      -7.639302      -207.8760
   9   2.0000      -5.532327      -150.5423
  10   2.0000      -5.531809      -150.5282
  11   2.0000      -5.530094      -150.4815
  12   2.0000      -1.676540       -45.6210
  13   2.0000      -1.627051       -44.2743
  14   2.0000      -1.522701       -41.4348
  15   2.0000      -1.427310       -38.8391
  16   2.0000      -1.397429       -38.0260
  17   2.0000      -1.108794       -30.1718
  18   2.0000      -0.987711       -26.8770
  19   2.0000      -0.870791       -23.6954
  20   2.0000      -0.816134       -22.2081
  21   2.0000      -0.794865       -21.6294
  22   2.0000      -0.776137       -21.1198
  23   2.0000      -0.750849       -20.4316
  24   2.0000      -0.739382       -20.1196
  25   2.0000      -0.730457       -19.8767
  26   2.0000      -0.713485       -19.4149
  27   2.0000      -0.690783       -18.7972
  28   2.0000      -0.662972       -18.0404
  29   2.0000      -0.573847       -15.6152
  30   2.0000      -0.539594       -14.6831
  31   2.0000      -0.529242       -14.4014
  32   2.0000      -0.517919       -14.0933
  33   2.0000      -0.478375       -13.0173
  34   2.0000      -0.464489       -12.6394
  35   2.0000      -0.441012       -12.0006
  36   0.0000       0.023286         0.6336
  37   0.0000       0.037410         1.0180
  38   0.0000       0.039218         1.0672
  39   0.0000       0.047477         1.2919
  40   0.0000       0.060748         1.6530

MULLIKEN ATOMIC CHARGES
-----------------------
   0 P :    1.525790
   1 N :   -0.018132
   2 N :    0.651530
   3 F :   -0.657890
   4 O :   -0.601226
   5 O :   -0.530670
   6 O :   -0.553307
   7 O :   -0.550969
   8 H :    0.365352
   9 H :    0.369522
Sum of atomic charges:   -0.0000000

LOEWDIN ATOMIC CHARGES
----------------------
   0 P :    0.082855
   1 N :   -0.487969
   2 N :   -1.040697
   3 F :    0.339245
   4 O :    0.448685
   5 O :    0.443501
   6 O :    0.995908
   7 O :    1.017431
   8 H :   -0.820522
   9 H :   -0.978438

  Mayer bond orders larger than 0.100000
B(  0-P ,  1-N ) :   0.8323 B(  0-P ,  2-N ) :   0.5549 B(  0-P ,  3-F ) :   0.6000
B(  1-N ,  6-O ) :   0.7113 B(  1-N ,  7-O ) :   0.7595 B(  2-N ,  4-O ) :   1.2901
B(  2-N ,  5-O ) :   1.4162 B(  4-O ,  5-O ) :   0.1504 B(  6-O ,  9-H ) :   0.8299
B(  7-O ,  8-H ) :   0.8999

MP2 TOTAL ENERGY:     -851.666105231 Eh
FINAL SINGLE POINT ENERGY      -851.666105231233

DIPOLE MOMENT
-------------
                                X             Y             Z
Electronic contribution:      2.71258       4.04798      -2.27944
Nuclear contribution   :     -3.54497      -3.34715       2.06647
                        -----------------------------------------
Total Dipole Moment    :     -0.83238       0.70083      -0.21297
                        -----------------------------------------
Magnitude (a.u.)       :      1.10877
Magnitude (Debye)      :      2.81828

Rotational constants in cm-1:     0.077780     0.057732     0.044806
Rotational constants in MHz :  2331.770802  1730.770780  1343.252816

                             ****ORCA TERMINATED NORMALLY****
TOTAL RUN TIME: 0 days 0 hours 10 minutes 8 seconds 828 msec
