                         Program Version 5.0.4 -  RELEASE  -
|  1> ! ri-mp2 aug-cc-pvdz aug-cc-pvdz/c tightscf
|  2> %pal nprocs 16 end
|  3> %maxcore 3800
|  4> %base "DZ_B-P_12_A"
|  5> %scf
|  6> STABPerform true
|  7> STABRestartUHFifUnstable true
|  8> end
|  9>
| 10> *xyz 0 2
| 11> P        -0.535626   -0.680192   -0.000023
| 12> C         0.794676    0.598001    0.000021
| 13> C         2.192490   -0.006440    0.000008
| 14> H         0.656022    1.241159    0.874590
| 15> H         0.656029    1.241210   -0.874513
| 16> H         2.351504   -0.631641   -0.879452
| 17> H         2.351498   -0.631692    0.879434
| 18> C        -1.993583    0.440203    0.000007
| 19> H        -1.993902    1.083565   -0.882698
| 20> H        -1.993908    1.083509    0.882753
| 21> H        -2.912488   -0.143902   -0.000016
| 22> H         2.958141    0.770090    0.000033
| 23> *
| 24>
| 25> $new_job
| 26> ! ri-mp2 aug-cc-pvtz aug-cc-pvtz/c tightscf
| 27> %pal nprocs 16 end
| 28> %maxcore 3800
| 29> %base "TZ_B-P_12_A"
| 30>
| 31> *xyz 0 2
| 32> P        -0.535626   -0.680192   -0.000023
| 33> C         0.794676    0.598001    0.000021
| 34> C         2.192490   -0.006440    0.000008
| 35> H         0.656022    1.241159    0.874590
| 36> H         0.656029    1.241210   -0.874513
| 37> H         2.351504   -0.631641   -0.879452
| 38> H         2.351498   -0.631692    0.879434
| 39> C        -1.993583    0.440203    0.000007
| 40> H        -1.993902    1.083565   -0.882698
| 41> H        -1.993908    1.083509    0.882753
| 42> H        -2.912488   -0.143902   -0.000016
| 43> H         2.958141    0.770090    0.000033
| 44> *
| 45>
| 46> $new_job
| 47> ! ri-mp2 aug-cc-pvqz aug-cc-pvqz/c tightscf
| 48> %pal nprocs 16 end
| 49> %maxcore 3800
| 50> %base "QZ_B-P_12_A"
| 51>
| 52> *xyz 0 2
| 53> P        -0.535626   -0.680192   -0.000023
| 54> C         0.794676    0.598001    0.000021
| 55> C         2.192490   -0.006440    0.000008
| 56> H         0.656022    1.241159    0.874590
| 57> H         0.656029    1.241210   -0.874513
| 58> H         2.351504   -0.631641   -0.879452
| 59> H         2.351498   -0.631692    0.879434
| 60> C        -1.993583    0.440203    0.000007
| 61> H        -1.993902    1.083565   -0.882698
| 62> H        -1.993908    1.083509    0.882753
| 63> H        -2.912488   -0.143902   -0.000016
| 64> H         2.958141    0.770090    0.000033
| 65> *
| 66>
| 67>
| 68>
| 69>
| 70>                          ****END OF INPUT****
 Total Charge           Charge          ....    0
 Multiplicity           Mult            ....    2
 Number of Electrons    NEL             ....   41
MP2 TOTAL ENERGY:     -459.555099584 Eh
FINAL SINGLE POINT ENERGY      -459.555099583794
MP2 TOTAL ENERGY:     -459.714647207 Eh
FINAL SINGLE POINT ENERGY      -459.714647207092

CARTESIAN COORDINATES (ANGSTROEM)
---------------------------------
  P     -0.535626   -0.680192   -0.000023
  C      0.794676    0.598001    0.000021
  C      2.192490   -0.006440    0.000008
  H      0.656022    1.241159    0.874590
  H      0.656029    1.241210   -0.874513
  H      2.351504   -0.631641   -0.879452
  H      2.351498   -0.631692    0.879434
  C     -1.993583    0.440203    0.000007
  H     -1.993902    1.083565   -0.882698
  H     -1.993908    1.083509    0.882753
  H     -2.912488   -0.143902   -0.000016
  H      2.958141    0.770090    0.000033

 Multiplicity           Mult            ....    2
 Number of Electrons    NEL             ....   41
 Basis Dimension        Dim             ....  692

ORBITAL ENERGIES
----------------
                 SPIN UP ORBITALS
  NO   OCC          E(Eh)            E(eV)
   0   1.0000     -79.932507     -2175.0741
   1   1.0000     -11.226080      -305.4772
   2   1.0000     -11.221325      -305.3478
   3   1.0000     -11.217529      -305.2445
   4   1.0000      -7.475507      -203.4189
   5   1.0000      -5.380617      -146.4140
   6   1.0000      -5.366446      -146.0284
   7   1.0000      -5.364652      -145.9796
   8   1.0000      -1.044522       -28.4229
   9   1.0000      -0.973602       -26.4931
  10   1.0000      -0.858041       -23.3485
  11   1.0000      -0.732762       -19.9395
  12   1.0000      -0.621942       -16.9239
  13   1.0000      -0.581238       -15.8163
  14   1.0000      -0.573925       -15.6173
  15   1.0000      -0.572308       -15.5733
  16   1.0000      -0.517286       -14.0761
  17   1.0000      -0.500352       -13.6153
  18   1.0000      -0.448724       -12.2104
  19   1.0000      -0.377818       -10.2810
  20   1.0000      -0.328013        -8.9257
  21   0.0000       0.026708         0.7268
  22   0.0000       0.030518         0.8304
  23   0.0000       0.036975         1.0061
  24   0.0000       0.038675         1.0524
  25   0.0000       0.049723         1.3530

                 SPIN DOWN ORBITALS
  NO   OCC          E(Eh)            E(eV)
   0   1.0000     -79.925531     -2174.8843
   1   1.0000     -11.227191      -305.5074
   2   1.0000     -11.222446      -305.3783
   3   1.0000     -11.217476      -305.2430
   4   1.0000      -7.466910      -203.1850
   5   1.0000      -5.361749      -145.9006
   6   1.0000      -5.361595      -145.8964
   7   1.0000      -5.347492      -145.5127
   8   1.0000      -1.038313       -28.2539
   9   1.0000      -0.966070       -26.2881
  10   1.0000      -0.852672       -23.2024
  11   1.0000      -0.684155       -18.6168
  12   1.0000      -0.611450       -16.6384
  13   1.0000      -0.576398       -15.6846
  14   1.0000      -0.573134       -15.5958
  15   1.0000      -0.560056       -15.2399
  16   1.0000      -0.515444       -14.0260
  17   1.0000      -0.495053       -13.4711
  18   1.0000      -0.445099       -12.1118
  19   1.0000      -0.358938        -9.7672
  20   0.0000       0.026836         0.7303
  21   0.0000       0.030619         0.8332
  22   0.0000       0.036100         0.9823
  23   0.0000       0.038883         1.0580
  24   0.0000       0.049820         1.3557

MULLIKEN ATOMIC CHARGES AND SPIN POPULATIONS
--------------------------------------------
   0 P :    0.384959    1.120955
   1 C :   -0.557321   -0.113803
   2 C :   -0.820953    0.015180
   3 H :    0.237801    0.019893
   4 H :    0.237800    0.019893
   5 H :    0.241059   -0.000274
   6 H :    0.241058   -0.000274
   7 C :   -1.065367   -0.102980
   8 H :    0.246521    0.022252
   9 H :    0.246521    0.022252
  10 H :    0.355860   -0.001237
  11 H :    0.252062   -0.001857
Sum of atomic charges         :    0.0000000

LOEWDIN ATOMIC CHARGES AND SPIN POPULATIONS
-------------------------------------------
   0 P :    1.080446    0.576949
   1 C :    0.239494    0.155227
   2 C :    0.808447    0.015329
   3 H :   -0.362655    0.020330
   4 H :   -0.362654    0.020330
   5 H :   -0.309680    0.002659
   6 H :   -0.309678    0.002659
   7 C :    0.661148    0.157919
   8 H :   -0.376498    0.020257
   9 H :   -0.376498    0.020257
  10 H :   -0.399737    0.008228
  11 H :   -0.292134   -0.000143

  Mayer bond orders larger than 0.100000
B(  0-P ,  1-C ) :   0.8702 B(  0-P ,  7-C ) :   0.9261 B(  1-C ,  2-C ) :   0.9216
B(  1-C ,  3-H ) :   0.8879 B(  1-C ,  4-H ) :   0.8879 B(  2-C ,  5-H ) :   0.9392
B(  2-C ,  6-H ) :   0.9392 B(  2-C , 11-H ) :   0.9995 B(  7-C ,  8-H ) :   0.9278
B(  7-C ,  9-H ) :   0.9278 B(  7-C , 10-H ) :   0.8828

MP2 TOTAL ENERGY:     -459.762028523 Eh
FINAL SINGLE POINT ENERGY      -459.762028522678

DIPOLE MOMENT
-------------
                                X             Y             Z
Electronic contribution:     -2.65030      -4.15684      -0.00014
Nuclear contribution   :      2.64942       4.77990       0.00016
                        -----------------------------------------
Total Dipole Moment    :     -0.00089       0.62306       0.00002
                        -----------------------------------------
Magnitude (a.u.)       :      0.62306
Magnitude (Debye)      :      1.58370

Rotational constants in cm-1:     0.524164     0.102788     0.090234
Rotational constants in MHz : 15714.029722  3081.496841  2705.145358

                             ****ORCA TERMINATED NORMALLY****
TOTAL RUN TIME: 0 days 1 hours 4 minutes 3 seconds 176 msec
