                         Program Version 5.0.4 -  RELEASE  -
|  1> ! ri-mp2 aug-cc-pvdz aug-cc-pvdz/c tightscf
|  2> %pal nprocs 16 end
|  3> %maxcore 3800
|  4> %base "DZ_P-O_2_A"
|  5> %scf
|  6> STABPerform true
|  7> STABRestartUHFifUnstable true
|  8> end
|  9>
| 10> *xyz 0 2
| 11> O         2.106365   -0.529209   -0.000030
| 12> O         0.854459   -0.915501   -0.000041
| 13> C        -0.006100    0.219071    0.000008
| 14> Cl        -1.632571   -0.406218   -0.000005
| 15> F         0.227977    0.952760   -1.072876
| 16> F         0.227991    0.952680    1.072943
| 17> *
| 18>
| 19> $new_job
| 20> ! ri-mp2 aug-cc-pvtz aug-cc-pvtz/c tightscf
| 21> %pal nprocs 16 end
| 22> %maxcore 3800
| 23> %base "TZ_P-O_2_A"
| 24>
| 25> *xyz 0 2
| 26> O         2.106365   -0.529209   -0.000030
| 27> O         0.854459   -0.915501   -0.000041
| 28> C        -0.006100    0.219071    0.000008
| 29> Cl        -1.632571   -0.406218   -0.000005
| 30> F         0.227977    0.952760   -1.072876
| 31> F         0.227991    0.952680    1.072943
| 32> *
| 33>
| 34> $new_job
| 35> ! ri-mp2 aug-cc-pvqz aug-cc-pvqz/c tightscf
| 36> %pal nprocs 16 end
| 37> %maxcore 3800
| 38> %base "QZ_P-O_2_A"
| 39>
| 40> *xyz 0 2
| 41> O         2.106365   -0.529209   -0.000030
| 42> O         0.854459   -0.915501   -0.000041
| 43> C        -0.006100    0.219071    0.000008
| 44> Cl        -1.632571   -0.406218   -0.000005
| 45> F         0.227977    0.952760   -1.072876
| 46> F         0.227991    0.952680    1.072943
| 47> *
| 48>
| 49>
| 50>
| 51>
| 52>                          ****END OF INPUT****
 Total Charge           Charge          ....    0
 Multiplicity           Mult            ....    2
 Number of Electrons    NEL             ....   57
MP2 TOTAL ENERGY:     -846.929876807 Eh
FINAL SINGLE POINT ENERGY      -846.929876806732
MP2 TOTAL ENERGY:     -847.309572941 Eh
FINAL SINGLE POINT ENERGY      -847.309572940829

CARTESIAN COORDINATES (ANGSTROEM)
---------------------------------
  O      2.106365   -0.529209   -0.000030
  O      0.854459   -0.915501   -0.000041
  C     -0.006100    0.219071    0.000008
  Cl    -1.632571   -0.406218   -0.000005
  F      0.227977    0.952760   -1.072876
  F      0.227991    0.952680    1.072943

 Multiplicity           Mult            ....    2
 Number of Electrons    NEL             ....   57
 Basis Dimension        Dim             ....  484

ORBITAL ENERGIES
----------------
                 SPIN UP ORBITALS
  NO   OCC          E(Eh)            E(eV)
   0   1.0000    -104.887605     -2854.1368
   1   1.0000     -26.370630      -717.5813
   2   1.0000     -26.370607      -717.5807
   3   1.0000     -20.721460      -563.8596
   4   1.0000     -20.714170      -563.6612
   5   1.0000     -11.561586      -314.6067
   6   1.0000     -10.613805      -288.8163
   7   1.0000      -8.080846      -219.8910
   8   1.0000      -8.078855      -219.8368
   9   1.0000      -8.078795      -219.8352
  10   1.0000      -1.752629       -47.6915
  11   1.0000      -1.673213       -45.5304
  12   1.0000      -1.626012       -44.2460
  13   1.0000      -1.282663       -34.9030
  14   1.0000      -1.169917       -31.8351
  15   1.0000      -0.961693       -26.1690
  16   1.0000      -0.859906       -23.3992
  17   1.0000      -0.851264       -23.1641
  18   1.0000      -0.814205       -22.1556
  19   1.0000      -0.792001       -21.5514
  20   1.0000      -0.735176       -20.0052
  21   1.0000      -0.719875       -19.5888
  22   1.0000      -0.704542       -19.1716
  23   1.0000      -0.692101       -18.8330
  24   1.0000      -0.610538       -16.6136
  25   1.0000      -0.561944       -15.2913
  26   1.0000      -0.549249       -14.9458
  27   1.0000      -0.510774       -13.8989
  28   1.0000      -0.509965       -13.8769
  29   0.0000       0.046669         1.2699
  30   0.0000       0.063743         1.7345
  31   0.0000       0.066793         1.8175
  32   0.0000       0.068515         1.8644
  33   0.0000       0.090231         2.4553

                 SPIN DOWN ORBITALS
  NO   OCC          E(Eh)            E(eV)
   0   1.0000    -104.887663     -2854.1384
   1   1.0000     -26.370591      -717.5803
   2   1.0000     -26.370569      -717.5797
   3   1.0000     -20.707554      -563.4812
   4   1.0000     -20.680463      -562.7440
   5   1.0000     -11.562034      -314.6189
   6   1.0000     -10.613867      -288.8180
   7   1.0000      -8.081039      -219.8963
   8   1.0000      -8.078912      -219.8384
   9   1.0000      -8.078843      -219.8365
  10   1.0000      -1.750842       -47.6428
  11   1.0000      -1.673031       -45.5255
  12   1.0000      -1.569547       -42.7095
  13   1.0000      -1.222791       -33.2738
  14   1.0000      -1.133090       -30.8330
  15   1.0000      -0.954964       -25.9859
  16   1.0000      -0.847602       -23.0644
  17   1.0000      -0.840705       -22.8767
  18   1.0000      -0.810053       -22.0427
  19   1.0000      -0.732547       -19.9336
  20   1.0000      -0.721731       -19.6393
  21   1.0000      -0.693561       -18.8727
  22   1.0000      -0.689597       -18.7649
  23   1.0000      -0.610732       -16.6189
  24   1.0000      -0.605884       -16.4869
  25   1.0000      -0.520438       -14.1618
  26   1.0000      -0.510746       -13.8981
  27   1.0000      -0.506664       -13.7870
  28   0.0000       0.046738         1.2718
  29   0.0000       0.062901         1.7116
  30   0.0000       0.064309         1.7499
  31   0.0000       0.066990         1.8229
  32   0.0000       0.079035         2.1507

MULLIKEN ATOMIC CHARGES AND SPIN POPULATIONS
--------------------------------------------
   0 O :   -0.098804    0.961276
   1 O :   -0.261431    0.047957
   2 C :    1.427671   -0.012467
   3 Cl:   -0.036641   -0.002849
   4 F :   -0.515397    0.003042
   5 F :   -0.515397    0.003042
Sum of atomic charges         :    0.0000000

LOEWDIN ATOMIC CHARGES AND SPIN POPULATIONS
-------------------------------------------
   0 O :    0.285569    0.799998
   1 O :    0.079043    0.204585
   2 C :   -2.836702    0.000395
   3 Cl:    1.094003   -0.003655
   4 F :    0.689043   -0.000661
   5 F :    0.689044   -0.000661

  Mayer bond orders larger than 0.100000
B(  0-O ,  1-O ) :   0.9853 B(  1-O ,  2-C ) :   0.8145 B(  2-C ,  3-Cl) :   1.0210
B(  2-C ,  4-F ) :   0.6097 B(  2-C ,  5-F ) :   0.6097

MP2 TOTAL ENERGY:     -847.435591418 Eh
FINAL SINGLE POINT ENERGY      -847.435591417515

DIPOLE MOMENT
-------------
                                X             Y             Z
Electronic contribution:     -2.08090       1.17914       0.00006
Nuclear contribution   :      1.76082      -1.20614      -0.00005
                        -----------------------------------------
Total Dipole Moment    :     -0.32008      -0.02700       0.00000
                        -----------------------------------------
Magnitude (a.u.)       :      0.32122
Magnitude (Debye)      :      0.81648

Rotational constants in cm-1:     0.164446     0.075643     0.070863
Rotational constants in MHz :  4929.961769  2267.734736  2124.413159

                             ****ORCA TERMINATED NORMALLY****
TOTAL RUN TIME: 0 days 0 hours 15 minutes 5 seconds 145 msec
