                         Program Version 5.0.4 -  RELEASE  -
|  1> ! ri-mp2 aug-cc-pvdz aug-cc-pvdz/c tightscf
|  2> %pal nprocs 16 end
|  3> %maxcore 3800
|  4> %base "DZ_Si-Cl_12_AB"
|  5> %scf
|  6> STABPerform true
|  7> STABRestartUHFifUnstable true
|  8> end
|  9>
| 10> *xyz 0 1
| 11> Si        -0.033362    0.810203    0.000003
| 12> Cl        -1.565028   -0.530061   -0.000004
| 13> C         1.556361   -0.125594    0.000006
| 14> N         2.554649   -0.688448   -0.000002
| 15> H        -0.074092    1.620444    1.221842
| 16> H        -0.074072    1.620446   -1.221836
| 17> *
| 18>
| 19> $new_job
| 20> ! ri-mp2 aug-cc-pvtz aug-cc-pvtz/c tightscf
| 21> %pal nprocs 16 end
| 22> %maxcore 3800
| 23> %base "TZ_Si-Cl_12_AB"
| 24>
| 25> *xyz 0 1
| 26> Si        -0.033362    0.810203    0.000003
| 27> Cl        -1.565028   -0.530061   -0.000004
| 28> C         1.556361   -0.125594    0.000006
| 29> N         2.554649   -0.688448   -0.000002
| 30> H        -0.074092    1.620444    1.221842
| 31> H        -0.074072    1.620446   -1.221836
| 32> *
| 33>
| 34> $new_job
| 35> ! ri-mp2 aug-cc-pvqz aug-cc-pvqz/c tightscf
| 36> %pal nprocs 16 end
| 37> %maxcore 3800
| 38> %base "QZ_Si-Cl_12_AB"
| 39>
| 40> *xyz 0 1
| 41> Si        -0.033362    0.810203    0.000003
| 42> Cl        -1.565028   -0.530061   -0.000004
| 43> C         1.556361   -0.125594    0.000006
| 44> N         2.554649   -0.688448   -0.000002
| 45> H        -0.074092    1.620444    1.221842
| 46> H        -0.074072    1.620446   -1.221836
| 47> *
| 48>
| 49>
| 50>
| 51>
| 52>                          ****END OF INPUT****
 Total Charge           Charge          ....    0
 Multiplicity           Mult            ....    1
 Number of Electrons    NEL             ....   46
MP2 TOTAL ENERGY:     -842.509582681 Eh
FINAL SINGLE POINT ENERGY      -842.509582681231
MP2 TOTAL ENERGY:     -842.685255123 Eh
FINAL SINGLE POINT ENERGY      -842.685255122958

CARTESIAN COORDINATES (ANGSTROEM)
---------------------------------
  Si    -0.033362    0.810203    0.000003
  Cl    -1.565028   -0.530061   -0.000004
  C      1.556361   -0.125594    0.000006
  N      2.554649   -0.688448   -0.000002
  H     -0.074092    1.620444    1.221842
  H     -0.074072    1.620446   -1.221836

 Multiplicity           Mult            ....    1
 Number of Electrons    NEL             ....   46
 Basis Dimension        Dim             ....  420

ORBITAL ENERGIES
----------------

  NO   OCC          E(Eh)            E(eV)
   0   2.0000    -104.856783     -2853.2981
   1   2.0000     -68.866066     -1873.9409
   2   2.0000     -15.596514      -424.4027
   3   2.0000     -11.265430      -306.5479
   4   2.0000     -10.584201      -288.0108
   5   2.0000      -8.051012      -219.0792
   6   2.0000      -8.049802      -219.0462
   7   2.0000      -8.049777      -219.0456
   8   2.0000      -6.209982      -168.9822
   9   2.0000      -4.317220      -117.4775
  10   2.0000      -4.316624      -117.4613
  11   2.0000      -4.315879      -117.4410
  12   2.0000      -1.238115       -33.6908
  13   2.0000      -1.128890       -30.7187
  14   2.0000      -0.815871       -22.2010
  15   2.0000      -0.650250       -17.6942
  16   2.0000      -0.571482       -15.5508
  17   2.0000      -0.569425       -15.4948
  18   2.0000      -0.567412       -15.4401
  19   2.0000      -0.499399       -13.5893
  20   2.0000      -0.496795       -13.5185
  21   2.0000      -0.485878       -13.2214
  22   2.0000      -0.475947       -12.9512
  23   0.0000       0.023494         0.6393
  24   0.0000       0.031680         0.8621
  25   0.0000       0.035432         0.9642
  26   0.0000       0.038394         1.0447
  27   0.0000       0.060171         1.6373

MULLIKEN ATOMIC CHARGES
-----------------------
   0 Si:    1.431894
   1 Cl:   -0.522093
   2 C :   -0.104367
   3 N :   -0.476681
   4 H :   -0.164377
   5 H :   -0.164376
Sum of atomic charges:   -0.0000000

LOEWDIN ATOMIC CHARGES
----------------------
   0 Si:   -0.137719
   1 Cl:    0.902134
   2 C :   -0.438117
   3 N :    0.292067
   4 H :   -0.309183
   5 H :   -0.309182

  Mayer bond orders larger than 0.100000
B(  0-Si,  1-Cl) :   0.6164 B(  0-Si,  2-C ) :   0.7336 B(  0-Si,  4-H ) :   0.8810
B(  0-Si,  5-H ) :   0.8810 B(  2-C ,  3-N ) :   2.6916

MP2 TOTAL ENERGY:     -842.744174202 Eh
FINAL SINGLE POINT ENERGY      -842.744174201890

DIPOLE MOMENT
-------------
                                X             Y             Z
Electronic contribution:     -2.85653      -2.76128      -0.00000
Nuclear contribution   :      1.98860       3.72271       0.00001
                        -----------------------------------------
Total Dipole Moment    :     -0.86794       0.96144       0.00001
                        -----------------------------------------
Magnitude (a.u.)       :      1.29525
Magnitude (Debye)      :      3.29227

Rotational constants in cm-1:     0.388869     0.080138     0.068060
Rotational constants in MHz : 11658.000916  2402.485431  2040.387054

                             ****ORCA TERMINATED NORMALLY****
TOTAL RUN TIME: 0 days 0 hours 5 minutes 54 seconds 824 msec
