                         Program Version 5.0.4 -  RELEASE  -
|  1> ! ri-mp2 aug-cc-pvdz aug-cc-pvdz/c tightscf
|  2> %pal nprocs 16 end
|  3> %maxcore 3800
|  4> %base "DZ_B-Cl_43_AB"
|  5> %scf
|  6> STABPerform true
|  7> STABRestartUHFifUnstable true
|  8> end
|  9>
| 10> *xyz 0 1
| 11> Cl        -0.725703    1.665218   -0.000001
| 12> B        -0.419960   -0.058962   -0.000000
| 13> C         2.072876   -0.364866   -0.000001
| 14> O         3.223062   -0.257075   -0.000001
| 15> N         0.890271   -0.558362   -0.000002
| 16> Cl        -1.765700   -1.168210    0.000003
| 17> *
| 18>
| 19> $new_job
| 20> ! ri-mp2 aug-cc-pvtz aug-cc-pvtz/c tightscf
| 21> %pal nprocs 16 end
| 22> %maxcore 3800
| 23> %base "TZ_B-Cl_43_AB"
| 24>
| 25> *xyz 0 1
| 26> Cl        -0.725703    1.665218   -0.000001
| 27> B        -0.419960   -0.058962   -0.000000
| 28> C         2.072876   -0.364866   -0.000001
| 29> O         3.223062   -0.257075   -0.000001
| 30> N         0.890271   -0.558362   -0.000002
| 31> Cl        -1.765700   -1.168210    0.000003
| 32> *
| 33>
| 34> $new_job
| 35> ! ri-mp2 aug-cc-pvqz aug-cc-pvqz/c tightscf
| 36> %pal nprocs 16 end
| 37> %maxcore 3800
| 38> %base "QZ_B-Cl_43_AB"
| 39>
| 40> *xyz 0 1
| 41> Cl        -0.725703    1.665218   -0.000001
| 42> B        -0.419960   -0.058962   -0.000000
| 43> C         2.072876   -0.364866   -0.000001
| 44> O         3.223062   -0.257075   -0.000001
| 45> N         0.890271   -0.558362   -0.000002
| 46> Cl        -1.765700   -1.168210    0.000003
| 47> *
| 48>
| 49>
| 50>
| 51>
| 52>                          ****END OF INPUT****
 Total Charge           Charge          ....    0
 Multiplicity           Mult            ....    1
 Number of Electrons    NEL             ....   60
MP2 TOTAL ENERGY:    -1111.884687581 Eh
FINAL SINGLE POINT ENERGY     -1111.884687581176
MP2 TOTAL ENERGY:    -1112.162446124 Eh
FINAL SINGLE POINT ENERGY     -1112.162446124239

CARTESIAN COORDINATES (ANGSTROEM)
---------------------------------
  Cl    -0.725703    1.665218   -0.000001
  B     -0.419960   -0.058962   -0.000000
  C      2.072876   -0.364866   -0.000001
  O      3.223062   -0.257075   -0.000001
  N      0.890271   -0.558362   -0.000002
  Cl    -1.765700   -1.168210    0.000003

 Multiplicity           Mult            ....    1
 Number of Electrons    NEL             ....   60
 Basis Dimension        Dim             ....  488

ORBITAL ENERGIES
----------------

  NO   OCC          E(Eh)            E(eV)
   0   2.0000    -104.854967     -2853.2487
   1   2.0000    -104.852948     -2853.1938
   2   2.0000     -20.643119      -561.7278
   3   2.0000     -15.607684      -424.7067
   4   2.0000     -11.439592      -311.2871
   5   2.0000     -10.582740      -287.9710
   6   2.0000     -10.580759      -287.9171
   7   2.0000      -8.049588      -219.0404
   8   2.0000      -8.048429      -219.0089
   9   2.0000      -8.048221      -219.0032
  10   2.0000      -8.047621      -218.9869
  11   2.0000      -8.046468      -218.9555
  12   2.0000      -8.046234      -218.9492
  13   2.0000      -7.758767      -211.1268
  14   2.0000      -1.504255       -40.9328
  15   2.0000      -1.298615       -35.3371
  16   2.0000      -1.155100       -31.4319
  17   2.0000      -1.114713       -30.3329
  18   2.0000      -0.880105       -23.9489
  19   2.0000      -0.759287       -20.6612
  20   2.0000      -0.689906       -18.7733
  21   2.0000      -0.685069       -18.6417
  22   2.0000      -0.655047       -17.8247
  23   2.0000      -0.599268       -16.3069
  24   2.0000      -0.548928       -14.9371
  25   2.0000      -0.506167       -13.7735
  26   2.0000      -0.483985       -13.1699
  27   2.0000      -0.480771       -13.0825
  28   2.0000      -0.475388       -12.9360
  29   2.0000      -0.458494       -12.4763
  30   0.0000       0.028231         0.7682
  31   0.0000       0.037043         1.0080
  32   0.0000       0.038297         1.0421
  33   0.0000       0.038475         1.0470
  34   0.0000       0.069085         1.8799

MULLIKEN ATOMIC CHARGES
-----------------------
   0 Cl:   -0.158763
   1 B :    0.664329
   2 C :    1.142153
   3 O :   -0.549140
   4 N :   -0.891350
   5 Cl:   -0.207230
Sum of atomic charges:   -0.0000000

LOEWDIN ATOMIC CHARGES
----------------------
   0 Cl:    1.227761
   1 B :   -2.656752
   2 C :   -0.773985
   3 O :    0.634056
   4 N :    0.346556
   5 Cl:    1.222364

  Mayer bond orders larger than 0.100000
B(  0-Cl,  1-B ) :   1.1018 B(  1-B ,  4-N ) :   1.0584 B(  1-B ,  5-Cl) :   1.0723
B(  2-C ,  3-O ) :   1.7906 B(  2-C ,  4-N ) :   2.0591 B(  3-O ,  4-N ) :   0.2624

MP2 TOTAL ENERGY:    -1112.256378797 Eh
FINAL SINGLE POINT ENERGY     -1112.256378796515

DIPOLE MOMENT
-------------
                                X             Y             Z
Electronic contribution:     -3.69085       0.60692       0.00000
Nuclear contribution   :      3.60528      -0.61096      -0.00000
                        -----------------------------------------
Total Dipole Moment    :     -0.08556      -0.00404       0.00000
                        -----------------------------------------
Magnitude (a.u.)       :      0.08566
Magnitude (Debye)      :      0.21773

Rotational constants in cm-1:     0.109649     0.046839     0.032820
Rotational constants in MHz :  3287.190638  1404.212152   983.908917

                             ****ORCA TERMINATED NORMALLY****
TOTAL RUN TIME: 0 days 0 hours 11 minutes 50 seconds 947 msec
