                         Program Version 5.0.4 -  RELEASE  -
|  1> ! ri-mp2 aug-cc-pvdz aug-cc-pvdz/c tightscf
|  2> %pal nprocs 16 end
|  3> %maxcore 3800
|  4> %base "DZ_B-F_19_A"
|  5> %scf
|  6> STABPerform true
|  7> STABRestartUHFifUnstable true
|  8> end
|  9>
| 10> *xyz 0 2
| 11> F        -2.086473    1.157734    0.051681
| 12> B        -0.917472    0.792815   -0.416031
| 13> C        -0.072225   -0.349027    0.245447
| 14> C         1.376635   -0.421504   -0.228077
| 15> C        -0.815093   -1.676305    0.021392
| 16> H        -0.856557   -1.930359   -1.039293
| 17> H        -1.836763   -1.640861    0.399426
| 18> H        -0.294679   -2.487233    0.532728
| 19> H        -0.080999   -0.136342    1.324254
| 20> C         2.181742    0.822818    0.109738
| 21> H         1.390198   -0.586444   -1.308806
| 22> H         1.852053   -1.298178    0.221238
| 23> H         1.747326    1.709486   -0.356528
| 24> H         3.211682    0.737195   -0.237011
| 25> H         2.207006    0.993165    1.188015
| 26> *
| 27>
| 28> $new_job
| 29> ! ri-mp2 aug-cc-pvtz aug-cc-pvtz/c tightscf
| 30> %pal nprocs 16 end
| 31> %maxcore 3800
| 32> %base "TZ_B-F_19_A"
| 33>
| 34> *xyz 0 2
| 35> F        -2.086473    1.157734    0.051681
| 36> B        -0.917472    0.792815   -0.416031
| 37> C        -0.072225   -0.349027    0.245447
| 38> C         1.376635   -0.421504   -0.228077
| 39> C        -0.815093   -1.676305    0.021392
| 40> H        -0.856557   -1.930359   -1.039293
| 41> H        -1.836763   -1.640861    0.399426
| 42> H        -0.294679   -2.487233    0.532728
| 43> H        -0.080999   -0.136342    1.324254
| 44> C         2.181742    0.822818    0.109738
| 45> H         1.390198   -0.586444   -1.308806
| 46> H         1.852053   -1.298178    0.221238
| 47> H         1.747326    1.709486   -0.356528
| 48> H         3.211682    0.737195   -0.237011
| 49> H         2.207006    0.993165    1.188015
| 50> *
| 51>
| 52> $new_job
| 53> ! ri-mp2 aug-cc-pvqz aug-cc-pvqz/c tightscf
| 54> %pal nprocs 16 end
| 55> %maxcore 3800
| 56> %base "QZ_B-F_19_A"
| 57>
| 58> *xyz 0 2
| 59> F        -2.086473    1.157734    0.051681
| 60> B        -0.917472    0.792815   -0.416031
| 61> C        -0.072225   -0.349027    0.245447
| 62> C         1.376635   -0.421504   -0.228077
| 63> C        -0.815093   -1.676305    0.021392
| 64> H        -0.856557   -1.930359   -1.039293
| 65> H        -1.836763   -1.640861    0.399426
| 66> H        -0.294679   -2.487233    0.532728
| 67> H        -0.080999   -0.136342    1.324254
| 68> C         2.181742    0.822818    0.109738
| 69> H         1.390198   -0.586444   -1.308806
| 70> H         1.852053   -1.298178    0.221238
| 71> H         1.747326    1.709486   -0.356528
| 72> H         3.211682    0.737195   -0.237011
| 73> H         2.207006    0.993165    1.188015
| 74> *
| 75>
| 76>
| 77>
| 78>
| 79>                          ****END OF INPUT****
 Total Charge           Charge          ....    0
 Multiplicity           Mult            ....    2
 Number of Electrons    NEL             ....   47
MP2 TOTAL ENERGY:     -281.725111284 Eh
FINAL SINGLE POINT ENERGY      -281.725111284340
MP2 TOTAL ENERGY:     -281.985130607 Eh
FINAL SINGLE POINT ENERGY      -281.985130606656

CARTESIAN COORDINATES (ANGSTROEM)
---------------------------------
  F     -2.086473    1.157734    0.051681
  B     -0.917472    0.792815   -0.416031
  C     -0.072225   -0.349027    0.245447
  C      1.376635   -0.421504   -0.228077
  C     -0.815093   -1.676305    0.021392
  H     -0.856557   -1.930359   -1.039293
  H     -1.836763   -1.640861    0.399426
  H     -0.294679   -2.487233    0.532728
  H     -0.080999   -0.136342    1.324254
  C      2.181742    0.822818    0.109738
  H      1.390198   -0.586444   -1.308806
  H      1.852053   -1.298178    0.221238
  H      1.747326    1.709486   -0.356528
  H      3.211682    0.737195   -0.237011
  H      2.207006    0.993165    1.188015

 Multiplicity           Mult            ....    2
 Number of Electrons    NEL             ....   47
 Basis Dimension        Dim             ....  894

ORBITAL ENERGIES
----------------
                 SPIN UP ORBITALS
  NO   OCC          E(Eh)            E(eV)
   0   1.0000     -26.309184      -715.9093
   1   1.0000     -11.224865      -305.4441
   2   1.0000     -11.222480      -305.3792
   3   1.0000     -11.218848      -305.2804
   4   1.0000     -11.214037      -305.1495
   5   1.0000      -7.667700      -208.6487
   6   1.0000      -1.627417       -44.2843
   7   1.0000      -1.086558       -29.5668
   8   1.0000      -0.994417       -27.0595
   9   1.0000      -0.873927       -23.7808
  10   1.0000      -0.821321       -22.3493
  11   1.0000      -0.774434       -21.0734
  12   1.0000      -0.704395       -19.1676
  13   1.0000      -0.682020       -18.5587
  14   1.0000      -0.655613       -17.8401
  15   1.0000      -0.593873       -16.1601
  16   1.0000      -0.588190       -16.0055
  17   1.0000      -0.578491       -15.7415
  18   1.0000      -0.525831       -14.3086
  19   1.0000      -0.508894       -13.8477
  20   1.0000      -0.482814       -13.1380
  21   1.0000      -0.477970       -13.0062
  22   1.0000      -0.469497       -12.7757
  23   1.0000      -0.334258        -9.0956
  24   0.0000       0.024204         0.6586
  25   0.0000       0.030248         0.8231
  26   0.0000       0.032209         0.8765
  27   0.0000       0.034001         0.9252
  28   0.0000       0.048478         1.3191

                 SPIN DOWN ORBITALS
  NO   OCC          E(Eh)            E(eV)
   0   1.0000     -26.305825      -715.8179
   1   1.0000     -11.224915      -305.4455
   2   1.0000     -11.222526      -305.3805
   3   1.0000     -11.215578      -305.1914
   4   1.0000     -11.213895      -305.1456
   5   1.0000      -7.649461      -208.1524
   6   1.0000      -1.618047       -44.0293
   7   1.0000      -1.082287       -29.4505
   8   1.0000      -0.992717       -27.0132
   9   1.0000      -0.870776       -23.6950
  10   1.0000      -0.811672       -22.0867
  11   1.0000      -0.762726       -20.7548
  12   1.0000      -0.682515       -18.5722
  13   1.0000      -0.676083       -18.3972
  14   1.0000      -0.645159       -17.5557
  15   1.0000      -0.591465       -16.0946
  16   1.0000      -0.587426       -15.9847
  17   1.0000      -0.575899       -15.6710
  18   1.0000      -0.524099       -14.2615
  19   1.0000      -0.501726       -13.6527
  20   1.0000      -0.478811       -13.0291
  21   1.0000      -0.468076       -12.7370
  22   1.0000      -0.457598       -12.4519
  23   0.0000       0.022486         0.6119
  24   0.0000       0.030583         0.8322
  25   0.0000       0.032432         0.8825
  26   0.0000       0.032869         0.8944
  27   0.0000       0.048531         1.3206

MULLIKEN ATOMIC CHARGES AND SPIN POPULATIONS
--------------------------------------------
   0 F :   -0.813294   -0.024792
   1 B :    0.824082    1.018572
   2 C :    0.040248    0.013361
   3 C :   -0.449758   -0.021697
   4 C :   -0.953828    0.027039
   5 H :    0.237989    0.002551
   6 H :    0.251459   -0.000123
   7 H :    0.269059    0.001231
   8 H :    0.222016    0.002535
   9 C :   -0.857930   -0.001959
  10 H :    0.239688   -0.009981
  11 H :    0.270522   -0.004098
  12 H :    0.245891   -0.002809
  13 H :    0.258246   -0.000226
  14 H :    0.215611    0.000395
Sum of atomic charges         :   -0.0000000

LOEWDIN ATOMIC CHARGES AND SPIN POPULATIONS
-------------------------------------------
   0 F :    0.770257    0.144640
   1 B :   -0.661698    0.543715
   2 C :    0.151321    0.163258
   3 C :    0.452002    0.036910
   4 C :    0.897194    0.026873
   5 H :   -0.272697    0.004463
   6 H :   -0.277851    0.003277
   7 H :   -0.272738    0.002654
   8 H :   -0.308368    0.020110
   9 C :    0.919261    0.019286
  10 H :   -0.275908    0.009995
  11 H :   -0.271767    0.000852
  12 H :   -0.296137    0.020872
  13 H :   -0.275086    0.001208
  14 H :   -0.277784    0.001886

  Mayer bond orders larger than 0.100000
B(  0-F ,  1-B ) :   0.1530 B(  1-B ,  2-C ) :   0.8995 B(  1-B ,  4-C ) :   0.1263
B(  2-C ,  3-C ) :   0.7586 B(  2-C ,  4-C ) :   0.7866 B(  2-C ,  8-H ) :   0.9231
B(  3-C ,  9-C ) :   0.9422 B(  3-C , 10-H ) :   0.9154 B(  3-C , 11-H ) :   0.8880
B(  4-C ,  5-H ) :   0.9517 B(  4-C ,  6-H ) :   1.0017 B(  4-C ,  7-H ) :   0.9562
B(  9-C , 12-H ) :   0.9381 B(  9-C , 13-H ) :   1.0157 B(  9-C , 14-H ) :   0.9551

MP2 TOTAL ENERGY:     -282.064631188 Eh
FINAL SINGLE POINT ENERGY      -282.064631187741

DIPOLE MOMENT
-------------
                                X             Y             Z
Electronic contribution:     -9.87677       6.10598      -0.86963
Nuclear contribution   :     10.29608      -6.52119       1.02383
                        -----------------------------------------
Total Dipole Moment    :      0.41932      -0.41521       0.15420
                        -----------------------------------------
Magnitude (a.u.)       :      0.60992
Magnitude (Debye)      :      1.55029

Rotational constants in cm-1:     0.160012     0.077330     0.055604
Rotational constants in MHz :  4797.033934  2318.295487  1666.956909

                             ****ORCA TERMINATED NORMALLY****
TOTAL RUN TIME: 0 days 3 hours 0 minutes 35 seconds 614 msec
