                         Program Version 5.0.4 -  RELEASE  -
|  1> ! ri-mp2 aug-cc-pvdz aug-cc-pvdz/c tightscf
|  2> %pal nprocs 16 end
|  3> %maxcore 3800
|  4> %base "DZ_Si-Cl_38_AB"
|  5> %scf
|  6> STABPerform true
|  7> STABRestartUHFifUnstable true
|  8> end
|  9>
| 10> *xyz 0 1
| 11> C        -1.832100   -0.000038    0.000439
| 12> Si        -0.000456    0.000010    0.000011
| 13> N        -2.977640   -0.000084    0.000671
| 14> Cl         0.624811   -0.899605    1.690300
| 15> Cl         0.623982   -1.014169   -1.624451
| 16> Cl         0.624293    1.913814   -0.066289
| 17> *
| 18>
| 19> $new_job
| 20> ! ri-mp2 aug-cc-pvtz aug-cc-pvtz/c tightscf
| 21> %pal nprocs 16 end
| 22> %maxcore 3800
| 23> %base "TZ_Si-Cl_38_AB"
| 24>
| 25> *xyz 0 1
| 26> C        -1.832100   -0.000038    0.000439
| 27> Si        -0.000456    0.000010    0.000011
| 28> N        -2.977640   -0.000084    0.000671
| 29> Cl         0.624811   -0.899605    1.690300
| 30> Cl         0.623982   -1.014169   -1.624451
| 31> Cl         0.624293    1.913814   -0.066289
| 32> *
| 33>
| 34> $new_job
| 35> ! ri-mp2 aug-cc-pvqz aug-cc-pvqz/c tightscf
| 36> %pal nprocs 16 end
| 37> %maxcore 3800
| 38> %base "QZ_Si-Cl_38_AB"
| 39>
| 40> *xyz 0 1
| 41> C        -1.832100   -0.000038    0.000439
| 42> Si        -0.000456    0.000010    0.000011
| 43> N        -2.977640   -0.000084    0.000671
| 44> Cl         0.624811   -0.899605    1.690300
| 45> Cl         0.623982   -1.014169   -1.624451
| 46> Cl         0.624293    1.913814   -0.066289
| 47> *
| 48>
| 49>
| 50>
| 51>
| 52>                          ****END OF INPUT****
 Total Charge           Charge          ....    0
 Multiplicity           Mult            ....    1
 Number of Electrons    NEL             ....   78
MP2 TOTAL ENERGY:    -1760.743104928 Eh
FINAL SINGLE POINT ENERGY     -1760.743104927651
MP2 TOTAL ENERGY:    -1761.042808554 Eh
FINAL SINGLE POINT ENERGY     -1761.042808553599

CARTESIAN COORDINATES (ANGSTROEM)
---------------------------------
  C     -1.832100   -0.000038    0.000439
  Si    -0.000456    0.000010    0.000011
  N     -2.977640   -0.000084    0.000671
  Cl     0.624811   -0.899605    1.690300
  Cl     0.623982   -1.014169   -1.624451
  Cl     0.624293    1.913814   -0.066289

 Multiplicity           Mult            ....    1
 Number of Electrons    NEL             ....   78
 Basis Dimension        Dim             ....  496

ORBITAL ENERGIES
----------------

  NO   OCC          E(Eh)            E(eV)
   0   2.0000    -104.874399     -2853.7775
   1   2.0000    -104.874399     -2853.7775
   2   2.0000    -104.874397     -2853.7774
   3   2.0000     -68.944689     -1876.0804
   4   2.0000     -15.610214      -424.7755
   5   2.0000     -11.277962      -306.8889
   6   2.0000     -10.601979      -288.4945
   7   2.0000     -10.601977      -288.4945
   8   2.0000     -10.601969      -288.4942
   9   2.0000      -8.068752      -219.5619
  10   2.0000      -8.068751      -219.5619
  11   2.0000      -8.068749      -219.5618
  12   2.0000      -8.067467      -219.5269
  13   2.0000      -8.067467      -219.5269
  14   2.0000      -8.067465      -219.5269
  15   2.0000      -8.067463      -219.5268
  16   2.0000      -8.067462      -219.5268
  17   2.0000      -8.067461      -219.5268
  18   2.0000      -6.278690      -170.8518
  19   2.0000      -4.386411      -119.3603
  20   2.0000      -4.386411      -119.3603
  21   2.0000      -4.386117      -119.3523
  22   2.0000      -1.250858       -34.0376
  23   2.0000      -1.178242       -32.0616
  24   2.0000      -1.134018       -30.8582
  25   2.0000      -1.134016       -30.8582
  26   2.0000      -0.815007       -22.1775
  27   2.0000      -0.669176       -18.2092
  28   2.0000      -0.608236       -16.5509
  29   2.0000      -0.608234       -16.5509
  30   2.0000      -0.590128       -16.0582
  31   2.0000      -0.532893       -14.5008
  32   2.0000      -0.532892       -14.5007
  33   2.0000      -0.518965       -14.1218
  34   2.0000      -0.515745       -14.0341
  35   2.0000      -0.515744       -14.0341
  36   2.0000      -0.492371       -13.3981
  37   2.0000      -0.492370       -13.3981
  38   2.0000      -0.487899       -13.2764
  39   0.0000       0.030929         0.8416
  40   0.0000       0.038066         1.0358
  41   0.0000       0.038066         1.0358
  42   0.0000       0.040887         1.1126
  43   0.0000       0.074085         2.0160

MULLIKEN ATOMIC CHARGES
-----------------------
   0 C :   -0.148833
   1 Si:    2.186042
   2 N :   -0.453772
   3 Cl:   -0.527813
   4 Cl:   -0.527811
   5 Cl:   -0.527813
Sum of atomic charges:   -0.0000000

LOEWDIN ATOMIC CHARGES
----------------------
   0 C :   -0.525030
   1 Si:   -2.523012
   2 N :    0.304319
   3 Cl:    0.914575
   4 Cl:    0.914573
   5 Cl:    0.914576

  Mayer bond orders larger than 0.100000
B(  0-C ,  1-Si) :   0.7737 B(  0-C ,  2-N ) :   2.6631 B(  1-Si,  3-Cl) :   0.6313
B(  1-Si,  4-Cl) :   0.6313 B(  1-Si,  5-Cl) :   0.6313

MP2 TOTAL ENERGY:    -1761.144161194 Eh
FINAL SINGLE POINT ENERGY     -1761.144161194059

DIPOLE MOMENT
-------------
                                X             Y             Z
Electronic contribution:      3.46252       0.00011      -0.00077
Nuclear contribution   :     -2.46232      -0.00005       0.00058
                        -----------------------------------------
Total Dipole Moment    :      1.00020       0.00005      -0.00019
                        -----------------------------------------
Magnitude (a.u.)       :      1.00020
Magnitude (Debye)      :      2.54231

Rotational constants in cm-1:     0.043223     0.042047     0.042046
Rotational constants in MHz :  1295.799816  1260.525315  1260.507219

                             ****ORCA TERMINATED NORMALLY****
TOTAL RUN TIME: 0 days 0 hours 17 minutes 56 seconds 114 msec
