                         Program Version 5.0.4 -  RELEASE  -
|  1> ! ri-mp2 aug-cc-pvdz aug-cc-pvdz/c tightscf
|  2> %pal nprocs 16 end
|  3> %maxcore 3800
|  4> %base "DZ_Si-Si_52_AB"
|  5> %scf
|  6> STABPerform true
|  7> STABRestartUHFifUnstable true
|  8> end
|  9>
| 10> *xyz 0 1
| 11> Si         1.011223    1.444432    0.585924
| 12> Si        -1.011221    1.444433   -0.585922
| 13> C         1.799697   -0.292180    0.399305
| 14> O         2.356413   -0.958874    1.184374
| 15> H         0.868169    1.729771    2.023667
| 16> H         1.975220    2.369466   -0.043766
| 17> Cl         1.610177   -0.876308   -1.337237
| 18> C        -1.799696   -0.292179   -0.399306
| 19> H        -0.868168    1.729774   -2.023664
| 20> H        -1.975219    2.369467    0.043769
| 21> O        -2.356414   -0.958870   -1.184376
| 22> Cl        -1.610178   -0.876310    1.337236
| 23> *
| 24>
| 25> $new_job
| 26> ! ri-mp2 aug-cc-pvtz aug-cc-pvtz/c tightscf
| 27> %pal nprocs 16 end
| 28> %maxcore 3800
| 29> %base "TZ_Si-Si_52_AB"
| 30>
| 31> *xyz 0 1
| 32> Si         1.011223    1.444432    0.585924
| 33> Si        -1.011221    1.444433   -0.585922
| 34> C         1.799697   -0.292180    0.399305
| 35> O         2.356413   -0.958874    1.184374
| 36> H         0.868169    1.729771    2.023667
| 37> H         1.975220    2.369466   -0.043766
| 38> Cl         1.610177   -0.876308   -1.337237
| 39> C        -1.799696   -0.292179   -0.399306
| 40> H        -0.868168    1.729774   -2.023664
| 41> H        -1.975219    2.369467    0.043769
| 42> O        -2.356414   -0.958870   -1.184376
| 43> Cl        -1.610178   -0.876310    1.337236
| 44> *
| 45>
| 46> $new_job
| 47> ! ri-mp2 aug-cc-pvqz aug-cc-pvqz/c tightscf
| 48> %pal nprocs 16 end
| 49> %maxcore 3800
| 50> %base "QZ_Si-Si_52_AB"
| 51>
| 52> *xyz 0 1
| 53> Si         1.011223    1.444432    0.585924
| 54> Si        -1.011221    1.444433   -0.585922
| 55> C         1.799697   -0.292180    0.399305
| 56> O         2.356413   -0.958874    1.184374
| 57> H         0.868169    1.729771    2.023667
| 58> H         1.975220    2.369466   -0.043766
| 59> Cl         1.610177   -0.876308   -1.337237
| 60> C        -1.799696   -0.292179   -0.399306
| 61> H        -0.868168    1.729774   -2.023664
| 62> H        -1.975219    2.369467    0.043769
| 63> O        -2.356414   -0.958870   -1.184376
| 64> Cl        -1.610178   -0.876310    1.337236
| 65> *
| 66>
| 67>
| 68>
| 69>
| 70>                          ****END OF INPUT****
 Total Charge           Charge          ....    0
 Multiplicity           Mult            ....    1
 Number of Electrons    NEL             ....   94
MP2 TOTAL ENERGY:    -1725.842836141 Eh
FINAL SINGLE POINT ENERGY     -1725.842836141457
MP2 TOTAL ENERGY:    -1726.217073070 Eh
FINAL SINGLE POINT ENERGY     -1726.217073070250

CARTESIAN COORDINATES (ANGSTROEM)
---------------------------------
  Si     1.011223    1.444432    0.585924
  Si    -1.011221    1.444433   -0.585922
  C      1.799697   -0.292180    0.399305
  O      2.356413   -0.958874    1.184374
  H      0.868169    1.729771    2.023667
  H      1.975220    2.369466   -0.043766
  Cl     1.610177   -0.876308   -1.337237
  C     -1.799696   -0.292179   -0.399306
  H     -0.868168    1.729774   -2.023664
  H     -1.975219    2.369467    0.043769
  O     -2.356414   -0.958870   -1.184376
  Cl    -1.610178   -0.876310    1.337236

 Multiplicity           Mult            ....    1
 Number of Electrons    NEL             ....   94
 Basis Dimension        Dim             ....  840

ORBITAL ENERGIES
----------------

  NO   OCC          E(Eh)            E(eV)
   0   2.0000    -104.848306     -2853.0675
   1   2.0000    -104.848306     -2853.0675
   2   2.0000     -68.823245     -1872.7757
   3   2.0000     -68.823244     -1872.7757
   4   2.0000     -20.615805      -560.9846
   5   2.0000     -20.615805      -560.9846
   6   2.0000     -11.405817      -310.3681
   7   2.0000     -11.405817      -310.3680
   8   2.0000     -10.574570      -287.7487
   9   2.0000     -10.574570      -287.7487
  10   2.0000      -8.041254      -218.8137
  11   2.0000      -8.041254      -218.8137
  12   2.0000      -8.039815      -218.7745
  13   2.0000      -8.039815      -218.7745
  14   2.0000      -8.039761      -218.7730
  15   2.0000      -8.039761      -218.7730
  16   2.0000      -6.173648      -167.9935
  17   2.0000      -6.173498      -167.9894
  18   2.0000      -4.279940      -116.4631
  19   2.0000      -4.279758      -116.4581
  20   2.0000      -4.279679      -116.4560
  21   2.0000      -4.279326      -116.4464
  22   2.0000      -4.279235      -116.4439
  23   2.0000      -4.279019      -116.4380
  24   2.0000      -1.471306       -40.0363
  25   2.0000      -1.471123       -40.0313
  26   2.0000      -1.126715       -30.6595
  27   2.0000      -1.123303       -30.5666
  28   2.0000      -0.868020       -23.6200
  29   2.0000      -0.840952       -22.8835
  30   2.0000      -0.758952       -20.6521
  31   2.0000      -0.727962       -19.8089
  32   2.0000      -0.672547       -18.3009
  33   2.0000      -0.670492       -18.2450
  34   2.0000      -0.652064       -17.7436
  35   2.0000      -0.624019       -16.9804
  36   2.0000      -0.619828       -16.8664
  37   2.0000      -0.607350       -16.5268
  38   2.0000      -0.542666       -14.7667
  39   2.0000      -0.517203       -14.0738
  40   2.0000      -0.488759       -13.2998
  41   2.0000      -0.476114       -12.9557
  42   2.0000      -0.475060       -12.9270
  43   2.0000      -0.471543       -12.8313
  44   2.0000      -0.451799       -12.2941
  45   2.0000      -0.431572       -11.7437
  46   2.0000      -0.427438       -11.6312
  47   0.0000       0.016931         0.4607
  48   0.0000       0.025823         0.7027
  49   0.0000       0.032999         0.8979
  50   0.0000       0.036714         0.9990
  51   0.0000       0.045013         1.2249

MULLIKEN ATOMIC CHARGES
-----------------------
   0 Si:    0.835266
   1 Si:    0.835266
   2 C :    0.531679
   3 O :   -0.683060
   4 H :   -0.162659
   5 H :   -0.239563
   6 Cl:   -0.281662
   7 C :    0.531679
   8 H :   -0.162659
   9 H :   -0.239564
  10 O :   -0.683060
  11 Cl:   -0.281663
Sum of atomic charges:    0.0000000

LOEWDIN ATOMIC CHARGES
----------------------
   0 Si:    0.500649
   1 Si:    0.500649
   2 C :   -1.436258
   3 O :    0.511405
   4 H :   -0.268206
   5 H :   -0.274465
   6 Cl:    0.966876
   7 C :   -1.436257
   8 H :   -0.268207
   9 H :   -0.274464
  10 O :    0.511405
  11 Cl:    0.966875

  Mayer bond orders larger than 0.100000
B(  0-Si,  1-Si) :   0.8107 B(  0-Si,  2-C ) :   0.5986 B(  0-Si,  4-H ) :   0.8446
B(  0-Si,  5-H ) :   0.8011 B(  1-Si,  7-C ) :   0.5986 B(  1-Si,  8-H ) :   0.8446
B(  1-Si,  9-H ) :   0.8011 B(  2-C ,  3-O ) :   1.6350 B(  2-C ,  6-Cl) :   0.8600
B(  7-C , 10-O ) :   1.6350 B(  7-C , 11-Cl) :   0.8600

MP2 TOTAL ENERGY:    -1726.344107023 Eh
FINAL SINGLE POINT ENERGY     -1726.344107022796

DIPOLE MOMENT
-------------
                                X             Y             Z
Electronic contribution:      0.00000      -7.96242      -0.00001
Nuclear contribution   :      0.00000       9.90597       0.00001
                        -----------------------------------------
Total Dipole Moment    :      0.00000       1.94355      -0.00000
                        -----------------------------------------
Magnitude (a.u.)       :      1.94355
Magnitude (Debye)      :      4.94010

Rotational constants in cm-1:     0.039886     0.023770     0.023210
Rotational constants in MHz :  1195.755734   712.611136   695.806981

                             ****ORCA TERMINATED NORMALLY****
TOTAL RUN TIME: 0 days 1 hours 2 minutes 45 seconds 41 msec
