                         Program Version 5.0.4 -  RELEASE  -
|  1> ! ri-mp2 aug-cc-pvdz aug-cc-pvdz/c tightscf
|  2> %pal nprocs 16 end
|  3> %maxcore 3800
|  4> %base "DZ_P-C_1_AB"
|  5> %scf
|  6> STABPerform true
|  7> STABRestartUHFifUnstable true
|  8> end
|  9>
| 10> *xyz 0 1
| 11> P        -2.321109   -0.288639   -0.107010
| 12> C        -0.738425    0.667608    0.023882
| 13> C         3.009027   -0.404574   -0.011306
| 14> H        -0.722792    1.281622    0.924493
| 15> H        -0.711048    1.349721   -0.829517
| 16> C         0.478800   -0.247319   -0.013915
| 17> C         1.796994    0.512765    0.022891
| 18> H         0.442969   -0.867302   -0.914788
| 19> H         0.441425   -0.940828    0.832259
| 20> H         1.829554    1.132209    0.923698
| 21> H         1.834713    1.204535   -0.823493
| 22> H         3.015533   -1.012628   -0.917821
| 23> H         3.009989   -1.085625    0.841824
| 24> H         3.940011    0.162238    0.015300
| 25> H        -3.212588    0.759989    0.220811
| 26> H        -2.329504   -0.825230    1.203065
| 27> *
| 28>
| 29> $new_job
| 30> ! ri-mp2 aug-cc-pvtz aug-cc-pvtz/c tightscf
| 31> %pal nprocs 16 end
| 32> %maxcore 3800
| 33> %base "TZ_P-C_1_AB"
| 34>
| 35> *xyz 0 1
| 36> P        -2.321109   -0.288639   -0.107010
| 37> C        -0.738425    0.667608    0.023882
| 38> C         3.009027   -0.404574   -0.011306
| 39> H        -0.722792    1.281622    0.924493
| 40> H        -0.711048    1.349721   -0.829517
| 41> C         0.478800   -0.247319   -0.013915
| 42> C         1.796994    0.512765    0.022891
| 43> H         0.442969   -0.867302   -0.914788
| 44> H         0.441425   -0.940828    0.832259
| 45> H         1.829554    1.132209    0.923698
| 46> H         1.834713    1.204535   -0.823493
| 47> H         3.015533   -1.012628   -0.917821
| 48> H         3.009989   -1.085625    0.841824
| 49> H         3.940011    0.162238    0.015300
| 50> H        -3.212588    0.759989    0.220811
| 51> H        -2.329504   -0.825230    1.203065
| 52> *
| 53>
| 54> $new_job
| 55> ! ri-mp2 aug-cc-pvqz aug-cc-pvqz/c tightscf
| 56> %pal nprocs 16 end
| 57> %maxcore 3800
| 58> %base "QZ_P-C_1_AB"
| 59>
| 60> *xyz 0 1
| 61> P        -2.321109   -0.288639   -0.107010
| 62> C        -0.738425    0.667608    0.023882
| 63> C         3.009027   -0.404574   -0.011306
| 64> H        -0.722792    1.281622    0.924493
| 65> H        -0.711048    1.349721   -0.829517
| 66> C         0.478800   -0.247319   -0.013915
| 67> C         1.796994    0.512765    0.022891
| 68> H         0.442969   -0.867302   -0.914788
| 69> H         0.441425   -0.940828    0.832259
| 70> H         1.829554    1.132209    0.923698
| 71> H         1.834713    1.204535   -0.823493
| 72> H         3.015533   -1.012628   -0.917821
| 73> H         3.009989   -1.085625    0.841824
| 74> H         3.940011    0.162238    0.015300
| 75> H        -3.212588    0.759989    0.220811
| 76> H        -2.329504   -0.825230    1.203065
| 77> *
| 78>
| 79>
| 80>
| 81>
| 82>                          ****END OF INPUT****
 Total Charge           Charge          ....    0
 Multiplicity           Mult            ....    1
 Number of Electrons    NEL             ....   50
MP2 TOTAL ENERGY:     -499.363548411 Eh
FINAL SINGLE POINT ENERGY      -499.363548411182
MP2 TOTAL ENERGY:     -499.564198792 Eh
FINAL SINGLE POINT ENERGY      -499.564198791550

CARTESIAN COORDINATES (ANGSTROEM)
---------------------------------
  P     -2.321109   -0.288639   -0.107010
  C     -0.738425    0.667608    0.023882
  C      3.009027   -0.404574   -0.011306
  H     -0.722792    1.281622    0.924493
  H     -0.711048    1.349721   -0.829517
  C      0.478800   -0.247319   -0.013915
  C      1.796994    0.512765    0.022891
  H      0.442969   -0.867302   -0.914788
  H      0.441425   -0.940828    0.832259
  H      1.829554    1.132209    0.923698
  H      1.834713    1.204535   -0.823493
  H      3.015533   -1.012628   -0.917821
  H      3.009989   -1.085625    0.841824
  H      3.940011    0.162238    0.015300
  H     -3.212588    0.759989    0.220811
  H     -2.329504   -0.825230    1.203065

 Multiplicity           Mult            ....    1
 Number of Electrons    NEL             ....   50
 Basis Dimension        Dim             ....  910

ORBITAL ENERGIES
----------------

  NO   OCC          E(Eh)            E(eV)
   0   2.0000     -79.930690     -2175.0246
   1   2.0000     -11.227579      -305.5179
   2   2.0000     -11.223052      -305.3948
   3   2.0000     -11.219189      -305.2897
   4   2.0000     -11.211735      -305.0868
   5   2.0000      -7.473710      -203.3700
   6   2.0000      -5.367709      -146.0628
   7   2.0000      -5.367507      -146.0573
   8   2.0000      -5.366471      -146.0291
   9   2.0000      -1.083607       -29.4864
  10   2.0000      -0.999142       -27.1880
  11   2.0000      -0.889005       -24.1910
  12   2.0000      -0.803890       -21.8750
  13   2.0000      -0.777789       -21.1647
  14   2.0000      -0.651676       -17.7330
  15   2.0000      -0.595796       -16.2124
  16   2.0000      -0.585979       -15.9453
  17   2.0000      -0.552860       -15.0441
  18   2.0000      -0.529680       -14.4133
  19   2.0000      -0.512216       -13.9381
  20   2.0000      -0.489997       -13.3335
  21   2.0000      -0.474930       -12.9235
  22   2.0000      -0.469812       -12.7842
  23   2.0000      -0.441471       -12.0130
  24   2.0000      -0.357573        -9.7301
  25   0.0000       0.025463         0.6929
  26   0.0000       0.031085         0.8459
  27   0.0000       0.033721         0.9176
  28   0.0000       0.035872         0.9761
  29   0.0000       0.047336         1.2881

MULLIKEN ATOMIC CHARGES
-----------------------
   0 P :    0.168140
   1 C :   -0.722875
   2 C :   -0.876601
   3 H :    0.258351
   4 H :    0.275942
   5 C :   -0.187350
   6 C :   -0.420362
   7 H :    0.260784
   8 H :    0.265827
   9 H :    0.234879
  10 H :    0.221190
  11 H :    0.223980
  12 H :    0.223937
  13 H :    0.268006
  14 H :   -0.105271
  15 H :   -0.088576
Sum of atomic charges:   -0.0000000

LOEWDIN ATOMIC CHARGES
----------------------
   0 P :    1.512302
   1 C :    0.282769
   2 C :    0.925362
   3 H :   -0.338807
   4 H :   -0.353239
   5 C :    0.399210
   6 C :    0.494780
   7 H :   -0.291495
   8 H :   -0.287433
   9 H :   -0.273132
  10 H :   -0.273475
  11 H :   -0.283758
  12 H :   -0.283957
  13 H :   -0.282761
  14 H :   -0.478272
  15 H :   -0.468093

  Mayer bond orders larger than 0.100000
B(  0-P ,  1-C ) :   0.8902 B(  0-P ,  5-C ) :  -0.1667 B(  0-P , 14-H ) :   0.9640
B(  0-P , 15-H ) :   0.9484 B(  1-C ,  3-H ) :   0.9168 B(  1-C ,  4-H ) :   0.8929
B(  1-C ,  5-C ) :   0.8618 B(  2-C ,  6-C ) :   0.9850 B(  2-C , 11-H ) :   0.9538
B(  2-C , 12-H ) :   0.9560 B(  2-C , 13-H ) :   1.0117 B(  5-C ,  6-C ) :   0.8859
B(  5-C ,  7-H ) :   0.8510 B(  5-C ,  8-H ) :   0.8652 B(  6-C ,  9-H ) :   0.8823
B(  6-C , 10-H ) :   0.8882

MP2 TOTAL ENERGY:     -499.624655225 Eh
FINAL SINGLE POINT ENERGY      -499.624655225322

DIPOLE MOMENT
-------------
                                X             Y             Z
Electronic contribution:     -9.78603      -1.16158      -1.40363
Nuclear contribution   :     10.15970       1.49401       1.64424
                        -----------------------------------------
Total Dipole Moment    :      0.37367       0.33244       0.24061
                        -----------------------------------------
Magnitude (a.u.)       :      0.55501
Magnitude (Debye)      :      1.41072

Rotational constants in cm-1:     0.508796     0.043359     0.041528
Rotational constants in MHz : 15253.332658  1299.863141  1244.986598

                             ****ORCA TERMINATED NORMALLY****
TOTAL RUN TIME: 0 days 1 hours 9 minutes 53 seconds 327 msec
