                         Program Version 5.0.4 -  RELEASE  -
|  1> ! ri-mp2 aug-cc-pvdz aug-cc-pvdz/c tightscf
|  2> %pal nprocs 16 end
|  3> %maxcore 3800
|  4> %base "DZ_S-F_18_AB"
|  5>
|  6> *xyz 0 1
|  7> F         1.737032   -0.948011    0.536022
|  8> S         1.405258    0.505893   -0.086896
|  9> C        -0.096799    0.102343   -0.904771
| 10> N        -1.309164    0.011855    0.001795
| 11> H        -0.031917   -0.842754   -1.435643
| 12> H        -0.302428    0.923663   -1.591760
| 13> O        -1.960732   -1.002312   -0.081822
| 14> O        -1.544034    0.959794    0.708024
| 15> *
| 16>
| 17> $new_job
| 18> ! ri-mp2 aug-cc-pvtz aug-cc-pvtz/c tightscf
| 19> %pal nprocs 16 end
| 20> %maxcore 3800
| 21> %base "TZ_S-F_18_AB"
| 22>
| 23> *xyz 0 1
| 24> F         1.737032   -0.948011    0.536022
| 25> S         1.405258    0.505893   -0.086896
| 26> C        -0.096799    0.102343   -0.904771
| 27> N        -1.309164    0.011855    0.001795
| 28> H        -0.031917   -0.842754   -1.435643
| 29> H        -0.302428    0.923663   -1.591760
| 30> O        -1.960732   -1.002312   -0.081822
| 31> O        -1.544034    0.959794    0.708024
| 32> *
| 33>
| 34> $new_job
| 35> ! ri-mp2 aug-cc-pvqz aug-cc-pvqz/c tightscf
| 36> %pal nprocs 16 end
| 37> %maxcore 3800
| 38> %base "QZ_S-F_18_AB"
| 39>
| 40> *xyz 0 1
| 41> F         1.737032   -0.948011    0.536022
| 42> S         1.405258    0.505893   -0.086896
| 43> C        -0.096799    0.102343   -0.904771
| 44> N        -1.309164    0.011855    0.001795
| 45> H        -0.031917   -0.842754   -1.435643
| 46> H        -0.302428    0.923663   -1.591760
| 47> O        -1.960732   -1.002312   -0.081822
| 48> O        -1.544034    0.959794    0.708024
| 49> *
| 50>
| 51>
| 52>
| 53>
| 54>                          ****END OF INPUT****
 Total Charge           Charge          ....    0
 Multiplicity           Mult            ....    1
 Number of Electrons    NEL             ....   56
MP2 TOTAL ENERGY:     -741.130311790 Eh
FINAL SINGLE POINT ENERGY      -741.130311790335
MP2 TOTAL ENERGY:     -741.468434235 Eh
FINAL SINGLE POINT ENERGY      -741.468434234978

CARTESIAN COORDINATES (ANGSTROEM)
---------------------------------
  F      1.737032   -0.948011    0.536022
  S      1.405258    0.505893   -0.086896
  C     -0.096799    0.102343   -0.904771
  N     -1.309164    0.011855    0.001795
  H     -0.031917   -0.842754   -1.435643
  H     -0.302428    0.923663   -1.591760
  O     -1.960732   -1.002312   -0.081822
  O     -1.544034    0.959794    0.708024

 Multiplicity           Mult            ....    1
 Number of Electrons    NEL             ....   56
 Basis Dimension        Dim             ....  576

ORBITAL ENERGIES
----------------

  NO   OCC          E(Eh)            E(eV)
   0   2.0000     -92.070676     -2505.3705
   1   2.0000     -26.337729      -716.6860
   2   2.0000     -20.619510      -561.0854
   3   2.0000     -20.617074      -561.0191
   4   2.0000     -15.863871      -431.6779
   5   2.0000     -11.359169      -309.0987
   6   2.0000      -9.065077      -246.6733
   7   2.0000      -6.746526      -183.5823
   8   2.0000      -6.744732      -183.5335
   9   2.0000      -6.743320      -183.4951
  10   2.0000      -1.639455       -44.6118
  11   2.0000      -1.634396       -44.4742
  12   2.0000      -1.428864       -38.8814
  13   2.0000      -1.149650       -31.2836
  14   2.0000      -0.988653       -26.9026
  15   2.0000      -0.868154       -23.6237
  16   2.0000      -0.783893       -21.3308
  17   2.0000      -0.760940       -20.7062
  18   2.0000      -0.754724       -20.5371
  19   2.0000      -0.719957       -19.5910
  20   2.0000      -0.713822       -19.4241
  21   2.0000      -0.697861       -18.9898
  22   2.0000      -0.634929       -17.2773
  23   2.0000      -0.550031       -14.9671
  24   2.0000      -0.511694       -13.9239
  25   2.0000      -0.505367       -13.7517
  26   2.0000      -0.472754       -12.8643
  27   2.0000      -0.410362       -11.1665
  28   0.0000       0.019631         0.5342
  29   0.0000       0.033992         0.9250
  30   0.0000       0.043747         1.1904
  31   0.0000       0.058024         1.5789
  32   0.0000       0.066865         1.8195

MULLIKEN ATOMIC CHARGES
-----------------------
   0 F :   -0.608556
   1 S :    0.662271
   2 C :   -0.541968
   3 N :    0.801298
   4 H :    0.394274
   5 H :    0.356456
   6 O :   -0.540285
   7 O :   -0.523491
Sum of atomic charges:    0.0000000

LOEWDIN ATOMIC CHARGES
----------------------
   0 F :    0.104582
   1 S :    0.757078
   2 C :   -0.139941
   3 N :   -0.933376
   4 H :   -0.426412
   5 H :   -0.412910
   6 O :    0.538939
   7 O :    0.512041

  Mayer bond orders larger than 0.100000
B(  0-F ,  1-S ) :   0.6098 B(  0-F ,  2-C ) :  -0.1067 B(  1-S ,  2-C ) :   1.0857
B(  2-C ,  3-N ) :   0.8305 B(  2-C ,  4-H ) :   0.7972 B(  2-C ,  5-H ) :   0.8454
B(  3-N ,  6-O ) :   1.3410 B(  3-N ,  7-O ) :   1.3806 B(  6-O ,  7-O ) :   0.1526

MP2 TOTAL ENERGY:     -741.581901229 Eh
FINAL SINGLE POINT ENERGY      -741.581901228621

DIPOLE MOMENT
-------------
                                X             Y             Z
Electronic contribution:      2.79656      -0.50882       2.12240
Nuclear contribution   :     -2.04126       0.94762      -3.35540
                        -----------------------------------------
Total Dipole Moment    :      0.75531       0.43880      -1.23301
                        -----------------------------------------
Magnitude (a.u.)       :      1.51107
Magnitude (Debye)      :      3.84083

Rotational constants in cm-1:     0.196121     0.061831     0.055775
Rotational constants in MHz :  5879.558116  1853.638002  1672.106334

                             ****ORCA TERMINATED NORMALLY****
TOTAL RUN TIME: 0 days 0 hours 4 minutes 5 seconds 840 msec
