                         Program Version 5.0.4 -  RELEASE  -
|  1> ! ri-mp2 aug-cc-pvdz aug-cc-pvdz/c tightscf
|  2> %pal nprocs 16 end
|  3> %maxcore 3800
|  4> %base "DZ_Si-Si_87_AB"
|  5> %scf
|  6> STABPerform true
|  7> STABRestartUHFifUnstable true
|  8> end
|  9>
| 10> *xyz 0 1
| 11> Si        -1.778017   -0.555207   -0.161966
| 12> Si        -0.228209    1.142043    0.246060
| 13> H        -1.413665   -1.269688   -1.403814
| 14> H        -3.113762    0.060755   -0.357482
| 15> H        -1.854842   -1.492334    0.973660
| 16> N         1.366036    0.684935   -0.368720
| 17> H        -0.134939    1.461974    1.687438
| 18> H        -0.531621    2.393977   -0.483454
| 19> C         1.839233   -0.566811   -0.167715
| 20> O         1.218101   -1.414766    0.433879
| 21> H         2.834056   -0.764912   -0.598121
| 22> H         1.959470    1.318967   -0.879259
| 23> *
| 24>
| 25> $new_job
| 26> ! ri-mp2 aug-cc-pvtz aug-cc-pvtz/c tightscf
| 27> %pal nprocs 16 end
| 28> %maxcore 3800
| 29> %base "TZ_Si-Si_87_AB"
| 30>
| 31> *xyz 0 1
| 32> Si        -1.778017   -0.555207   -0.161966
| 33> Si        -0.228209    1.142043    0.246060
| 34> H        -1.413665   -1.269688   -1.403814
| 35> H        -3.113762    0.060755   -0.357482
| 36> H        -1.854842   -1.492334    0.973660
| 37> N         1.366036    0.684935   -0.368720
| 38> H        -0.134939    1.461974    1.687438
| 39> H        -0.531621    2.393977   -0.483454
| 40> C         1.839233   -0.566811   -0.167715
| 41> O         1.218101   -1.414766    0.433879
| 42> H         2.834056   -0.764912   -0.598121
| 43> H         1.959470    1.318967   -0.879259
| 44> *
| 45>
| 46> $new_job
| 47> ! ri-mp2 aug-cc-pvqz aug-cc-pvqz/c tightscf
| 48> %pal nprocs 16 end
| 49> %maxcore 3800
| 50> %base "QZ_Si-Si_87_AB"
| 51>
| 52> *xyz 0 1
| 53> Si        -1.778017   -0.555207   -0.161966
| 54> Si        -0.228209    1.142043    0.246060
| 55> H        -1.413665   -1.269688   -1.403814
| 56> H        -3.113762    0.060755   -0.357482
| 57> H        -1.854842   -1.492334    0.973660
| 58> N         1.366036    0.684935   -0.368720
| 59> H        -0.134939    1.461974    1.687438
| 60> H        -0.531621    2.393977   -0.483454
| 61> C         1.839233   -0.566811   -0.167715
| 62> O         1.218101   -1.414766    0.433879
| 63> H         2.834056   -0.764912   -0.598121
| 64> H         1.959470    1.318967   -0.879259
| 65> *
| 66>
| 67>
| 68>
| 69>
| 70>                          ****END OF INPUT****
 Total Charge           Charge          ....    0
 Multiplicity           Mult            ....    1
 Number of Electrons    NEL             ....   56
MP2 TOTAL ENERGY:     -749.888835114 Eh
FINAL SINGLE POINT ENERGY      -749.888835113715
MP2 TOTAL ENERGY:     -750.110791342 Eh
FINAL SINGLE POINT ENERGY      -750.110791341856

CARTESIAN COORDINATES (ANGSTROEM)
---------------------------------
  Si    -1.778017   -0.555207   -0.161966
  Si    -0.228209    1.142043    0.246060
  H     -1.413665   -1.269688   -1.403814
  H     -3.113762    0.060755   -0.357482
  H     -1.854842   -1.492334    0.973660
  N      1.366036    0.684935   -0.368720
  H     -0.134939    1.461974    1.687438
  H     -0.531621    2.393977   -0.483454
  C      1.839233   -0.566811   -0.167715
  O      1.218101   -1.414766    0.433879
  H      2.834056   -0.764912   -0.598121
  H      1.959470    1.318967   -0.879259

 Multiplicity           Mult            ....    1
 Number of Electrons    NEL             ....   56
 Basis Dimension        Dim             ....  730

ORBITAL ENERGIES
----------------

  NO   OCC          E(Eh)            E(eV)
   0   2.0000     -68.790533     -1871.8856
   1   2.0000     -68.761483     -1871.0951
   2   2.0000     -20.538220      -558.8734
   3   2.0000     -15.582430      -424.0195
   4   2.0000     -11.360465      -309.1340
   5   2.0000      -6.137948      -167.0221
   6   2.0000      -6.112122      -166.3193
   7   2.0000      -4.244690      -115.5039
   8   2.0000      -4.244111      -115.4881
   9   2.0000      -4.243874      -115.4817
  10   2.0000      -4.218299      -114.7857
  11   2.0000      -4.218214      -114.7834
  12   2.0000      -4.218039      -114.7787
  13   2.0000      -1.401451       -38.1354
  14   2.0000      -1.213805       -33.0293
  15   2.0000      -0.848776       -23.0964
  16   2.0000      -0.766295       -20.8520
  17   2.0000      -0.730109       -19.8673
  18   2.0000      -0.689537       -18.7633
  19   2.0000      -0.630241       -17.1497
  20   2.0000      -0.590826       -16.0772
  21   2.0000      -0.558704       -15.2031
  22   2.0000      -0.500859       -13.6291
  23   2.0000      -0.479438       -13.0462
  24   2.0000      -0.473212       -12.8767
  25   2.0000      -0.447448       -12.1757
  26   2.0000      -0.434633       -11.8270
  27   2.0000      -0.392021       -10.6674
  28   0.0000       0.018052         0.4912
  29   0.0000       0.031217         0.8494
  30   0.0000       0.032659         0.8887
  31   0.0000       0.039150         1.0653
  32   0.0000       0.046434         1.2635

MULLIKEN ATOMIC CHARGES
-----------------------
   0 Si:    0.436694
   1 Si:    0.898739
   2 H :   -0.155900
   3 H :   -0.228054
   4 H :   -0.127634
   5 N :   -0.590885
   6 H :   -0.237546
   7 H :   -0.253738
   8 C :    0.255069
   9 O :   -0.757159
  10 H :    0.581864
  11 H :    0.178551
Sum of atomic charges:   -0.0000000

LOEWDIN ATOMIC CHARGES
----------------------
   0 Si:    1.022213
   1 Si:    0.557133
   2 H :   -0.299837
   3 H :   -0.323732
   4 H :   -0.303227
   5 N :    0.689717
   6 H :   -0.258904
   7 H :   -0.267627
   8 C :   -0.549771
   9 O :    0.667907
  10 H :   -0.349632
  11 H :   -0.584241

  Mayer bond orders larger than 0.100000
B(  0-Si,  1-Si) :   0.7889 B(  0-Si,  2-H ) :   0.7635 B(  0-Si,  3-H ) :   0.7351
B(  0-Si,  4-H ) :   0.7857 B(  1-Si,  5-N ) :   0.8239 B(  1-Si,  6-H ) :   0.8318
B(  1-Si,  7-H ) :   0.8604 B(  5-N ,  8-C ) :   1.2027 B(  5-N , 11-H ) :   1.0552
B(  8-C ,  9-O ) :   1.6824 B(  8-C , 10-H ) :   0.6378

MP2 TOTAL ENERGY:     -750.183389127 Eh
FINAL SINGLE POINT ENERGY      -750.183389127086

DIPOLE MOMENT
-------------
                                X             Y             Z
Electronic contribution:      2.77128      -0.59960       0.39003
Nuclear contribution   :     -2.10483       1.65369      -1.06072
                        -----------------------------------------
Total Dipole Moment    :      0.66645       1.05409      -0.67069
                        -----------------------------------------
Magnitude (a.u.)       :      1.41601
Magnitude (Debye)      :      3.59921

Rotational constants in cm-1:     0.144399     0.075483     0.054355
Rotational constants in MHz :  4328.987078  2262.935916  1629.532022

                             ****ORCA TERMINATED NORMALLY****
TOTAL RUN TIME: 0 days 0 hours 38 minutes 26 seconds 743 msec
