                         Program Version 5.0.4 -  RELEASE  -
|  1> ! ri-mp2 aug-cc-pvdz aug-cc-pvdz/c tightscf
|  2> %pal nprocs 16 end
|  3> %maxcore 3800
|  4> %base "DZ_S-F_87_AB"
|  5> %scf
|  6> STABPerform true
|  7> STABRestartUHFifUnstable true
|  8> end
|  9>
| 10> *xyz 0 1
| 11> S         0.650961   -0.566927    0.166063
| 12> F         1.366826    0.868366   -0.087141
| 13> O        -0.766682   -0.341658   -0.532376
| 14> C        -1.758984    0.384760    0.208685
| 15> H        -2.704401    0.211287   -0.298951
| 16> H        -1.521292    1.447385    0.198293
| 17> H        -1.803762    0.021571    1.234826
| 18> *
| 19>
| 20> $new_job
| 21> ! ri-mp2 aug-cc-pvtz aug-cc-pvtz/c tightscf
| 22> %pal nprocs 16 end
| 23> %maxcore 3800
| 24> %base "TZ_S-F_87_AB"
| 25>
| 26> *xyz 0 1
| 27> S         0.650961   -0.566927    0.166063
| 28> F         1.366826    0.868366   -0.087141
| 29> O        -0.766682   -0.341658   -0.532376
| 30> C        -1.758984    0.384760    0.208685
| 31> H        -2.704401    0.211287   -0.298951
| 32> H        -1.521292    1.447385    0.198293
| 33> H        -1.803762    0.021571    1.234826
| 34> *
| 35>
| 36> $new_job
| 37> ! ri-mp2 aug-cc-pvqz aug-cc-pvqz/c tightscf
| 38> %pal nprocs 16 end
| 39> %maxcore 3800
| 40> %base "QZ_S-F_87_AB"
| 41>
| 42> *xyz 0 1
| 43> S         0.650961   -0.566927    0.166063
| 44> F         1.366826    0.868366   -0.087141
| 45> O        -0.766682   -0.341658   -0.532376
| 46> C        -1.758984    0.384760    0.208685
| 47> H        -2.704401    0.211287   -0.298951
| 48> H        -1.521292    1.447385    0.198293
| 49> H        -1.803762    0.021571    1.234826
| 50> *
| 51>
| 52>
| 53>
| 54>
| 55>                          ****END OF INPUT****
 Total Charge           Charge          ....    0
 Multiplicity           Mult            ....    1
 Number of Electrons    NEL             ....   42
MP2 TOTAL ENERGY:     -612.103214642 Eh
FINAL SINGLE POINT ENERGY      -612.103214642007
MP2 TOTAL ENERGY:     -612.348906024 Eh
FINAL SINGLE POINT ENERGY      -612.348906024207

CARTESIAN COORDINATES (ANGSTROEM)
---------------------------------
  S      0.650961   -0.566927    0.166063
  F      1.366826    0.868366   -0.087141
  O     -0.766682   -0.341658   -0.532376
  C     -1.758984    0.384760    0.208685
  H     -2.704401    0.211287   -0.298951
  H     -1.521292    1.447385    0.198293
  H     -1.803762    0.021571    1.234826

 Multiplicity           Mult            ....    1
 Number of Electrons    NEL             ....   42
 Basis Dimension        Dim             ....  462

ORBITAL ENERGIES
----------------

  NO   OCC          E(Eh)            E(eV)
   0   2.0000     -92.071729     -2505.3991
   1   2.0000     -26.308569      -715.8926
   2   2.0000     -20.619908      -561.0962
   3   2.0000     -11.298046      -307.4355
   4   2.0000      -9.060322      -246.5439
   5   2.0000      -6.741705      -183.4511
   6   2.0000      -6.740071      -183.4067
   7   2.0000      -6.738028      -183.3511
   8   2.0000      -1.610884       -43.8344
   9   2.0000      -1.425238       -38.7827
  10   2.0000      -1.006029       -27.3755
  11   2.0000      -0.894435       -24.3388
  12   2.0000      -0.725742       -19.7484
  13   2.0000      -0.705171       -19.1887
  14   2.0000      -0.699298       -19.0289
  15   2.0000      -0.653208       -17.7747
  16   2.0000      -0.642072       -17.4717
  17   2.0000      -0.587438       -15.9850
  18   2.0000      -0.527198       -14.3458
  19   2.0000      -0.497815       -13.5462
  20   2.0000      -0.368395       -10.0245
  21   0.0000       0.025128         0.6838
  22   0.0000       0.040190         1.0936
  23   0.0000       0.041781         1.1369
  24   0.0000       0.053866         1.4658
  25   0.0000       0.068466         1.8631

MULLIKEN ATOMIC CHARGES
-----------------------
   0 S :    0.884350
   1 F :   -0.580440
   2 O :   -0.689572
   3 C :   -0.494007
   4 H :    0.321058
   5 H :    0.280030
   6 H :    0.278581
Sum of atomic charges:   -0.0000000

LOEWDIN ATOMIC CHARGES
----------------------
   0 S :    0.336780
   1 F :    0.046543
   2 O :    0.223540
   3 C :    0.434697
   4 H :   -0.340016
   5 H :   -0.336507
   6 H :   -0.365035

  Mayer bond orders larger than 0.100000
B(  0-S ,  1-F ) :   0.6202 B(  0-S ,  2-O ) :   0.9257 B(  2-O ,  3-C ) :   0.8183
B(  3-C ,  4-H ) :   0.8822 B(  3-C ,  5-H ) :   0.9061 B(  3-C ,  6-H ) :   0.9173

MP2 TOTAL ENERGY:     -612.428589578 Eh
FINAL SINGLE POINT ENERGY      -612.428589578496

DIPOLE MOMENT
-------------
                                X             Y             Z
Electronic contribution:      6.30288      -0.85214      -0.72317
Nuclear contribution   :     -7.12142       0.80209       1.15948
                        -----------------------------------------
Total Dipole Moment    :     -0.81854      -0.05005       0.43631
                        -----------------------------------------
Magnitude (a.u.)       :      0.92891
Magnitude (Debye)      :      2.36111

Rotational constants in cm-1:     0.444514     0.145446     0.121779
Rotational constants in MHz : 13326.196717  4360.370625  3650.830269

                             ****ORCA TERMINATED NORMALLY****
TOTAL RUN TIME: 0 days 0 hours 8 minutes 44 seconds 450 msec
