                         Program Version 5.0.4 -  RELEASE  -
|  1> ! ri-mp2 aug-cc-pvdz aug-cc-pvdz/c tightscf
|  2> %pal nprocs 16 end
|  3> %maxcore 3800
|  4> %base "DZ_P-N_6_AB"
|  5> %scf
|  6> STABPerform true
|  7> STABRestartUHFifUnstable true
|  8> end
|  9>
| 10> *xyz 0 1
| 11> C         1.376178    0.222815   -0.241618
| 12> N        -1.365878   -0.174696    0.230612
| 13> C        -1.481802    1.020644    1.042560
| 14> H        -2.523953    1.158795    1.339930
| 15> H        -1.149233    1.916351    0.509711
| 16> H        -0.885186    0.916596    1.947836
| 17> O         1.100591    1.232143   -0.841759
| 18> C         2.784761   -0.099911    0.185793
| 19> C        -2.296450   -0.228602   -0.880791
| 20> H        -2.175111   -1.164685   -1.422974
| 21> H        -2.146923    0.598385   -1.583463
| 22> H        -3.322952   -0.179327   -0.508405
| 23> H         2.963739   -1.175584    0.211160
| 24> H         2.938371    0.286833    1.195541
| 25> H         3.493120    0.384796   -0.483193
| 26> P         0.058010   -1.046931    0.119226
| 27> H         0.398266   -1.162140    1.489593
| 28> *
| 29>
| 30> $new_job
| 31> ! ri-mp2 aug-cc-pvtz aug-cc-pvtz/c tightscf
| 32> %pal nprocs 16 end
| 33> %maxcore 3800
| 34> %base "TZ_P-N_6_AB"
| 35>
| 36> *xyz 0 1
| 37> C         1.376178    0.222815   -0.241618
| 38> N        -1.365878   -0.174696    0.230612
| 39> C        -1.481802    1.020644    1.042560
| 40> H        -2.523953    1.158795    1.339930
| 41> H        -1.149233    1.916351    0.509711
| 42> H        -0.885186    0.916596    1.947836
| 43> O         1.100591    1.232143   -0.841759
| 44> C         2.784761   -0.099911    0.185793
| 45> C        -2.296450   -0.228602   -0.880791
| 46> H        -2.175111   -1.164685   -1.422974
| 47> H        -2.146923    0.598385   -1.583463
| 48> H        -3.322952   -0.179327   -0.508405
| 49> H         2.963739   -1.175584    0.211160
| 50> H         2.938371    0.286833    1.195541
| 51> H         3.493120    0.384796   -0.483193
| 52> P         0.058010   -1.046931    0.119226
| 53> H         0.398266   -1.162140    1.489593
| 54> *
| 55>
| 56> $new_job
| 57> ! ri-mp2 aug-cc-pvqz aug-cc-pvqz/c tightscf
| 58> %pal nprocs 16 end
| 59> %maxcore 3800
| 60> %base "QZ_P-N_6_AB"
| 61>
| 62> *xyz 0 1
| 63> C         1.376178    0.222815   -0.241618
| 64> N        -1.365878   -0.174696    0.230612
| 65> C        -1.481802    1.020644    1.042560
| 66> H        -2.523953    1.158795    1.339930
| 67> H        -1.149233    1.916351    0.509711
| 68> H        -0.885186    0.916596    1.947836
| 69> O         1.100591    1.232143   -0.841759
| 70> C         2.784761   -0.099911    0.185793
| 71> C        -2.296450   -0.228602   -0.880791
| 72> H        -2.175111   -1.164685   -1.422974
| 73> H        -2.146923    0.598385   -1.583463
| 74> H        -3.322952   -0.179327   -0.508405
| 75> H         2.963739   -1.175584    0.211160
| 76> H         2.938371    0.286833    1.195541
| 77> H         3.493120    0.384796   -0.483193
| 78> P         0.058010   -1.046931    0.119226
| 79> H         0.398266   -1.162140    1.489593
| 80> *
| 81>
| 82>
| 83>
| 84>
| 85>                          ****END OF INPUT****
 Total Charge           Charge          ....    0
 Multiplicity           Mult            ....    1
 Number of Electrons    NEL             ....   64
MP2 TOTAL ENERGY:     -628.440842022 Eh
FINAL SINGLE POINT ENERGY      -628.440842021842
MP2 TOTAL ENERGY:     -628.749481955 Eh
FINAL SINGLE POINT ENERGY      -628.749481954856

CARTESIAN COORDINATES (ANGSTROEM)
---------------------------------
  C      1.376178    0.222815   -0.241618
  N     -1.365878   -0.174696    0.230612
  C     -1.481802    1.020644    1.042560
  H     -2.523953    1.158795    1.339930
  H     -1.149233    1.916351    0.509711
  H     -0.885186    0.916596    1.947836
  O      1.100591    1.232143   -0.841759
  C      2.784761   -0.099911    0.185793
  C     -2.296450   -0.228602   -0.880791
  H     -2.175111   -1.164685   -1.422974
  H     -2.146923    0.598385   -1.583463
  H     -3.322952   -0.179327   -0.508405
  H      2.963739   -1.175584    0.211160
  H      2.938371    0.286833    1.195541
  H      3.493120    0.384796   -0.483193
  P      0.058010   -1.046931    0.119226
  H      0.398266   -1.162140    1.489593

 Multiplicity           Mult            ....    1
 Number of Electrons    NEL             ....   64
 Basis Dimension        Dim             .... 1024

ORBITAL ENERGIES
----------------

  NO   OCC          E(Eh)            E(eV)
   0   2.0000     -79.961220     -2175.8554
   1   2.0000     -20.548580      -559.1553
   2   2.0000     -15.557386      -423.3380
   3   2.0000     -11.325158      -308.1732
   4   2.0000     -11.250666      -306.1462
   5   2.0000     -11.249392      -306.1115
   6   2.0000     -11.235486      -305.7331
   7   2.0000      -7.501033      -204.1135
   8   2.0000      -5.395174      -146.8102
   9   2.0000      -5.394834      -146.8009
  10   2.0000      -5.394390      -146.7888
  11   2.0000      -1.392300       -37.8864
  12   2.0000      -1.223294       -33.2875
  13   2.0000      -1.018772       -27.7222
  14   2.0000      -0.962635       -26.1946
  15   2.0000      -0.917975       -24.9794
  16   2.0000      -0.815715       -22.1967
  17   2.0000      -0.724414       -19.7123
  18   2.0000      -0.659178       -17.9372
  19   2.0000      -0.644788       -17.5456
  20   2.0000      -0.622795       -16.9471
  21   2.0000      -0.619090       -16.8463
  22   2.0000      -0.603742       -16.4287
  23   2.0000      -0.590384       -16.0652
  24   2.0000      -0.551046       -14.9947
  25   2.0000      -0.546457       -14.8698
  26   2.0000      -0.523133       -14.2352
  27   2.0000      -0.516821       -14.0634
  28   2.0000      -0.503515       -13.7013
  29   2.0000      -0.429186       -11.6787
  30   2.0000      -0.377103       -10.2615
  31   2.0000      -0.342457        -9.3187
  32   0.0000       0.023646         0.6434
  33   0.0000       0.029909         0.8139
  34   0.0000       0.034941         0.9508
  35   0.0000       0.039405         1.0723
  36   0.0000       0.044930         1.2226

MULLIKEN ATOMIC CHARGES
-----------------------
   0 C :    0.504122
   1 N :   -0.405401
   2 C :   -0.896706
   3 H :    0.317940
   4 H :    0.330512
   5 H :    0.303899
   6 O :   -0.847770
   7 C :   -0.844158
   8 C :   -0.893450
   9 H :    0.335363
  10 H :    0.318610
  11 H :    0.314973
  12 H :    0.228615
  13 H :    0.293814
  14 H :    0.316961
  15 P :    0.806892
  16 H :   -0.184215
Sum of atomic charges:   -0.0000000

LOEWDIN ATOMIC CHARGES
----------------------
   0 C :   -0.833534
   1 N :    0.169973
   2 C :    0.664663
   3 H :   -0.295056
   4 H :   -0.299127
   5 H :   -0.317507
   6 O :    0.651703
   7 C :    0.805395
   8 C :    0.655321
   9 H :   -0.337397
  10 H :   -0.280906
  11 H :   -0.296603
  12 H :   -0.325877
  13 H :   -0.304404
  14 H :   -0.318427
  15 P :    1.070273
  16 H :   -0.408489

  Mayer bond orders larger than 0.100000
B(  0-C ,  6-O ) :   1.2752 B(  0-C ,  7-C ) :   0.8683 B(  0-C , 15-P ) :   0.7030
B(  1-N ,  2-C ) :   0.8154 B(  1-N ,  8-C ) :   0.9094 B(  1-N , 15-P ) :   0.6883
B(  2-C ,  3-H ) :   0.9344 B(  2-C ,  4-H ) :   0.9007 B(  2-C ,  5-H ) :   0.9485
B(  7-C , 12-H ) :   1.0275 B(  7-C , 13-H ) :   0.8667 B(  7-C , 14-H ) :   0.9421
B(  8-C ,  9-H ) :   0.9214 B(  8-C , 10-H ) :   0.9087 B(  8-C , 11-H ) :   0.9244
B( 15-P , 16-H ) :   0.9995

MP2 TOTAL ENERGY:     -628.846625746 Eh
FINAL SINGLE POINT ENERGY      -628.846625746069

DIPOLE MOMENT
-------------
                                X             Y             Z
Electronic contribution:      2.50486      -2.96747      -1.92678
Nuclear contribution   :     -2.47830       2.61930       2.59385
                        -----------------------------------------
Total Dipole Moment    :      0.02656      -0.34817       0.66707
                        -----------------------------------------
Magnitude (a.u.)       :      0.75294
Magnitude (Debye)      :      1.91381

Rotational constants in cm-1:     0.126284     0.046732     0.042803
Rotational constants in MHz :  3785.904328  1400.982778  1283.211988

                             ****ORCA TERMINATED NORMALLY****
TOTAL RUN TIME: 0 days 2 hours 12 minutes 57 seconds 0 msec
