                         Program Version 5.0.4 -  RELEASE  -
|  1> ! ri-mp2 aug-cc-pvdz aug-cc-pvdz/c tightscf
|  2> %pal nprocs 16 end
|  3> %maxcore 3800
|  4> %base "DZ_Si-Cl_39_AB"
|  5> %scf
|  6> STABPerform true
|  7> STABRestartUHFifUnstable true
|  8> end
|  9>
| 10> *xyz 0 1
| 11> Si        -0.947122    1.076296    0.000000
| 12> C         0.601783   -0.031812    0.000000
| 13> Cl        -2.616723   -0.092855    0.000001
| 14> Cl         1.990242    1.086853   -0.000001
| 15> Cl         0.650305   -1.045215   -1.451640
| 16> Cl         0.650306   -1.045214    1.451641
| 17> H        -0.905607    1.881032   -1.227095
| 18> H        -0.905606    1.881034    1.227094
| 19> *
| 20>
| 21> $new_job
| 22> ! ri-mp2 aug-cc-pvtz aug-cc-pvtz/c tightscf
| 23> %pal nprocs 16 end
| 24> %maxcore 3800
| 25> %base "TZ_Si-Cl_39_AB"
| 26>
| 27> *xyz 0 1
| 28> Si        -0.947122    1.076296    0.000000
| 29> C         0.601783   -0.031812    0.000000
| 30> Cl        -2.616723   -0.092855    0.000001
| 31> Cl         1.990242    1.086853   -0.000001
| 32> Cl         0.650305   -1.045215   -1.451640
| 33> Cl         0.650306   -1.045214    1.451641
| 34> H        -0.905607    1.881032   -1.227095
| 35> H        -0.905606    1.881034    1.227094
| 36> *
| 37>
| 38> $new_job
| 39> ! ri-mp2 aug-cc-pvqz aug-cc-pvqz/c tightscf
| 40> %pal nprocs 16 end
| 41> %maxcore 3800
| 42> %base "QZ_Si-Cl_39_AB"
| 43>
| 44> *xyz 0 1
| 45> Si        -0.947122    1.076296    0.000000
| 46> C         0.601783   -0.031812    0.000000
| 47> Cl        -2.616723   -0.092855    0.000001
| 48> Cl         1.990242    1.086853   -0.000001
| 49> Cl         0.650305   -1.045215   -1.451640
| 50> Cl         0.650306   -1.045214    1.451641
| 51> H        -0.905607    1.881032   -1.227095
| 52> H        -0.905606    1.881034    1.227094
| 53> *
| 54>
| 55>
| 56>
| 57>
| 58>                          ****END OF INPUT****
 Total Charge           Charge          ....    0
 Multiplicity           Mult            ....    1
 Number of Electrons    NEL             ....   90
MP2 TOTAL ENERGY:    -2166.859936919 Eh
FINAL SINGLE POINT ENERGY     -2166.859936919356
MP2 TOTAL ENERGY:    -2167.173487652 Eh
FINAL SINGLE POINT ENERGY     -2167.173487652364

CARTESIAN COORDINATES (ANGSTROEM)
---------------------------------
  Si    -0.947122    1.076296    0.000000
  C      0.601783   -0.031812    0.000000
  Cl    -2.616723   -0.092855    0.000001
  Cl     1.990242    1.086853   -0.000001
  Cl     0.650305   -1.045215   -1.451640
  Cl     0.650306   -1.045214    1.451641
  H     -0.905607    1.881032   -1.227095
  H     -0.905606    1.881034    1.227094

 Multiplicity           Mult            ....    1
 Number of Electrons    NEL             ....   90
 Basis Dimension        Dim             ....  592

ORBITAL ENERGIES
----------------

  NO   OCC          E(Eh)            E(eV)
   0   2.0000    -104.869537     -2853.6452
   1   2.0000    -104.867113     -2853.5792
   2   2.0000    -104.867113     -2853.5792
   3   2.0000    -104.845073     -2852.9795
   4   2.0000     -68.845059     -1873.3693
   5   2.0000     -11.421812      -310.8033
   6   2.0000     -10.595166      -288.3091
   7   2.0000     -10.592759      -288.2436
   8   2.0000     -10.592750      -288.2434
   9   2.0000     -10.572591      -287.6948
  10   2.0000      -8.062109      -219.3811
  11   2.0000      -8.060201      -219.3292
  12   2.0000      -8.060183      -219.3287
  13   2.0000      -8.059737      -219.3166
  14   2.0000      -8.059735      -219.3165
  15   2.0000      -8.057791      -219.2636
  16   2.0000      -8.057790      -219.2636
  17   2.0000      -8.057745      -219.2624
  18   2.0000      -8.057744      -219.2624
  19   2.0000      -8.039397      -218.7631
  20   2.0000      -8.038241      -218.7317
  21   2.0000      -8.038194      -218.7304
  22   2.0000      -6.190234      -168.4448
  23   2.0000      -4.297100      -116.9300
  24   2.0000      -4.296190      -116.9053
  25   2.0000      -4.295896      -116.8973
  26   2.0000      -1.241433       -33.7811
  27   2.0000      -1.120061       -30.4784
  28   2.0000      -1.117071       -30.3971
  29   2.0000      -1.114737       -30.3335
  30   2.0000      -0.864327       -23.5195
  31   2.0000      -0.734900       -19.9977
  32   2.0000      -0.633607       -17.2413
  33   2.0000      -0.632045       -17.1988
  34   2.0000      -0.614225       -16.7139
  35   2.0000      -0.551629       -15.0106
  36   2.0000      -0.548625       -14.9288
  37   2.0000      -0.508765       -13.8442
  38   2.0000      -0.508237       -13.8298
  39   2.0000      -0.490133       -13.3372
  40   2.0000      -0.471567       -12.8320
  41   2.0000      -0.467172       -12.7124
  42   2.0000      -0.465763       -12.6741
  43   2.0000      -0.454362       -12.3638
  44   2.0000      -0.432380       -11.7657
  45   0.0000       0.027060         0.7363
  46   0.0000       0.038109         1.0370
  47   0.0000       0.038421         1.0455
  48   0.0000       0.042345         1.1523
  49   0.0000       0.060927         1.6579

MULLIKEN ATOMIC CHARGES
-----------------------
   0 Si:    1.343209
   1 C :    0.303988
   2 Cl:   -0.584473
   3 Cl:   -0.226454
   4 Cl:   -0.222438
   5 Cl:   -0.222439
   6 H :   -0.195697
   7 H :   -0.195697
Sum of atomic charges:    0.0000000

LOEWDIN ATOMIC CHARGES
----------------------
   0 Si:   -0.581132
   1 C :   -2.628866
   2 Cl:    0.911924
   3 Cl:    0.970066
   4 Cl:    0.964976
   5 Cl:    0.964976
   6 H :   -0.300973
   7 H :   -0.300973

  Mayer bond orders larger than 0.100000
B(  0-Si,  1-C ) :   0.5685 B(  0-Si,  2-Cl) :   0.5173 B(  0-Si,  6-H ) :   0.8916
B(  0-Si,  7-H ) :   0.8916 B(  1-C ,  3-Cl) :   0.8061 B(  1-C ,  4-Cl) :   0.7716
B(  1-C ,  5-Cl) :   0.7716

MP2 TOTAL ENERGY:    -2167.279710868 Eh
FINAL SINGLE POINT ENERGY     -2167.279710868120

DIPOLE MOMENT
-------------
                                X             Y             Z
Electronic contribution:      2.40560      -4.32026       0.00000
Nuclear contribution   :     -2.49798       4.83883      -0.00000
                        -----------------------------------------
Total Dipole Moment    :     -0.09239       0.51858      -0.00000
                        -----------------------------------------
Magnitude (a.u.)       :      0.52674
Magnitude (Debye)      :      1.33887

Rotational constants in cm-1:     0.054109     0.028244     0.027933
Rotational constants in MHz :  1622.154700   846.720178   837.401126

                             ****ORCA TERMINATED NORMALLY****
TOTAL RUN TIME: 0 days 0 hours 24 minutes 8 seconds 132 msec
