                         Program Version 5.0.4 -  RELEASE  -
|  1> ! ri-mp2 aug-cc-pvdz aug-cc-pvdz/c tightscf
|  2> %pal nprocs 16 end
|  3> %maxcore 3800
|  4> %base "DZ_P-S_21_AB"
|  5> %scf
|  6> STABPerform true
|  7> STABRestartUHFifUnstable true
|  8> end
|  9>
| 10> *xyz 0 1
| 11> C         2.697840   -0.633376    0.206080
| 12> C         1.355374    0.009139   -0.010924
| 13> S         0.031335   -1.173435   -0.163136
| 14> O         1.206974    1.206651   -0.080037
| 15> P        -1.698661    0.057636   -0.057616
| 16> O        -2.841997   -0.694813   -0.542569
| 17> C         3.859463    0.316287   -0.018081
| 18> H         2.762864   -1.515395   -0.434415
| 19> H         2.691453   -1.014557    1.231577
| 20> H         3.873732    0.683368   -1.043447
| 21> H         4.801478   -0.194608    0.175394
| 22> H         3.792127    1.179015    0.641382
| 23> O        -1.781274    0.503859    1.465789
| 24> H        -2.334284   -0.085856    1.992259
| 25> O        -1.298981    1.369955   -0.789378
| 26> H        -0.362653    1.620937   -0.581219
| 27> *
| 28>
| 29> $new_job
| 30> ! ri-mp2 aug-cc-pvtz aug-cc-pvtz/c tightscf
| 31> %pal nprocs 16 end
| 32> %maxcore 3800
| 33> %base "TZ_P-S_21_AB"
| 34>
| 35> *xyz 0 1
| 36> C         2.697840   -0.633376    0.206080
| 37> C         1.355374    0.009139   -0.010924
| 38> S         0.031335   -1.173435   -0.163136
| 39> O         1.206974    1.206651   -0.080037
| 40> P        -1.698661    0.057636   -0.057616
| 41> O        -2.841997   -0.694813   -0.542569
| 42> C         3.859463    0.316287   -0.018081
| 43> H         2.762864   -1.515395   -0.434415
| 44> H         2.691453   -1.014557    1.231577
| 45> H         3.873732    0.683368   -1.043447
| 46> H         4.801478   -0.194608    0.175394
| 47> H         3.792127    1.179015    0.641382
| 48> O        -1.781274    0.503859    1.465789
| 49> H        -2.334284   -0.085856    1.992259
| 50> O        -1.298981    1.369955   -0.789378
| 51> H        -0.362653    1.620937   -0.581219
| 52> *
| 53>
| 54> $new_job
| 55> ! ri-mp2 aug-cc-pvqz aug-cc-pvqz/c tightscf
| 56> %pal nprocs 16 end
| 57> %maxcore 3800
| 58> %base "QZ_P-S_21_AB"
| 59>
| 60> *xyz 0 1
| 61> C         2.697840   -0.633376    0.206080
| 62> C         1.355374    0.009139   -0.010924
| 63> S         0.031335   -1.173435   -0.163136
| 64> O         1.206974    1.206651   -0.080037
| 65> P        -1.698661    0.057636   -0.057616
| 66> O        -2.841997   -0.694813   -0.542569
| 67> C         3.859463    0.316287   -0.018081
| 68> H         2.762864   -1.515395   -0.434415
| 69> H         2.691453   -1.014557    1.231577
| 70> H         3.873732    0.683368   -1.043447
| 71> H         4.801478   -0.194608    0.175394
| 72> H         3.792127    1.179015    0.641382
| 73> O        -1.781274    0.503859    1.465789
| 74> H        -2.334284   -0.085856    1.992259
| 75> O        -1.298981    1.369955   -0.789378
| 76> H        -0.362653    1.620937   -0.581219
| 77> *
| 78>
| 79>
| 80>
| 81>
| 82>                          ****END OF INPUT****
 Total Charge           Charge          ....    0
 Multiplicity           Mult            ....    1
 Number of Electrons    NEL             ....   88
MP2 TOTAL ENERGY:    -1157.042497632 Eh
FINAL SINGLE POINT ENERGY     -1157.042497632346
MP2 TOTAL ENERGY:    -1157.534038608 Eh
FINAL SINGLE POINT ENERGY     -1157.534038607500

CARTESIAN COORDINATES (ANGSTROEM)
---------------------------------
  C      2.697840   -0.633376    0.206080
  C      1.355374    0.009139   -0.010924
  S      0.031335   -1.173435   -0.163136
  O      1.206974    1.206651   -0.080037
  P     -1.698661    0.057636   -0.057616
  O     -2.841997   -0.694813   -0.542569
  C      3.859463    0.316287   -0.018081
  H      2.762864   -1.515395   -0.434415
  H      2.691453   -1.014557    1.231577
  H      3.873732    0.683368   -1.043447
  H      4.801478   -0.194608    0.175394
  H      3.792127    1.179015    0.641382
  O     -1.781274    0.503859    1.465789
  H     -2.334284   -0.085856    1.992259
  O     -1.298981    1.369955   -0.789378
  H     -0.362653    1.620937   -0.581219

 Multiplicity           Mult            ....    1
 Number of Electrons    NEL             ....   88
 Basis Dimension        Dim             .... 1050

ORBITAL ENERGIES
----------------

  NO   OCC          E(Eh)            E(eV)
   0   2.0000     -91.993364     -2503.2667
   1   2.0000     -80.097827     -2179.5727
   2   2.0000     -20.612293      -560.8890
   3   2.0000     -20.597471      -560.4857
   4   2.0000     -20.597034      -560.4738
   5   2.0000     -20.519832      -558.3730
   6   2.0000     -11.402059      -310.2658
   7   2.0000     -11.271702      -306.7186
   8   2.0000     -11.240829      -305.8785
   9   2.0000      -8.998044      -244.8492
  10   2.0000      -7.618052      -207.2977
  11   2.0000      -6.679303      -181.7531
  12   2.0000      -6.678274      -181.7251
  13   2.0000      -6.677652      -181.7082
  14   2.0000      -5.516532      -150.1125
  15   2.0000      -5.516039      -150.0991
  16   2.0000      -5.515025      -150.0715
  17   2.0000      -1.459272       -39.7088
  18   2.0000      -1.443409       -39.2771
  19   2.0000      -1.392661       -37.8962
  20   2.0000      -1.315665       -35.8011
  21   2.0000      -1.104932       -30.0667
  22   2.0000      -1.039421       -28.2841
  23   2.0000      -0.917715       -24.9723
  24   2.0000      -0.847786       -23.0694
  25   2.0000      -0.793951       -21.6045
  26   2.0000      -0.756044       -20.5730
  27   2.0000      -0.700279       -19.0556
  28   2.0000      -0.690642       -18.7933
  29   2.0000      -0.669749       -18.2248
  30   2.0000      -0.659053       -17.9338
  31   2.0000      -0.645645       -17.5689
  32   2.0000      -0.602441       -16.3933
  33   2.0000      -0.591394       -16.0927
  34   2.0000      -0.583051       -15.8656
  35   2.0000      -0.565499       -15.3880
  36   2.0000      -0.554424       -15.0866
  37   2.0000      -0.545343       -14.8395
  38   2.0000      -0.525172       -14.2907
  39   2.0000      -0.509995       -13.8777
  40   2.0000      -0.485257       -13.2045
  41   2.0000      -0.458466       -12.4755
  42   2.0000      -0.447832       -12.1861
  43   2.0000      -0.415425       -11.3043
  44   0.0000       0.017420         0.4740
  45   0.0000       0.026596         0.7237
  46   0.0000       0.032073         0.8728
  47   0.0000       0.033413         0.9092
  48   0.0000       0.043702         1.1892

MULLIKEN ATOMIC CHARGES
-----------------------
   0 C :   -0.277649
   1 C :    0.406130
   2 S :   -0.002029
   3 O :   -0.720941
   4 P :    2.313087
   5 O :   -1.178581
   6 C :   -0.833510
   7 H :    0.271110
   8 H :    0.304149
   9 H :    0.224809
  10 H :    0.336396
  11 H :    0.226407
  12 O :   -0.863087
  13 H :    0.383781
  14 O :   -0.948843
  15 H :    0.358771
Sum of atomic charges:    0.0000000

LOEWDIN ATOMIC CHARGES
----------------------
   0 C :    0.362755
   1 C :   -1.043655
   2 S :    1.216662
   3 O :    0.808719
   4 P :   -1.040349
   5 O :    0.235222
   6 C :    0.905064
   7 H :   -0.324094
   8 H :   -0.296670
   9 H :   -0.282052
  10 H :   -0.280067
  11 H :   -0.293004
  12 O :    1.061548
  13 H :   -0.871077
  14 O :    1.053801
  15 H :   -1.212803

  Mayer bond orders larger than 0.100000
B(  0-C ,  1-C ) :   0.6983 B(  0-C ,  6-C ) :   0.9848 B(  0-C ,  7-H ) :   0.9006
B(  0-C ,  8-H ) :   0.8485 B(  1-C ,  2-S ) :   0.9754 B(  1-C ,  3-O ) :   1.4089
B(  1-C ,  6-C ) :  -0.1043 B(  2-S ,  4-P ) :   0.8940 B(  2-S ,  5-O ) :  -0.1164
B(  3-O , 15-H ) :   0.1521 B(  4-P ,  5-O ) :   1.3982 B(  4-P , 12-O ) :   0.6909
B(  4-P , 14-O ) :   0.7140 B(  5-O , 14-O ) :  -0.1261 B(  6-C ,  9-H ) :   0.9610
B(  6-C , 10-H ) :   0.9376 B(  6-C , 11-H ) :   0.9506 B( 12-O , 13-H ) :   0.9029
B( 14-O , 15-H ) :   0.7985

MP2 TOTAL ENERGY:    -1157.693547506 Eh
FINAL SINGLE POINT ENERGY     -1157.693547505674

DIPOLE MOMENT
-------------
                                X             Y             Z
Electronic contribution:    -14.32467      -1.12495      -0.96130
Nuclear contribution   :     16.28929       0.67211       1.98408
                        -----------------------------------------
Total Dipole Moment    :      1.96463      -0.45284       1.02278
                        -----------------------------------------
Magnitude (a.u.)       :      2.26073
Magnitude (Debye)      :      5.74632

Rotational constants in cm-1:     0.092889     0.022839     0.020986
Rotational constants in MHz :  2784.732260   684.699755   629.139590

                             ****ORCA TERMINATED NORMALLY****
TOTAL RUN TIME: 0 days 2 hours 23 minutes 33 seconds 616 msec
