                         Program Version 5.0.4 -  RELEASE  -
|  1> ! ri-mp2 aug-cc-pvdz aug-cc-pvdz/c tightscf
|  2> %pal nprocs 16 end
|  3> %maxcore 3800
|  4> %base "DZ_B-S_21_AB"
|  5>
|  6> *xyz 0 1
|  7> C        -0.086613   -0.359932    0.043497
|  8> C         0.739880    0.745672   -0.186082
|  9> C         2.124210    0.633339   -0.140215
| 10> H         2.743564    1.498738   -0.329832
| 11> C         2.677837   -0.590739    0.136585
| 12> C         1.901444   -1.710538    0.357866
| 13> H         2.377498   -2.658984    0.563994
| 14> C         0.526277   -1.586959    0.302699
| 15> H        -0.083924   -2.464477    0.472064
| 16> B        -1.649039   -0.299181    0.069767
| 17> S        -2.567569    0.538670    1.364586
| 18> S        -2.521626   -1.179530   -1.224738
| 19> C         0.161541    2.066108   -0.532346
| 20> H        -0.935674    2.087762   -0.659596
| 21> O         0.812005    3.065443   -0.683250
| 22> F         4.011694   -0.711481    0.185127
| 23> H        -1.517906    0.969093    2.077223
| 24> H        -3.779985   -0.984395   -0.802414
| 25> *
| 26>
| 27> $new_job
| 28> ! ri-mp2 aug-cc-pvtz aug-cc-pvtz/c tightscf
| 29> %pal nprocs 16 end
| 30> %maxcore 3800
| 31> %base "TZ_B-S_21_AB"
| 32>
| 33> *xyz 0 1
| 34> C        -0.086613   -0.359932    0.043497
| 35> C         0.739880    0.745672   -0.186082
| 36> C         2.124210    0.633339   -0.140215
| 37> H         2.743564    1.498738   -0.329832
| 38> C         2.677837   -0.590739    0.136585
| 39> C         1.901444   -1.710538    0.357866
| 40> H         2.377498   -2.658984    0.563994
| 41> C         0.526277   -1.586959    0.302699
| 42> H        -0.083924   -2.464477    0.472064
| 43> B        -1.649039   -0.299181    0.069767
| 44> S        -2.567569    0.538670    1.364586
| 45> S        -2.521626   -1.179530   -1.224738
| 46> C         0.161541    2.066108   -0.532346
| 47> H        -0.935674    2.087762   -0.659596
| 48> O         0.812005    3.065443   -0.683250
| 49> F         4.011694   -0.711481    0.185127
| 50> H        -1.517906    0.969093    2.077223
| 51> H        -3.779985   -0.984395   -0.802414
| 52> *
| 53>
| 54> $new_job
| 55> ! ri-mp2 aug-cc-pvqz aug-cc-pvqz/c tightscf
| 56> %pal nprocs 16 end
| 57> %maxcore 3800
| 58> %base "QZ_B-S_21_AB"
| 59>
| 60> *xyz 0 1
| 61> C        -0.086613   -0.359932    0.043497
| 62> C         0.739880    0.745672   -0.186082
| 63> C         2.124210    0.633339   -0.140215
| 64> H         2.743564    1.498738   -0.329832
| 65> C         2.677837   -0.590739    0.136585
| 66> C         1.901444   -1.710538    0.357866
| 67> H         2.377498   -2.658984    0.563994
| 68> C         0.526277   -1.586959    0.302699
| 69> H        -0.083924   -2.464477    0.472064
| 70> B        -1.649039   -0.299181    0.069767
| 71> S        -2.567569    0.538670    1.364586
| 72> S        -2.521626   -1.179530   -1.224738
| 73> C         0.161541    2.066108   -0.532346
| 74> H        -0.935674    2.087762   -0.659596
| 75> O         0.812005    3.065443   -0.683250
| 76> F         4.011694   -0.711481    0.185127
| 77> H        -1.517906    0.969093    2.077223
| 78> H        -3.779985   -0.984395   -0.802414
| 79> *
| 80>
| 81>
| 82>
| 83>
| 84>                          ****END OF INPUT****
 Total Charge           Charge          ....    0
 Multiplicity           Mult            ....    1
 Number of Electrons    NEL             ....  102
MP2 TOTAL ENERGY:    -1264.435945216 Eh
FINAL SINGLE POINT ENERGY     -1264.435945216274
MP2 TOTAL ENERGY:    -1264.928569861 Eh
FINAL SINGLE POINT ENERGY     -1264.928569860965

CARTESIAN COORDINATES (ANGSTROEM)
---------------------------------
  C     -0.086613   -0.359932    0.043497
  C      0.739880    0.745672   -0.186082
  C      2.124210    0.633339   -0.140215
  H      2.743564    1.498738   -0.329832
  C      2.677837   -0.590739    0.136585
  C      1.901444   -1.710538    0.357866
  H      2.377498   -2.658984    0.563994
  C      0.526277   -1.586959    0.302699
  H     -0.083924   -2.464477    0.472064
  B     -1.649039   -0.299181    0.069767
  S     -2.567569    0.538670    1.364586
  S     -2.521626   -1.179530   -1.224738
  C      0.161541    2.066108   -0.532346
  H     -0.935674    2.087762   -0.659596
  O      0.812005    3.065443   -0.683250
  F      4.011694   -0.711481    0.185127
  H     -1.517906    0.969093    2.077223
  H     -3.779985   -0.984395   -0.802414

 Multiplicity           Mult            ....    1
 Number of Electrons    NEL             ....  102
 Basis Dimension        Dim             .... 1244

ORBITAL ENERGIES
----------------

  NO   OCC          E(Eh)            E(eV)
   0   2.0000     -91.974535     -2502.7543
   1   2.0000     -91.973457     -2502.7250
   2   2.0000     -26.320589      -716.2196
   3   2.0000     -20.565253      -559.6090
   4   2.0000     -11.343777      -308.6799
   5   2.0000     -11.342610      -308.6481
   6   2.0000     -11.270447      -306.6845
   7   2.0000     -11.268160      -306.6222
   8   2.0000     -11.265550      -306.5512
   9   2.0000     -11.260607      -306.4167
  10   2.0000     -11.256468      -306.3041
  11   2.0000      -8.979723      -244.3507
  12   2.0000      -8.978525      -244.3181
  13   2.0000      -7.672716      -208.7852
  14   2.0000      -6.661225      -181.2612
  15   2.0000      -6.660290      -181.2357
  16   2.0000      -6.660033      -181.2287
  17   2.0000      -6.659855      -181.2239
  18   2.0000      -6.659024      -181.2013
  19   2.0000      -6.658600      -181.1897
  20   2.0000      -1.642762       -44.7018
  21   2.0000      -1.409036       -38.3418
  22   2.0000      -1.194036       -32.4914
  23   2.0000      -1.071438       -29.1553
  24   2.0000      -1.060452       -28.8564
  25   2.0000      -1.021108       -27.7858
  26   2.0000      -0.981173       -26.6991
  27   2.0000      -0.919772       -25.0283
  28   2.0000      -0.868460       -23.6320
  29   2.0000      -0.822444       -22.3798
  30   2.0000      -0.762003       -20.7351
  31   2.0000      -0.723358       -19.6836
  32   2.0000      -0.718873       -19.5615
  33   2.0000      -0.709962       -19.3191
  34   2.0000      -0.673823       -18.3357
  35   2.0000      -0.651653       -17.7324
  36   2.0000      -0.638370       -17.3709
  37   2.0000      -0.626341       -17.0436
  38   2.0000      -0.611210       -16.6319
  39   2.0000      -0.598859       -16.2958
  40   2.0000      -0.573656       -15.6100
  41   2.0000      -0.549069       -14.9409
  42   2.0000      -0.536071       -14.5872
  43   2.0000      -0.512928       -13.9575
  44   2.0000      -0.479594       -13.0504
  45   2.0000      -0.471564       -12.8319
  46   2.0000      -0.457160       -12.4400
  47   2.0000      -0.431905       -11.7527
  48   2.0000      -0.388350       -10.5676
  49   2.0000      -0.371166       -10.0999
  50   2.0000      -0.357786        -9.7358
  51   0.0000       0.018010         0.4901
  52   0.0000       0.027201         0.7402
  53   0.0000       0.031987         0.8704
  54   0.0000       0.033150         0.9021
  55   0.0000       0.040831         1.1111

MULLIKEN ATOMIC CHARGES
-----------------------
   0 C :    0.527502
   1 C :   -0.310330
   2 C :   -0.452921
   3 H :    0.378882
   4 C :    1.052883
   5 C :   -0.436940
   6 H :    0.367539
   7 C :   -0.713621
   8 H :    0.180011
   9 B :    0.502282
  10 S :   -0.122980
  11 S :   -0.045406
  12 C :    0.466896
  13 H :    0.215741
  14 O :   -0.809470
  15 F :   -0.790540
  16 H :   -0.003275
  17 H :   -0.006252
Sum of atomic charges:    0.0000000

LOEWDIN ATOMIC CHARGES
----------------------
   0 C :   -0.148156
   1 C :   -0.168252
   2 C :    0.287202
   3 H :   -0.336289
   4 C :   -0.665991
   5 C :    0.332270
   6 H :   -0.316995
   7 C :    0.297884
   8 H :   -0.319784
   9 B :   -1.744503
  10 S :    1.732189
  11 S :    1.725287
  12 C :   -0.276485
  13 H :   -0.394733
  14 O :    0.739105
  15 F :    0.793174
  16 H :   -0.750919
  17 H :   -0.785003

  Mayer bond orders larger than 0.100000
B(  0-C ,  1-C ) :   0.8598 B(  0-C ,  2-C ) :  -0.1801 B(  0-C ,  5-C ) :  -0.2129
B(  0-C ,  7-C ) :   0.9998 B(  0-C ,  9-B ) :   0.8628 B(  0-C , 12-C ) :  -0.2095
B(  1-C ,  2-C ) :   1.2183 B(  1-C ,  4-C ) :  -0.2228 B(  1-C ,  5-C ) :   0.1002
B(  1-C , 12-C ) :   1.0881 B(  1-C , 13-H ) :  -0.1666 B(  1-C , 14-O ) :   0.3429
B(  2-C ,  3-H ) :   0.7393 B(  2-C ,  4-C ) :   1.5567 B(  2-C ,  5-C ) :   0.1125
B(  2-C ,  7-C ) :   0.1070 B(  2-C , 12-C ) :  -0.1768 B(  2-C , 15-F ) :   0.1408
B(  4-C ,  5-C ) :   1.3182 B(  4-C , 15-F ) :  -0.2132 B(  5-C ,  6-H ) :   0.8870
B(  5-C ,  7-C ) :   1.2118 B(  5-C , 15-F ) :   0.1296 B(  6-H ,  7-C ) :  -0.1245
B(  7-C ,  8-H ) :   1.0988 B(  9-B , 10-S ) :   0.9728 B(  9-B , 11-S ) :   1.0108
B( 10-S , 16-H ) :   1.0937 B( 11-S , 17-H ) :   1.0957 B( 12-C , 13-H ) :   1.1272
B( 12-C , 14-O ) :   1.0734

MP2 TOTAL ENERGY:    -1265.090165554 Eh
FINAL SINGLE POINT ENERGY     -1265.090165554351

DIPOLE MOMENT
-------------
                                X             Y             Z
Electronic contribution:      2.75914      -0.59074      -0.54333
Nuclear contribution   :     -3.50441      -0.51750       1.02202
                        -----------------------------------------
Total Dipole Moment    :     -0.74527      -1.10824       0.47869
                        -----------------------------------------
Magnitude (a.u.)       :      1.41872
Magnitude (Debye)      :      3.60610

Rotational constants in cm-1:     0.033745     0.015122     0.012428
Rotational constants in MHz :  1011.651660   453.348762   372.595658

                             ****ORCA TERMINATED NORMALLY****
TOTAL RUN TIME: 0 days 0 hours 59 minutes 0 seconds 375 msec
