                         Program Version 5.0.4 -  RELEASE  -
|  1> ! ri-mp2 aug-cc-pvdz aug-cc-pvdz/c tightscf
|  2> %pal nprocs 16 end
|  3> %maxcore 3800
|  4> %base "DZ_B-B_29_AB"
|  5>
|  6> *xyz 0 1
|  7> B        -2.327830   -0.466687   -0.437862
|  8> B        -3.198651    0.866157   -0.826478
|  9> C        -1.534807   -0.684654    0.904051
| 10> C        -0.131392   -0.310849    0.476782
| 11> C         0.725810   -1.261285   -0.068248
| 12> C         0.312406    1.003538    0.570531
| 13> C         1.998398   -0.913082   -0.483798
| 14> C         2.433395    0.397218   -0.372786
| 15> C         1.584831    1.355120    0.155421
| 16> H         0.390362   -2.286851   -0.159707
| 17> H         2.653841   -1.668893   -0.896140
| 18> H         3.428583    0.670197   -0.697137
| 19> H         1.914143    2.381933    0.244979
| 20> H        -0.346461    1.758609    0.981666
| 21> H        -1.554556   -1.721960    1.237489
| 22> H        -1.852401   -0.047534    1.728446
| 23> H        -2.720972    1.853443   -1.297862
| 24> H        -4.382715    0.887385   -0.656893
| 25> H        -2.229257   -1.339716   -1.254856
| 26> *
| 27>
| 28> $new_job
| 29> ! ri-mp2 aug-cc-pvtz aug-cc-pvtz/c tightscf
| 30> %pal nprocs 16 end
| 31> %maxcore 3800
| 32> %base "TZ_B-B_29_AB"
| 33>
| 34> *xyz 0 1
| 35> B        -2.327830   -0.466687   -0.437862
| 36> B        -3.198651    0.866157   -0.826478
| 37> C        -1.534807   -0.684654    0.904051
| 38> C        -0.131392   -0.310849    0.476782
| 39> C         0.725810   -1.261285   -0.068248
| 40> C         0.312406    1.003538    0.570531
| 41> C         1.998398   -0.913082   -0.483798
| 42> C         2.433395    0.397218   -0.372786
| 43> C         1.584831    1.355120    0.155421
| 44> H         0.390362   -2.286851   -0.159707
| 45> H         2.653841   -1.668893   -0.896140
| 46> H         3.428583    0.670197   -0.697137
| 47> H         1.914143    2.381933    0.244979
| 48> H        -0.346461    1.758609    0.981666
| 49> H        -1.554556   -1.721960    1.237489
| 50> H        -1.852401   -0.047534    1.728446
| 51> H        -2.720972    1.853443   -1.297862
| 52> H        -4.382715    0.887385   -0.656893
| 53> H        -2.229257   -1.339716   -1.254856
| 54> *
| 55>
| 56> $new_job
| 57> ! ri-mp2 aug-cc-pvqz aug-cc-pvqz/c tightscf
| 58> %pal nprocs 16 end
| 59> %maxcore 3800
| 60> %base "QZ_B-B_29_AB"
| 61>
| 62> *xyz 0 1
| 63> B        -2.327830   -0.466687   -0.437862
| 64> B        -3.198651    0.866157   -0.826478
| 65> C        -1.534807   -0.684654    0.904051
| 66> C        -0.131392   -0.310849    0.476782
| 67> C         0.725810   -1.261285   -0.068248
| 68> C         0.312406    1.003538    0.570531
| 69> C         1.998398   -0.913082   -0.483798
| 70> C         2.433395    0.397218   -0.372786
| 71> C         1.584831    1.355120    0.155421
| 72> H         0.390362   -2.286851   -0.159707
| 73> H         2.653841   -1.668893   -0.896140
| 74> H         3.428583    0.670197   -0.697137
| 75> H         1.914143    2.381933    0.244979
| 76> H        -0.346461    1.758609    0.981666
| 77> H        -1.554556   -1.721960    1.237489
| 78> H        -1.852401   -0.047534    1.728446
| 79> H        -2.720972    1.853443   -1.297862
| 80> H        -4.382715    0.887385   -0.656893
| 81> H        -2.229257   -1.339716   -1.254856
| 82> *
| 83>
| 84>
| 85>
| 86>
| 87>                          ****END OF INPUT****
 Total Charge           Charge          ....    0
 Multiplicity           Mult            ....    1
 Number of Electrons    NEL             ....   62
MP2 TOTAL ENERGY:     -321.377525465 Eh
FINAL SINGLE POINT ENERGY      -321.377525465147
MP2 TOTAL ENERGY:     -321.664152614 Eh
FINAL SINGLE POINT ENERGY      -321.664152613611

CARTESIAN COORDINATES (ANGSTROEM)
---------------------------------
  B     -2.327830   -0.466687   -0.437862
  B     -3.198651    0.866157   -0.826478
  C     -1.534807   -0.684654    0.904051
  C     -0.131392   -0.310849    0.476782
  C      0.725810   -1.261285   -0.068248
  C      0.312406    1.003538    0.570531
  C      1.998398   -0.913082   -0.483798
  C      2.433395    0.397218   -0.372786
  C      1.584831    1.355120    0.155421
  H      0.390362   -2.286851   -0.159707
  H      2.653841   -1.668893   -0.896140
  H      3.428583    0.670197   -0.697137
  H      1.914143    2.381933    0.244979
  H     -0.346461    1.758609    0.981666
  H     -1.554556   -1.721960    1.237489
  H     -1.852401   -0.047534    1.728446
  H     -2.720972    1.853443   -1.297862
  H     -4.382715    0.887385   -0.656893
  H     -2.229257   -1.339716   -1.254856

 Multiplicity           Mult            ....    1
 Number of Electrons    NEL             ....   62
 Basis Dimension        Dim             .... 1180

ORBITAL ENERGIES
----------------

  NO   OCC          E(Eh)            E(eV)
   0   2.0000     -11.246320      -306.0279
   1   2.0000     -11.232954      -305.6642
   2   2.0000     -11.232691      -305.6571
   3   2.0000     -11.230019      -305.5844
   4   2.0000     -11.229511      -305.5705
   5   2.0000     -11.229045      -305.5579
   6   2.0000     -11.209940      -305.0380
   7   2.0000      -7.582180      -206.3216
   8   2.0000      -7.578438      -206.2198
   9   2.0000      -1.162013       -31.6200
  10   2.0000      -1.052093       -28.6289
  11   2.0000      -1.018257       -27.7082
  12   2.0000      -0.936093       -25.4724
  13   2.0000      -0.830832       -22.6081
  14   2.0000      -0.801647       -21.8139
  15   2.0000      -0.723614       -19.6905
  16   2.0000      -0.696724       -18.9588
  17   2.0000      -0.644751       -17.5446
  18   2.0000      -0.633240       -17.2313
  19   2.0000      -0.619222       -16.8499
  20   2.0000      -0.588620       -16.0172
  21   2.0000      -0.569658       -15.5012
  22   2.0000      -0.551604       -15.0099
  23   2.0000      -0.519416       -14.1340
  24   2.0000      -0.493278       -13.4228
  25   2.0000      -0.491304       -13.3691
  26   2.0000      -0.485661       -13.2155
  27   2.0000      -0.463241       -12.6054
  28   2.0000      -0.419099       -11.4043
  29   2.0000      -0.340029        -9.2527
  30   2.0000      -0.324901        -8.8410
  31   0.0000       0.022531         0.6131
  32   0.0000       0.026899         0.7320
  33   0.0000       0.027623         0.7516
  34   0.0000       0.031440         0.8555
  35   0.0000       0.037781         1.0281

MULLIKEN ATOMIC CHARGES
-----------------------
   0 B :    0.387923
   1 B :    0.428928
   2 C :   -0.570667
   3 C :    0.582000
   4 C :   -0.534194
   5 C :   -0.525924
   6 C :   -0.311091
   7 C :   -0.341519
   8 C :   -0.285331
   9 H :    0.308396
  10 H :    0.229560
  11 H :    0.339737
  12 H :    0.232644
  13 H :    0.277744
  14 H :    0.292833
  15 H :    0.253242
  16 H :   -0.186370
  17 H :   -0.260805
  18 H :   -0.317104
Sum of atomic charges:    0.0000000

LOEWDIN ATOMIC CHARGES
----------------------
   0 B :   -0.011013
   1 B :    0.518132
   2 C :    0.600147
   3 C :   -0.122994
   4 C :    0.346496
   5 C :    0.343624
   6 C :    0.349727
   7 C :    0.338662
   8 C :    0.350029
   9 H :   -0.306776
  10 H :   -0.318188
  11 H :   -0.322700
  12 H :   -0.317544
  13 H :   -0.306872
  14 H :   -0.297341
  15 H :   -0.296766
  16 H :   -0.197551
  17 H :   -0.205823
  18 H :   -0.143249

  Mayer bond orders larger than 0.100000
B(  0-B ,  1-B ) :   1.0452 B(  0-B ,  2-C ) :   0.9541 B(  0-B , 18-H ) :   0.8909
B(  1-B , 16-H ) :   0.9772 B(  1-B , 17-H ) :   0.9927 B(  2-C ,  3-C ) :   0.6623
B(  2-C , 14-H ) :   0.9788 B(  2-C , 15-H ) :   1.0088 B(  3-C ,  4-C ) :   0.9039
B(  3-C ,  5-C ) :   0.9249 B(  3-C ,  6-C ) :  -0.3199 B(  3-C ,  8-C ) :  -0.3554
B(  4-C ,  6-C ) :   1.3957 B(  4-C ,  7-C ) :   0.1103 B(  4-C ,  8-C ) :   0.1571
B(  4-C ,  9-H ) :   0.9381 B(  4-C , 10-H ) :  -0.1381 B(  5-C ,  6-C ) :   0.1189
B(  5-C ,  8-C ) :   1.3446 B(  5-C , 12-H ) :  -0.1364 B(  5-C , 13-H ) :   0.9757
B(  6-C ,  7-C ) :   1.1191 B(  6-C , 10-H ) :   1.1456 B(  7-C ,  8-C ) :   1.1390
B(  7-C , 10-H ) :  -0.1018 B(  7-C , 11-H ) :   0.9918 B(  8-C , 12-H ) :   1.1404

MP2 TOTAL ENERGY:     -321.753687384 Eh
FINAL SINGLE POINT ENERGY      -321.753687384016

DIPOLE MOMENT
-------------
                                X             Y             Z
Electronic contribution:      0.34673      -0.24085      -0.08579
Nuclear contribution   :     -0.24759       0.16566       0.25022
                        -----------------------------------------
Total Dipole Moment    :      0.09914      -0.07519       0.16442
                        -----------------------------------------
Magnitude (a.u.)       :      0.20620
Magnitude (Debye)      :      0.52411

Rotational constants in cm-1:     0.112247     0.036932     0.032173
Rotational constants in MHz :  3365.068752  1107.198034   964.522674

                             ****ORCA TERMINATED NORMALLY****
TOTAL RUN TIME: 0 days 0 hours 37 minutes 44 seconds 767 msec
