                         Program Version 5.0.4 -  RELEASE  -
|  1> ! ri-mp2 aug-cc-pvdz aug-cc-pvdz/c tightscf
|  2> %pal nprocs 16 end
|  3> %maxcore 3800
|  4> %base "DZ_P-Cl_16_AB"
|  5>
|  6> *xyz 0 1
|  7> Cl        -2.458882   -0.806437   -0.720415
|  8> P        -1.363167   -0.013501    0.824907
|  9> N        -1.196653    1.664111    0.210765
| 10> N        -0.040874    1.954853   -0.121427
| 11> C         0.337749   -0.346136    0.334372
| 12> C         0.883834    0.867163   -0.068725
| 13> C         2.213851    0.995892   -0.409891
| 14> H         2.605317    1.957124   -0.712614
| 15> C         3.009808   -0.136579   -0.351467
| 16> H         4.055663   -0.072191   -0.619058
| 17> C         2.477994   -1.355537    0.049160
| 18> H         3.114713   -2.229248    0.084521
| 19> C         1.142197   -1.467408    0.407925
| 20> H         0.742898   -2.420852    0.726992
| 21> *
| 22>
| 23> $new_job
| 24> ! ri-mp2 aug-cc-pvtz aug-cc-pvtz/c tightscf
| 25> %pal nprocs 16 end
| 26> %maxcore 3800
| 27> %base "TZ_P-Cl_16_AB"
| 28>
| 29> *xyz 0 1
| 30> Cl        -2.458882   -0.806437   -0.720415
| 31> P        -1.363167   -0.013501    0.824907
| 32> N        -1.196653    1.664111    0.210765
| 33> N        -0.040874    1.954853   -0.121427
| 34> C         0.337749   -0.346136    0.334372
| 35> C         0.883834    0.867163   -0.068725
| 36> C         2.213851    0.995892   -0.409891
| 37> H         2.605317    1.957124   -0.712614
| 38> C         3.009808   -0.136579   -0.351467
| 39> H         4.055663   -0.072191   -0.619058
| 40> C         2.477994   -1.355537    0.049160
| 41> H         3.114713   -2.229248    0.084521
| 42> C         1.142197   -1.467408    0.407925
| 43> H         0.742898   -2.420852    0.726992
| 44> *
| 45>
| 46> $new_job
| 47> ! ri-mp2 aug-cc-pvqz aug-cc-pvqz/c tightscf
| 48> %pal nprocs 16 end
| 49> %maxcore 3800
| 50> %base "QZ_P-Cl_16_AB"
| 51>
| 52> *xyz 0 1
| 53> Cl        -2.458882   -0.806437   -0.720415
| 54> P        -1.363167   -0.013501    0.824907
| 55> N        -1.196653    1.664111    0.210765
| 56> N        -0.040874    1.954853   -0.121427
| 57> C         0.337749   -0.346136    0.334372
| 58> C         0.883834    0.867163   -0.068725
| 59> C         2.213851    0.995892   -0.409891
| 60> H         2.605317    1.957124   -0.712614
| 61> C         3.009808   -0.136579   -0.351467
| 62> H         4.055663   -0.072191   -0.619058
| 63> C         2.477994   -1.355537    0.049160
| 64> H         3.114713   -2.229248    0.084521
| 65> C         1.142197   -1.467408    0.407925
| 66> H         0.742898   -2.420852    0.726992
| 67> *
| 68>
| 69>
| 70>
| 71>
| 72>                          ****END OF INPUT****
 Total Charge           Charge          ....    0
 Multiplicity           Mult            ....    1
 Number of Electrons    NEL             ....   86
MP2 TOTAL ENERGY:    -1140.089699442 Eh
FINAL SINGLE POINT ENERGY     -1140.089699442033
MP2 TOTAL ENERGY:    -1140.479288375 Eh
FINAL SINGLE POINT ENERGY     -1140.479288374529

CARTESIAN COORDINATES (ANGSTROEM)
---------------------------------
  Cl    -2.458882   -0.806437   -0.720415
  P     -1.363167   -0.013501    0.824907
  N     -1.196653    1.664111    0.210765
  N     -0.040874    1.954853   -0.121427
  C      0.337749   -0.346136    0.334372
  C      0.883834    0.867163   -0.068725
  C      2.213851    0.995892   -0.409891
  H      2.605317    1.957124   -0.712614
  C      3.009808   -0.136579   -0.351467
  H      4.055663   -0.072191   -0.619058
  C      2.477994   -1.355537    0.049160
  H      3.114713   -2.229248    0.084521
  C      1.142197   -1.467408    0.407925
  H      0.742898   -2.420852    0.726992

 Multiplicity           Mult            ....    1
 Number of Electrons    NEL             ....   86
 Basis Dimension        Dim             ....  992

ORBITAL ENERGIES
----------------

  NO   OCC          E(Eh)            E(eV)
   0   2.0000    -104.845942     -2853.0031
   1   2.0000     -80.025412     -2177.6022
   2   2.0000     -15.650797      -425.8798
   3   2.0000     -15.631649      -425.3588
   4   2.0000     -11.289149      -307.1934
   5   2.0000     -11.270220      -306.6783
   6   2.0000     -11.264822      -306.5314
   7   2.0000     -11.263160      -306.4862
   8   2.0000     -11.263016      -306.4822
   9   2.0000     -11.262182      -306.4596
  10   2.0000     -10.572090      -287.6812
  11   2.0000      -8.038945      -218.7508
  12   2.0000      -8.037426      -218.7095
  13   2.0000      -8.037303      -218.7061
  14   2.0000      -7.561253      -205.7522
  15   2.0000      -5.454663      -148.4289
  16   2.0000      -5.454013      -148.4112
  17   2.0000      -5.452900      -148.3810
  18   2.0000      -1.392423       -37.8898
  19   2.0000      -1.189553       -32.3694
  20   2.0000      -1.127157       -30.6715
  21   2.0000      -1.065478       -28.9931
  22   2.0000      -1.054758       -28.7014
  23   2.0000      -0.961006       -26.1503
  24   2.0000      -0.882677       -24.0189
  25   2.0000      -0.827667       -22.5220
  26   2.0000      -0.795278       -21.6406
  27   2.0000      -0.690070       -18.7778
  28   2.0000      -0.685482       -18.6529
  29   2.0000      -0.669760       -18.2251
  30   2.0000      -0.633676       -17.2432
  31   2.0000      -0.608612       -16.5612
  32   2.0000      -0.594231       -16.1699
  33   2.0000      -0.562781       -15.3141
  34   2.0000      -0.540173       -14.6989
  35   2.0000      -0.524377       -14.2690
  36   2.0000      -0.515833       -14.0365
  37   2.0000      -0.496645       -13.5144
  38   2.0000      -0.481157       -13.0930
  39   2.0000      -0.410361       -11.1665
  40   2.0000      -0.386621       -10.5205
  41   2.0000      -0.359942        -9.7945
  42   2.0000      -0.358564        -9.7570
  43   0.0000       0.018654         0.5076
  44   0.0000       0.024917         0.6780
  45   0.0000       0.028514         0.7759
  46   0.0000       0.033991         0.9249
  47   0.0000       0.044749         1.2177

MULLIKEN ATOMIC CHARGES
-----------------------
   0 Cl:   -0.451508
   1 P :    1.058209
   2 N :   -0.531329
   3 N :   -0.304631
   4 C :    0.069743
   5 C :    0.454639
   6 C :   -0.389137
   7 H :    0.415596
   8 C :   -0.446327
   9 H :    0.260925
  10 C :   -0.325559
  11 H :    0.250562
  12 C :   -0.395454
  13 H :    0.334271
Sum of atomic charges:    0.0000000

LOEWDIN ATOMIC CHARGES
----------------------
   0 Cl:    0.741236
   1 P :   -0.025340
   2 N :    0.015923
   3 N :    0.199235
   4 C :   -0.428463
   5 C :   -0.519559
   6 C :    0.331284
   7 H :   -0.314477
   8 C :    0.348189
   9 H :   -0.316676
  10 C :    0.344458
  11 H :   -0.318650
  12 C :    0.270116
  13 H :   -0.327275

  Mayer bond orders larger than 0.100000
B(  0-Cl,  1-P ) :   0.7892 B(  1-P ,  2-N ) :   0.7695 B(  1-P ,  4-C ) :   0.9180
B(  1-P ,  5-C ) :  -0.1313 B(  2-N ,  3-N ) :   1.4145 B(  3-N ,  5-C ) :   0.2489
B(  4-C ,  5-C ) :   1.1808 B(  4-C ,  6-C ) :  -0.2328 B(  4-C , 10-C ) :  -0.3242
B(  4-C , 12-C ) :   0.9262 B(  5-C ,  6-C ) :   1.2491 B(  5-C ,  8-C ) :  -0.1648
B(  6-C ,  7-H ) :   0.8169 B(  6-C ,  8-C ) :   1.3784 B(  6-C ,  9-H ) :  -0.1065
B(  6-C , 12-C ) :   0.1492 B(  8-C ,  9-H ) :   1.0877 B(  8-C , 10-C ) :   1.1794
B(  8-C , 11-H ) :  -0.1028 B( 10-C , 11-H ) :   1.1128 B( 10-C , 12-C ) :   1.2342
B( 11-H , 12-C ) :  -0.1325 B( 12-C , 13-H ) :   0.9257

MP2 TOTAL ENERGY:    -1140.607097189 Eh
FINAL SINGLE POINT ENERGY     -1140.607097189087

DIPOLE MOMENT
-------------
                                X             Y             Z
Electronic contribution:    -13.07691       0.53235       0.43995
Nuclear contribution   :     14.51628      -1.49386      -0.26006
                        -----------------------------------------
Total Dipole Moment    :      1.43937      -0.96151       0.17989
                        -----------------------------------------
Magnitude (a.u.)       :      1.74030
Magnitude (Debye)      :      4.42350

Rotational constants in cm-1:     0.067650     0.026302     0.021256
Rotational constants in MHz :  2028.084127   788.515212   637.238611

                             ****ORCA TERMINATED NORMALLY****
TOTAL RUN TIME: 0 days 0 hours 28 minutes 27 seconds 875 msec
