                         Program Version 5.0.4 -  RELEASE  -
|  1> ! ri-mp2 aug-cc-pvdz aug-cc-pvdz/c tightscf
|  2> %pal nprocs 16 end
|  3> %maxcore 3800
|  4> %base "DZ_B-B_9_AB"
|  5> %scf
|  6> STABPerform true
|  7> STABRestartUHFifUnstable true
|  8> end
|  9>
| 10> *xyz 0 1
| 11> B         1.453772   -0.138194    0.000014
| 12> B        -0.098261    0.482160    0.000013
| 13> F        -1.172959   -0.300058   -0.000025
| 14> H        -0.315955    1.664586    0.000061
| 15> H         2.047525   -0.341934   -1.014313
| 16> H         2.047510   -0.341955    1.014347
| 17> *
| 18>
| 19> $new_job
| 20> ! ri-mp2 aug-cc-pvtz aug-cc-pvtz/c tightscf
| 21> %pal nprocs 16 end
| 22> %maxcore 3800
| 23> %base "TZ_B-B_9_AB"
| 24>
| 25> *xyz 0 1
| 26> B         1.453772   -0.138194    0.000014
| 27> B        -0.098261    0.482160    0.000013
| 28> F        -1.172959   -0.300058   -0.000025
| 29> H        -0.315955    1.664586    0.000061
| 30> H         2.047525   -0.341934   -1.014313
| 31> H         2.047510   -0.341955    1.014347
| 32> *
| 33>
| 34> $new_job
| 35> ! ri-mp2 aug-cc-pvqz aug-cc-pvqz/c tightscf
| 36> %pal nprocs 16 end
| 37> %maxcore 3800
| 38> %base "QZ_B-B_9_AB"
| 39>
| 40> *xyz 0 1
| 41> B         1.453772   -0.138194    0.000014
| 42> B        -0.098261    0.482160    0.000013
| 43> F        -1.172959   -0.300058   -0.000025
| 44> H        -0.315955    1.664586    0.000061
| 45> H         2.047525   -0.341934   -1.014313
| 46> H         2.047510   -0.341955    1.014347
| 47> *
| 48>
| 49>
| 50>
| 51>
| 52>                          ****END OF INPUT****
 Total Charge           Charge          ....    0
 Multiplicity           Mult            ....    1
 Number of Electrons    NEL             ....   22
MP2 TOTAL ENERGY:     -150.938596162 Eh
FINAL SINGLE POINT ENERGY      -150.938596161717
MP2 TOTAL ENERGY:     -151.073605501 Eh
FINAL SINGLE POINT ENERGY      -151.073605500884

CARTESIAN COORDINATES (ANGSTROEM)
---------------------------------
  B      1.453772   -0.138194    0.000014
  B     -0.098261    0.482160    0.000013
  F     -1.172959   -0.300058   -0.000025
  H     -0.315955    1.664586    0.000061
  H      2.047525   -0.341934   -1.014313
  H      2.047510   -0.341955    1.014347

 Multiplicity           Mult            ....    1
 Number of Electrons    NEL             ....   22
 Basis Dimension        Dim             ....  378

ORBITAL ENERGIES
----------------

  NO   OCC          E(Eh)            E(eV)
   0   2.0000     -26.297911      -715.6025
   1   2.0000      -7.645842      -208.0539
   2   2.0000      -7.602911      -206.8857
   3   2.0000      -1.609889       -43.8073
   4   2.0000      -0.791626       -21.5412
   5   2.0000      -0.717504       -19.5243
   6   2.0000      -0.686577       -18.6827
   7   2.0000      -0.669059       -18.2060
   8   2.0000      -0.578389       -15.7388
   9   2.0000      -0.503168       -13.6919
  10   2.0000      -0.435320       -11.8457
  11   0.0000       0.026335         0.7166
  12   0.0000       0.028738         0.7820
  13   0.0000       0.031948         0.8693
  14   0.0000       0.032774         0.8918
  15   0.0000       0.049732         1.3533

MULLIKEN ATOMIC CHARGES
-----------------------
   0 B :    0.302688
   1 B :    0.933558
   2 F :   -0.717577
   3 H :   -0.193632
   4 H :   -0.162519
   5 H :   -0.162518
Sum of atomic charges:   -0.0000000

LOEWDIN ATOMIC CHARGES
----------------------
   0 B :    0.477584
   1 B :   -0.548637
   2 F :    0.779980
   3 H :   -0.242644
   4 H :   -0.233142
   5 H :   -0.233141

  Mayer bond orders larger than 0.100000
B(  0-B ,  1-B ) :   1.0301 B(  0-B ,  4-H ) :   0.9512 B(  0-B ,  5-H ) :   0.9512
B(  1-B ,  2-F ) :   0.4407 B(  1-B ,  3-H ) :   0.9507

MP2 TOTAL ENERGY:     -151.115869404 Eh
FINAL SINGLE POINT ENERGY      -151.115869403512

DIPOLE MOMENT
-------------
                                X             Y             Z
Electronic contribution:     -3.25068      -0.76700      -0.00009
Nuclear contribution   :      3.64041       0.94661       0.00009
                        -----------------------------------------
Total Dipole Moment    :      0.38973       0.17961       0.00001
                        -----------------------------------------
Magnitude (a.u.)       :      0.42913
Magnitude (Debye)      :      1.09076

Rotational constants in cm-1:     1.787223     0.283518     0.260379
Rotational constants in MHz : 53579.596038  8499.657593  7805.964720

                             ****ORCA TERMINATED NORMALLY****
TOTAL RUN TIME: 0 days 0 hours 4 minutes 33 seconds 722 msec
