                         Program Version 5.0.4 -  RELEASE  -
|  1> ! ri-mp2 aug-cc-pvdz aug-cc-pvdz/c tightscf
|  2> %pal nprocs 16 end
|  3> %maxcore 3800
|  4> %base "DZ_B-B_30_A"
|  5> %scf
|  6> STABPerform true
|  7> STABRestartUHFifUnstable true
|  8> end
|  9>
| 10> *xyz 0 2
| 11> B         0.825805   -0.216209   -0.000002
| 12> N        -0.523821    0.029528    0.000001
| 13> H        -1.218082   -0.699492    0.000001
| 14> H        -0.922332    0.958345    0.000003
| 15> H         1.678133    0.615494   -0.000002
| 16> *
| 17>
| 18> $new_job
| 19> ! ri-mp2 aug-cc-pvtz aug-cc-pvtz/c tightscf
| 20> %pal nprocs 16 end
| 21> %maxcore 3800
| 22> %base "TZ_B-B_30_A"
| 23>
| 24> *xyz 0 2
| 25> B         0.825805   -0.216209   -0.000002
| 26> N        -0.523821    0.029528    0.000001
| 27> H        -1.218082   -0.699492    0.000001
| 28> H        -0.922332    0.958345    0.000003
| 29> H         1.678133    0.615494   -0.000002
| 30> *
| 31>
| 32> $new_job
| 33> ! ri-mp2 aug-cc-pvqz aug-cc-pvqz/c tightscf
| 34> %pal nprocs 16 end
| 35> %maxcore 3800
| 36> %base "QZ_B-B_30_A"
| 37>
| 38> *xyz 0 2
| 39> B         0.825805   -0.216209   -0.000002
| 40> N        -0.523821    0.029528    0.000001
| 41> H        -1.218082   -0.699492    0.000001
| 42> H        -0.922332    0.958345    0.000003
| 43> H         1.678133    0.615494   -0.000002
| 44> *
| 45>
| 46>
| 47>
| 48>
| 49>                          ****END OF INPUT****
 Total Charge           Charge          ....    0
 Multiplicity           Mult            ....    2
 Number of Electrons    NEL             ....   15
MP2 TOTAL ENERGY:      -81.115117202 Eh
FINAL SINGLE POINT ENERGY       -81.115117202319
MP2 TOTAL ENERGY:      -81.187393562 Eh
FINAL SINGLE POINT ENERGY       -81.187393562422

CARTESIAN COORDINATES (ANGSTROEM)
---------------------------------
  B      0.825805   -0.216209   -0.000002
  N     -0.523821    0.029528    0.000001
  H     -1.218082   -0.699492    0.000001
  H     -0.922332    0.958345    0.000003
  H      1.678133    0.615494   -0.000002

 Multiplicity           Mult            ....    2
 Number of Electrons    NEL             ....   15
 Basis Dimension        Dim             ....  298

ORBITAL ENERGIES
----------------
                 SPIN UP ORBITALS
  NO   OCC          E(Eh)            E(eV)
   0   1.0000     -15.563374      -423.5009
   1   1.0000      -7.608459      -207.0367
   2   1.0000      -1.171265       -31.8718
   3   1.0000      -0.724880       -19.7250
   4   1.0000      -0.692419       -18.8417
   5   1.0000      -0.553962       -15.0741
   6   1.0000      -0.445545       -12.1239
   7   1.0000      -0.322409        -8.7732
   8   0.0000       0.023514         0.6399
   9   0.0000       0.036955         1.0056
  10   0.0000       0.041229         1.1219
  11   0.0000       0.041261         1.1228
  12   0.0000       0.060033         1.6336

                 SPIN DOWN ORBITALS
  NO   OCC          E(Eh)            E(eV)
   0   1.0000     -15.565556      -423.5603
   1   1.0000      -7.589829      -206.5298
   2   1.0000      -1.170471       -31.8501
   3   1.0000      -0.700891       -19.0722
   4   1.0000      -0.678596       -18.4655
   5   1.0000      -0.527837       -14.3632
   6   1.0000      -0.455295       -12.3892
   7   0.0000       0.022780         0.6199
   8   0.0000       0.036006         0.9798
   9   0.0000       0.041138         1.1194
  10   0.0000       0.041842         1.1386
  11   0.0000       0.058372         1.5884

MULLIKEN ATOMIC CHARGES AND SPIN POPULATIONS
--------------------------------------------
   0 B :    0.328690    0.992157
   1 N :   -0.639685   -0.059450
   2 H :    0.264054    0.008946
   3 H :    0.246909    0.045397
   4 H :   -0.199969    0.012950
Sum of atomic charges         :    0.0000000

LOEWDIN ATOMIC CHARGES AND SPIN POPULATIONS
-------------------------------------------
   0 B :    0.185078    0.580731
   1 N :    1.216955    0.177086
   2 H :   -0.557927    0.042425
   3 H :   -0.538996    0.019920
   4 H :   -0.305110    0.179837

  Mayer bond orders larger than 0.100000
B(  0-B ,  1-N ) :   1.3390 B(  0-B ,  4-H ) :   0.9433 B(  1-N ,  2-H ) :   0.9624
B(  1-N ,  3-H ) :   0.9586

MP2 TOTAL ENERGY:      -81.210594716 Eh
FINAL SINGLE POINT ENERGY       -81.210594716086

DIPOLE MOMENT
-------------
                                X             Y             Z
Electronic contribution:      0.39628      -0.76200      -0.00000
Nuclear contribution   :     -1.14420       1.06118       0.00000
                        -----------------------------------------
Total Dipole Moment    :     -0.74792       0.29917       0.00000
                        -----------------------------------------
Magnitude (a.u.)       :      0.80554
Magnitude (Debye)      :      2.04751

Rotational constants in cm-1:     7.681333     1.025005     0.904330
Rotational constants in MHz : 230280.581156 30728.866979 27111.131022

                             ****ORCA TERMINATED NORMALLY****
TOTAL RUN TIME: 0 days 0 hours 3 minutes 56 seconds 998 msec
