                         Program Version 5.0.4 -  RELEASE  -
|  1> ! ri-mp2 aug-cc-pvdz aug-cc-pvdz/c tightscf
|  2> %pal nprocs 16 end
|  3> %maxcore 3800
|  4> %base "DZ_B-P_45_AB"
|  5> %scf
|  6> STABPerform true
|  7> STABRestartUHFifUnstable true
|  8> end
|  9>
| 10> *xyz 0 1
| 11> C        -1.353184    0.663406    0.001250
| 12> B         0.167910    0.993536    0.047332
| 13> P         1.546999   -0.272153   -0.113882
| 14> C        -1.795885   -0.795023    0.004213
| 15> H        -1.751734    1.181453   -0.881712
| 16> H        -1.815500    1.207133    0.835495
| 17> H        -1.373458   -1.340075   -0.841862
| 18> H        -2.880665   -0.888254   -0.056034
| 19> H        -1.473490   -1.305600    0.912728
| 20> H         0.506172    2.138663    0.043561
| 21> H         1.108270   -1.344459    0.684805
| 22> H         2.530282    0.255453    0.741807
| 23> *
| 24>
| 25> $new_job
| 26> ! ri-mp2 aug-cc-pvtz aug-cc-pvtz/c tightscf
| 27> %pal nprocs 16 end
| 28> %maxcore 3800
| 29> %base "TZ_B-P_45_AB"
| 30>
| 31> *xyz 0 1
| 32> C        -1.353184    0.663406    0.001250
| 33> B         0.167910    0.993536    0.047332
| 34> P         1.546999   -0.272153   -0.113882
| 35> C        -1.795885   -0.795023    0.004213
| 36> H        -1.751734    1.181453   -0.881712
| 37> H        -1.815500    1.207133    0.835495
| 38> H        -1.373458   -1.340075   -0.841862
| 39> H        -2.880665   -0.888254   -0.056034
| 40> H        -1.473490   -1.305600    0.912728
| 41> H         0.506172    2.138663    0.043561
| 42> H         1.108270   -1.344459    0.684805
| 43> H         2.530282    0.255453    0.741807
| 44> *
| 45>
| 46> $new_job
| 47> ! ri-mp2 aug-cc-pvqz aug-cc-pvqz/c tightscf
| 48> %pal nprocs 16 end
| 49> %maxcore 3800
| 50> %base "QZ_B-P_45_AB"
| 51>
| 52> *xyz 0 1
| 53> C        -1.353184    0.663406    0.001250
| 54> B         0.167910    0.993536    0.047332
| 55> P         1.546999   -0.272153   -0.113882
| 56> C        -1.795885   -0.795023    0.004213
| 57> H        -1.751734    1.181453   -0.881712
| 58> H        -1.815500    1.207133    0.835495
| 59> H        -1.373458   -1.340075   -0.841862
| 60> H        -2.880665   -0.888254   -0.056034
| 61> H        -1.473490   -1.305600    0.912728
| 62> H         0.506172    2.138663    0.043561
| 63> H         1.108270   -1.344459    0.684805
| 64> H         2.530282    0.255453    0.741807
| 65> *
| 66>
| 67>
| 68>
| 69>
| 70>                          ****END OF INPUT****
 Total Charge           Charge          ....    0
 Multiplicity           Mult            ....    1
 Number of Electrons    NEL             ....   40
MP2 TOTAL ENERGY:     -446.337292554 Eh
FINAL SINGLE POINT ENERGY      -446.337292554274
MP2 TOTAL ENERGY:     -446.483171622 Eh
FINAL SINGLE POINT ENERGY      -446.483171622405

CARTESIAN COORDINATES (ANGSTROEM)
---------------------------------
  C     -1.353184    0.663406    0.001250
  B      0.167910    0.993536    0.047332
  P      1.546999   -0.272153   -0.113882
  C     -1.795885   -0.795023    0.004213
  H     -1.751734    1.181453   -0.881712
  H     -1.815500    1.207133    0.835495
  H     -1.373458   -1.340075   -0.841862
  H     -2.880665   -0.888254   -0.056034
  H     -1.473490   -1.305600    0.912728
  H      0.506172    2.138663    0.043561
  H      1.108270   -1.344459    0.684805
  H      2.530282    0.255453    0.741807

 Multiplicity           Mult            ....    1
 Number of Electrons    NEL             ....   40
 Basis Dimension        Dim             ....  692

ORBITAL ENERGIES
----------------

  NO   OCC          E(Eh)            E(eV)
   0   2.0000     -79.921060     -2174.7626
   1   2.0000     -11.215306      -305.1840
   2   2.0000     -11.206735      -304.9508
   3   2.0000      -7.603861      -206.9116
   4   2.0000      -7.467713      -203.2068
   5   2.0000      -5.362105      -145.9103
   6   2.0000      -5.361685      -145.8989
   7   2.0000      -5.361513      -145.8942
   8   2.0000      -1.028620       -27.9902
   9   2.0000      -0.867489       -23.6056
  10   2.0000      -0.843055       -22.9407
  11   2.0000      -0.641014       -17.4429
  12   2.0000      -0.604066       -16.4375
  13   2.0000      -0.590969       -16.0811
  14   2.0000      -0.528786       -14.3890
  15   2.0000      -0.519288       -14.1305
  16   2.0000      -0.492792       -13.4096
  17   2.0000      -0.456489       -12.4217
  18   2.0000      -0.445435       -12.1209
  19   2.0000      -0.355159        -9.6644
  20   0.0000       0.023181         0.6308
  21   0.0000       0.032027         0.8715
  22   0.0000       0.033750         0.9184
  23   0.0000       0.035491         0.9658
  24   0.0000       0.048219         1.3121

MULLIKEN ATOMIC CHARGES
-----------------------
   0 C :   -0.554717
   1 B :    0.321425
   2 P :    0.173648
   3 C :   -0.835210
   4 H :    0.277764
   5 H :    0.275087
   6 H :    0.220338
   7 H :    0.311135
   8 H :    0.222345
   9 H :   -0.299843
  10 H :   -0.033991
  11 H :   -0.077981
Sum of atomic charges:   -0.0000000

LOEWDIN ATOMIC CHARGES
----------------------
   0 C :    0.541814
   1 B :   -0.354676
   2 P :    1.623572
   3 C :    0.863380
   4 H :   -0.301031
   5 H :   -0.301255
   6 H :   -0.295758
   7 H :   -0.280079
   8 H :   -0.300180
   9 H :   -0.208924
  10 H :   -0.487901
  11 H :   -0.498962

  Mayer bond orders larger than 0.100000
B(  0-C ,  1-B ) :   1.0682 B(  0-C ,  3-C ) :   0.9901 B(  0-C ,  4-H ) :   0.8267
B(  0-C ,  5-H ) :   0.8501 B(  1-B ,  2-P ) :   1.0923 B(  1-B ,  9-H ) :   0.8607
B(  2-P , 10-H ) :   0.9068 B(  2-P , 11-H ) :   0.9151 B(  3-C ,  6-H ) :   0.9549
B(  3-C ,  7-H ) :   0.9290 B(  3-C ,  8-H ) :   0.9448

MP2 TOTAL ENERGY:     -446.527723758 Eh
FINAL SINGLE POINT ENERGY      -446.527723758267

DIPOLE MOMENT
-------------
                                X             Y             Z
Electronic contribution:      6.53507       0.71527      -1.23620
Nuclear contribution   :     -6.87338      -0.64789       1.53470
                        -----------------------------------------
Total Dipole Moment    :     -0.33831       0.06738       0.29850
                        -----------------------------------------
Magnitude (a.u.)       :      0.45618
Magnitude (Debye)      :      1.15951

Rotational constants in cm-1:     0.383975     0.101623     0.083882
Rotational constants in MHz : 11511.277046  3046.585961  2514.732235

                             ****ORCA TERMINATED NORMALLY****
TOTAL RUN TIME: 0 days 0 hours 30 minutes 52 seconds 523 msec
