                         Program Version 5.0.4 -  RELEASE  -
|  1> ! ri-mp2 aug-cc-pvdz aug-cc-pvdz/c tightscf
|  2> %pal nprocs 16 end
|  3> %maxcore 3800
|  4> %base "DZ_B-Si_82_B"
|  5> %scf
|  6> STABPerform true
|  7> STABRestartUHFifUnstable true
|  8> end
|  9>
| 10> *xyz 0 2
| 11> C        -0.538565    0.132220    0.004112
| 12> Si         1.361010   -0.046049   -0.089420
| 13> O        -1.052367    1.211156    0.014654
| 14> O        -1.307990   -0.982717    0.007271
| 15> H        -0.765376   -1.779577    0.036101
| 16> H         1.818282   -1.327479    0.500395
| 17> H         2.007193    1.130902    0.515317
| 18> *
| 19>
| 20> $new_job
| 21> ! ri-mp2 aug-cc-pvtz aug-cc-pvtz/c tightscf
| 22> %pal nprocs 16 end
| 23> %maxcore 3800
| 24> %base "TZ_B-Si_82_B"
| 25>
| 26> *xyz 0 2
| 27> C        -0.538565    0.132220    0.004112
| 28> Si         1.361010   -0.046049   -0.089420
| 29> O        -1.052367    1.211156    0.014654
| 30> O        -1.307990   -0.982717    0.007271
| 31> H        -0.765376   -1.779577    0.036101
| 32> H         1.818282   -1.327479    0.500395
| 33> H         2.007193    1.130902    0.515317
| 34> *
| 35>
| 36> $new_job
| 37> ! ri-mp2 aug-cc-pvqz aug-cc-pvqz/c tightscf
| 38> %pal nprocs 16 end
| 39> %maxcore 3800
| 40> %base "QZ_B-Si_82_B"
| 41>
| 42> *xyz 0 2
| 43> C        -0.538565    0.132220    0.004112
| 44> Si         1.361010   -0.046049   -0.089420
| 45> O        -1.052367    1.211156    0.014654
| 46> O        -1.307990   -0.982717    0.007271
| 47> H        -0.765376   -1.779577    0.036101
| 48> H         1.818282   -1.327479    0.500395
| 49> H         2.007193    1.130902    0.515317
| 50> *
| 51>
| 52>
| 53>
| 54>
| 55>                          ****END OF INPUT****
 Total Charge           Charge          ....    0
 Multiplicity           Mult            ....    2
 Number of Electrons    NEL             ....   39
MP2 TOTAL ENERGY:     -478.871120030 Eh
FINAL SINGLE POINT ENERGY      -478.871120029512
MP2 TOTAL ENERGY:     -479.061160947 Eh
FINAL SINGLE POINT ENERGY      -479.061160946624

CARTESIAN COORDINATES (ANGSTROEM)
---------------------------------
  C     -0.538565    0.132220    0.004112
  Si     1.361010   -0.046049   -0.089420
  O     -1.052367    1.211156    0.014654
  O     -1.307990   -0.982717    0.007271
  H     -0.765376   -1.779577    0.036101
  H      1.818282   -1.327479    0.500395
  H      2.007193    1.130902    0.515317

 Multiplicity           Mult            ....    2
 Number of Electrons    NEL             ....   39
 Basis Dimension        Dim             ....  462

ORBITAL ENERGIES
----------------
                 SPIN UP ORBITALS
  NO   OCC          E(Eh)            E(eV)
   0   1.0000     -68.815636     -1872.5686
   1   1.0000     -20.617892      -561.0414
   2   1.0000     -20.559796      -559.4605
   3   1.0000     -11.377907      -309.6086
   4   1.0000      -6.166651      -167.8031
   5   1.0000      -4.279603      -116.4539
   6   1.0000      -4.269432      -116.1771
   7   1.0000      -4.269207      -116.1710
   8   1.0000      -1.466916       -39.9168
   9   1.0000      -1.377707       -37.4893
  10   1.0000      -0.859480       -23.3876
  11   1.0000      -0.803752       -21.8712
  12   1.0000      -0.678506       -18.4631
  13   1.0000      -0.662620       -18.0308
  14   1.0000      -0.635253       -17.2861
  15   1.0000      -0.574651       -15.6370
  16   1.0000      -0.520193       -14.1552
  17   1.0000      -0.502667       -13.6783
  18   1.0000      -0.438915       -11.9435
  19   1.0000      -0.361815        -9.8455
  20   0.0000       0.018441         0.5018
  21   0.0000       0.031305         0.8518
  22   0.0000       0.038598         1.0503
  23   0.0000       0.041570         1.1312
  24   0.0000       0.055845         1.5196

                 SPIN DOWN ORBITALS
  NO   OCC          E(Eh)            E(eV)
   0   1.0000     -68.809695     -1872.4070
   1   1.0000     -20.618206      -561.0499
   2   1.0000     -20.555348      -559.3395
   3   1.0000     -11.379412      -309.6495
   4   1.0000      -6.157589      -167.5565
   5   1.0000      -4.265325      -116.0654
   6   1.0000      -4.265112      -116.0596
   7   1.0000      -4.256368      -115.8217
   8   1.0000      -1.464950       -39.8633
   9   1.0000      -1.370898       -37.3040
  10   1.0000      -0.852700       -23.2032
  11   1.0000      -0.785953       -21.3869
  12   1.0000      -0.667656       -18.1678
  13   1.0000      -0.648792       -17.6545
  14   1.0000      -0.630967       -17.1695
  15   1.0000      -0.569589       -15.4993
  16   1.0000      -0.513945       -13.9851
  17   1.0000      -0.480652       -13.0792
  18   1.0000      -0.430466       -11.7136
  19   0.0000       0.003703         0.1008
  20   0.0000       0.020094         0.5468
  21   0.0000       0.032150         0.8749
  22   0.0000       0.042010         1.1432
  23   0.0000       0.049219         1.3393

MULLIKEN ATOMIC CHARGES AND SPIN POPULATIONS
--------------------------------------------
   0 C :    0.588727   -0.069682
   1 Si:    0.822861    0.966033
   2 O :   -0.686961    0.098426
   3 O :   -0.681711   -0.002901
   4 H :    0.357647   -0.000390
   5 H :   -0.223066    0.005154
   6 H :   -0.177496    0.003360
Sum of atomic charges         :   -0.0000000

LOEWDIN ATOMIC CHARGES AND SPIN POPULATIONS
-------------------------------------------
   0 C :   -1.173642    0.135998
   1 Si:    1.056359    0.529098
   2 O :    0.548592    0.070381
   3 O :    1.145885   -0.002976
   4 H :   -0.869471    0.005420
   5 H :   -0.355061    0.135032
   6 H :   -0.352662    0.127046

  Mayer bond orders larger than 0.100000
B(  0-C ,  1-Si) :   0.7787 B(  0-C ,  2-O ) :   1.7111 B(  0-C ,  3-O ) :   0.9426
B(  1-Si,  5-H ) :   0.8839 B(  1-Si,  6-H ) :   0.9201 B(  3-O ,  4-H ) :   0.8637

MP2 TOTAL ENERGY:     -479.125086566 Eh
FINAL SINGLE POINT ENERGY      -479.125086565574

DIPOLE MOMENT
-------------
                                X             Y             Z
Electronic contribution:     -1.61605       0.77374      -1.00702
Nuclear contribution   :      2.86691      -1.92061       1.03120
                        -----------------------------------------
Total Dipole Moment    :      1.25086      -1.14687       0.02418
                        -----------------------------------------
Magnitude (a.u.)       :      1.69722
Magnitude (Debye)      :      4.31399

Rotational constants in cm-1:     0.365869     0.154338     0.109535
Rotational constants in MHz : 10968.480579  4626.940554  3283.788960

                             ****ORCA TERMINATED NORMALLY****
TOTAL RUN TIME: 0 days 0 hours 14 minutes 57 seconds 874 msec
