                         Program Version 5.0.4 -  RELEASE  -
|  1> ! ri-mp2 aug-cc-pvdz aug-cc-pvdz/c tightscf
|  2> %pal nprocs 16 end
|  3> %maxcore 3800
|  4> %base "DZ_P-N_76_AB"
|  5> %scf
|  6> STABPerform true
|  7> STABRestartUHFifUnstable true
|  8> end
|  9>
| 10> *xyz 0 1
| 11> P        -0.635377   -0.024899    0.544259
| 12> N         1.032063   -0.015790    0.634283
| 13> F        -0.934417   -1.107424   -0.577130
| 14> F        -0.802899    1.225292   -0.416678
| 15> O         1.795523   -0.100592   -0.542994
| 16> H         2.122485    0.795774   -0.683601
| 17> H         1.455407   -0.567833    1.367960
| 18> *
| 19>
| 20> $new_job
| 21> ! ri-mp2 aug-cc-pvtz aug-cc-pvtz/c tightscf
| 22> %pal nprocs 16 end
| 23> %maxcore 3800
| 24> %base "TZ_P-N_76_AB"
| 25>
| 26> *xyz 0 1
| 27> P        -0.635377   -0.024899    0.544259
| 28> N         1.032063   -0.015790    0.634283
| 29> F        -0.934417   -1.107424   -0.577130
| 30> F        -0.802899    1.225292   -0.416678
| 31> O         1.795523   -0.100592   -0.542994
| 32> H         2.122485    0.795774   -0.683601
| 33> H         1.455407   -0.567833    1.367960
| 34> *
| 35>
| 36> $new_job
| 37> ! ri-mp2 aug-cc-pvqz aug-cc-pvqz/c tightscf
| 38> %pal nprocs 16 end
| 39> %maxcore 3800
| 40> %base "QZ_P-N_76_AB"
| 41>
| 42> *xyz 0 1
| 43> P        -0.635377   -0.024899    0.544259
| 44> N         1.032063   -0.015790    0.634283
| 45> F        -0.934417   -1.107424   -0.577130
| 46> F        -0.802899    1.225292   -0.416678
| 47> O         1.795523   -0.100592   -0.542994
| 48> H         2.122485    0.795774   -0.683601
| 49> H         1.455407   -0.567833    1.367960
| 50> *
| 51>
| 52>
| 53>
| 54>
| 55>                          ****END OF INPUT****
 Total Charge           Charge          ....    0
 Multiplicity           Mult            ....    1
 Number of Electrons    NEL             ....   50
MP2 TOTAL ENERGY:     -671.044482146 Eh
FINAL SINGLE POINT ENERGY      -671.044482145985
MP2 TOTAL ENERGY:     -671.380801458 Eh
FINAL SINGLE POINT ENERGY      -671.380801457974

CARTESIAN COORDINATES (ANGSTROEM)
---------------------------------
  P     -0.635377   -0.024899    0.544259
  N      1.032063   -0.015790    0.634283
  F     -0.934417   -1.107424   -0.577130
  F     -0.802899    1.225292   -0.416678
  O      1.795523   -0.100592   -0.542994
  H      2.122485    0.795774   -0.683601
  H      1.455407   -0.567833    1.367960

 Multiplicity           Mult            ....    1
 Number of Electrons    NEL             ....   50
 Basis Dimension        Dim             ....  496

ORBITAL ENERGIES
----------------

  NO   OCC          E(Eh)            E(eV)
   0   2.0000     -80.077415     -2179.0172
   1   2.0000     -26.313138      -716.0169
   2   2.0000     -26.308391      -715.8877
   3   2.0000     -20.623233      -561.1867
   4   2.0000     -15.633236      -425.4020
   5   2.0000      -7.601891      -206.8580
   6   2.0000      -5.495914      -149.5514
   7   2.0000      -5.495560      -149.5418
   8   2.0000      -5.493834      -149.4948
   9   2.0000      -1.643812       -44.7304
  10   2.0000      -1.604861       -43.6705
  11   2.0000      -1.439232       -39.1635
  12   2.0000      -1.134037       -30.8587
  13   2.0000      -0.876305       -23.8455
  14   2.0000      -0.760256       -20.6876
  15   2.0000      -0.747587       -20.3429
  16   2.0000      -0.740166       -20.1410
  17   2.0000      -0.714093       -19.4315
  18   2.0000      -0.683096       -18.5880
  19   2.0000      -0.666057       -18.1243
  20   2.0000      -0.651513       -17.7286
  21   2.0000      -0.645186       -17.5564
  22   2.0000      -0.528613       -14.3843
  23   2.0000      -0.449922       -12.2430
  24   2.0000      -0.423840       -11.5333
  25   0.0000       0.023266         0.6331
  26   0.0000       0.035404         0.9634
  27   0.0000       0.053758         1.4628
  28   0.0000       0.055898         1.5211
  29   0.0000       0.069918         1.9026

MULLIKEN ATOMIC CHARGES
-----------------------
   0 P :    1.658141
   1 N :   -0.402558
   2 F :   -0.666719
   3 F :   -0.672616
   4 O :   -0.547301
   5 H :    0.345109
   6 H :    0.285943
Sum of atomic charges:   -0.0000000

LOEWDIN ATOMIC CHARGES
----------------------
   0 P :   -0.293241
   1 N :    0.228512
   2 F :    0.271496
   3 F :    0.278623
   4 O :    1.038286
   5 H :   -0.841761
   6 H :   -0.681915

  Mayer bond orders larger than 0.100000
B(  0-P ,  1-N ) :   0.9502 B(  0-P ,  2-F ) :   0.5649 B(  0-P ,  3-F ) :   0.5492
B(  1-N ,  4-O ) :   0.8186 B(  1-N ,  6-H ) :   0.9280 B(  4-O ,  5-H ) :   0.9096

MP2 TOTAL ENERGY:     -671.491603174 Eh
FINAL SINGLE POINT ENERGY      -671.491603174229

DIPOLE MOMENT
-------------
                                X             Y             Z
Electronic contribution:     -4.84309       0.08497      -0.35086
Nuclear contribution   :      5.51670       0.12420       1.06246
                        -----------------------------------------
Total Dipole Moment    :      0.67361       0.20917       0.71160
                        -----------------------------------------
Magnitude (a.u.)       :      1.00193
Magnitude (Debye)      :      2.54671

Rotational constants in cm-1:     0.199600     0.115793     0.100803
Rotational constants in MHz :  5983.868728  3471.379732  3022.008640

                             ****ORCA TERMINATED NORMALLY****
TOTAL RUN TIME: 0 days 0 hours 11 minutes 47 seconds 357 msec
