                         Program Version 5.0.4 -  RELEASE  -
|  1> ! ri-mp2 aug-cc-pvdz aug-cc-pvdz/c tightscf
|  2> %pal nprocs 16 end
|  3> %maxcore 3800
|  4> %base "DZ_P-C_69_AB"
|  5> %scf
|  6> STABPerform true
|  7> STABRestartUHFifUnstable true
|  8> end
|  9>
| 10> *xyz 0 1
| 11> P         0.640432    0.000525    0.092370
| 12> O         0.657613   -0.230083    1.538546
| 13> O         1.312415    1.345547   -0.423366
| 14> C        -0.959755    0.092431   -0.648173
| 15> C        -2.076860    0.717079    0.141518
| 16> C        -2.055602   -0.756647   -0.060659
| 17> H        -2.792663    1.307376   -0.411570
| 18> H        -1.839440    1.086951    1.128573
| 19> H        -0.960586    0.237884   -1.720014
| 20> H        -1.806628   -1.369955    0.793605
| 21> H        -2.756036   -1.196801   -0.755225
| 22> H         2.159868    1.537717   -0.005638
| 23> O         1.447473   -1.119092   -0.719674
| 24> H         1.602317   -1.899191   -0.175446
| 25> *
| 26>
| 27> $new_job
| 28> ! ri-mp2 aug-cc-pvtz aug-cc-pvtz/c tightscf
| 29> %pal nprocs 16 end
| 30> %maxcore 3800
| 31> %base "TZ_P-C_69_AB"
| 32>
| 33> *xyz 0 1
| 34> P         0.640432    0.000525    0.092370
| 35> O         0.657613   -0.230083    1.538546
| 36> O         1.312415    1.345547   -0.423366
| 37> C        -0.959755    0.092431   -0.648173
| 38> C        -2.076860    0.717079    0.141518
| 39> C        -2.055602   -0.756647   -0.060659
| 40> H        -2.792663    1.307376   -0.411570
| 41> H        -1.839440    1.086951    1.128573
| 42> H        -0.960586    0.237884   -1.720014
| 43> H        -1.806628   -1.369955    0.793605
| 44> H        -2.756036   -1.196801   -0.755225
| 45> H         2.159868    1.537717   -0.005638
| 46> O         1.447473   -1.119092   -0.719674
| 47> H         1.602317   -1.899191   -0.175446
| 48> *
| 49>
| 50> $new_job
| 51> ! ri-mp2 aug-cc-pvqz aug-cc-pvqz/c tightscf
| 52> %pal nprocs 16 end
| 53> %maxcore 3800
| 54> %base "QZ_P-C_69_AB"
| 55>
| 56> *xyz 0 1
| 57> P         0.640432    0.000525    0.092370
| 58> O         0.657613   -0.230083    1.538546
| 59> O         1.312415    1.345547   -0.423366
| 60> C        -0.959755    0.092431   -0.648173
| 61> C        -2.076860    0.717079    0.141518
| 62> C        -2.055602   -0.756647   -0.060659
| 63> H        -2.792663    1.307376   -0.411570
| 64> H        -1.839440    1.086951    1.128573
| 65> H        -0.960586    0.237884   -1.720014
| 66> H        -1.806628   -1.369955    0.793605
| 67> H        -2.756036   -1.196801   -0.755225
| 68> H         2.159868    1.537717   -0.005638
| 69> O         1.447473   -1.119092   -0.719674
| 70> H         1.602317   -1.899191   -0.175446
| 71> *
| 72>
| 73>
| 74>
| 75>
| 76>                          ****END OF INPUT****
 Total Charge           Charge          ....    0
 Multiplicity           Mult            ....    1
 Number of Electrons    NEL             ....   64
MP2 TOTAL ENERGY:     -684.258206341 Eh
FINAL SINGLE POINT ENERGY      -684.258206340987
MP2 TOTAL ENERGY:     -684.637218428 Eh
FINAL SINGLE POINT ENERGY      -684.637218428234

CARTESIAN COORDINATES (ANGSTROEM)
---------------------------------
  P      0.640432    0.000525    0.092370
  O      0.657613   -0.230083    1.538546
  O      1.312415    1.345547   -0.423366
  C     -0.959755    0.092431   -0.648173
  C     -2.076860    0.717079    0.141518
  C     -2.055602   -0.756647   -0.060659
  H     -2.792663    1.307376   -0.411570
  H     -1.839440    1.086951    1.128573
  H     -0.960586    0.237884   -1.720014
  H     -1.806628   -1.369955    0.793605
  H     -2.756036   -1.196801   -0.755225
  H      2.159868    1.537717   -0.005638
  O      1.447473   -1.119092   -0.719674
  H      1.602317   -1.899191   -0.175446

 Multiplicity           Mult            ....    1
 Number of Electrons    NEL             ....   64
 Basis Dimension        Dim             ....  886

ORBITAL ENERGIES
----------------

  NO   OCC          E(Eh)            E(eV)
   0   2.0000     -80.062267     -2178.6050
   1   2.0000     -20.595908      -560.4431
   2   2.0000     -20.593029      -560.3648
   3   2.0000     -20.500414      -557.8446
   4   2.0000     -11.243823      -305.9600
   5   2.0000     -11.242906      -305.9350
   6   2.0000     -11.242094      -305.9129
   7   2.0000      -7.585213      -206.4041
   8   2.0000      -5.483518      -149.2141
   9   2.0000      -5.482876      -149.1966
  10   2.0000      -5.481926      -149.1708
  11   2.0000      -1.433229       -39.0001
  12   2.0000      -1.380504       -37.5654
  13   2.0000      -1.294877       -35.2354
  14   2.0000      -1.162487       -31.6329
  15   2.0000      -0.902967       -24.5710
  16   2.0000      -0.838413       -22.8144
  17   2.0000      -0.796905       -21.6849
  18   2.0000      -0.743220       -20.2240
  19   2.0000      -0.705734       -19.2040
  20   2.0000      -0.666104       -18.1256
  21   2.0000      -0.656151       -17.8548
  22   2.0000      -0.623735       -16.9727
  23   2.0000      -0.594638       -16.1809
  24   2.0000      -0.558382       -15.1943
  25   2.0000      -0.551709       -15.0128
  26   2.0000      -0.530833       -14.4447
  27   2.0000      -0.515060       -14.0155
  28   2.0000      -0.464168       -12.6307
  29   2.0000      -0.457873       -12.4593
  30   2.0000      -0.442668       -12.0456
  31   2.0000      -0.440482       -11.9861
  32   0.0000       0.023603         0.6423
  33   0.0000       0.030767         0.8372
  34   0.0000       0.031901         0.8681
  35   0.0000       0.037536         1.0214
  36   0.0000       0.045227         1.2307

MULLIKEN ATOMIC CHARGES
-----------------------
   0 P :    2.594511
   1 O :   -1.174867
   2 O :   -0.991405
   3 C :   -0.762683
   4 C :   -0.657616
   5 C :   -0.652443
   6 H :    0.391021
   7 H :    0.346931
   8 H :    0.416903
   9 H :    0.325154
  10 H :    0.376642
  11 H :    0.377263
  12 O :   -0.982992
  13 H :    0.393583
Sum of atomic charges:    0.0000000

LOEWDIN ATOMIC CHARGES
----------------------
   0 P :   -0.635368
   1 O :    0.342362
   2 O :    1.110793
   3 C :    0.095062
   4 C :    0.556033
   5 C :    0.552652
   6 H :   -0.265037
   7 H :   -0.284920
   8 H :   -0.311573
   9 H :   -0.288421
  10 H :   -0.266013
  11 H :   -0.844145
  12 O :    1.109135
  13 H :   -0.870560

  Mayer bond orders larger than 0.100000
B(  0-P ,  1-O ) :   1.3594 B(  0-P ,  2-O ) :   0.5363 B(  0-P ,  3-C ) :   0.7804
B(  0-P , 12-O ) :   0.6017 B(  2-O ,  3-C ) :  -0.1100 B(  2-O , 11-H ) :   0.9508
B(  3-C ,  4-C ) :   0.8951 B(  3-C ,  5-C ) :   0.8866 B(  3-C ,  8-H ) :   0.8541
B(  3-C , 12-O ) :  -0.1227 B(  4-C ,  5-C ) :   1.0905 B(  4-C ,  6-H ) :   0.8284
B(  4-C ,  7-H ) :   0.8659 B(  5-C ,  9-H ) :   0.8751 B(  5-C , 10-H ) :   0.8488
B( 12-O , 13-H ) :   0.9045

MP2 TOTAL ENERGY:     -684.759012395 Eh
FINAL SINGLE POINT ENERGY      -684.759012395146

DIPOLE MOMENT
-------------
                                X             Y             Z
Electronic contribution:      6.68968       0.16133       0.47706
Nuclear contribution   :     -6.84314      -0.29205      -1.20871
                        -----------------------------------------
Total Dipole Moment    :     -0.15346      -0.13072      -0.73165
                        -----------------------------------------
Magnitude (a.u.)       :      0.75891
Magnitude (Debye)      :      1.92900

Rotational constants in cm-1:     0.124311     0.059223     0.056244
Rotational constants in MHz :  3726.746136  1775.457482  1686.163638

                             ****ORCA TERMINATED NORMALLY****
TOTAL RUN TIME: 0 days 1 hours 53 minutes 43 seconds 675 msec
