                         Program Version 5.0.4 -  RELEASE  -
|  1> ! ri-mp2 aug-cc-pvdz aug-cc-pvdz/c tightscf
|  2> %pal nprocs 16 end
|  3> %maxcore 3800
|  4> %base "DZ_Si-Si_3_AB"
|  5> %scf
|  6> STABPerform true
|  7> STABRestartUHFifUnstable true
|  8> end
|  9>
| 10> *xyz 0 1
| 11> Si         0.314044    1.127613    0.000000
| 12> Si        -0.314044   -1.127613    0.000000
| 13> C        -0.314044    1.998204    1.539903
| 14> H        -1.403578    1.964280    1.589488
| 15> H        -0.010989    3.046319    1.548875
| 16> H         0.075232    1.531284    2.445450
| 17> C         0.314044   -1.998204    1.539903
| 18> H         1.403578   -1.964280    1.589488
| 19> H         0.010989   -3.046319    1.548875
| 20> H        -0.075232   -1.531284    2.445450
| 21> C        -0.314044    1.998204   -1.539904
| 22> H         1.802345    1.196427    0.000000
| 23> H        -1.403578    1.964279   -1.589488
| 24> H         0.075232    1.531284   -2.445450
| 25> H        -0.010989    3.046319   -1.548875
| 26> C         0.314044   -1.998204   -1.539904
| 27> H        -1.802345   -1.196427    0.000000
| 28> H         1.403578   -1.964279   -1.589488
| 29> H        -0.075232   -1.531284   -2.445450
| 30> H         0.010989   -3.046319   -1.548875
| 31> *
| 32>
| 33> $new_job
| 34> ! ri-mp2 aug-cc-pvtz aug-cc-pvtz/c tightscf
| 35> %pal nprocs 16 end
| 36> %maxcore 3800
| 37> %base "TZ_Si-Si_3_AB"
| 38>
| 39> *xyz 0 1
| 40> Si         0.314044    1.127613    0.000000
| 41> Si        -0.314044   -1.127613    0.000000
| 42> C        -0.314044    1.998204    1.539903
| 43> H        -1.403578    1.964280    1.589488
| 44> H        -0.010989    3.046319    1.548875
| 45> H         0.075232    1.531284    2.445450
| 46> C         0.314044   -1.998204    1.539903
| 47> H         1.403578   -1.964280    1.589488
| 48> H         0.010989   -3.046319    1.548875
| 49> H        -0.075232   -1.531284    2.445450
| 50> C        -0.314044    1.998204   -1.539904
| 51> H         1.802345    1.196427    0.000000
| 52> H        -1.403578    1.964279   -1.589488
| 53> H         0.075232    1.531284   -2.445450
| 54> H        -0.010989    3.046319   -1.548875
| 55> C         0.314044   -1.998204   -1.539904
| 56> H        -1.802345   -1.196427    0.000000
| 57> H         1.403578   -1.964279   -1.589488
| 58> H        -0.075232   -1.531284   -2.445450
| 59> H         0.010989   -3.046319   -1.548875
| 60> *
| 61>
| 62> $new_job
| 63> ! ri-mp2 aug-cc-pvqz aug-cc-pvqz/c tightscf
| 64> %pal nprocs 16 end
| 65> %maxcore 3800
| 66> %base "QZ_Si-Si_3_AB"
| 67>
| 68> *xyz 0 1
| 69> Si         0.314044    1.127613    0.000000
| 70> Si        -0.314044   -1.127613    0.000000
| 71> C        -0.314044    1.998204    1.539903
| 72> H        -1.403578    1.964280    1.589488
| 73> H        -0.010989    3.046319    1.548875
| 74> H         0.075232    1.531284    2.445450
| 75> C         0.314044   -1.998204    1.539903
| 76> H         1.403578   -1.964280    1.589488
| 77> H         0.010989   -3.046319    1.548875
| 78> H        -0.075232   -1.531284    2.445450
| 79> C        -0.314044    1.998204   -1.539904
| 80> H         1.802345    1.196427    0.000000
| 81> H        -1.403578    1.964279   -1.589488
| 82> H         0.075232    1.531284   -2.445450
| 83> H        -0.010989    3.046319   -1.548875
| 84> C         0.314044   -1.998204   -1.539904
| 85> H        -1.802345   -1.196427    0.000000
| 86> H         1.403578   -1.964279   -1.589488
| 87> H        -0.075232   -1.531284   -2.445450
| 88> H         0.010989   -3.046319   -1.548875
| 89> *
| 90>
| 91>
| 92>
| 93>
| 94>                          ****END OF INPUT****
 Total Charge           Charge          ....    0
 Multiplicity           Mult            ....    1
 Number of Electrons    NEL             ....   66
MP2 TOTAL ENERGY:     -738.362400619 Eh
FINAL SINGLE POINT ENERGY      -738.362400618989
MP2 TOTAL ENERGY:     -738.601837064 Eh
FINAL SINGLE POINT ENERGY      -738.601837063705

CARTESIAN COORDINATES (ANGSTROEM)
---------------------------------
  Si     0.314044    1.127613    0.000000
  Si    -0.314044   -1.127613    0.000000
  C     -0.314044    1.998204    1.539903
  H     -1.403578    1.964280    1.589488
  H     -0.010989    3.046319    1.548875
  H      0.075232    1.531284    2.445450
  C      0.314044   -1.998204    1.539903
  H      1.403578   -1.964280    1.589488
  H      0.010989   -3.046319    1.548875
  H     -0.075232   -1.531284    2.445450
  C     -0.314044    1.998204   -1.539904
  H      1.802345    1.196427    0.000000
  H     -1.403578    1.964279   -1.589488
  H      0.075232    1.531284   -2.445450
  H     -0.010989    3.046319   -1.548875
  C      0.314044   -1.998204   -1.539904
  H     -1.802345   -1.196427    0.000000
  H      1.403578   -1.964279   -1.589488
  H     -0.075232   -1.531284   -2.445450
  H      0.010989   -3.046319   -1.548875

 Multiplicity           Mult            ....    1
 Number of Electrons    NEL             ....   66
 Basis Dimension        Dim             .... 1132

ORBITAL ENERGIES
----------------

  NO   OCC          E(Eh)            E(eV)
   0   2.0000     -68.743152     -1870.5963
   1   2.0000     -68.743150     -1870.5962
   2   2.0000     -11.198444      -304.7251
   3   2.0000     -11.198443      -304.7251
   4   2.0000     -11.198436      -304.7249
   5   2.0000     -11.198436      -304.7249
   6   2.0000      -6.093814      -165.8211
   7   2.0000      -6.093663      -165.8170
   8   2.0000      -4.200341      -114.2971
   9   2.0000      -4.200118      -114.2910
  10   2.0000      -4.199954      -114.2866
  11   2.0000      -4.199738      -114.2807
  12   2.0000      -4.199657      -114.2785
  13   2.0000      -4.199522      -114.2748
  14   2.0000      -0.959308       -26.1041
  15   2.0000      -0.950474       -25.8637
  16   2.0000      -0.926428       -25.2094
  17   2.0000      -0.923043       -25.1173
  18   2.0000      -0.686292       -18.6750
  19   2.0000      -0.619387       -16.8544
  20   2.0000      -0.569461       -15.4958
  21   2.0000      -0.565006       -15.3746
  22   2.0000      -0.563687       -15.3387
  23   2.0000      -0.551566       -15.0089
  24   2.0000      -0.549813       -14.9612
  25   2.0000      -0.543833       -14.7984
  26   2.0000      -0.542434       -14.7604
  27   2.0000      -0.536910       -14.6101
  28   2.0000      -0.452143       -12.3034
  29   2.0000      -0.444156       -12.0861
  30   2.0000      -0.437329       -11.9003
  31   2.0000      -0.428225       -11.6526
  32   2.0000      -0.362560        -9.8658
  33   0.0000       0.022450         0.6109
  34   0.0000       0.029601         0.8055
  35   0.0000       0.032653         0.8885
  36   0.0000       0.033217         0.9039
  37   0.0000       0.044652         1.2150

MULLIKEN ATOMIC CHARGES
-----------------------
   0 Si:    1.068124
   1 Si:    1.068124
   2 C :   -1.150624
   3 H :    0.229998
   4 H :    0.309642
   5 H :    0.292846
   6 C :   -1.150624
   7 H :    0.229998
   8 H :    0.309642
   9 H :    0.292846
  10 C :   -1.150624
  11 H :   -0.431848
  12 H :    0.229998
  13 H :    0.292846
  14 H :    0.309642
  15 C :   -1.150624
  16 H :   -0.431848
  17 H :    0.229998
  18 H :    0.292846
  19 H :    0.309642
Sum of atomic charges:    0.0000000

LOEWDIN ATOMIC CHARGES
----------------------
   0 Si:    0.501957
   1 Si:    0.501957
   2 C :    0.909236
   3 H :   -0.350020
   4 H :   -0.349369
   5 H :   -0.356190
   6 C :    0.909236
   7 H :   -0.350020
   8 H :   -0.349369
   9 H :   -0.356190
  10 C :    0.909237
  11 H :   -0.209272
  12 H :   -0.350020
  13 H :   -0.356191
  14 H :   -0.349369
  15 C :    0.909237
  16 H :   -0.209272
  17 H :   -0.350020
  18 H :   -0.356191
  19 H :   -0.349369

  Mayer bond orders larger than 0.100000
B(  0-Si,  1-Si) :   0.8349 B(  0-Si,  2-C ) :   0.8294 B(  0-Si, 10-C ) :   0.8294
B(  0-Si, 11-H ) :   0.7016 B(  1-Si,  6-C ) :   0.8294 B(  1-Si, 15-C ) :   0.8294
B(  1-Si, 16-H ) :   0.7016 B(  2-C ,  3-H ) :   0.9609 B(  2-C ,  4-H ) :   0.9265
B(  2-C ,  5-H ) :   0.9342 B(  6-C ,  7-H ) :   0.9609 B(  6-C ,  8-H ) :   0.9265
B(  6-C ,  9-H ) :   0.9342 B( 10-C , 12-H ) :   0.9609 B( 10-C , 13-H ) :   0.9342
B( 10-C , 14-H ) :   0.9265 B( 15-C , 17-H ) :   0.9609 B( 15-C , 18-H ) :   0.9342
B( 15-C , 19-H ) :   0.9265

MP2 TOTAL ENERGY:     -738.673162944 Eh
FINAL SINGLE POINT ENERGY      -738.673162943633

DIPOLE MOMENT
-------------
                                X             Y             Z
Electronic contribution:     -0.00000      -0.00000      -0.00000
Nuclear contribution   :     -0.00000      -0.00000       0.00000
                        -----------------------------------------
Total Dipole Moment    :     -0.00000      -0.00000       0.00000
                        -----------------------------------------
Magnitude (a.u.)       :      0.00000
Magnitude (Debye)      :      0.00000

Rotational constants in cm-1:     0.092738     0.047706     0.034588
Rotational constants in MHz :  2780.213083  1430.202394  1036.926070

                             ****ORCA TERMINATED NORMALLY****
TOTAL RUN TIME: 0 days 3 hours 33 minutes 7 seconds 110 msec
