                         Program Version 5.0.4 -  RELEASE  -
|  1> ! ri-mp2 aug-cc-pvdz aug-cc-pvdz/c tightscf
|  2> %pal nprocs 16 end
|  3> %maxcore 3800
|  4> %base "DZ_Si-S_30_AB"
|  5> %scf
|  6> STABPerform true
|  7> STABRestartUHFifUnstable true
|  8> end
|  9>
| 10> *xyz 0 1
| 11> S        -0.117089   -1.000853   -0.211720
| 12> Si        -1.578545    0.519405    0.052378
| 13> C         1.348652   -0.223967    0.558259
| 14> C         2.008317    0.841143   -0.295600
| 15> H         2.033493   -1.052038    0.735279
| 16> H         1.063833    0.168425    1.534041
| 17> H         2.295465    0.437729   -1.265873
| 18> H         2.905104    1.219093    0.199087
| 19> H         1.341164    1.685080   -0.469453
| 20> H        -2.858832   -0.071034   -0.382585
| 21> H        -1.301220    1.732209   -0.747998
| 22> H        -1.647765    0.919452    1.475771
| 23> *
| 24>
| 25> $new_job
| 26> ! ri-mp2 aug-cc-pvtz aug-cc-pvtz/c tightscf
| 27> %pal nprocs 16 end
| 28> %maxcore 3800
| 29> %base "TZ_Si-S_30_AB"
| 30>
| 31> *xyz 0 1
| 32> S        -0.117089   -1.000853   -0.211720
| 33> Si        -1.578545    0.519405    0.052378
| 34> C         1.348652   -0.223967    0.558259
| 35> C         2.008317    0.841143   -0.295600
| 36> H         2.033493   -1.052038    0.735279
| 37> H         1.063833    0.168425    1.534041
| 38> H         2.295465    0.437729   -1.265873
| 39> H         2.905104    1.219093    0.199087
| 40> H         1.341164    1.685080   -0.469453
| 41> H        -2.858832   -0.071034   -0.382585
| 42> H        -1.301220    1.732209   -0.747998
| 43> H        -1.647765    0.919452    1.475771
| 44> *
| 45>
| 46> $new_job
| 47> ! ri-mp2 aug-cc-pvqz aug-cc-pvqz/c tightscf
| 48> %pal nprocs 16 end
| 49> %maxcore 3800
| 50> %base "QZ_Si-S_30_AB"
| 51>
| 52> *xyz 0 1
| 53> S        -0.117089   -1.000853   -0.211720
| 54> Si        -1.578545    0.519405    0.052378
| 55> C         1.348652   -0.223967    0.558259
| 56> C         2.008317    0.841143   -0.295600
| 57> H         2.033493   -1.052038    0.735279
| 58> H         1.063833    0.168425    1.534041
| 59> H         2.295465    0.437729   -1.265873
| 60> H         2.905104    1.219093    0.199087
| 61> H         1.341164    1.685080   -0.469453
| 62> H        -2.858832   -0.071034   -0.382585
| 63> H        -1.301220    1.732209   -0.747998
| 64> H        -1.647765    0.919452    1.475771
| 65> *
| 66>
| 67>
| 68>
| 69>
| 70>                          ****END OF INPUT****
 Total Charge           Charge          ....    0
 Multiplicity           Mult            ....    1
 Number of Electrons    NEL             ....   50
MP2 TOTAL ENERGY:     -767.440901798 Eh
FINAL SINGLE POINT ENERGY      -767.440901797621
MP2 TOTAL ENERGY:     -767.611868713 Eh
FINAL SINGLE POINT ENERGY      -767.611868713422

CARTESIAN COORDINATES (ANGSTROEM)
---------------------------------
  S     -0.117089   -1.000853   -0.211720
  Si    -1.578545    0.519405    0.052378
  C      1.348652   -0.223967    0.558259
  C      2.008317    0.841143   -0.295600
  H      2.033493   -1.052038    0.735279
  H      1.063833    0.168425    1.534041
  H      2.295465    0.437729   -1.265873
  H      2.905104    1.219093    0.199087
  H      1.341164    1.685080   -0.469453
  H     -2.858832   -0.071034   -0.382585
  H     -1.301220    1.732209   -0.747998
  H     -1.647765    0.919452    1.475771

 Multiplicity           Mult            ....    1
 Number of Electrons    NEL             ....   50
 Basis Dimension        Dim             ....  696

ORBITAL ENERGIES
----------------

  NO   OCC          E(Eh)            E(eV)
   0   2.0000     -91.936119     -2501.7090
   1   2.0000     -68.789224     -1871.8499
   2   2.0000     -11.265614      -306.5529
   3   2.0000     -11.225968      -305.4741
   4   2.0000      -8.940430      -243.2815
   5   2.0000      -6.621881      -180.1906
   6   2.0000      -6.621162      -180.1710
   7   2.0000      -6.620452      -180.1517
   8   2.0000      -6.136822      -166.9914
   9   2.0000      -4.243411      -115.4691
  10   2.0000      -4.243009      -115.4582
  11   2.0000      -4.242761      -115.4514
  12   2.0000      -1.072239       -29.1771
  13   2.0000      -0.942415       -25.6444
  14   2.0000      -0.826011       -22.4769
  15   2.0000      -0.704793       -19.1784
  16   2.0000      -0.632367       -17.2076
  17   2.0000      -0.594870       -16.1872
  18   2.0000      -0.547261       -14.8917
  19   2.0000      -0.523472       -14.2444
  20   2.0000      -0.501813       -13.6550
  21   2.0000      -0.491183       -13.3658
  22   2.0000      -0.462112       -12.5747
  23   2.0000      -0.419073       -11.4036
  24   2.0000      -0.356041        -9.6884
  25   0.0000       0.024177         0.6579
  26   0.0000       0.031974         0.8701
  27   0.0000       0.035639         0.9698
  28   0.0000       0.036505         0.9934
  29   0.0000       0.049204         1.3389

MULLIKEN ATOMIC CHARGES
-----------------------
   0 S :   -0.355094
   1 Si:    0.835674
   2 C :   -0.484566
   3 C :   -0.837928
   4 H :    0.334844
   5 H :    0.281129
   6 H :    0.259983
   7 H :    0.271969
   8 H :    0.292564
   9 H :   -0.239214
  10 H :   -0.182335
  11 H :   -0.177028
Sum of atomic charges:    0.0000000

LOEWDIN ATOMIC CHARGES
----------------------
   0 S :    1.125167
   1 Si:    0.598165
   2 C :    0.049240
   3 C :    0.819285
   4 H :   -0.383000
   5 H :   -0.378908
   6 H :   -0.302894
   7 H :   -0.285655
   8 H :   -0.328084
   9 H :   -0.322834
  10 H :   -0.297208
  11 H :   -0.293273

  Mayer bond orders larger than 0.100000
B(  0-S ,  1-Si) :   0.8016 B(  0-S ,  2-C ) :   0.9255 B(  1-Si,  9-H ) :   0.8316
B(  1-Si, 10-H ) :   0.8041 B(  1-Si, 11-H ) :   0.8064 B(  2-C ,  3-C ) :   0.9746
B(  2-C ,  4-H ) :   0.8251 B(  2-C ,  5-H ) :   0.9029 B(  3-C ,  6-H ) :   0.9428
B(  3-C ,  7-H ) :   0.9174 B(  3-C ,  8-H ) :   0.9088

MP2 TOTAL ENERGY:     -767.665285905 Eh
FINAL SINGLE POINT ENERGY      -767.665285904627

DIPOLE MOMENT
-------------
                                X             Y             Z
Electronic contribution:     -3.59807      -4.65890      -0.83041
Nuclear contribution   :      4.00193       5.12958       1.10123
                        -----------------------------------------
Total Dipole Moment    :      0.40386       0.47068       0.27081
                        -----------------------------------------
Magnitude (a.u.)       :      0.67674
Magnitude (Debye)      :      1.72014

Rotational constants in cm-1:     0.233889     0.089602     0.072562
Rotational constants in MHz :  7011.821659  2686.204544  2175.348360

                             ****ORCA TERMINATED NORMALLY****
TOTAL RUN TIME: 0 days 0 hours 24 minutes 6 seconds 929 msec
