                         Program Version 5.0.4 -  RELEASE  -
|  1> ! ri-mp2 aug-cc-pvdz aug-cc-pvdz/c tightscf
|  2> %pal nprocs 16 end
|  3> %maxcore 3800
|  4> %base "DZ_P-C_10_AB"
|  5>
|  6> *xyz 0 1
|  7> O        -1.256664   -1.053906    0.051108
|  8> C        -2.566749   -0.742938    0.057136
|  9> C        -0.570729    0.120205   -0.018759
| 10> C        -2.743447    0.595803   -0.004760
| 11> C        -1.437602    1.160457   -0.053654
| 12> H        -3.684264    1.117994   -0.016379
| 13> H        -3.248852   -1.573442    0.107368
| 14> H        -1.162118    2.199282   -0.111489
| 15> P         1.197379    0.131353   -0.028481
| 16> O         1.694409   -0.727188    1.223577
| 17> O         1.746369    1.482608   -0.066564
| 18> H         1.951763   -0.161766    1.961054
| 19> O         1.521320   -0.857575   -1.220583
| 20> H         2.450482   -1.105030   -1.293413
| 21> *
| 22>
| 23> $new_job
| 24> ! ri-mp2 aug-cc-pvtz aug-cc-pvtz/c tightscf
| 25> %pal nprocs 16 end
| 26> %maxcore 3800
| 27> %base "TZ_P-C_10_AB"
| 28>
| 29> *xyz 0 1
| 30> O        -1.256664   -1.053906    0.051108
| 31> C        -2.566749   -0.742938    0.057136
| 32> C        -0.570729    0.120205   -0.018759
| 33> C        -2.743447    0.595803   -0.004760
| 34> C        -1.437602    1.160457   -0.053654
| 35> H        -3.684264    1.117994   -0.016379
| 36> H        -3.248852   -1.573442    0.107368
| 37> H        -1.162118    2.199282   -0.111489
| 38> P         1.197379    0.131353   -0.028481
| 39> O         1.694409   -0.727188    1.223577
| 40> O         1.746369    1.482608   -0.066564
| 41> H         1.951763   -0.161766    1.961054
| 42> O         1.521320   -0.857575   -1.220583
| 43> H         2.450482   -1.105030   -1.293413
| 44> *
| 45>
| 46> $new_job
| 47> ! ri-mp2 aug-cc-pvqz aug-cc-pvqz/c tightscf
| 48> %pal nprocs 16 end
| 49> %maxcore 3800
| 50> %base "QZ_P-C_10_AB"
| 51>
| 52> *xyz 0 1
| 53> O        -1.256664   -1.053906    0.051108
| 54> C        -2.566749   -0.742938    0.057136
| 55> C        -0.570729    0.120205   -0.018759
| 56> C        -2.743447    0.595803   -0.004760
| 57> C        -1.437602    1.160457   -0.053654
| 58> H        -3.684264    1.117994   -0.016379
| 59> H        -3.248852   -1.573442    0.107368
| 60> H        -1.162118    2.199282   -0.111489
| 61> P         1.197379    0.131353   -0.028481
| 62> O         1.694409   -0.727188    1.223577
| 63> O         1.746369    1.482608   -0.066564
| 64> H         1.951763   -0.161766    1.961054
| 65> O         1.521320   -0.857575   -1.220583
| 66> H         2.450482   -1.105030   -1.293413
| 67> *
| 68>
| 69>
| 70>
| 71>
| 72>                          ****END OF INPUT****
 Total Charge           Charge          ....    0
 Multiplicity           Mult            ....    1
 Number of Electrons    NEL             ....   76
MP2 TOTAL ENERGY:     -796.129986805 Eh
FINAL SINGLE POINT ENERGY      -796.129986805273
MP2 TOTAL ENERGY:     -796.596093336 Eh
FINAL SINGLE POINT ENERGY      -796.596093335534

CARTESIAN COORDINATES (ANGSTROEM)
---------------------------------
  O     -1.256664   -1.053906    0.051108
  C     -2.566749   -0.742938    0.057136
  C     -0.570729    0.120205   -0.018759
  C     -2.743447    0.595803   -0.004760
  C     -1.437602    1.160457   -0.053654
  H     -3.684264    1.117994   -0.016379
  H     -3.248852   -1.573442    0.107368
  H     -1.162118    2.199282   -0.111489
  P      1.197379    0.131353   -0.028481
  O      1.694409   -0.727188    1.223577
  O      1.746369    1.482608   -0.066564
  H      1.951763   -0.161766    1.961054
  O      1.521320   -0.857575   -1.220583
  H      2.450482   -1.105030   -1.293413

 Multiplicity           Mult            ....    1
 Number of Electrons    NEL             ....   76
 Basis Dimension        Dim             ....  954

ORBITAL ENERGIES
----------------

  NO   OCC          E(Eh)            E(eV)
   0   2.0000     -80.075492     -2178.9649
   1   2.0000     -20.637985      -561.5881
   2   2.0000     -20.602286      -560.6167
   3   2.0000     -20.601281      -560.5893
   4   2.0000     -20.505652      -557.9872
   5   2.0000     -11.308209      -307.7120
   6   2.0000     -11.291581      -307.2595
   7   2.0000     -11.253517      -306.2238
   8   2.0000     -11.240849      -305.8791
   9   2.0000      -7.597429      -206.7366
  10   2.0000      -5.495952      -149.5525
  11   2.0000      -5.495358      -149.5363
  12   2.0000      -5.494415      -149.5106
  13   2.0000      -1.481788       -40.3215
  14   2.0000      -1.441649       -39.2293
  15   2.0000      -1.386899       -37.7394
  16   2.0000      -1.302016       -35.4296
  17   2.0000      -1.106148       -30.0998
  18   2.0000      -1.032962       -28.1083
  19   2.0000      -0.878572       -23.9072
  20   2.0000      -0.825316       -22.4580
  21   2.0000      -0.787862       -21.4388
  22   2.0000      -0.762878       -20.7590
  23   2.0000      -0.747104       -20.3297
  24   2.0000      -0.673605       -18.3297
  25   2.0000      -0.656177       -17.8555
  26   2.0000      -0.649543       -17.6750
  27   2.0000      -0.623283       -16.9604
  28   2.0000      -0.594960       -16.1897
  29   2.0000      -0.584983       -15.9182
  30   2.0000      -0.579135       -15.7591
  31   2.0000      -0.569498       -15.4968
  32   2.0000      -0.557071       -15.1587
  33   2.0000      -0.523131       -14.2351
  34   2.0000      -0.470758       -12.8100
  35   2.0000      -0.466539       -12.6952
  36   2.0000      -0.415503       -11.3064
  37   2.0000      -0.343726        -9.3533
  38   0.0000       0.021250         0.5782
  39   0.0000       0.028304         0.7702
  40   0.0000       0.031760         0.8642
  41   0.0000       0.037674         1.0252
  42   0.0000       0.045112         1.2276

MULLIKEN ATOMIC CHARGES
-----------------------
   0 O :   -0.655518
   1 C :   -0.530331
   2 C :    0.266453
   3 C :   -0.261121
   4 C :   -0.720836
   5 H :    0.456975
   6 H :    0.578057
   7 H :    0.369098
   8 P :    2.796353
   9 O :   -0.921844
  10 O :   -1.201188
  11 H :    0.398352
  12 O :   -0.961869
  13 H :    0.387418
Sum of atomic charges:   -0.0000000

LOEWDIN ATOMIC CHARGES
----------------------
   0 O :    0.810574
   1 C :   -0.007402
   2 C :   -0.536746
   3 C :    0.313021
   4 C :    0.247200
   5 H :   -0.327177
   6 H :   -0.322830
   7 H :   -0.316073
   8 P :   -0.661406
   9 O :    1.099985
  10 O :    0.307485
  11 H :   -0.864571
  12 O :    1.098141
  13 H :   -0.840201

  Mayer bond orders larger than 0.100000
B(  0-O ,  1-C ) :   1.1292 B(  0-O ,  2-C ) :   0.4983 B(  0-O ,  4-C ) :   0.1324
B(  1-C ,  2-C ) :  -0.1812 B(  1-C ,  3-C ) :   1.6582 B(  1-C ,  4-C ) :   0.1801
B(  1-C ,  6-H ) :   0.7305 B(  2-C ,  3-C ) :  -0.4090 B(  2-C ,  4-C ) :   0.8702
B(  2-C ,  8-P ) :   0.7869 B(  2-C , 10-O ) :  -0.1971 B(  3-C ,  4-C ) :   1.1586
B(  3-C ,  5-H ) :   0.8421 B(  4-C ,  7-H ) :   0.8790 B(  8-P ,  9-O ) :   0.6139
B(  8-P , 10-O ) :   1.2748 B(  8-P , 12-O ) :   0.5114 B(  9-O , 11-H ) :   0.8976
B( 12-O , 13-H ) :   0.9141

MP2 TOTAL ENERGY:     -796.747903769 Eh
FINAL SINGLE POINT ENERGY      -796.747903769430

DIPOLE MOMENT
-------------
                                X             Y             Z
Electronic contribution:      3.96999      -0.90874      -0.23291
Nuclear contribution   :     -4.60334       0.32172       0.64985
                        -----------------------------------------
Total Dipole Moment    :     -0.63335      -0.58702       0.41694
                        -----------------------------------------
Magnitude (a.u.)       :      0.95894
Magnitude (Debye)      :      2.43742

Rotational constants in cm-1:     0.102573     0.034490     0.030877
Rotational constants in MHz :  3075.054297  1033.984233   925.676305

                             ****ORCA TERMINATED NORMALLY****
TOTAL RUN TIME: 0 days 0 hours 21 minutes 38 seconds 223 msec
