                         Program Version 5.0.4 -  RELEASE  -
|  1> ! ri-mp2 aug-cc-pvdz aug-cc-pvdz/c tightscf
|  2> %pal nprocs 16 end
|  3> %maxcore 3800
|  4> %base "DZ_P-F_9_AB"
|  5> %scf
|  6> STABPerform true
|  7> STABRestartUHFifUnstable true
|  8> end
|  9>
| 10> *xyz 0 1
| 11> F        -2.830988    0.501374   -0.643832
| 12> F        -2.851385   -1.333848    0.917418
| 13> O         0.772209    3.018380    0.111357
| 14> C        -0.262049    2.273447   -0.543881
| 15> H        -0.233747    2.392468   -1.628422
| 16> H        -1.253356    2.544226   -0.174785
| 17> C         0.278312    0.942187    0.026664
| 18> P        -1.949939   -0.778622   -0.269320
| 19> C        -0.726041    0.081537    0.782181
| 20> H        -1.291203    0.695876    1.486586
| 21> H        -0.216343   -0.692908    1.358272
| 22> C         1.148494    1.877275    0.893400
| 23> H         0.803777    1.962286    1.927458
| 24> H         2.224298    1.708123    0.883220
| 25> C         1.106665    0.189877   -1.017417
| 26> P         2.115329   -1.254268   -0.531211
| 27> F         0.938513   -2.263118   -0.147065
| 28> F         2.493443   -0.811501    0.955130
| 29> H         1.810309    0.890775   -1.477756
| 30> H         0.479215   -0.176637   -1.838012
| 31> *
| 32>
| 33> $new_job
| 34> ! ri-mp2 aug-cc-pvtz aug-cc-pvtz/c tightscf
| 35> %pal nprocs 16 end
| 36> %maxcore 3800
| 37> %base "TZ_P-F_9_AB"
| 38>
| 39> *xyz 0 1
| 40> F        -2.830988    0.501374   -0.643832
| 41> F        -2.851385   -1.333848    0.917418
| 42> O         0.772209    3.018380    0.111357
| 43> C        -0.262049    2.273447   -0.543881
| 44> H        -0.233747    2.392468   -1.628422
| 45> H        -1.253356    2.544226   -0.174785
| 46> C         0.278312    0.942187    0.026664
| 47> P        -1.949939   -0.778622   -0.269320
| 48> C        -0.726041    0.081537    0.782181
| 49> H        -1.291203    0.695876    1.486586
| 50> H        -0.216343   -0.692908    1.358272
| 51> C         1.148494    1.877275    0.893400
| 52> H         0.803777    1.962286    1.927458
| 53> H         2.224298    1.708123    0.883220
| 54> C         1.106665    0.189877   -1.017417
| 55> P         2.115329   -1.254268   -0.531211
| 56> F         0.938513   -2.263118   -0.147065
| 57> F         2.493443   -0.811501    0.955130
| 58> H         1.810309    0.890775   -1.477756
| 59> H         0.479215   -0.176637   -1.838012
| 60> *
| 61>
| 62> $new_job
| 63> ! ri-mp2 aug-cc-pvqz aug-cc-pvqz/c tightscf
| 64> %pal nprocs 16 end
| 65> %maxcore 3800
| 66> %base "QZ_P-F_9_AB"
| 67>
| 68> *xyz 0 1
| 69> F        -2.830988    0.501374   -0.643832
| 70> F        -2.851385   -1.333848    0.917418
| 71> O         0.772209    3.018380    0.111357
| 72> C        -0.262049    2.273447   -0.543881
| 73> H        -0.233747    2.392468   -1.628422
| 74> H        -1.253356    2.544226   -0.174785
| 75> C         0.278312    0.942187    0.026664
| 76> P        -1.949939   -0.778622   -0.269320
| 77> C        -0.726041    0.081537    0.782181
| 78> H        -1.291203    0.695876    1.486586
| 79> H        -0.216343   -0.692908    1.358272
| 80> C         1.148494    1.877275    0.893400
| 81> H         0.803777    1.962286    1.927458
| 82> H         2.224298    1.708123    0.883220
| 83> C         1.106665    0.189877   -1.017417
| 84> P         2.115329   -1.254268   -0.531211
| 85> F         0.938513   -2.263118   -0.147065
| 86> F         2.493443   -0.811501    0.955130
| 87> H         1.810309    0.890775   -1.477756
| 88> H         0.479215   -0.176637   -1.838012
| 89> *
| 90>
| 91>
| 92>
| 93>
| 94>                          ****END OF INPUT****
 Total Charge           Charge          ....    0
 Multiplicity           Mult            ....    1
 Number of Electrons    NEL             ....  112
MP2 TOTAL ENERGY:    -1350.214489450 Eh
FINAL SINGLE POINT ENERGY     -1350.214489449503
MP2 TOTAL ENERGY:    -1350.889378107 Eh
FINAL SINGLE POINT ENERGY     -1350.889378106903

CARTESIAN COORDINATES (ANGSTROEM)
---------------------------------
  F     -2.830988    0.501374   -0.643832
  F     -2.851385   -1.333848    0.917418
  O      0.772209    3.018380    0.111357
  C     -0.262049    2.273447   -0.543881
  H     -0.233747    2.392468   -1.628422
  H     -1.253356    2.544226   -0.174785
  C      0.278312    0.942187    0.026664
  P     -1.949939   -0.778622   -0.269320
  C     -0.726041    0.081537    0.782181
  H     -1.291203    0.695876    1.486586
  H     -0.216343   -0.692908    1.358272
  C      1.148494    1.877275    0.893400
  H      0.803777    1.962286    1.927458
  H      2.224298    1.708123    0.883220
  C      1.106665    0.189877   -1.017417
  P      2.115329   -1.254268   -0.531211
  F      0.938513   -2.263118   -0.147065
  F      2.493443   -0.811501    0.955130
  H      1.810309    0.890775   -1.477756
  H      0.479215   -0.176637   -1.838012

 Multiplicity           Mult            ....    1
 Number of Electrons    NEL             ....  112
 Basis Dimension        Dim             .... 1336

ORBITAL ENERGIES
----------------

  NO   OCC          E(Eh)            E(eV)
   0   2.0000     -80.073239     -2178.9036
   1   2.0000     -80.061758     -2178.5912
   2   2.0000     -26.326253      -716.3738
   3   2.0000     -26.325648      -716.3573
   4   2.0000     -26.315700      -716.0866
   5   2.0000     -26.315265      -716.0748
   6   2.0000     -20.561386      -559.5038
   7   2.0000     -11.291470      -307.2565
   8   2.0000     -11.291366      -307.2537
   9   2.0000     -11.276944      -306.8613
  10   2.0000     -11.261603      -306.4438
  11   2.0000     -11.249336      -306.1100
  12   2.0000      -7.600593      -206.8227
  13   2.0000      -7.589507      -206.5210
  14   2.0000      -5.494714      -149.5188
  15   2.0000      -5.493778      -149.4933
  16   2.0000      -5.491683      -149.4363
  17   2.0000      -5.483706      -149.2192
  18   2.0000      -5.482673      -149.1911
  19   2.0000      -5.480691      -149.1372
  20   2.0000      -1.654172       -45.0123
  21   2.0000      -1.642820       -44.7034
  22   2.0000      -1.620521       -44.0966
  23   2.0000      -1.609961       -43.8093
  24   2.0000      -1.400942       -38.1216
  25   2.0000      -1.123237       -30.5648
  26   2.0000      -1.012095       -27.5405
  27   2.0000      -0.955502       -26.0005
  28   2.0000      -0.953581       -25.9483
  29   2.0000      -0.869037       -23.6477
  30   2.0000      -0.854754       -23.2590
  31   2.0000      -0.771434       -20.9918
  32   2.0000      -0.761170       -20.7125
  33   2.0000      -0.749944       -20.4070
  34   2.0000      -0.740716       -20.1559
  35   2.0000      -0.732678       -19.9372
  36   2.0000      -0.726909       -19.7802
  37   2.0000      -0.716177       -19.4882
  38   2.0000      -0.704279       -19.1644
  39   2.0000      -0.693378       -18.8678
  40   2.0000      -0.688678       -18.7399
  41   2.0000      -0.671947       -18.2846
  42   2.0000      -0.664865       -18.0919
  43   2.0000      -0.654479       -17.8093
  44   2.0000      -0.635472       -17.2921
  45   2.0000      -0.610022       -16.5995
  46   2.0000      -0.598255       -16.2793
  47   2.0000      -0.584149       -15.8955
  48   2.0000      -0.573125       -15.5955
  49   2.0000      -0.563446       -15.3322
  50   2.0000      -0.527498       -14.3539
  51   2.0000      -0.478728       -13.0269
  52   2.0000      -0.478334       -13.0161
  53   2.0000      -0.435377       -11.8472
  54   2.0000      -0.400173       -10.8893
  55   2.0000      -0.391780       -10.6609
  56   0.0000       0.023631         0.6430
  57   0.0000       0.029002         0.7892
  58   0.0000       0.033761         0.9187
  59   0.0000       0.035820         0.9747
  60   0.0000       0.046011         1.2520

MULLIKEN ATOMIC CHARGES
-----------------------
   0 F :   -0.751059
   1 F :   -0.767799
   2 O :   -0.995797
   3 C :   -0.336305
   4 H :    0.396396
   5 H :    0.253085
   6 C :    1.074672
   7 P :    1.483389
   8 C :   -0.787118
   9 H :    0.180717
  10 H :    0.223950
  11 C :   -0.303540
  12 H :    0.298533
  13 H :    0.309932
  14 C :   -0.637913
  15 P :    1.465321
  16 F :   -0.742679
  17 F :   -0.749673
  18 H :    0.252168
  19 H :    0.133721
Sum of atomic charges:    0.0000000

LOEWDIN ATOMIC CHARGES
----------------------
   0 F :    0.325959
   1 F :    0.317365
   2 O :    0.896452
   3 C :    0.170985
   4 H :   -0.273400
   5 H :   -0.296529
   6 C :   -0.436842
   7 P :   -0.063841
   8 C :    0.317546
   9 H :   -0.355203
  10 H :   -0.391850
  11 C :    0.173254
  12 H :   -0.272553
  13 H :   -0.303118
  14 C :    0.304411
  15 P :   -0.020202
  16 F :    0.323623
  17 F :    0.333553
  18 H :   -0.369620
  19 H :   -0.379988

  Mayer bond orders larger than 0.100000
B(  0-F ,  7-P ) :   0.5213 B(  0-F ,  8-C ) :  -0.1123 B(  1-F ,  7-P ) :   0.4633
B(  1-F ,  8-C ) :  -0.1537 B(  2-O ,  3-C ) :   0.7649 B(  2-O ,  6-C ) :  -0.1177
B(  2-O , 11-C ) :   0.8269 B(  3-C ,  4-H ) :   0.8513 B(  3-C ,  5-H ) :   0.9994
B(  3-C ,  6-C ) :   0.6126 B(  3-C , 11-C ) :   0.2367 B(  6-C ,  7-P ) :  -0.2305
B(  6-C ,  8-C ) :   0.4373 B(  6-C , 11-C ) :   0.5028 B(  6-C , 14-C ) :   0.6216
B(  6-C , 17-F ) :  -0.1199 B(  6-C , 18-H ) :  -0.1483 B(  7-P ,  8-C ) :   0.9399
B(  8-C ,  9-H ) :   1.0372 B(  8-C , 10-H ) :   1.0089 B( 11-C , 12-H ) :   0.9520
B( 11-C , 13-H ) :   0.9301 B( 14-C , 15-P ) :   0.7241 B( 14-C , 16-F ) :  -0.1798
B( 14-C , 18-H ) :   1.0037 B( 14-C , 19-H ) :   1.0453 B( 15-P , 16-F ) :   0.5030
B( 15-P , 17-F ) :   0.5089

MP2 TOTAL ENERGY:    -1351.107822685 Eh
FINAL SINGLE POINT ENERGY     -1351.107822684861

DIPOLE MOMENT
-------------
                                X             Y             Z
Electronic contribution:     -3.67684     -14.39205      -0.56248
Nuclear contribution   :      4.16799      14.36642       0.22023
                        -----------------------------------------
Total Dipole Moment    :      0.49115      -0.02564      -0.34225
                        -----------------------------------------
Magnitude (a.u.)       :      0.59918
Magnitude (Debye)      :      1.52300

Rotational constants in cm-1:     0.028112     0.019572     0.013425
Rotational constants in MHz :   842.776174   586.739602   402.461839

                             ****ORCA TERMINATED NORMALLY****
TOTAL RUN TIME: 0 days 5 hours 12 minutes 33 seconds 774 msec
