                         Program Version 5.0.4 -  RELEASE  -
|  1> ! ri-mp2 aug-cc-pvdz aug-cc-pvdz/c tightscf
|  2> %pal nprocs 16 end
|  3> %maxcore 3800
|  4> %base "DZ_S-F_11_AB"
|  5> %scf
|  6> STABPerform true
|  7> STABRestartUHFifUnstable true
|  8> end
|  9>
| 10> *xyz 0 1
| 11> F        -2.041743    0.607159    0.281466
| 12> S        -1.159248   -0.642366   -0.293543
| 13> Si         0.728239    0.105874    0.340911
| 14> F         1.729503   -1.066154   -0.009609
| 15> F         1.155141    1.386598   -0.475998
| 16> H         0.766504    0.447193    1.761207
| 17> *
| 18>
| 19> $new_job
| 20> ! ri-mp2 aug-cc-pvtz aug-cc-pvtz/c tightscf
| 21> %pal nprocs 16 end
| 22> %maxcore 3800
| 23> %base "TZ_S-F_11_AB"
| 24>
| 25> *xyz 0 1
| 26> F        -2.041743    0.607159    0.281466
| 27> S        -1.159248   -0.642366   -0.293543
| 28> Si         0.728239    0.105874    0.340911
| 29> F         1.729503   -1.066154   -0.009609
| 30> F         1.155141    1.386598   -0.475998
| 31> H         0.766504    0.447193    1.761207
| 32> *
| 33>
| 34> $new_job
| 35> ! ri-mp2 aug-cc-pvqz aug-cc-pvqz/c tightscf
| 36> %pal nprocs 16 end
| 37> %maxcore 3800
| 38> %base "QZ_S-F_11_AB"
| 39>
| 40> *xyz 0 1
| 41> F        -2.041743    0.607159    0.281466
| 42> S        -1.159248   -0.642366   -0.293543
| 43> Si         0.728239    0.105874    0.340911
| 44> F         1.729503   -1.066154   -0.009609
| 45> F         1.155141    1.386598   -0.475998
| 46> H         0.766504    0.447193    1.761207
| 47> *
| 48>
| 49>
| 50>
| 51>
| 52>                          ****END OF INPUT****
 Total Charge           Charge          ....    0
 Multiplicity           Mult            ....    1
 Number of Electrons    NEL             ....   58
MP2 TOTAL ENERGY:     -986.353673424 Eh
FINAL SINGLE POINT ENERGY      -986.353673424494
MP2 TOTAL ENERGY:     -986.703560095 Eh
FINAL SINGLE POINT ENERGY      -986.703560095455

CARTESIAN COORDINATES (ANGSTROEM)
---------------------------------
  F     -2.041743    0.607159    0.281466
  S     -1.159248   -0.642366   -0.293543
  Si     0.728239    0.105874    0.340911
  F      1.729503   -1.066154   -0.009609
  F      1.155141    1.386598   -0.475998
  H      0.766504    0.447193    1.761207

 Multiplicity           Mult            ....    1
 Number of Electrons    NEL             ....   58
 Basis Dimension        Dim             ....  454

ORBITAL ENERGIES
----------------

  NO   OCC          E(Eh)            E(eV)
   0   2.0000     -92.044493     -2504.6580
   1   2.0000     -68.890760     -1874.6129
   2   2.0000     -26.329366      -716.4585
   3   2.0000     -26.324373      -716.3226
   4   2.0000     -26.317928      -716.1472
   5   2.0000      -9.041020      -246.0187
   6   2.0000      -6.722595      -182.9311
   7   2.0000      -6.720503      -182.8742
   8   2.0000      -6.719611      -182.8499
   9   2.0000      -6.227927      -169.4705
  10   2.0000      -4.336245      -117.9952
  11   2.0000      -4.335565      -117.9767
  12   2.0000      -4.334532      -117.9486
  13   2.0000      -1.636780       -44.5390
  14   2.0000      -1.624368       -44.2013
  15   2.0000      -1.617086       -44.0031
  16   2.0000      -0.990076       -26.9413
  17   2.0000      -0.819795       -22.3078
  18   2.0000      -0.747511       -20.3408
  19   2.0000      -0.734717       -19.9927
  20   2.0000      -0.725931       -19.7536
  21   2.0000      -0.708094       -19.2682
  22   2.0000      -0.705523       -19.1983
  23   2.0000      -0.689483       -18.7618
  24   2.0000      -0.674780       -18.3617
  25   2.0000      -0.667756       -18.1706
  26   2.0000      -0.586020       -15.9464
  27   2.0000      -0.478684       -13.0257
  28   2.0000      -0.413270       -11.2457
  29   0.0000       0.029297         0.7972
  30   0.0000       0.035307         0.9607
  31   0.0000       0.037618         1.0236
  32   0.0000       0.041549         1.1306
  33   0.0000       0.058167         1.5828

MULLIKEN ATOMIC CHARGES
-----------------------
   0 F :   -0.596151
   1 S :    0.196633
   2 Si:    1.892605
   3 F :   -0.679176
   4 F :   -0.670453
   5 H :   -0.143458
Sum of atomic charges:    0.0000000

LOEWDIN ATOMIC CHARGES
----------------------
   0 F :    0.006478
   1 S :    0.506100
   2 Si:   -0.989735
   3 F :    0.383891
   4 F :    0.392916
   5 H :   -0.299651

  Mayer bond orders larger than 0.100000
B(  0-F ,  1-S ) :   0.6198 B(  1-S ,  2-Si) :   0.8158 B(  2-Si,  3-F ) :   0.4465
B(  2-Si,  4-F ) :   0.4670 B(  2-Si,  5-H ) :   0.9648

MP2 TOTAL ENERGY:     -986.821299065 Eh
FINAL SINGLE POINT ENERGY      -986.821299065338

DIPOLE MOMENT
-------------
                                X             Y             Z
Electronic contribution:      0.21357       0.18202      -1.43443
Nuclear contribution   :     -0.06857      -0.41996       1.79892
                        -----------------------------------------
Total Dipole Moment    :      0.14500      -0.23794       0.36449
                        -----------------------------------------
Magnitude (a.u.)       :      0.45879
Magnitude (Debye)      :      1.16615

Rotational constants in cm-1:     0.179814     0.071773     0.056405
Rotational constants in MHz :  5390.678964  2151.698783  1690.984830

                             ****ORCA TERMINATED NORMALLY****
TOTAL RUN TIME: 0 days 0 hours 8 minutes 18 seconds 917 msec
