                         Program Version 5.0.4 -  RELEASE  -
|  1> ! ri-mp2 aug-cc-pvdz aug-cc-pvdz/c tightscf
|  2> %pal nprocs 16 end
|  3> %maxcore 3800
|  4> %base "DZ_B-F_50_AB"
|  5> %scf
|  6> STABPerform true
|  7> STABRestartUHFifUnstable true
|  8> end
|  9>
| 10> *xyz 0 1
| 11> F        -1.587852   -1.233102   -1.388453
| 12> B        -1.280267   -0.477317   -0.364262
| 13> F        -2.268638   -0.075734    0.412461
| 14> C         0.215582    0.037081   -0.094196
| 15> O         0.545049    0.146428    1.262914
| 16> O         0.328901    1.320610   -0.648761
| 17> O         1.069935   -0.802814   -0.776450
| 18> C         0.434374   -1.057209    1.993571
| 19> H         0.696925   -0.823938    3.022024
| 20> H         1.110432   -1.822111    1.607658
| 21> H        -0.590006   -1.445128    1.976044
| 22> C        -0.235124    2.402612    0.077694
| 23> H        -0.109946    3.278230   -0.554197
| 24> H         0.280454    2.552225    1.024263
| 25> H        -1.299415    2.251166    0.271470
| 26> C         2.436804   -0.409080   -0.806610
| 27> H         2.977726   -1.247357   -1.237287
| 28> H         2.811084   -0.206746    0.197540
| 29> H         2.571595    0.475548   -1.426654
| 30> *
| 31>
| 32> $new_job
| 33> ! ri-mp2 aug-cc-pvtz aug-cc-pvtz/c tightscf
| 34> %pal nprocs 16 end
| 35> %maxcore 3800
| 36> %base "TZ_B-F_50_AB"
| 37>
| 38> *xyz 0 1
| 39> F        -1.587852   -1.233102   -1.388453
| 40> B        -1.280267   -0.477317   -0.364262
| 41> F        -2.268638   -0.075734    0.412461
| 42> C         0.215582    0.037081   -0.094196
| 43> O         0.545049    0.146428    1.262914
| 44> O         0.328901    1.320610   -0.648761
| 45> O         1.069935   -0.802814   -0.776450
| 46> C         0.434374   -1.057209    1.993571
| 47> H         0.696925   -0.823938    3.022024
| 48> H         1.110432   -1.822111    1.607658
| 49> H        -0.590006   -1.445128    1.976044
| 50> C        -0.235124    2.402612    0.077694
| 51> H        -0.109946    3.278230   -0.554197
| 52> H         0.280454    2.552225    1.024263
| 53> H        -1.299415    2.251166    0.271470
| 54> C         2.436804   -0.409080   -0.806610
| 55> H         2.977726   -1.247357   -1.237287
| 56> H         2.811084   -0.206746    0.197540
| 57> H         2.571595    0.475548   -1.426654
| 58> *
| 59>
| 60> $new_job
| 61> ! ri-mp2 aug-cc-pvqz aug-cc-pvqz/c tightscf
| 62> %pal nprocs 16 end
| 63> %maxcore 3800
| 64> %base "QZ_B-F_50_AB"
| 65>
| 66> *xyz 0 1
| 67> F        -1.587852   -1.233102   -1.388453
| 68> B        -1.280267   -0.477317   -0.364262
| 69> F        -2.268638   -0.075734    0.412461
| 70> C         0.215582    0.037081   -0.094196
| 71> O         0.545049    0.146428    1.262914
| 72> O         0.328901    1.320610   -0.648761
| 73> O         1.069935   -0.802814   -0.776450
| 74> C         0.434374   -1.057209    1.993571
| 75> H         0.696925   -0.823938    3.022024
| 76> H         1.110432   -1.822111    1.607658
| 77> H        -0.590006   -1.445128    1.976044
| 78> C        -0.235124    2.402612    0.077694
| 79> H        -0.109946    3.278230   -0.554197
| 80> H         0.280454    2.552225    1.024263
| 81> H        -1.299415    2.251166    0.271470
| 82> C         2.436804   -0.409080   -0.806610
| 83> H         2.977726   -1.247357   -1.237287
| 84> H         2.811084   -0.206746    0.197540
| 85> H         2.571595    0.475548   -1.426654
| 86> *
| 87>
| 88>
| 89>
| 90>
| 91>                          ****END OF INPUT****
 Total Charge           Charge          ....    0
 Multiplicity           Mult            ....    1
 Number of Electrons    NEL             ....   80
MP2 TOTAL ENERGY:     -606.683982047 Eh
FINAL SINGLE POINT ENERGY      -606.683982047457
MP2 TOTAL ENERGY:     -607.219608589 Eh
FINAL SINGLE POINT ENERGY      -607.219608589263

CARTESIAN COORDINATES (ANGSTROEM)
---------------------------------
  F     -1.587852   -1.233102   -1.388453
  B     -1.280267   -0.477317   -0.364262
  F     -2.268638   -0.075734    0.412461
  C      0.215582    0.037081   -0.094196
  O      0.545049    0.146428    1.262914
  O      0.328901    1.320610   -0.648761
  O      1.069935   -0.802814   -0.776450
  C      0.434374   -1.057209    1.993571
  H      0.696925   -0.823938    3.022024
  H      1.110432   -1.822111    1.607658
  H     -0.590006   -1.445128    1.976044
  C     -0.235124    2.402612    0.077694
  H     -0.109946    3.278230   -0.554197
  H      0.280454    2.552225    1.024263
  H     -1.299415    2.251166    0.271470
  C      2.436804   -0.409080   -0.806610
  H      2.977726   -1.247357   -1.237287
  H      2.811084   -0.206746    0.197540
  H      2.571595    0.475548   -1.426654

 Multiplicity           Mult            ....    1
 Number of Electrons    NEL             ....   80
 Basis Dimension        Dim             .... 1214

ORBITAL ENERGIES
----------------

  NO   OCC          E(Eh)            E(eV)
   0   2.0000     -26.318039      -716.1502
   1   2.0000     -26.313672      -716.0314
   2   2.0000     -20.575190      -559.8794
   3   2.0000     -20.571711      -559.7847
   4   2.0000     -20.569302      -559.7192
   5   2.0000     -11.384063      -309.7761
   6   2.0000     -11.285381      -307.0908
   7   2.0000     -11.274617      -306.7979
   8   2.0000     -11.269369      -306.6551
   9   2.0000      -7.712722      -209.8738
  10   2.0000      -1.651247       -44.9327
  11   2.0000      -1.618538       -44.0427
  12   2.0000      -1.469120       -39.9768
  13   2.0000      -1.366291       -37.1787
  14   2.0000      -1.361870       -37.0584
  15   2.0000      -1.001870       -27.2623
  16   2.0000      -0.949787       -25.8450
  17   2.0000      -0.935452       -25.4550
  18   2.0000      -0.848578       -23.0910
  19   2.0000      -0.809922       -22.0391
  20   2.0000      -0.768373       -20.9085
  21   2.0000      -0.755763       -20.5654
  22   2.0000      -0.730138       -19.8681
  23   2.0000      -0.711570       -19.3628
  24   2.0000      -0.708160       -19.2700
  25   2.0000      -0.678855       -18.4726
  26   2.0000      -0.666108       -18.1257
  27   2.0000      -0.657608       -17.8944
  28   2.0000      -0.644025       -17.5248
  29   2.0000      -0.627881       -17.0855
  30   2.0000      -0.608581       -16.5603
  31   2.0000      -0.597699       -16.2642
  32   2.0000      -0.589791       -16.0490
  33   2.0000      -0.556874       -15.1533
  34   2.0000      -0.535863       -14.5816
  35   2.0000      -0.505888       -13.7659
  36   2.0000      -0.490174       -13.3383
  37   2.0000      -0.465186       -12.6584
  38   2.0000      -0.455107       -12.3841
  39   2.0000      -0.430790       -11.7224
  40   0.0000       0.022018         0.5991
  41   0.0000       0.030645         0.8339
  42   0.0000       0.032905         0.8954
  43   0.0000       0.033516         0.9120
  44   0.0000       0.046477         1.2647

MULLIKEN ATOMIC CHARGES
-----------------------
   0 F :   -0.992221
   1 B :    1.926278
   2 F :   -0.914416
   3 C :    2.111924
   4 O :   -0.898459
   5 O :   -0.924198
   6 O :   -0.950447
   7 C :   -0.810636
   8 H :    0.407875
   9 H :    0.347841
  10 H :    0.264014
  11 C :   -0.788071
  12 H :    0.425105
  13 H :    0.325481
  14 H :    0.269344
  15 C :   -0.801396
  16 H :    0.418894
  17 H :    0.265775
  18 H :    0.317313
Sum of atomic charges:   -0.0000000

LOEWDIN ATOMIC CHARGES
----------------------
   0 F :    0.853359
   1 B :   -1.858826
   2 F :    0.867306
   3 C :   -1.327866
   4 O :    0.855977
   5 O :    0.852300
   6 O :    0.844840
   7 C :    0.583219
   8 H :   -0.307105
   9 H :   -0.305547
  10 H :   -0.313759
  11 C :    0.585011
  12 H :   -0.318378
  13 H :   -0.322210
  14 H :   -0.325544
  15 C :    0.591436
  16 H :   -0.318942
  17 H :   -0.319503
  18 H :   -0.315768

  Mayer bond orders larger than 0.100000
B(  0-F ,  1-B ) :   0.1572 B(  0-F ,  3-C ) :  -0.1342 B(  1-B ,  2-F ) :   0.1583
B(  1-B ,  3-C ) :   0.8015 B(  1-B ,  6-O ) :   0.1212 B(  2-F ,  3-C ) :  -0.2371
B(  3-C ,  4-O ) :   0.2856 B(  3-C ,  5-O ) :   0.3620 B(  3-C ,  6-O ) :   0.3767
B(  3-C ,  7-C ) :  -0.1395 B(  3-C , 15-C ) :  -0.1108 B(  4-O ,  7-C ) :   0.9762
B(  5-O , 11-C ) :   0.9542 B(  6-O , 15-C ) :   0.9448 B(  7-C ,  8-H ) :   0.8695
B(  7-C ,  9-H ) :   0.8790 B(  7-C , 10-H ) :   0.9196 B( 11-C , 12-H ) :   0.8549
B( 11-C , 13-H ) :   0.8874 B( 11-C , 14-H ) :   0.9166 B( 15-C , 16-H ) :   0.8471
B( 15-C , 17-H ) :   0.9248 B( 15-C , 18-H ) :   0.9015

MP2 TOTAL ENERGY:     -607.389404372 Eh
FINAL SINGLE POINT ENERGY      -607.389404371946

DIPOLE MOMENT
-------------
                                X             Y             Z
Electronic contribution:    -12.53051      -4.45163      -5.26456
Nuclear contribution   :     13.00190       4.58742       5.98928
                        -----------------------------------------
Total Dipole Moment    :      0.47138       0.13579       0.72473
                        -----------------------------------------
Magnitude (a.u.)       :      0.87514
Magnitude (Debye)      :      2.22443

Rotational constants in cm-1:     0.049074     0.037646     0.035372
Rotational constants in MHz :  1471.195025  1128.589708  1060.411647

                             ****ORCA TERMINATED NORMALLY****
TOTAL RUN TIME: 0 days 5 hours 16 minutes 53 seconds 903 msec
