                         Program Version 5.0.4 -  RELEASE  -
|  1> ! ri-mp2 aug-cc-pvdz aug-cc-pvdz/c tightscf
|  2> %pal nprocs 16 end
|  3> %maxcore 3800
|  4> %base "DZ_B-Si_69_AB"
|  5> %scf
|  6> STABPerform true
|  7> STABRestartUHFifUnstable true
|  8> end
|  9>
| 10> *xyz 0 1
| 11> Si         0.412093   -0.025902    0.000001
| 12> B        -1.486120   -0.689140    0.000002
| 13> F         1.199640   -0.550966    1.269669
| 14> F         0.548160    1.548431   -0.000021
| 15> F         1.199652   -0.551002   -1.269644
| 16> O        -2.470396    0.223556   -0.000009
| 17> H        -3.362243   -0.140445   -0.000008
| 18> H        -1.740362   -1.857846    0.000010
| 19> *
| 20>
| 21> $new_job
| 22> ! ri-mp2 aug-cc-pvtz aug-cc-pvtz/c tightscf
| 23> %pal nprocs 16 end
| 24> %maxcore 3800
| 25> %base "TZ_B-Si_69_AB"
| 26>
| 27> *xyz 0 1
| 28> Si         0.412093   -0.025902    0.000001
| 29> B        -1.486120   -0.689140    0.000002
| 30> F         1.199640   -0.550966    1.269669
| 31> F         0.548160    1.548431   -0.000021
| 32> F         1.199652   -0.551002   -1.269644
| 33> O        -2.470396    0.223556   -0.000009
| 34> H        -3.362243   -0.140445   -0.000008
| 35> H        -1.740362   -1.857846    0.000010
| 36> *
| 37>
| 38> $new_job
| 39> ! ri-mp2 aug-cc-pvqz aug-cc-pvqz/c tightscf
| 40> %pal nprocs 16 end
| 41> %maxcore 3800
| 42> %base "QZ_B-Si_69_AB"
| 43>
| 44> *xyz 0 1
| 45> Si         0.412093   -0.025902    0.000001
| 46> B        -1.486120   -0.689140    0.000002
| 47> F         1.199640   -0.550966    1.269669
| 48> F         0.548160    1.548431   -0.000021
| 49> F         1.199652   -0.551002   -1.269644
| 50> O        -2.470396    0.223556   -0.000009
| 51> H        -3.362243   -0.140445   -0.000008
| 52> H        -1.740362   -1.857846    0.000010
| 53> *
| 54>
| 55>
| 56>
| 57>
| 58>                          ****END OF INPUT****
 Total Charge           Charge          ....    0
 Multiplicity           Mult            ....    1
 Number of Electrons    NEL             ....   56
MP2 TOTAL ENERGY:     -689.229453355 Eh
FINAL SINGLE POINT ENERGY      -689.229453354727
MP2 TOTAL ENERGY:     -689.618877954 Eh
FINAL SINGLE POINT ENERGY      -689.618877953920

CARTESIAN COORDINATES (ANGSTROEM)
---------------------------------
  Si     0.412093   -0.025902    0.000001
  B     -1.486120   -0.689140    0.000002
  F      1.199640   -0.550966    1.269669
  F      0.548160    1.548431   -0.000021
  F      1.199652   -0.551002   -1.269644
  O     -2.470396    0.223556   -0.000009
  H     -3.362243   -0.140445   -0.000008
  H     -1.740362   -1.857846    0.000010

 Multiplicity           Mult            ....    1
 Number of Electrons    NEL             ....   56
 Basis Dimension        Dim             ....  576

ORBITAL ENERGIES
----------------

  NO   OCC          E(Eh)            E(eV)
   0   2.0000     -68.866430     -1873.9508
   1   2.0000     -26.300691      -715.6782
   2   2.0000     -26.300683      -715.6780
   3   2.0000     -26.298930      -715.6303
   4   2.0000     -20.611789      -560.8753
   5   2.0000      -7.653643      -208.2662
   6   2.0000      -6.202962      -168.7912
   7   2.0000      -4.311352      -117.3179
   8   2.0000      -4.311317      -117.3169
   9   2.0000      -4.309440      -117.2658
  10   2.0000      -1.624936       -44.2168
  11   2.0000      -1.597076       -43.4586
  12   2.0000      -1.595954       -43.4281
  13   2.0000      -1.406864       -38.2827
  14   2.0000      -0.827251       -22.5106
  15   2.0000      -0.793090       -21.5811
  16   2.0000      -0.736487       -20.0408
  17   2.0000      -0.736146       -20.0316
  18   2.0000      -0.714230       -19.4352
  19   2.0000      -0.686720       -18.6866
  20   2.0000      -0.685760       -18.6605
  21   2.0000      -0.678533       -18.4638
  22   2.0000      -0.658736       -17.9251
  23   2.0000      -0.655924       -17.8486
  24   2.0000      -0.642162       -17.4741
  25   2.0000      -0.582773       -15.8581
  26   2.0000      -0.574638       -15.6367
  27   2.0000      -0.455185       -12.3862
  28   0.0000       0.016694         0.4543
  29   0.0000       0.031024         0.8442
  30   0.0000       0.035909         0.9771
  31   0.0000       0.036501         0.9932
  32   0.0000       0.054350         1.4789

MULLIKEN ATOMIC CHARGES
-----------------------
   0 Si:    2.219353
   1 B :    0.644832
   2 F :   -0.687201
   3 F :   -0.678084
   4 F :   -0.687201
   5 O :   -0.950745
   6 H :    0.378161
   7 H :   -0.239115
Sum of atomic charges:   -0.0000000

LOEWDIN ATOMIC CHARGES
----------------------
   0 Si:   -1.142808
   1 B :   -0.368235
   2 F :    0.419557
   3 F :    0.426668
   4 F :    0.419557
   5 O :    1.265451
   6 H :   -0.788319
   7 H :   -0.231871

  Mayer bond orders larger than 0.100000
B(  0-Si,  1-B ) :   1.0455 B(  0-Si,  2-F ) :   0.4434 B(  0-Si,  3-F ) :   0.4263
B(  0-Si,  4-F ) :   0.4434 B(  1-B ,  5-O ) :   0.6468 B(  1-B ,  7-H ) :   0.8690
B(  5-O ,  6-H ) :   0.8850

MP2 TOTAL ENERGY:     -689.748974760 Eh
FINAL SINGLE POINT ENERGY      -689.748974760046

DIPOLE MOMENT
-------------
                                X             Y             Z
Electronic contribution:      4.92894       1.14001       0.00000
Nuclear contribution   :     -6.35245      -1.73476      -0.00000
                        -----------------------------------------
Total Dipole Moment    :     -1.42351      -0.59475       0.00000
                        -----------------------------------------
Magnitude (a.u.)       :      1.54276
Magnitude (Debye)      :      3.92138

Rotational constants in cm-1:     0.132042     0.064330     0.063086
Rotational constants in MHz :  3958.514824  1928.560289  1891.263631

                             ****ORCA TERMINATED NORMALLY****
TOTAL RUN TIME: 0 days 0 hours 15 minutes 45 seconds 288 msec
