                         Program Version 5.0.4 -  RELEASE  -
|  1> ! ri-mp2 aug-cc-pvdz aug-cc-pvdz/c tightscf
|  2> %pal nprocs 16 end
|  3> %maxcore 3800
|  4> %base "DZ_B-P_21_B"
|  5> %scf
|  6> STABPerform true
|  7> STABRestartUHFifUnstable true
|  8> end
|  9>
| 10> *xyz 0 2
| 11> P        -0.000000    0.887846    0.000000
| 12> Cl         1.586310   -0.391697   -0.000000
| 13> Cl        -1.586310   -0.391697    0.000000
| 14> *
| 15>
| 16> $new_job
| 17> ! ri-mp2 aug-cc-pvtz aug-cc-pvtz/c tightscf
| 18> %pal nprocs 16 end
| 19> %maxcore 3800
| 20> %base "TZ_B-P_21_B"
| 21>
| 22> *xyz 0 2
| 23> P        -0.000000    0.887846    0.000000
| 24> Cl         1.586310   -0.391697   -0.000000
| 25> Cl        -1.586310   -0.391697    0.000000
| 26> *
| 27>
| 28> $new_job
| 29> ! ri-mp2 aug-cc-pvqz aug-cc-pvqz/c tightscf
| 30> %pal nprocs 16 end
| 31> %maxcore 3800
| 32> %base "QZ_B-P_21_B"
| 33>
| 34> *xyz 0 2
| 35> P        -0.000000    0.887846    0.000000
| 36> Cl         1.586310   -0.391697   -0.000000
| 37> Cl        -1.586310   -0.391697    0.000000
| 38> *
| 39>
| 40>
| 41>
| 42>
| 43>                          ****END OF INPUT****
 Total Charge           Charge          ....    0
 Multiplicity           Mult            ....    2
 Number of Electrons    NEL             ....   49
MP2 TOTAL ENERGY:    -1260.171304737 Eh
FINAL SINGLE POINT ENERGY     -1260.171304736731
MP2 TOTAL ENERGY:    -1260.334639252 Eh
FINAL SINGLE POINT ENERGY     -1260.334639252324

CARTESIAN COORDINATES (ANGSTROEM)
---------------------------------
  P     -0.000000    0.887846    0.000000
  Cl     1.586310   -0.391697   -0.000000
  Cl    -1.586310   -0.391697    0.000000

 Multiplicity           Mult            ....    2
 Number of Electrons    NEL             ....   49
 Basis Dimension        Dim             ....  252

ORBITAL ENERGIES
----------------
                 SPIN UP ORBITALS
  NO   OCC          E(Eh)            E(eV)
   0   1.0000    -104.858384     -2853.3417
   1   1.0000    -104.858384     -2853.3417
   2   1.0000     -80.057240     -2178.4683
   3   1.0000     -10.584651      -288.0230
   4   1.0000     -10.584645      -288.0228
   5   1.0000      -8.051541      -219.0936
   6   1.0000      -8.051541      -219.0936
   7   1.0000      -8.051014      -219.0792
   8   1.0000      -8.051012      -219.0792
   9   1.0000      -8.049624      -219.0414
  10   1.0000      -8.049624      -219.0414
  11   1.0000      -7.591584      -206.5775
  12   1.0000      -5.494699      -149.5184
  13   1.0000      -5.481066      -149.1474
  14   1.0000      -5.478590      -149.0800
  15   1.0000      -1.163908       -31.6715
  16   1.0000      -1.111631       -30.2490
  17   1.0000      -0.809254       -22.0209
  18   1.0000      -0.585003       -15.9187
  19   1.0000      -0.560565       -15.2537
  20   1.0000      -0.547806       -14.9066
  21   1.0000      -0.498961       -13.5774
  22   1.0000      -0.467997       -12.7349
  23   1.0000      -0.447110       -12.1665
  24   1.0000      -0.361875        -9.8471
  25   0.0000       0.045510         1.2384
  26   0.0000       0.046003         1.2518
  27   0.0000       0.049951         1.3592
  28   0.0000       0.066088         1.7983
  29   0.0000       0.092049         2.5048

                 SPIN DOWN ORBITALS
  NO   OCC          E(Eh)            E(eV)
   0   1.0000    -104.857411     -2853.3152
   1   1.0000    -104.857410     -2853.3152
   2   1.0000     -80.049937     -2178.2695
   3   1.0000     -10.583619      -287.9949
   4   1.0000     -10.583611      -287.9947
   5   1.0000      -8.050732      -219.0716
   6   1.0000      -8.050731      -219.0715
   7   1.0000      -8.049191      -219.0296
   8   1.0000      -8.049191      -219.0296
   9   1.0000      -8.047230      -218.9763
  10   1.0000      -8.047229      -218.9762
  11   1.0000      -7.582478      -206.3297
  12   1.0000      -5.476524      -149.0238
  13   1.0000      -5.476400      -149.0204
  14   1.0000      -5.459514      -148.5609
  15   1.0000      -1.150240       -31.2996
  16   1.0000      -1.104762       -30.0621
  17   1.0000      -0.749124       -20.3847
  18   1.0000      -0.577273       -15.7084
  19   1.0000      -0.543391       -14.7864
  20   1.0000      -0.510422       -13.8893
  21   1.0000      -0.475459       -12.9379
  22   1.0000      -0.467740       -12.7278
  23   1.0000      -0.428536       -11.6611
  24   0.0000       0.020257         0.5512
  25   0.0000       0.046458         1.2642
  26   0.0000       0.047520         1.2931
  27   0.0000       0.053724         1.4619
  28   0.0000       0.076341         2.0773

MULLIKEN ATOMIC CHARGES AND SPIN POPULATIONS
--------------------------------------------
   0 P :    0.729020    0.967880
   1 Cl:   -0.364510    0.016060
   2 Cl:   -0.364510    0.016060
Sum of atomic charges         :    0.0000000

LOEWDIN ATOMIC CHARGES AND SPIN POPULATIONS
-------------------------------------------
   0 P :   -0.820715    0.656582
   1 Cl:    0.410358    0.171709
   2 Cl:    0.410358    0.171709

  Mayer bond orders larger than 0.100000
B(  0-P ,  1-Cl) :   0.8880 B(  0-P ,  2-Cl) :   0.8880

MP2 TOTAL ENERGY:    -1260.389524740 Eh
FINAL SINGLE POINT ENERGY     -1260.389524740465

DIPOLE MOMENT
-------------
                                X             Y             Z
Electronic contribution:     -0.00000       0.08535       0.00000
Nuclear contribution   :      0.00000       0.24859       0.00000
                        -----------------------------------------
Total Dipole Moment    :     -0.00000       0.33394       0.00000
                        -----------------------------------------
Magnitude (a.u.)       :      0.33394
Magnitude (Debye)      :      0.84880

Rotational constants in cm-1:     0.477635     0.094480     0.078877
Rotational constants in MHz : 14319.125299  2832.425487  2364.675705

                             ****ORCA TERMINATED NORMALLY****
TOTAL RUN TIME: 0 days 0 hours 2 minutes 1 seconds 480 msec
