                         Program Version 5.0.4 -  RELEASE  -
|  1> ! ri-mp2 aug-cc-pvdz aug-cc-pvdz/c tightscf
|  2> %pal nprocs 16 end
|  3> %maxcore 3800
|  4> %base "DZ_B-B_45_AB"
|  5> %scf
|  6> STABPerform true
|  7> STABRestartUHFifUnstable true
|  8> end
|  9>
| 10> *xyz 0 1
| 11> B         0.643035    1.266227   -0.544919
| 12> B        -0.643035    1.266219    0.544937
| 13> N        -1.752956    0.419241    0.368295
| 14> C        -2.574742   -0.369709    0.023523
| 15> O        -3.399147   -1.130106   -0.281270
| 16> N         1.752956    0.419245   -0.368288
| 17> C         2.574741   -0.369709   -0.023527
| 18> O         3.399148   -1.130109    0.281253
| 19> H        -0.662620    1.993286    1.493755
| 20> H         0.662621    1.993309   -1.493725
| 21> *
| 22>
| 23> $new_job
| 24> ! ri-mp2 aug-cc-pvtz aug-cc-pvtz/c tightscf
| 25> %pal nprocs 16 end
| 26> %maxcore 3800
| 27> %base "TZ_B-B_45_AB"
| 28>
| 29> *xyz 0 1
| 30> B         0.643035    1.266227   -0.544919
| 31> B        -0.643035    1.266219    0.544937
| 32> N        -1.752956    0.419241    0.368295
| 33> C        -2.574742   -0.369709    0.023523
| 34> O        -3.399147   -1.130106   -0.281270
| 35> N         1.752956    0.419245   -0.368288
| 36> C         2.574741   -0.369709   -0.023527
| 37> O         3.399148   -1.130109    0.281253
| 38> H        -0.662620    1.993286    1.493755
| 39> H         0.662621    1.993309   -1.493725
| 40> *
| 41>
| 42> $new_job
| 43> ! ri-mp2 aug-cc-pvqz aug-cc-pvqz/c tightscf
| 44> %pal nprocs 16 end
| 45> %maxcore 3800
| 46> %base "QZ_B-B_45_AB"
| 47>
| 48> *xyz 0 1
| 49> B         0.643035    1.266227   -0.544919
| 50> B        -0.643035    1.266219    0.544937
| 51> N        -1.752956    0.419241    0.368295
| 52> C        -2.574742   -0.369709    0.023523
| 53> O        -3.399147   -1.130106   -0.281270
| 54> N         1.752956    0.419245   -0.368288
| 55> C         2.574741   -0.369709   -0.023527
| 56> O         3.399148   -1.130109    0.281253
| 57> H        -0.662620    1.993286    1.493755
| 58> H         0.662621    1.993309   -1.493725
| 59> *
| 60>
| 61>
| 62>
| 63>
| 64>                          ****END OF INPUT****
 Total Charge           Charge          ....    0
 Multiplicity           Mult            ....    1
 Number of Electrons    NEL             ....   54
MP2 TOTAL ENERGY:     -386.112484666 Eh
FINAL SINGLE POINT ENERGY      -386.112484666042
MP2 TOTAL ENERGY:     -386.434668623 Eh
FINAL SINGLE POINT ENERGY      -386.434668623273

CARTESIAN COORDINATES (ANGSTROEM)
---------------------------------
  B      0.643035    1.266227   -0.544919
  B     -0.643035    1.266219    0.544937
  N     -1.752956    0.419241    0.368295
  C     -2.574742   -0.369709    0.023523
  O     -3.399147   -1.130106   -0.281270
  N      1.752956    0.419245   -0.368288
  C      2.574741   -0.369709   -0.023527
  O      3.399148   -1.130109    0.281253
  H     -0.662620    1.993286    1.493755
  H      0.662621    1.993309   -1.493725

 Multiplicity           Mult            ....    1
 Number of Electrons    NEL             ....   54
 Basis Dimension        Dim             ....  732

ORBITAL ENERGIES
----------------

  NO   OCC          E(Eh)            E(eV)
   0   2.0000     -20.619740      -561.0916
   1   2.0000     -20.619739      -561.0916
   2   2.0000     -15.597675      -424.4343
   3   2.0000     -15.597675      -424.4343
   4   2.0000     -11.417848      -310.6954
   5   2.0000     -11.417847      -310.6954
   6   2.0000      -7.643922      -208.0017
   7   2.0000      -7.643146      -207.9806
   8   2.0000      -1.479176       -40.2504
   9   2.0000      -1.479158       -40.2499
  10   2.0000      -1.278981       -34.8028
  11   2.0000      -1.276691       -34.7405
  12   2.0000      -0.893133       -24.3034
  13   2.0000      -0.862692       -23.4750
  14   2.0000      -0.740356       -20.1461
  15   2.0000      -0.737763       -20.0755
  16   2.0000      -0.675278       -18.3753
  17   2.0000      -0.672872       -18.3098
  18   2.0000      -0.663563       -18.0565
  19   2.0000      -0.662661       -18.0319
  20   2.0000      -0.633432       -17.2365
  21   2.0000      -0.582343       -15.8463
  22   2.0000      -0.547930       -14.9099
  23   2.0000      -0.481937       -13.1142
  24   2.0000      -0.480196       -13.0668
  25   2.0000      -0.462799       -12.5934
  26   2.0000      -0.391616       -10.6564
  27   0.0000       0.022881         0.6226
  28   0.0000       0.026685         0.7261
  29   0.0000       0.028369         0.7720
  30   0.0000       0.028555         0.7770
  31   0.0000       0.046304         1.2600

MULLIKEN ATOMIC CHARGES
-----------------------
   0 B :    0.596378
   1 B :    0.596377
   2 N :   -0.780474
   3 C :    1.092441
   4 O :   -0.602264
   5 N :   -0.780473
   6 C :    1.092440
   7 O :   -0.602264
   8 H :   -0.306080
   9 H :   -0.306081
Sum of atomic charges:    0.0000000

LOEWDIN ATOMIC CHARGES
----------------------
   0 B :   -0.232387
   1 B :   -0.232388
   2 N :    0.553357
   3 C :   -0.730456
   4 O :    0.608378
   5 N :    0.553357
   6 C :   -0.730458
   7 O :    0.608378
   8 H :   -0.198890
   9 H :   -0.198890

  Mayer bond orders larger than 0.100000
B(  0-B ,  1-B ) :   1.0301 B(  0-B ,  5-N ) :   1.0523 B(  0-B ,  9-H ) :   0.8452
B(  1-B ,  2-N ) :   1.0523 B(  1-B ,  8-H ) :   0.8452 B(  2-N ,  3-C ) :   2.2623
B(  2-N ,  4-O ) :   0.3578 B(  3-C ,  4-O ) :   1.6311 B(  5-N ,  6-C ) :   2.2623
B(  5-N ,  7-O ) :   0.3578 B(  6-C ,  7-O ) :   1.6311

MP2 TOTAL ENERGY:     -386.540839994 Eh
FINAL SINGLE POINT ENERGY      -386.540839994200

DIPOLE MOMENT
-------------
                                X             Y             Z
Electronic contribution:     -0.00001      -0.96896      -0.00001
Nuclear contribution   :      0.00000       1.80399       0.00001
                        -----------------------------------------
Total Dipole Moment    :     -0.00001       0.83503       0.00001
                        -----------------------------------------
Magnitude (a.u.)       :      0.83503
Magnitude (Debye)      :      2.12248

Rotational constants in cm-1:     0.154696     0.026253     0.023525
Rotational constants in MHz :  4637.679385   787.035185   705.260762

                             ****ORCA TERMINATED NORMALLY****
TOTAL RUN TIME: 0 days 0 hours 53 minutes 38 seconds 593 msec
