                         Program Version 5.0.4 -  RELEASE  -
|  1> ! ri-mp2 aug-cc-pvdz aug-cc-pvdz/c tightscf
|  2> %pal nprocs 16 end
|  3> %maxcore 3800
|  4> %base "DZ_Si-Cl_13_AB"
|  5>
|  6> *xyz 0 1
|  7> C         2.873312   -1.195735   -0.158680
|  8> C         1.558845   -1.194323    0.273846
|  9> C         3.536255    0.000001   -0.376999
| 10> C         2.873310    1.195737   -0.158677
| 11> C         1.558843    1.194322    0.273849
| 12> C         0.883500   -0.000001    0.501182
| 13> H         1.048957   -2.134750    0.444134
| 14> H         3.382425   -2.136157   -0.323658
| 15> H         4.564278    0.000002   -0.713279
| 16> H         3.382423    2.136159   -0.323654
| 17> H         1.048955    2.134748    0.444138
| 18> C        -0.556012   -0.000003    0.930623
| 19> Si        -1.668784    0.000002   -0.569932
| 20> Cl        -3.645226   -0.000001    0.025640
| 21> H        -0.786556    0.878280    1.535362
| 22> H        -0.786556   -0.878289    1.535356
| 23> H        -1.445214   -1.209098   -1.383044
| 24> H        -1.445214    1.209107   -1.383036
| 25> *
| 26>
| 27> $new_job
| 28> ! ri-mp2 aug-cc-pvtz aug-cc-pvtz/c tightscf
| 29> %pal nprocs 16 end
| 30> %maxcore 3800
| 31> %base "TZ_Si-Cl_13_AB"
| 32>
| 33> *xyz 0 1
| 34> C         2.873312   -1.195735   -0.158680
| 35> C         1.558845   -1.194323    0.273846
| 36> C         3.536255    0.000001   -0.376999
| 37> C         2.873310    1.195737   -0.158677
| 38> C         1.558843    1.194322    0.273849
| 39> C         0.883500   -0.000001    0.501182
| 40> H         1.048957   -2.134750    0.444134
| 41> H         3.382425   -2.136157   -0.323658
| 42> H         4.564278    0.000002   -0.713279
| 43> H         3.382423    2.136159   -0.323654
| 44> H         1.048955    2.134748    0.444138
| 45> C        -0.556012   -0.000003    0.930623
| 46> Si        -1.668784    0.000002   -0.569932
| 47> Cl        -3.645226   -0.000001    0.025640
| 48> H        -0.786556    0.878280    1.535362
| 49> H        -0.786556   -0.878289    1.535356
| 50> H        -1.445214   -1.209098   -1.383044
| 51> H        -1.445214    1.209107   -1.383036
| 52> *
| 53>
| 54> $new_job
| 55> ! ri-mp2 aug-cc-pvqz aug-cc-pvqz/c tightscf
| 56> %pal nprocs 16 end
| 57> %maxcore 3800
| 58> %base "QZ_Si-Cl_13_AB"
| 59>
| 60> *xyz 0 1
| 61> C         2.873312   -1.195735   -0.158680
| 62> C         1.558845   -1.194323    0.273846
| 63> C         3.536255    0.000001   -0.376999
| 64> C         2.873310    1.195737   -0.158677
| 65> C         1.558843    1.194322    0.273849
| 66> C         0.883500   -0.000001    0.501182
| 67> H         1.048957   -2.134750    0.444134
| 68> H         3.382425   -2.136157   -0.323658
| 69> H         4.564278    0.000002   -0.713279
| 70> H         3.382423    2.136159   -0.323654
| 71> H         1.048955    2.134748    0.444138
| 72> C        -0.556012   -0.000003    0.930623
| 73> Si        -1.668784    0.000002   -0.569932
| 74> Cl        -3.645226   -0.000001    0.025640
| 75> H        -0.786556    0.878280    1.535362
| 76> H        -0.786556   -0.878289    1.535356
| 77> H        -1.445214   -1.209098   -1.383044
| 78> H        -1.445214    1.209107   -1.383036
| 79> *
| 80>
| 81>
| 82>
| 83>
| 84>                          ****END OF INPUT****
 Total Charge           Charge          ....    0
 Multiplicity           Mult            ....    1
 Number of Electrons    NEL             ....   82
MP2 TOTAL ENERGY:    -1020.052795604 Eh
FINAL SINGLE POINT ENERGY     -1020.052795603531
MP2 TOTAL ENERGY:    -1020.393485049 Eh
FINAL SINGLE POINT ENERGY     -1020.393485049083

CARTESIAN COORDINATES (ANGSTROEM)
---------------------------------
  C      2.873312   -1.195735   -0.158680
  C      1.558845   -1.194323    0.273846
  C      3.536255    0.000001   -0.376999
  C      2.873310    1.195737   -0.158677
  C      1.558843    1.194322    0.273849
  C      0.883500   -0.000001    0.501182
  H      1.048957   -2.134750    0.444134
  H      3.382425   -2.136157   -0.323658
  H      4.564278    0.000002   -0.713279
  H      3.382423    2.136159   -0.323654
  H      1.048955    2.134748    0.444138
  C     -0.556012   -0.000003    0.930623
  Si    -1.668784    0.000002   -0.569932
  Cl    -3.645226   -0.000001    0.025640
  H     -0.786556    0.878280    1.535362
  H     -0.786556   -0.878289    1.535356
  H     -1.445214   -1.209098   -1.383044
  H     -1.445214    1.209107   -1.383036

 Multiplicity           Mult            ....    1
 Number of Electrons    NEL             ....   82
 Basis Dimension        Dim             .... 1142

ORBITAL ENERGIES
----------------

  NO   OCC          E(Eh)            E(eV)
   0   2.0000    -104.821908     -2852.3491
   1   2.0000     -68.808979     -1872.3875
   2   2.0000     -11.252052      -306.1839
   3   2.0000     -11.238099      -305.8042
   4   2.0000     -11.237957      -305.8003
   5   2.0000     -11.234591      -305.7088
   6   2.0000     -11.234566      -305.7081
   7   2.0000     -11.233022      -305.6661
   8   2.0000     -11.228519      -305.5435
   9   2.0000     -10.549402      -287.0638
  10   2.0000      -8.016204      -218.1320
  11   2.0000      -8.015127      -218.1027
  12   2.0000      -8.015117      -218.1024
  13   2.0000      -6.154820      -167.4812
  14   2.0000      -4.261837      -115.9705
  15   2.0000      -4.260628      -115.9376
  16   2.0000      -4.260394      -115.9312
  17   2.0000      -1.167557       -31.7708
  18   2.0000      -1.093044       -29.7433
  19   2.0000      -1.057664       -28.7805
  20   2.0000      -1.023268       -27.8445
  21   2.0000      -0.943868       -25.6840
  22   2.0000      -0.836186       -22.7538
  23   2.0000      -0.809097       -22.0167
  24   2.0000      -0.710724       -19.3398
  25   2.0000      -0.698456       -19.0060
  26   2.0000      -0.649079       -17.6623
  27   2.0000      -0.640523       -17.4295
  28   2.0000      -0.593940       -16.1619
  29   2.0000      -0.584787       -15.9129
  30   2.0000      -0.566016       -15.4021
  31   2.0000      -0.541686       -14.7400
  32   2.0000      -0.518474       -14.1084
  33   2.0000      -0.514101       -13.9894
  34   2.0000      -0.497500       -13.5377
  35   2.0000      -0.494147       -13.4464
  36   2.0000      -0.489989       -13.3333
  37   2.0000      -0.445913       -12.1339
  38   2.0000      -0.444049       -12.0832
  39   2.0000      -0.345486        -9.4011
  40   2.0000      -0.328884        -8.9494
  41   0.0000       0.022417         0.6100
  42   0.0000       0.027817         0.7569
  43   0.0000       0.028529         0.7763
  44   0.0000       0.036135         0.9833
  45   0.0000       0.040875         1.1123

MULLIKEN ATOMIC CHARGES
-----------------------
   0 C :   -0.297803
   1 C :   -0.552467
   2 C :   -0.300777
   3 C :   -0.297802
   4 C :   -0.552468
   5 C :    0.480854
   6 H :    0.297738
   7 H :    0.227719
   8 H :    0.342307
   9 H :    0.227719
  10 H :    0.297738
  11 C :   -0.329906
  12 Si:    1.174986
  13 Cl:   -0.721662
  14 H :    0.200017
  15 H :    0.200015
  16 H :   -0.198103
  17 H :   -0.198103
Sum of atomic charges:   -0.0000000

LOEWDIN ATOMIC CHARGES
----------------------
   0 C :    0.344154
   1 C :    0.323859
   2 C :    0.336967
   3 C :    0.344155
   4 C :    0.323859
   5 C :   -0.178784
   6 H :   -0.314437
   7 H :   -0.318146
   8 H :   -0.322946
   9 H :   -0.318146
  10 H :   -0.314438
  11 C :    0.433259
  12 Si:    0.001908
  13 Cl:    0.889290
  14 H :   -0.353865
  15 H :   -0.353866
  16 H :   -0.261412
  17 H :   -0.261412

  Mayer bond orders larger than 0.100000
B(  0-C ,  1-C ) :   1.3947 B(  0-C ,  2-C ) :   1.1139 B(  0-C ,  4-C ) :   0.1594
B(  0-C ,  5-C ) :  -0.3415 B(  0-C ,  7-H ) :   1.1416 B(  1-C ,  3-C ) :   0.1594
B(  1-C ,  5-C ) :   1.0356 B(  1-C ,  6-H ) :   0.9564 B(  1-C ,  7-H ) :  -0.1271
B(  1-C , 11-C ) :  -0.1886 B(  2-C ,  3-C ) :   1.1139 B(  2-C ,  7-H ) :  -0.1045
B(  2-C ,  8-H ) :   0.9861 B(  2-C ,  9-H ) :  -0.1045 B(  3-C ,  4-C ) :   1.3947
B(  3-C ,  5-C ) :  -0.3415 B(  3-C ,  9-H ) :   1.1416 B(  4-C ,  5-C ) :   1.0356
B(  4-C ,  9-H ) :  -0.1271 B(  4-C , 10-H ) :   0.9564 B(  4-C , 11-C ) :  -0.1886
B(  5-C , 11-C ) :   0.7554 B( 11-C , 12-Si) :   0.8167 B( 11-C , 13-Cl) :  -0.1695
B( 11-C , 14-H ) :   1.0073 B( 11-C , 15-H ) :   1.0073 B( 12-Si, 13-Cl) :   0.3463
B( 12-Si, 16-H ) :   0.8088 B( 12-Si, 17-H ) :   0.8088

MP2 TOTAL ENERGY:    -1020.502567472 Eh
FINAL SINGLE POINT ENERGY     -1020.502567471670

DIPOLE MOMENT
-------------
                                X             Y             Z
Electronic contribution:    -13.30363      -0.00000       0.22464
Nuclear contribution   :     14.03508       0.00000      -0.16685
                        -----------------------------------------
Total Dipole Moment    :      0.73145       0.00000       0.05779
                        -----------------------------------------
Magnitude (a.u.)       :      0.73373
Magnitude (Debye)      :      1.86498

Rotational constants in cm-1:     0.131802     0.015961     0.015170
Rotational constants in MHz :  3951.331907   478.510683   454.784466

                             ****ORCA TERMINATED NORMALLY****
TOTAL RUN TIME: 0 days 0 hours 44 minutes 49 seconds 260 msec
