                         Program Version 5.0.4 -  RELEASE  -
|  1> ! ri-mp2 aug-cc-pvdz aug-cc-pvdz/c tightscf
|  2> %pal nprocs 16 end
|  3> %maxcore 3800
|  4> %base "DZ_Si-Cl_78_AB"
|  5> %scf
|  6> STABPerform true
|  7> STABRestartUHFifUnstable true
|  8> end
|  9>
| 10> *xyz 0 1
| 11> Si         0.000001    0.325031    0.000000
| 12> F         0.000001    1.251479    1.266830
| 13> F         0.000001    1.251479   -1.266830
| 14> Cl        -1.664435   -0.796385    0.000000
| 15> Cl         1.664434   -0.796383    0.000000
| 16> *
| 17>
| 18> $new_job
| 19> ! ri-mp2 aug-cc-pvtz aug-cc-pvtz/c tightscf
| 20> %pal nprocs 16 end
| 21> %maxcore 3800
| 22> %base "TZ_Si-Cl_78_AB"
| 23>
| 24> *xyz 0 1
| 25> Si         0.000001    0.325031    0.000000
| 26> F         0.000001    1.251479    1.266830
| 27> F         0.000001    1.251479   -1.266830
| 28> Cl        -1.664435   -0.796385    0.000000
| 29> Cl         1.664434   -0.796383    0.000000
| 30> *
| 31>
| 32> $new_job
| 33> ! ri-mp2 aug-cc-pvqz aug-cc-pvqz/c tightscf
| 34> %pal nprocs 16 end
| 35> %maxcore 3800
| 36> %base "QZ_Si-Cl_78_AB"
| 37>
| 38> *xyz 0 1
| 39> Si         0.000001    0.325031    0.000000
| 40> F         0.000001    1.251479    1.266830
| 41> F         0.000001    1.251479   -1.266830
| 42> Cl        -1.664435   -0.796385    0.000000
| 43> Cl         1.664434   -0.796383    0.000000
| 44> *
| 45>
| 46>
| 47>
| 48>
| 49>                          ****END OF INPUT****
 Total Charge           Charge          ....    0
 Multiplicity           Mult            ....    1
 Number of Electrons    NEL             ....   66
MP2 TOTAL ENERGY:    -1407.865980332 Eh
FINAL SINGLE POINT ENERGY     -1407.865980331628
MP2 TOTAL ENERGY:    -1408.206865342 Eh
FINAL SINGLE POINT ENERGY     -1408.206865342494

CARTESIAN COORDINATES (ANGSTROEM)
---------------------------------
  Si     0.000001    0.325031    0.000000
  F      0.000001    1.251479    1.266830
  F      0.000001    1.251479   -1.266830
  Cl    -1.664435   -0.796385    0.000000
  Cl     1.664434   -0.796383    0.000000

 Multiplicity           Mult            ....    1
 Number of Electrons    NEL             ....   66
 Basis Dimension        Dim             ....  412

ORBITAL ENERGIES
----------------

  NO   OCC          E(Eh)            E(eV)
   0   2.0000    -104.866624     -2853.5659
   1   2.0000    -104.866624     -2853.5659
   2   2.0000     -68.936357     -1875.8536
   3   2.0000     -26.328053      -716.4227
   4   2.0000     -26.328043      -716.4225
   5   2.0000     -10.594331      -288.2864
   6   2.0000     -10.594324      -288.2862
   7   2.0000      -8.061158      -219.3553
   8   2.0000      -8.061156      -219.3552
   9   2.0000      -8.059896      -219.3209
  10   2.0000      -8.059895      -219.3209
  11   2.0000      -8.059895      -219.3209
  12   2.0000      -8.059894      -219.3209
  13   2.0000      -6.267333      -170.5428
  14   2.0000      -4.375968      -119.0761
  15   2.0000      -4.375964      -119.0760
  16   2.0000      -4.375940      -119.0754
  17   2.0000      -1.646370       -44.8000
  18   2.0000      -1.626139       -44.2495
  19   2.0000      -1.154060       -31.4036
  20   2.0000      -1.127761       -30.6879
  21   2.0000      -0.820924       -22.3385
  22   2.0000      -0.757177       -20.6038
  23   2.0000      -0.730660       -19.8823
  24   2.0000      -0.727295       -19.7907
  25   2.0000      -0.699060       -19.0224
  26   2.0000      -0.681543       -18.5457
  27   2.0000      -0.631038       -17.1714
  28   2.0000      -0.568939       -15.4816
  29   2.0000      -0.528482       -14.3807
  30   2.0000      -0.518731       -14.1154
  31   2.0000      -0.501999       -13.6601
  32   2.0000      -0.490336       -13.3427
  33   0.0000       0.034093         0.9277
  34   0.0000       0.042800         1.1646
  35   0.0000       0.043622         1.1870
  36   0.0000       0.044181         1.2022
  37   0.0000       0.083021         2.2591

MULLIKEN ATOMIC CHARGES
-----------------------
   0 Si:    2.353460
   1 F :   -0.703289
   2 F :   -0.703289
   3 Cl:   -0.473441
   4 Cl:   -0.473440
Sum of atomic charges:    0.0000000

LOEWDIN ATOMIC CHARGES
----------------------
   0 Si:   -2.531425
   1 F :    0.361136
   2 F :    0.361136
   3 Cl:    0.904574
   4 Cl:    0.904578

  Mayer bond orders larger than 0.100000
B(  0-Si,  1-F ) :   0.5173 B(  0-Si,  2-F ) :   0.5173 B(  0-Si,  3-Cl) :   0.7538
B(  0-Si,  4-Cl) :   0.7538

MP2 TOTAL ENERGY:    -1408.322237135 Eh
FINAL SINGLE POINT ENERGY     -1408.322237135095

DIPOLE MOMENT
-------------
                                X             Y             Z
Electronic contribution:      0.00001      -0.09388       0.00000
Nuclear contribution   :      0.00000      -0.19266       0.00000
                        -----------------------------------------
Total Dipole Moment    :      0.00001      -0.28655       0.00000
                        -----------------------------------------
Magnitude (a.u.)       :      0.28655
Magnitude (Debye)      :      0.72835

Rotational constants in cm-1:     0.100090     0.065489     0.055475
Rotational constants in MHz :  3000.622587  1963.309114  1663.085895

                             ****ORCA TERMINATED NORMALLY****
TOTAL RUN TIME: 0 days 0 hours 9 minutes 45 seconds 303 msec
