                         Program Version 5.0.4 -  RELEASE  -
|  1> ! ri-mp2 aug-cc-pvdz aug-cc-pvdz/c tightscf
|  2> %pal nprocs 16 end
|  3> %maxcore 3800
|  4> %base "DZ_B-P_70_AB"
|  5> %scf
|  6> STABPerform true
|  7> STABRestartUHFifUnstable true
|  8> end
|  9>
| 10> *xyz 0 1
| 11> P        -0.704314   -0.711586   -0.176534
| 12> B         1.176096   -0.549415    0.134397
| 13> O         1.875355    0.593431   -0.039664
| 14> C        -1.335283    1.006781    0.107297
| 15> H         1.348149    1.366813   -0.263319
| 16> H         1.807865   -1.517770    0.428912
| 17> H        -0.952861    1.475441    1.012880
| 18> H        -2.422530    0.989485    0.158226
| 19> H        -1.073456    1.626204   -0.751969
| 20> H        -1.014087   -1.307435    1.064822
| 21> *
| 22>
| 23> $new_job
| 24> ! ri-mp2 aug-cc-pvtz aug-cc-pvtz/c tightscf
| 25> %pal nprocs 16 end
| 26> %maxcore 3800
| 27> %base "TZ_B-P_70_AB"
| 28>
| 29> *xyz 0 1
| 30> P        -0.704314   -0.711586   -0.176534
| 31> B         1.176096   -0.549415    0.134397
| 32> O         1.875355    0.593431   -0.039664
| 33> C        -1.335283    1.006781    0.107297
| 34> H         1.348149    1.366813   -0.263319
| 35> H         1.807865   -1.517770    0.428912
| 36> H        -0.952861    1.475441    1.012880
| 37> H        -2.422530    0.989485    0.158226
| 38> H        -1.073456    1.626204   -0.751969
| 39> H        -1.014087   -1.307435    1.064822
| 40> *
| 41>
| 42> $new_job
| 43> ! ri-mp2 aug-cc-pvqz aug-cc-pvqz/c tightscf
| 44> %pal nprocs 16 end
| 45> %maxcore 3800
| 46> %base "QZ_B-P_70_AB"
| 47>
| 48> *xyz 0 1
| 49> P        -0.704314   -0.711586   -0.176534
| 50> B         1.176096   -0.549415    0.134397
| 51> O         1.875355    0.593431   -0.039664
| 52> C        -1.335283    1.006781    0.107297
| 53> H         1.348149    1.366813   -0.263319
| 54> H         1.807865   -1.517770    0.428912
| 55> H        -0.952861    1.475441    1.012880
| 56> H        -2.422530    0.989485    0.158226
| 57> H        -1.073456    1.626204   -0.751969
| 58> H        -1.014087   -1.307435    1.064822
| 59> *
| 60>
| 61>
| 62>
| 63>
| 64>                          ****END OF INPUT****
 Total Charge           Charge          ....    0
 Multiplicity           Mult            ....    1
 Number of Electrons    NEL             ....   40
MP2 TOTAL ENERGY:     -482.276589557 Eh
FINAL SINGLE POINT ENERGY      -482.276589557290
MP2 TOTAL ENERGY:     -482.451041835 Eh
FINAL SINGLE POINT ENERGY      -482.451041834895

CARTESIAN COORDINATES (ANGSTROEM)
---------------------------------
  P     -0.704314   -0.711586   -0.176534
  B      1.176096   -0.549415    0.134397
  O      1.875355    0.593431   -0.039664
  C     -1.335283    1.006781    0.107297
  H      1.348149    1.366813   -0.263319
  H      1.807865   -1.517770    0.428912
  H     -0.952861    1.475441    1.012880
  H     -2.422530    0.989485    0.158226
  H     -1.073456    1.626204   -0.751969
  H     -1.014087   -1.307435    1.064822

 Multiplicity           Mult            ....    1
 Number of Electrons    NEL             ....   40
 Basis Dimension        Dim             ....  600

ORBITAL ENERGIES
----------------

  NO   OCC          E(Eh)            E(eV)
   0   2.0000     -79.921954     -2174.7869
   1   2.0000     -20.584177      -560.1239
   2   2.0000     -11.237120      -305.7776
   3   2.0000      -7.628385      -207.5789
   4   2.0000      -7.467281      -203.1950
   5   2.0000      -5.361642      -145.8977
   6   2.0000      -5.361228      -145.8864
   7   2.0000      -5.360706      -145.8722
   8   2.0000      -1.379432       -37.5362
   9   2.0000      -0.988315       -26.8934
  10   2.0000      -0.813122       -22.1262
  11   2.0000      -0.763896       -20.7867
  12   2.0000      -0.629386       -17.1265
  13   2.0000      -0.590435       -16.0665
  14   2.0000      -0.580393       -15.7933
  15   2.0000      -0.563174       -15.3247
  16   2.0000      -0.549400       -14.9499
  17   2.0000      -0.493244       -13.4218
  18   2.0000      -0.433089       -11.7849
  19   2.0000      -0.347213        -9.4481
  20   0.0000       0.021252         0.5783
  21   0.0000       0.030734         0.8363
  22   0.0000       0.034653         0.9430
  23   0.0000       0.037996         1.0339
  24   0.0000       0.049385         1.3438

MULLIKEN ATOMIC CHARGES
-----------------------
   0 P :    0.360760
   1 B :    0.831587
   2 O :   -1.055267
   3 C :   -0.990040
   4 H :    0.388411
   5 H :   -0.282505
   6 H :    0.245173
   7 H :    0.346698
   8 H :    0.240562
   9 H :   -0.085379
Sum of atomic charges:    0.0000000

LOEWDIN ATOMIC CHARGES
----------------------
   0 P :    1.313708
   1 B :   -0.666116
   2 O :    1.289196
   3 C :    0.703274
   4 H :   -0.835928
   5 H :   -0.254365
   6 H :   -0.350590
   7 H :   -0.368614
   8 H :   -0.369126
   9 H :   -0.461439

  Mayer bond orders larger than 0.100000
B(  0-P ,  1-B ) :   1.0850 B(  0-P ,  3-C ) :   0.8786 B(  0-P ,  9-H ) :   0.9275
B(  1-B ,  2-O ) :   0.5745 B(  1-B ,  5-H ) :   0.9069 B(  2-O ,  4-H ) :   0.8738
B(  3-C ,  6-H ) :   0.9229 B(  3-C ,  7-H ) :   0.8903 B(  3-C ,  8-H ) :   0.9321

MP2 TOTAL ENERGY:     -482.506192334 Eh
FINAL SINGLE POINT ENERGY      -482.506192334014

DIPOLE MOMENT
-------------
                                X             Y             Z
Electronic contribution:      2.06992      -3.01965      -1.50053
Nuclear contribution   :     -2.53007       3.72683       1.69255
                        -----------------------------------------
Total Dipole Moment    :     -0.46015       0.70718       0.19202
                        -----------------------------------------
Magnitude (a.u.)       :      0.86528
Magnitude (Debye)      :      2.19937

Rotational constants in cm-1:     0.322458     0.133086     0.098862
Rotational constants in MHz :  9667.050983  3989.826749  2963.818334

                             ****ORCA TERMINATED NORMALLY****
TOTAL RUN TIME: 0 days 0 hours 24 minutes 10 seconds 488 msec
