                         Program Version 5.0.4 -  RELEASE  -
|  1> ! ri-mp2 aug-cc-pvdz aug-cc-pvdz/c tightscf
|  2> %pal nprocs 16 end
|  3> %maxcore 3800
|  4> %base "DZ_P-N_42_AB"
|  5>
|  6> *xyz 0 1
|  7> N        -1.661245   -0.032023    0.198396
|  8> C         0.737450   -0.285538   -0.343472
|  9> C         1.060199    1.051663   -0.152067
| 10> C         1.747049   -1.232999   -0.279163
| 11> C         3.058805   -0.856155   -0.037502
| 12> C         3.371928    0.478141    0.149248
| 13> C         2.366863    1.431641    0.093016
| 14> H         4.394008    0.775698    0.342403
| 15> H         2.604470    2.477076    0.240595
| 16> H         0.271719    1.792029   -0.185371
| 17> H         1.504196   -2.279999   -0.416062
| 18> H         3.835184   -1.608329    0.011406
| 19> P        -3.149366    0.362718   -0.514093
| 20> C        -1.606312   -0.425642    1.591430
| 21> H        -0.577424   -0.387275    1.951210
| 22> H        -1.988519   -1.443999    1.747327
| 23> H        -2.202209    0.256981    2.194739
| 24> C        -0.683410   -0.695555   -0.646898
| 25> H        -0.914428   -0.444783   -1.684225
| 26> H        -0.760433   -1.788612   -0.563490
| 27> H        -3.596568    1.299379    0.448308
| 28> H        -4.016223   -0.658107   -0.011776
| 29> *
| 30>
| 31> $new_job
| 32> ! ri-mp2 aug-cc-pvtz aug-cc-pvtz/c tightscf
| 33> %pal nprocs 16 end
| 34> %maxcore 3800
| 35> %base "TZ_P-N_42_AB"
| 36>
| 37> *xyz 0 1
| 38> N        -1.661245   -0.032023    0.198396
| 39> C         0.737450   -0.285538   -0.343472
| 40> C         1.060199    1.051663   -0.152067
| 41> C         1.747049   -1.232999   -0.279163
| 42> C         3.058805   -0.856155   -0.037502
| 43> C         3.371928    0.478141    0.149248
| 44> C         2.366863    1.431641    0.093016
| 45> H         4.394008    0.775698    0.342403
| 46> H         2.604470    2.477076    0.240595
| 47> H         0.271719    1.792029   -0.185371
| 48> H         1.504196   -2.279999   -0.416062
| 49> H         3.835184   -1.608329    0.011406
| 50> P        -3.149366    0.362718   -0.514093
| 51> C        -1.606312   -0.425642    1.591430
| 52> H        -0.577424   -0.387275    1.951210
| 53> H        -1.988519   -1.443999    1.747327
| 54> H        -2.202209    0.256981    2.194739
| 55> C        -0.683410   -0.695555   -0.646898
| 56> H        -0.914428   -0.444783   -1.684225
| 57> H        -0.760433   -1.788612   -0.563490
| 58> H        -3.596568    1.299379    0.448308
| 59> H        -4.016223   -0.658107   -0.011776
| 60> *
| 61>
| 62> $new_job
| 63> ! ri-mp2 aug-cc-pvqz aug-cc-pvqz/c tightscf
| 64> %pal nprocs 16 end
| 65> %maxcore 3800
| 66> %base "QZ_P-N_42_AB"
| 67>
| 68> *xyz 0 1
| 69> N        -1.661245   -0.032023    0.198396
| 70> C         0.737450   -0.285538   -0.343472
| 71> C         1.060199    1.051663   -0.152067
| 72> C         1.747049   -1.232999   -0.279163
| 73> C         3.058805   -0.856155   -0.037502
| 74> C         3.371928    0.478141    0.149248
| 75> C         2.366863    1.431641    0.093016
| 76> H         4.394008    0.775698    0.342403
| 77> H         2.604470    2.477076    0.240595
| 78> H         0.271719    1.792029   -0.185371
| 79> H         1.504196   -2.279999   -0.416062
| 80> H         3.835184   -1.608329    0.011406
| 81> P        -3.149366    0.362718   -0.514093
| 82> C        -1.606312   -0.425642    1.591430
| 83> H        -0.577424   -0.387275    1.951210
| 84> H        -1.988519   -1.443999    1.747327
| 85> H        -2.202209    0.256981    2.194739
| 86> C        -0.683410   -0.695555   -0.646898
| 87> H        -0.914428   -0.444783   -1.684225
| 88> H        -0.760433   -1.788612   -0.563490
| 89> H        -3.596568    1.299379    0.448308
| 90> H        -4.016223   -0.658107   -0.011776
| 91> *
| 92>
| 93>
| 94>
| 95>
| 96>                          ****END OF INPUT****
 Total Charge           Charge          ....    0
 Multiplicity           Mult            ....    1
 Number of Electrons    NEL             ....   82
MP2 TOTAL ENERGY:     -706.559525530 Eh
FINAL SINGLE POINT ENERGY      -706.559525530146
MP2 TOTAL ENERGY:     -706.934566719 Eh
FINAL SINGLE POINT ENERGY      -706.934566718814

CARTESIAN COORDINATES (ANGSTROEM)
---------------------------------
  N     -1.661245   -0.032023    0.198396
  C      0.737450   -0.285538   -0.343472
  C      1.060199    1.051663   -0.152067
  C      1.747049   -1.232999   -0.279163
  C      3.058805   -0.856155   -0.037502
  C      3.371928    0.478141    0.149248
  C      2.366863    1.431641    0.093016
  H      4.394008    0.775698    0.342403
  H      2.604470    2.477076    0.240595
  H      0.271719    1.792029   -0.185371
  H      1.504196   -2.279999   -0.416062
  H      3.835184   -1.608329    0.011406
  P     -3.149366    0.362718   -0.514093
  C     -1.606312   -0.425642    1.591430
  H     -0.577424   -0.387275    1.951210
  H     -1.988519   -1.443999    1.747327
  H     -2.202209    0.256981    2.194739
  C     -0.683410   -0.695555   -0.646898
  H     -0.914428   -0.444783   -1.684225
  H     -0.760433   -1.788612   -0.563490
  H     -3.596568    1.299379    0.448308
  H     -4.016223   -0.658107   -0.011776

 Multiplicity           Mult            ....    1
 Number of Electrons    NEL             ....   82
 Basis Dimension        Dim             .... 1356

ORBITAL ENERGIES
----------------

  NO   OCC          E(Eh)            E(eV)
   0   2.0000     -79.952283     -2175.6122
   1   2.0000     -15.554574      -423.2615
   2   2.0000     -11.262977      -306.4812
   3   2.0000     -11.248901      -306.0981
   4   2.0000     -11.235330      -305.7289
   5   2.0000     -11.231982      -305.6378
   6   2.0000     -11.231287      -305.6188
   7   2.0000     -11.229263      -305.5638
   8   2.0000     -11.228810      -305.5514
   9   2.0000     -11.225803      -305.4696
  10   2.0000      -7.491711      -203.8598
  11   2.0000      -5.385733      -146.5532
  12   2.0000      -5.385458      -146.5458
  13   2.0000      -5.384833      -146.5288
  14   2.0000      -1.227909       -33.4131
  15   2.0000      -1.155943       -31.4548
  16   2.0000      -1.040519       -28.3140
  17   2.0000      -1.016505       -27.6605
  18   2.0000      -0.953458       -25.9449
  19   2.0000      -0.903779       -24.5931
  20   2.0000      -0.830769       -22.6064
  21   2.0000      -0.811350       -22.0780
  22   2.0000      -0.772624       -21.0242
  23   2.0000      -0.701461       -19.0877
  24   2.0000      -0.653549       -17.7840
  25   2.0000      -0.642174       -17.4744
  26   2.0000      -0.631733       -17.1903
  27   2.0000      -0.612759       -16.6740
  28   2.0000      -0.602624       -16.3982
  29   2.0000      -0.585504       -15.9324
  30   2.0000      -0.560695       -15.2573
  31   2.0000      -0.538101       -14.6425
  32   2.0000      -0.523730       -14.2514
  33   2.0000      -0.516476       -14.0540
  34   2.0000      -0.495949       -13.4955
  35   2.0000      -0.490793       -13.3552
  36   2.0000      -0.481873       -13.1124
  37   2.0000      -0.374632       -10.1943
  38   2.0000      -0.361839        -9.8461
  39   2.0000      -0.338671        -9.2157
  40   2.0000      -0.330589        -8.9958
  41   0.0000       0.023743         0.6461
  42   0.0000       0.028193         0.7672
  43   0.0000       0.029286         0.7969
  44   0.0000       0.036141         0.9834
  45   0.0000       0.039930         1.0865

MULLIKEN ATOMIC CHARGES
-----------------------
   0 N :   -0.381317
   1 C :    0.659624
   2 C :   -0.507968
   3 C :   -0.682355
   4 C :   -0.271824
   5 C :   -0.358627
   6 C :   -0.289876
   7 H :    0.325378
   8 H :    0.209887
   9 H :    0.347305
  10 H :    0.225115
  11 H :    0.226711
  12 P :    0.394029
  13 C :   -1.038744
  14 H :    0.351899
  15 H :    0.354166
  16 H :    0.305127
  17 C :   -0.172608
  18 H :    0.440847
  19 H :    0.175198
  20 H :   -0.152296
  21 H :   -0.159671
Sum of atomic charges:    0.0000000

LOEWDIN ATOMIC CHARGES
----------------------
   0 N :    0.155447
   1 C :   -0.097915
   2 C :    0.338168
   3 C :    0.346919
   4 C :    0.343415
   5 C :    0.334730
   6 C :    0.348383
   7 H :   -0.323231
   8 H :   -0.319374
   9 H :   -0.314424
  10 H :   -0.315238
  11 H :   -0.320468
  12 P :    1.374469
  13 C :    0.661774
  14 H :   -0.301920
  15 H :   -0.276454
  16 H :   -0.316579
  17 C :    0.207803
  18 H :   -0.337566
  19 H :   -0.298721
  20 H :   -0.455982
  21 H :   -0.433238

  Mayer bond orders larger than 0.100000
B(  0-N ,  1-C ) :  -0.1299 B(  0-N , 12-P ) :   0.7416 B(  0-N , 13-C ) :   0.9702
B(  0-N , 17-C ) :   0.8659 B(  1-C ,  2-C ) :   0.9805 B(  1-C ,  3-C ) :   0.8265
B(  1-C ,  4-C ) :  -0.4686 B(  1-C ,  6-C ) :  -0.3290 B(  1-C , 17-C ) :   0.7227
B(  1-C , 19-H ) :  -0.1323 B(  2-C ,  4-C ) :   0.1638 B(  2-C ,  6-C ) :   1.2945
B(  2-C ,  8-H ) :  -0.1287 B(  2-C ,  9-H ) :   0.8902 B(  2-C , 17-C ) :  -0.1245
B(  3-C ,  4-C ) :   1.4016 B(  3-C ,  5-C ) :   0.1483 B(  3-C ,  6-C ) :   0.1271
B(  3-C , 10-H ) :   1.0524 B(  3-C , 11-H ) :  -0.1459 B(  3-C , 17-C ) :  -0.1943
B(  4-C ,  5-C ) :   1.1528 B(  4-C , 11-H ) :   1.1625 B(  5-C ,  6-C ) :   1.1325
B(  5-C ,  7-H ) :   1.0163 B(  5-C , 11-H ) :  -0.1209 B(  6-C ,  8-H ) :   1.1631
B( 12-P , 20-H ) :   0.9813 B( 12-P , 21-H ) :   0.9276 B( 13-C , 14-H ) :   0.8575
B( 13-C , 15-H ) :   0.8975 B( 13-C , 16-H ) :   0.9730 B( 17-C , 18-H ) :   0.7557
B( 17-C , 19-H ) :   1.1505

MP2 TOTAL ENERGY:     -707.051743780 Eh
FINAL SINGLE POINT ENERGY      -707.051743780484

DIPOLE MOMENT
-------------
                                X             Y             Z
Electronic contribution:     -1.38785       2.10100      -4.18373
Nuclear contribution   :      1.55183      -2.36844       4.59079
                        -----------------------------------------
Total Dipole Moment    :      0.16398      -0.26745       0.40706
                        -----------------------------------------
Magnitude (a.u.)       :      0.51392
Magnitude (Debye)      :      1.30628

Rotational constants in cm-1:     0.099767     0.018702     0.017831
Rotational constants in MHz :  2990.935852   560.665607   534.557740

                             ****ORCA TERMINATED NORMALLY****
TOTAL RUN TIME: 0 days 1 hours 11 minutes 2 seconds 24 msec
