                         Program Version 5.0.4 -  RELEASE  -
|  1> ! ri-mp2 aug-cc-pvdz aug-cc-pvdz/c tightscf
|  2> %pal nprocs 16 end
|  3> %maxcore 3800
|  4> %base "DZ_B-S_26_AB"
|  5>
|  6> *xyz 0 1
|  7> S         2.949918    0.932674    0.533370
|  8> S         1.934908   -1.929526   -0.448939
|  9> N        -4.170802   -1.611227    0.452104
| 10> C        -2.181338   -0.020175    0.058385
| 11> C        -3.285778   -0.904934    0.277345
| 12> C         0.208875    0.335393   -0.077275
| 13> C        -0.881987   -0.507140    0.122556
| 14> H        -0.729478   -1.554858    0.343713
| 15> C        -2.413945    1.323230   -0.218082
| 16> H        -3.428816    1.691971   -0.269179
| 17> C        -0.048938    1.680964   -0.348516
| 18> H         0.778183    2.358361   -0.516575
| 19> C        -1.341437    2.168436   -0.423299
| 20> H        -1.514318    3.213327   -0.641369
| 21> B         1.668777   -0.210511    0.000908
| 22> H         3.233759   -2.033806   -0.142986
| 23> H         4.022481    0.151146    0.359547
| 24> *
| 25>
| 26> $new_job
| 27> ! ri-mp2 aug-cc-pvtz aug-cc-pvtz/c tightscf
| 28> %pal nprocs 16 end
| 29> %maxcore 3800
| 30> %base "TZ_B-S_26_AB"
| 31>
| 32> *xyz 0 1
| 33> S         2.949918    0.932674    0.533370
| 34> S         1.934908   -1.929526   -0.448939
| 35> N        -4.170802   -1.611227    0.452104
| 36> C        -2.181338   -0.020175    0.058385
| 37> C        -3.285778   -0.904934    0.277345
| 38> C         0.208875    0.335393   -0.077275
| 39> C        -0.881987   -0.507140    0.122556
| 40> H        -0.729478   -1.554858    0.343713
| 41> C        -2.413945    1.323230   -0.218082
| 42> H        -3.428816    1.691971   -0.269179
| 43> C        -0.048938    1.680964   -0.348516
| 44> H         0.778183    2.358361   -0.516575
| 45> C        -1.341437    2.168436   -0.423299
| 46> H        -1.514318    3.213327   -0.641369
| 47> B         1.668777   -0.210511    0.000908
| 48> H         3.233759   -2.033806   -0.142986
| 49> H         4.022481    0.151146    0.359547
| 50> *
| 51>
| 52> $new_job
| 53> ! ri-mp2 aug-cc-pvqz aug-cc-pvqz/c tightscf
| 54> %pal nprocs 16 end
| 55> %maxcore 3800
| 56> %base "QZ_B-S_26_AB"
| 57>
| 58> *xyz 0 1
| 59> S         2.949918    0.932674    0.533370
| 60> S         1.934908   -1.929526   -0.448939
| 61> N        -4.170802   -1.611227    0.452104
| 62> C        -2.181338   -0.020175    0.058385
| 63> C        -3.285778   -0.904934    0.277345
| 64> C         0.208875    0.335393   -0.077275
| 65> C        -0.881987   -0.507140    0.122556
| 66> H        -0.729478   -1.554858    0.343713
| 67> C        -2.413945    1.323230   -0.218082
| 68> H        -3.428816    1.691971   -0.269179
| 69> C        -0.048938    1.680964   -0.348516
| 70> H         0.778183    2.358361   -0.516575
| 71> C        -1.341437    2.168436   -0.423299
| 72> H        -1.514318    3.213327   -0.641369
| 73> B         1.668777   -0.210511    0.000908
| 74> H         3.233759   -2.033806   -0.142986
| 75> H         4.022481    0.151146    0.359547
| 76> *
| 77>
| 78>
| 79>
| 80>
| 81>                          ****END OF INPUT****
 Total Charge           Charge          ....    0
 Multiplicity           Mult            ....    1
 Number of Electrons    NEL             ....   92
MP2 TOTAL ENERGY:    -1144.336591458 Eh
FINAL SINGLE POINT ENERGY     -1144.336591458468
MP2 TOTAL ENERGY:    -1144.731178153 Eh
FINAL SINGLE POINT ENERGY     -1144.731178153486

CARTESIAN COORDINATES (ANGSTROEM)
---------------------------------
  S      2.949918    0.932674    0.533370
  S      1.934908   -1.929526   -0.448939
  N     -4.170802   -1.611227    0.452104
  C     -2.181338   -0.020175    0.058385
  C     -3.285778   -0.904934    0.277345
  C      0.208875    0.335393   -0.077275
  C     -0.881987   -0.507140    0.122556
  H     -0.729478   -1.554858    0.343713
  C     -2.413945    1.323230   -0.218082
  H     -3.428816    1.691971   -0.269179
  C     -0.048938    1.680964   -0.348516
  H      0.778183    2.358361   -0.516575
  C     -1.341437    2.168436   -0.423299
  H     -1.514318    3.213327   -0.641369
  B      1.668777   -0.210511    0.000908
  H      3.233759   -2.033806   -0.142986
  H      4.022481    0.151146    0.359547

 Multiplicity           Mult            ....    1
 Number of Electrons    NEL             ....   92
 Basis Dimension        Dim             .... 1164

ORBITAL ENERGIES
----------------

  NO   OCC          E(Eh)            E(eV)
   0   2.0000     -91.971085     -2502.6605
   1   2.0000     -91.970471     -2502.6438
   2   2.0000     -15.570170      -423.6859
   3   2.0000     -11.289700      -307.2084
   4   2.0000     -11.276103      -306.8384
   5   2.0000     -11.275011      -306.8086
   6   2.0000     -11.274172      -306.7858
   7   2.0000     -11.269842      -306.6680
   8   2.0000     -11.260157      -306.4044
   9   2.0000     -11.249065      -306.1026
  10   2.0000      -8.976262      -244.2565
  11   2.0000      -8.975641      -244.2396
  12   2.0000      -7.666628      -208.6196
  13   2.0000      -6.657844      -181.1692
  14   2.0000      -6.657212      -181.1519
  15   2.0000      -6.656811      -181.1410
  16   2.0000      -6.656389      -181.1295
  17   2.0000      -6.656181      -181.1239
  18   2.0000      -6.655755      -181.1123
  19   2.0000      -1.231984       -33.5240
  20   2.0000      -1.191453       -32.4211
  21   2.0000      -1.072662       -29.1886
  22   2.0000      -1.060794       -28.8657
  23   2.0000      -1.018736       -27.7212
  24   2.0000      -0.977575       -26.6012
  25   2.0000      -0.891387       -24.2559
  26   2.0000      -0.866217       -23.5710
  27   2.0000      -0.776497       -21.1296
  28   2.0000      -0.704090       -19.1593
  29   2.0000      -0.678280       -18.4570
  30   2.0000      -0.672256       -18.2930
  31   2.0000      -0.632364       -17.2075
  32   2.0000      -0.589297       -16.0356
  33   2.0000      -0.578894       -15.7525
  34   2.0000      -0.565912       -15.3992
  35   2.0000      -0.559470       -15.2240
  36   2.0000      -0.542316       -14.7572
  37   2.0000      -0.535542       -14.5728
  38   2.0000      -0.503148       -13.6914
  39   2.0000      -0.490354       -13.3432
  40   2.0000      -0.471146       -12.8205
  41   2.0000      -0.449098       -12.2206
  42   2.0000      -0.443414       -12.0659
  43   2.0000      -0.386140       -10.5074
  44   2.0000      -0.368943       -10.0394
  45   2.0000      -0.362779        -9.8717
  46   0.0000       0.017049         0.4639
  47   0.0000       0.023004         0.6260
  48   0.0000       0.031286         0.8513
  49   0.0000       0.034728         0.9450
  50   0.0000       0.039111         1.0643

MULLIKEN ATOMIC CHARGES
-----------------------
   0 S :   -0.089364
   1 S :   -0.092489
   2 N :   -0.844620
   3 C :   -0.054963
   4 C :    0.548096
   5 C :    0.432901
   6 C :   -0.312359
   7 H :    0.251072
   8 C :   -0.221250
   9 H :    0.400069
  10 C :   -0.516643
  11 H :    0.201658
  12 C :   -0.356955
  13 H :    0.224431
  14 B :    0.472268
  15 H :   -0.017336
  16 H :   -0.024517
Sum of atomic charges:    0.0000000

LOEWDIN ATOMIC CHARGES
----------------------
   0 S :    1.739089
   1 S :    1.743698
   2 N :    0.419032
   3 C :   -0.184687
   4 C :   -0.311081
   5 C :   -0.122004
   6 C :    0.258468
   7 H :   -0.352407
   8 C :    0.332146
   9 H :   -0.305299
  10 C :    0.293906
  11 H :   -0.352896
  12 C :    0.378176
  13 H :   -0.312224
  14 B :   -1.635604
  15 H :   -0.793726
  16 H :   -0.794587

  Mayer bond orders larger than 0.100000
B(  0-S , 14-B ) :   1.0685 B(  0-S , 16-H ) :   1.1036 B(  1-S ,  6-C ) :   0.1213
B(  1-S , 14-B ) :   1.0680 B(  1-S , 15-H ) :   1.1041 B(  2-N ,  4-C ) :   2.1999
B(  3-C ,  4-C ) :   1.5871 B(  3-C ,  5-C ) :  -0.5971 B(  3-C ,  6-C ) :   1.1441
B(  3-C ,  8-C ) :   0.9942 B(  3-C , 10-C ) :   0.1359 B(  3-C , 12-C ) :  -0.2398
B(  4-C ,  6-C ) :  -0.5387 B(  4-C ,  8-C ) :  -0.3520 B(  5-C ,  6-C ) :   0.9863
B(  5-C ,  8-C ) :  -0.1012 B(  5-C , 10-C ) :   0.9222 B(  5-C , 11-H ) :  -0.1067
B(  5-C , 12-C ) :  -0.3919 B(  5-C , 14-B ) :   1.0155 B(  6-C ,  7-H ) :   0.9067
B(  6-C ,  8-C ) :   0.1685 B(  6-C , 12-C ) :   0.1308 B(  8-C ,  9-H ) :   0.8475
B(  8-C , 10-C ) :   0.1847 B(  8-C , 12-C ) :   1.2519 B(  8-C , 13-H ) :  -0.1302
B( 10-C , 11-H ) :   1.0365 B( 10-C , 12-C ) :   1.2917 B( 10-C , 13-H ) :  -0.1630
B( 12-C , 13-H ) :   1.1830

MP2 TOTAL ENERGY:    -1144.858622622 Eh
FINAL SINGLE POINT ENERGY     -1144.858622622052

DIPOLE MOMENT
-------------
                                X             Y             Z
Electronic contribution:      0.83684      -2.75426       0.55139
Nuclear contribution   :      0.81237       3.87620      -0.83711
                        -----------------------------------------
Total Dipole Moment    :      1.64921       1.12194      -0.28572
                        -----------------------------------------
Magnitude (a.u.)       :      2.01501
Magnitude (Debye)      :      5.12175

Rotational constants in cm-1:     0.046845     0.016393     0.012594
Rotational constants in MHz :  1404.374212   491.453517   377.550094

                             ****ORCA TERMINATED NORMALLY****
TOTAL RUN TIME: 0 days 0 hours 32 minutes 58 seconds 508 msec
