                         Program Version 5.0.4 -  RELEASE  -
|  1> ! ri-mp2 aug-cc-pvdz aug-cc-pvdz/c tightscf
|  2> %pal nprocs 16 end
|  3> %maxcore 3800
|  4> %base "DZ_B-Cl_73_AB"
|  5>
|  6> *xyz 0 1
|  7> Cl         2.404428    0.000000    0.063570
|  8> N        -0.076543    1.216435   -0.071803
|  9> N        -0.076543   -1.216435   -0.071802
| 10> C        -1.523922    1.261766   -0.182720
| 11> C        -2.131207   -0.000000    0.413840
| 12> C        -1.523922   -1.261766   -0.182721
| 13> B         0.619330   -0.000000   -0.035287
| 14> H         0.411429    2.093226   -0.085632
| 15> H         0.411429   -2.093226   -0.085631
| 16> H        -1.906658   -2.134923    0.348579
| 17> H        -1.834537   -1.360929   -1.229427
| 18> H        -3.209797   -0.000000    0.251530
| 19> H        -1.956691   -0.000000    1.492023
| 20> H        -1.834537    1.360930   -1.229426
| 21> H        -1.906658    2.134923    0.348581
| 22> *
| 23>
| 24> $new_job
| 25> ! ri-mp2 aug-cc-pvtz aug-cc-pvtz/c tightscf
| 26> %pal nprocs 16 end
| 27> %maxcore 3800
| 28> %base "TZ_B-Cl_73_AB"
| 29>
| 30> *xyz 0 1
| 31> Cl         2.404428    0.000000    0.063570
| 32> N        -0.076543    1.216435   -0.071803
| 33> N        -0.076543   -1.216435   -0.071802
| 34> C        -1.523922    1.261766   -0.182720
| 35> C        -2.131207   -0.000000    0.413840
| 36> C        -1.523922   -1.261766   -0.182721
| 37> B         0.619330   -0.000000   -0.035287
| 38> H         0.411429    2.093226   -0.085632
| 39> H         0.411429   -2.093226   -0.085631
| 40> H        -1.906658   -2.134923    0.348579
| 41> H        -1.834537   -1.360929   -1.229427
| 42> H        -3.209797   -0.000000    0.251530
| 43> H        -1.956691   -0.000000    1.492023
| 44> H        -1.834537    1.360930   -1.229426
| 45> H        -1.906658    2.134923    0.348581
| 46> *
| 47>
| 48> $new_job
| 49> ! ri-mp2 aug-cc-pvqz aug-cc-pvqz/c tightscf
| 50> %pal nprocs 16 end
| 51> %maxcore 3800
| 52> %base "QZ_B-Cl_73_AB"
| 53>
| 54> *xyz 0 1
| 55> Cl         2.404428    0.000000    0.063570
| 56> N        -0.076543    1.216435   -0.071803
| 57> N        -0.076543   -1.216435   -0.071802
| 58> C        -1.523922    1.261766   -0.182720
| 59> C        -2.131207   -0.000000    0.413840
| 60> C        -1.523922   -1.261766   -0.182721
| 61> B         0.619330   -0.000000   -0.035287
| 62> H         0.411429    2.093226   -0.085632
| 63> H         0.411429   -2.093226   -0.085631
| 64> H        -1.906658   -2.134923    0.348579
| 65> H        -1.834537   -1.360929   -1.229427
| 66> H        -3.209797   -0.000000    0.251530
| 67> H        -1.956691   -0.000000    1.492023
| 68> H        -1.834537    1.360930   -1.229426
| 69> H        -1.906658    2.134923    0.348581
| 70> *
| 71>
| 72>
| 73>
| 74>
| 75>                          ****END OF INPUT****
 Total Charge           Charge          ....    0
 Multiplicity           Mult            ....    1
 Number of Electrons    NEL             ....   62
MP2 TOTAL ENERGY:     -712.533802802 Eh
FINAL SINGLE POINT ENERGY      -712.533802802393
MP2 TOTAL ENERGY:     -712.823632273 Eh
FINAL SINGLE POINT ENERGY      -712.823632272629

CARTESIAN COORDINATES (ANGSTROEM)
---------------------------------
  Cl     2.404428    0.000000    0.063570
  N     -0.076543    1.216435   -0.071803
  N     -0.076543   -1.216435   -0.071802
  C     -1.523922    1.261766   -0.182720
  C     -2.131207   -0.000000    0.413840
  C     -1.523922   -1.261766   -0.182721
  B      0.619330   -0.000000   -0.035287
  H      0.411429    2.093226   -0.085632
  H      0.411429   -2.093226   -0.085631
  H     -1.906658   -2.134923    0.348579
  H     -1.834537   -1.360929   -1.229427
  H     -3.209797   -0.000000    0.251530
  H     -1.956691   -0.000000    1.492023
  H     -1.834537    1.360930   -1.229426
  H     -1.906658    2.134923    0.348581

 Multiplicity           Mult            ....    1
 Number of Electrons    NEL             ....   62
 Basis Dimension        Dim             ....  932

ORBITAL ENERGIES
----------------

  NO   OCC          E(Eh)            E(eV)
   0   2.0000    -104.802311     -2851.8159
   1   2.0000     -15.539831      -422.8603
   2   2.0000     -15.539815      -422.8599
   3   2.0000     -11.259985      -306.3998
   4   2.0000     -11.259981      -306.3997
   5   2.0000     -11.227569      -305.5177
   6   2.0000     -10.530066      -286.5377
   7   2.0000      -7.997001      -217.6094
   8   2.0000      -7.995929      -217.5803
   9   2.0000      -7.995871      -217.5787
  10   2.0000      -7.632964      -207.7035
  11   2.0000      -1.226012       -33.3615
  12   2.0000      -1.167060       -31.7573
  13   2.0000      -1.081887       -29.4396
  14   2.0000      -1.024730       -27.8843
  15   2.0000      -0.904637       -24.6164
  16   2.0000      -0.814593       -22.1662
  17   2.0000      -0.741128       -20.1671
  18   2.0000      -0.670516       -18.2457
  19   2.0000      -0.631600       -17.1867
  20   2.0000      -0.618256       -16.8236
  21   2.0000      -0.616589       -16.7782
  22   2.0000      -0.594297       -16.1716
  23   2.0000      -0.547549       -14.8996
  24   2.0000      -0.525216       -14.2918
  25   2.0000      -0.496164       -13.5013
  26   2.0000      -0.478725       -13.0268
  27   2.0000      -0.470254       -12.7963
  28   2.0000      -0.438635       -11.9359
  29   2.0000      -0.405459       -11.0331
  30   2.0000      -0.365267        -9.9394
  31   0.0000       0.021926         0.5966
  32   0.0000       0.029135         0.7928
  33   0.0000       0.033364         0.9079
  34   0.0000       0.033707         0.9172
  35   0.0000       0.047462         1.2915

MULLIKEN ATOMIC CHARGES
-----------------------
   0 Cl:   -0.358934
   1 N :   -0.665043
   2 N :   -0.665043
   3 C :   -0.266685
   4 C :   -0.574119
   5 C :   -0.266686
   6 B :    1.034032
   7 H :    0.054711
   8 H :    0.054711
   9 H :    0.333311
  10 H :    0.195699
  11 H :    0.351347
  12 H :    0.243689
  13 H :    0.195700
  14 H :    0.333310
Sum of atomic charges:    0.0000000

LOEWDIN ATOMIC CHARGES
----------------------
   0 Cl:    1.312603
   1 N :    0.899011
   2 N :    0.899011
   3 C :    0.379438
   4 C :    0.514822
   5 C :    0.379439
   6 B :   -1.746845
   7 H :   -0.523746
   8 H :   -0.523746
   9 H :   -0.270657
  10 H :   -0.262864
  11 H :   -0.259500
  12 H :   -0.263445
  13 H :   -0.262864
  14 H :   -0.270656

  Mayer bond orders larger than 0.100000
B(  0-Cl,  1-N ) :   0.1337 B(  0-Cl,  2-N ) :   0.1337 B(  0-Cl,  6-B ) :   0.6248
B(  1-N ,  3-C ) :   0.7463 B(  1-N ,  6-B ) :   1.0592 B(  1-N ,  7-H ) :   1.1845
B(  2-N ,  5-C ) :   0.7463 B(  2-N ,  6-B ) :   1.0592 B(  2-N ,  8-H ) :   1.1845
B(  3-C ,  4-C ) :   0.9863 B(  3-C , 13-H ) :   0.9803 B(  3-C , 14-H ) :   0.8932
B(  4-C ,  5-C ) :   0.9863 B(  4-C , 11-H ) :   0.8356 B(  4-C , 12-H ) :   0.9070
B(  5-C ,  9-H ) :   0.8932 B(  5-C , 10-H ) :   0.9803

MP2 TOTAL ENERGY:     -712.916553110 Eh
FINAL SINGLE POINT ENERGY      -712.916553110404

DIPOLE MOMENT
-------------
                                X             Y             Z
Electronic contribution:     14.31621      -0.00000       0.16629
Nuclear contribution   :    -15.50837       0.00000      -0.24863
                        -----------------------------------------
Total Dipole Moment    :     -1.19216      -0.00000      -0.08234
                        -----------------------------------------
Magnitude (a.u.)       :      1.19500
Magnitude (Debye)      :      3.03745

Rotational constants in cm-1:     0.152938     0.047484     0.037654
Rotational constants in MHz :  4584.962167  1423.541877  1128.845340

                             ****ORCA TERMINATED NORMALLY****
TOTAL RUN TIME: 0 days 0 hours 19 minutes 37 seconds 397 msec
