                         Program Version 5.0.4 -  RELEASE  -
|  1> ! ri-mp2 aug-cc-pvdz aug-cc-pvdz/c tightscf
|  2> %pal nprocs 16 end
|  3> %maxcore 3800
|  4> %base "DZ_P-C_14_B"
|  5> %scf
|  6> STABPerform true
|  7> STABRestartUHFifUnstable true
|  8> end
|  9>
| 10> *xyz 0 2
| 11> P        -0.000002    0.128081    0.304397
| 12> O        -0.000038    1.499695   -0.224046
| 13> O        -1.202237   -0.825868   -0.148600
| 14> H        -2.042012   -0.352721   -0.197980
| 15> O         1.202276   -0.825811   -0.148606
| 16> H         2.042035   -0.352633   -0.197958
| 17> *
| 18>
| 19> $new_job
| 20> ! ri-mp2 aug-cc-pvtz aug-cc-pvtz/c tightscf
| 21> %pal nprocs 16 end
| 22> %maxcore 3800
| 23> %base "TZ_P-C_14_B"
| 24>
| 25> *xyz 0 2
| 26> P        -0.000002    0.128081    0.304397
| 27> O        -0.000038    1.499695   -0.224046
| 28> O        -1.202237   -0.825868   -0.148600
| 29> H        -2.042012   -0.352721   -0.197980
| 30> O         1.202276   -0.825811   -0.148606
| 31> H         2.042035   -0.352633   -0.197958
| 32> *
| 33>
| 34> $new_job
| 35> ! ri-mp2 aug-cc-pvqz aug-cc-pvqz/c tightscf
| 36> %pal nprocs 16 end
| 37> %maxcore 3800
| 38> %base "QZ_P-C_14_B"
| 39>
| 40> *xyz 0 2
| 41> P        -0.000002    0.128081    0.304397
| 42> O        -0.000038    1.499695   -0.224046
| 43> O        -1.202237   -0.825868   -0.148600
| 44> H        -2.042012   -0.352721   -0.197980
| 45> O         1.202276   -0.825811   -0.148606
| 46> H         2.042035   -0.352633   -0.197958
| 47> *
| 48>
| 49>
| 50>
| 51>
| 52>                          ****END OF INPUT****
 Total Charge           Charge          ....    0
 Multiplicity           Mult            ....    2
 Number of Electrons    NEL             ....   41
MP2 TOTAL ENERGY:     -567.260554546 Eh
FINAL SINGLE POINT ENERGY      -567.260554546303
MP2 TOTAL ENERGY:     -567.522776277 Eh
FINAL SINGLE POINT ENERGY      -567.522776277225

CARTESIAN COORDINATES (ANGSTROEM)
---------------------------------
  P     -0.000002    0.128081    0.304397
  O     -0.000038    1.499695   -0.224046
  O     -1.202237   -0.825868   -0.148600
  H     -2.042012   -0.352721   -0.197980
  O      1.202276   -0.825811   -0.148606
  H      2.042035   -0.352633   -0.197958

 Multiplicity           Mult            ....    2
 Number of Electrons    NEL             ....   41
 Basis Dimension        Dim             ....  416

ORBITAL ENERGIES
----------------
                 SPIN UP ORBITALS
  NO   OCC          E(Eh)            E(eV)
   0   1.0000     -80.081700     -2179.1339
   1   1.0000     -20.621186      -561.1310
   2   1.0000     -20.621175      -561.1307
   3   1.0000     -20.542125      -558.9797
   4   1.0000      -7.607231      -207.0033
   5   1.0000      -5.508951      -149.9062
   6   1.0000      -5.501062      -149.6915
   7   1.0000      -5.499795      -149.6570
   8   1.0000      -1.457758       -39.6676
   9   1.0000      -1.405470       -38.2448
  10   1.0000      -1.333225       -36.2789
  11   1.0000      -0.878896       -23.9160
  12   1.0000      -0.732254       -19.9256
  13   1.0000      -0.715658       -19.4741
  14   1.0000      -0.656648       -17.8683
  15   1.0000      -0.651870       -17.7383
  16   1.0000      -0.603621       -16.4254
  17   1.0000      -0.578512       -15.7421
  18   1.0000      -0.522374       -14.2145
  19   1.0000      -0.495245       -13.4763
  20   1.0000      -0.404537       -11.0080
  21   0.0000       0.024973         0.6796
  22   0.0000       0.030737         0.8364
  23   0.0000       0.054868         1.4930
  24   0.0000       0.061551         1.6749
  25   0.0000       0.076156         2.0723

                 SPIN DOWN ORBITALS
  NO   OCC          E(Eh)            E(eV)
   0   1.0000     -80.075970     -2178.9779
   1   1.0000     -20.615431      -560.9744
   2   1.0000     -20.615415      -560.9740
   3   1.0000     -20.531460      -558.6894
   4   1.0000      -7.598155      -206.7563
   5   1.0000      -5.498107      -149.6111
   6   1.0000      -5.497551      -149.5960
   7   1.0000      -5.488454      -149.3484
   8   1.0000      -1.439730       -39.1770
   9   1.0000      -1.388469       -37.7821
  10   1.0000      -1.300710       -35.3941
  11   1.0000      -0.856052       -23.2944
  12   1.0000      -0.716647       -19.5010
  13   1.0000      -0.685538       -18.6544
  14   1.0000      -0.642714       -17.4891
  15   1.0000      -0.619124       -16.8472
  16   1.0000      -0.564534       -15.3617
  17   1.0000      -0.556083       -15.1318
  18   1.0000      -0.485136       -13.2012
  19   1.0000      -0.474374       -12.9084
  20   0.0000       0.011151         0.3034
  21   0.0000       0.031197         0.8489
  22   0.0000       0.044850         1.2204
  23   0.0000       0.061314         1.6684
  24   0.0000       0.063036         1.7153

MULLIKEN ATOMIC CHARGES AND SPIN POPULATIONS
--------------------------------------------
   0 P :    1.837234    0.647927
   1 O :   -0.982908    0.215669
   2 O :   -0.775827    0.080716
   3 H :    0.348664   -0.012514
   4 O :   -0.775827    0.080717
   5 H :    0.348664   -0.012515
Sum of atomic charges         :    0.0000000

LOEWDIN ATOMIC CHARGES AND SPIN POPULATIONS
-------------------------------------------
   0 P :   -0.301028    0.472408
   1 O :    0.142538    0.217288
   2 O :    0.988489    0.132602
   3 H :   -0.909245    0.022549
   4 O :    0.988490    0.132603
   5 H :   -0.909245    0.022550

  Mayer bond orders larger than 0.100000
B(  0-P ,  1-O ) :   1.6003 B(  0-P ,  2-O ) :   0.7789 B(  0-P ,  4-O ) :   0.7789
B(  2-O ,  3-H ) :   0.9167 B(  4-O ,  5-H ) :   0.9167

MP2 TOTAL ENERGY:     -567.608208260 Eh
FINAL SINGLE POINT ENERGY      -567.608208259708

DIPOLE MOMENT
-------------
                                X             Y             Z
Electronic contribution:     -0.00000       0.31986       1.05867
Nuclear contribution   :      0.00002      -0.78889      -0.65989
                        -----------------------------------------
Total Dipole Moment    :      0.00002      -0.46903       0.39878
                        -----------------------------------------
Magnitude (a.u.)       :      0.61564
Magnitude (Debye)      :      1.56483

Rotational constants in cm-1:     0.285193     0.267542     0.148901
Rotational constants in MHz :  8549.870230  8020.701523  4463.939003

                             ****ORCA TERMINATED NORMALLY****
TOTAL RUN TIME: 0 days 0 hours 11 minutes 21 seconds 122 msec
