                         Program Version 5.0.4 -  RELEASE  -
|  1> ! ri-mp2 aug-cc-pvdz aug-cc-pvdz/c tightscf
|  2> %pal nprocs 16 end
|  3> %maxcore 3800
|  4> %base "DZ_B-Cl_39_AB"
|  5>
|  6> *xyz 0 1
|  7> Cl         0.404013    1.562338   -0.000030
|  8> Cl        -1.799794   -0.493296    0.000032
|  9> B        -0.106086   -0.103532    0.000001
| 10> C         0.954913   -1.258083    0.000003
| 11> N         2.211975   -1.101703   -0.000007
| 12> H         2.457498   -0.108777   -0.000022
| 13> H         0.587921   -2.286846    0.000019
| 14> *
| 15>
| 16> $new_job
| 17> ! ri-mp2 aug-cc-pvtz aug-cc-pvtz/c tightscf
| 18> %pal nprocs 16 end
| 19> %maxcore 3800
| 20> %base "TZ_B-Cl_39_AB"
| 21>
| 22> *xyz 0 1
| 23> Cl         0.404013    1.562338   -0.000030
| 24> Cl        -1.799794   -0.493296    0.000032
| 25> B        -0.106086   -0.103532    0.000001
| 26> C         0.954913   -1.258083    0.000003
| 27> N         2.211975   -1.101703   -0.000007
| 28> H         2.457498   -0.108777   -0.000022
| 29> H         0.587921   -2.286846    0.000019
| 30> *
| 31>
| 32> $new_job
| 33> ! ri-mp2 aug-cc-pvqz aug-cc-pvqz/c tightscf
| 34> %pal nprocs 16 end
| 35> %maxcore 3800
| 36> %base "QZ_B-Cl_39_AB"
| 37>
| 38> *xyz 0 1
| 39> Cl         0.404013    1.562338   -0.000030
| 40> Cl        -1.799794   -0.493296    0.000032
| 41> B        -0.106086   -0.103532    0.000001
| 42> C         0.954913   -1.258083    0.000003
| 43> N         2.211975   -1.101703   -0.000007
| 44> H         2.457498   -0.108777   -0.000022
| 45> H         0.587921   -2.286846    0.000019
| 46> *
| 47>
| 48>
| 49>
| 50>
| 51>                          ****END OF INPUT****
 Total Charge           Charge          ....    0
 Multiplicity           Mult            ....    1
 Number of Electrons    NEL             ....   54
MP2 TOTAL ENERGY:    -1037.936083038 Eh
FINAL SINGLE POINT ENERGY     -1037.936083037831
MP2 TOTAL ENERGY:    -1038.155397830 Eh
FINAL SINGLE POINT ENERGY     -1038.155397829538

CARTESIAN COORDINATES (ANGSTROEM)
---------------------------------
  Cl     0.404013    1.562338   -0.000030
  Cl    -1.799794   -0.493296    0.000032
  B     -0.106086   -0.103532    0.000001
  C      0.954913   -1.258083    0.000003
  N      2.211975   -1.101703   -0.000007
  H      2.457498   -0.108777   -0.000022
  H      0.587921   -2.286846    0.000019

 Multiplicity           Mult            ....    1
 Number of Electrons    NEL             ....   54
 Basis Dimension        Dim             ....  500

ORBITAL ENERGIES
----------------

  NO   OCC          E(Eh)            E(eV)
   0   2.0000    -104.859457     -2853.3709
   1   2.0000    -104.859095     -2853.3610
   2   2.0000     -15.588804      -424.1929
   3   2.0000     -11.280950      -306.9702
   4   2.0000     -10.587316      -288.0955
   5   2.0000     -10.586910      -288.0845
   6   2.0000      -8.054137      -219.1642
   7   2.0000      -8.053719      -219.1528
   8   2.0000      -8.053064      -219.1350
   9   2.0000      -8.052819      -219.1283
  10   2.0000      -8.052672      -219.1244
  11   2.0000      -8.052367      -219.1161
  12   2.0000      -7.727865      -210.2859
  13   2.0000      -1.233743       -33.5718
  14   2.0000      -1.160445       -31.5773
  15   2.0000      -1.119330       -30.4585
  16   2.0000      -0.864077       -23.5127
  17   2.0000      -0.732838       -19.9415
  18   2.0000      -0.649438       -17.6721
  19   2.0000      -0.629228       -17.1222
  20   2.0000      -0.574118       -15.6226
  21   2.0000      -0.542356       -14.7582
  22   2.0000      -0.504031       -13.7154
  23   2.0000      -0.484621       -13.1872
  24   2.0000      -0.474524       -12.9125
  25   2.0000      -0.463057       -12.6004
  26   2.0000      -0.432484       -11.7685
  27   0.0000       0.026171         0.7122
  28   0.0000       0.033104         0.9008
  29   0.0000       0.034449         0.9374
  30   0.0000       0.037120         1.0101
  31   0.0000       0.038667         1.0522

MULLIKEN ATOMIC CHARGES
-----------------------
   0 Cl:   -0.183521
   1 Cl:   -0.150092
   2 B :    0.575016
   3 C :   -0.407414
   4 N :   -0.671141
   5 H :    0.362390
   6 H :    0.474762
Sum of atomic charges:    0.0000000

LOEWDIN ATOMIC CHARGES
----------------------
   0 Cl:    1.294427
   1 Cl:    1.270468
   2 B :   -2.353028
   3 C :    0.009642
   4 N :    0.950140
   5 H :   -0.746375
   6 H :   -0.425274

  Mayer bond orders larger than 0.100000
B(  0-Cl,  2-B ) :   1.1064 B(  1-Cl,  2-B ) :   1.0923 B(  1-Cl,  3-C ) :   0.1134
B(  2-B ,  3-C ) :   0.9924 B(  3-C ,  4-N ) :   1.7646 B(  3-C ,  6-H ) :   0.7649
B(  4-N ,  5-H ) :   0.7736

MP2 TOTAL ENERGY:    -1038.229298635 Eh
FINAL SINGLE POINT ENERGY     -1038.229298634544

DIPOLE MOMENT
-------------
                                X             Y             Z
Electronic contribution:     -5.08841       3.74900       0.00000
Nuclear contribution   :      4.75040      -3.55588      -0.00001
                        -----------------------------------------
Total Dipole Moment    :     -0.33802       0.19312      -0.00000
                        -----------------------------------------
Magnitude (a.u.)       :      0.38929
Magnitude (Debye)      :      0.98951

Rotational constants in cm-1:     0.123754     0.081573     0.049165
Rotational constants in MHz :  3710.065909  2445.486620  1473.940235

                             ****ORCA TERMINATED NORMALLY****
TOTAL RUN TIME: 0 days 0 hours 2 minutes 49 seconds 213 msec
