                         Program Version 5.0.4 -  RELEASE  -
|  1> ! ri-mp2 aug-cc-pvdz aug-cc-pvdz/c tightscf
|  2> %pal nprocs 16 end
|  3> %maxcore 3800
|  4> %base "DZ_B-F_32_A"
|  5> %scf
|  6> STABPerform true
|  7> STABRestartUHFifUnstable true
|  8> end
|  9>
| 10> *xyz 0 2
| 11> F         1.642675   -1.082551   -0.000001
| 12> B         1.487882    0.201273    0.000001
| 13> C        -1.193110   -0.204529   -0.000001
| 14> N        -1.956597   -1.060923   -0.000000
| 15> S        -0.085540    1.086889    0.000001
| 16> *
| 17>
| 18> $new_job
| 19> ! ri-mp2 aug-cc-pvtz aug-cc-pvtz/c tightscf
| 20> %pal nprocs 16 end
| 21> %maxcore 3800
| 22> %base "TZ_B-F_32_A"
| 23>
| 24> *xyz 0 2
| 25> F         1.642675   -1.082551   -0.000001
| 26> B         1.487882    0.201273    0.000001
| 27> C        -1.193110   -0.204529   -0.000001
| 28> N        -1.956597   -1.060923   -0.000000
| 29> S        -0.085540    1.086889    0.000001
| 30> *
| 31>
| 32> $new_job
| 33> ! ri-mp2 aug-cc-pvqz aug-cc-pvqz/c tightscf
| 34> %pal nprocs 16 end
| 35> %maxcore 3800
| 36> %base "QZ_B-F_32_A"
| 37>
| 38> *xyz 0 2
| 39> F         1.642675   -1.082551   -0.000001
| 40> B         1.487882    0.201273    0.000001
| 41> C        -1.193110   -0.204529   -0.000001
| 42> N        -1.956597   -1.060923   -0.000000
| 43> S        -0.085540    1.086889    0.000001
| 44> *
| 45>
| 46>
| 47>
| 48>
| 49>                          ****END OF INPUT****
 Total Charge           Charge          ....    0
 Multiplicity           Mult            ....    2
 Number of Electrons    NEL             ....   43
MP2 TOTAL ENERGY:     -614.674398911 Eh
FINAL SINGLE POINT ENERGY      -614.674398911271
MP2 TOTAL ENERGY:     -614.904231681 Eh
FINAL SINGLE POINT ENERGY      -614.904231680823

CARTESIAN COORDINATES (ANGSTROEM)
---------------------------------
  F      1.642675   -1.082551   -0.000001
  B      1.487882    0.201273    0.000001
  C     -1.193110   -0.204529   -0.000001
  N     -1.956597   -1.060923   -0.000000
  S     -0.085540    1.086889    0.000001

 Multiplicity           Mult            ....    2
 Number of Electrons    NEL             ....   43
 Basis Dimension        Dim             ....  404

ORBITAL ENERGIES
----------------
                 SPIN UP ORBITALS
  NO   OCC          E(Eh)            E(eV)
   0   1.0000     -92.036719     -2504.4464
   1   1.0000     -26.359980      -717.2915
   2   1.0000     -15.595725      -424.3813
   3   1.0000     -11.309486      -307.7468
   4   1.0000      -9.040116      -245.9941
   5   1.0000      -7.753178      -210.9747
   6   1.0000      -6.721417      -182.8990
   7   1.0000      -6.720607      -182.8770
   8   1.0000      -6.719013      -182.8336
   9   1.0000      -1.680546       -45.7300
  10   1.0000      -1.250396       -34.0250
  11   1.0000      -1.085319       -29.5330
  12   1.0000      -0.841323       -22.8936
  13   1.0000      -0.759427       -20.6651
  14   1.0000      -0.738340       -20.0913
  15   1.0000      -0.731510       -19.9054
  16   1.0000      -0.596992       -16.2450
  17   1.0000      -0.567338       -15.4380
  18   1.0000      -0.547695       -14.9036
  19   1.0000      -0.492396       -13.3988
  20   1.0000      -0.427761       -11.6400
  21   1.0000      -0.402491       -10.9523
  22   0.0000       0.028186         0.7670
  23   0.0000       0.031418         0.8549
  24   0.0000       0.034201         0.9306
  25   0.0000       0.040570         1.1040
  26   0.0000       0.064479         1.7546

                 SPIN DOWN ORBITALS
  NO   OCC          E(Eh)            E(eV)
   0   1.0000     -92.035795     -2504.4213
   1   1.0000     -26.357018      -717.2109
   2   1.0000     -15.594676      -424.3527
   3   1.0000     -11.308950      -307.7322
   4   1.0000      -9.038568      -245.9519
   5   1.0000      -7.731507      -210.3850
   6   1.0000      -6.720767      -182.8814
   7   1.0000      -6.718906      -182.8307
   8   1.0000      -6.718012      -182.8064
   9   1.0000      -1.672273       -45.5049
  10   1.0000      -1.247462       -33.9452
  11   1.0000      -1.072583       -29.1865
  12   1.0000      -0.828313       -22.5395
  13   1.0000      -0.735902       -20.0249
  14   1.0000      -0.730952       -19.8902
  15   1.0000      -0.712882       -19.3985
  16   1.0000      -0.588071       -16.0022
  17   1.0000      -0.562703       -15.3119
  18   1.0000      -0.547421       -14.8961
  19   1.0000      -0.476352       -12.9622
  20   1.0000      -0.426019       -11.5926
  21   0.0000       0.011880         0.3233
  22   0.0000       0.034360         0.9350
  23   0.0000       0.035639         0.9698
  24   0.0000       0.039465         1.0739
  25   0.0000       0.059097         1.6081

MULLIKEN ATOMIC CHARGES AND SPIN POPULATIONS
--------------------------------------------
   0 F :   -0.657565   -0.002675
   1 B :    0.748545    0.980231
   2 C :   -0.089706    0.026135
   3 N :   -0.456004    0.026450
   4 S :    0.454730   -0.030140
Sum of atomic charges         :    0.0000000

LOEWDIN ATOMIC CHARGES AND SPIN POPULATIONS
-------------------------------------------
   0 F :    0.693352    0.151572
   1 B :   -1.247373    0.625751
   2 C :   -0.914652    0.031016
   3 N :    0.282690    0.018908
   4 S :    1.185984    0.172752

  Mayer bond orders larger than 0.100000
B(  0-F ,  1-B ) :   0.5203 B(  1-B ,  4-S ) :   1.1429 B(  2-C ,  3-N ) :   2.6454
B(  2-C ,  4-S ) :   0.8433

MP2 TOTAL ENERGY:     -614.979551637 Eh
FINAL SINGLE POINT ENERGY      -614.979551637294

DIPOLE MOMENT
-------------
                                X             Y             Z
Electronic contribution:      3.53402       0.16735      -0.00000
Nuclear contribution   :     -2.60051       0.79682       0.00000
                        -----------------------------------------
Total Dipole Moment    :      0.93351       0.96417       0.00000
                        -----------------------------------------
Magnitude (a.u.)       :      1.34204
Magnitude (Debye)      :      3.41119

Rotational constants in cm-1:     0.219492     0.115391     0.075630
Rotational constants in MHz :  6580.216917  3459.321103  2267.343696

                             ****ORCA TERMINATED NORMALLY****
TOTAL RUN TIME: 0 days 0 hours 17 minutes 6 seconds 11 msec
