                         Program Version 5.0.4 -  RELEASE  -
|  1> ! ri-mp2 aug-cc-pvdz aug-cc-pvdz/c tightscf
|  2> %pal nprocs 16 end
|  3> %maxcore 3800
|  4> %base "DZ_P-Cl_25_AB"
|  5>
|  6> *xyz 0 1
|  7> Cl         3.008697    0.000000   -0.636059
|  8> O         0.651480   -2.456653   -0.028366
|  9> O         0.651480    2.456653   -0.028367
| 10> P         1.580158    0.000000    0.823486
| 11> C         0.384909   -1.310082    0.191333
| 12> C        -0.960449   -0.695131    0.064778
| 13> C        -2.143707   -1.403905   -0.073723
| 14> C        -3.323062   -0.697075   -0.206419
| 15> C        -3.323063    0.697075   -0.206419
| 16> C        -2.143708    1.403905   -0.073722
| 17> C        -0.960450    0.695131    0.064779
| 18> C         0.384909    1.310083    0.191334
| 19> H        -2.124315   -2.485000   -0.081827
| 20> H        -4.258769   -1.228524   -0.316706
| 21> H        -4.258769    1.228523   -0.316706
| 22> H        -2.124316    2.485000   -0.081825
| 23> *
| 24>
| 25> $new_job
| 26> ! ri-mp2 aug-cc-pvtz aug-cc-pvtz/c tightscf
| 27> %pal nprocs 16 end
| 28> %maxcore 3800
| 29> %base "TZ_P-Cl_25_AB"
| 30>
| 31> *xyz 0 1
| 32> Cl         3.008697    0.000000   -0.636059
| 33> O         0.651480   -2.456653   -0.028366
| 34> O         0.651480    2.456653   -0.028367
| 35> P         1.580158    0.000000    0.823486
| 36> C         0.384909   -1.310082    0.191333
| 37> C        -0.960449   -0.695131    0.064778
| 38> C        -2.143707   -1.403905   -0.073723
| 39> C        -3.323062   -0.697075   -0.206419
| 40> C        -3.323063    0.697075   -0.206419
| 41> C        -2.143708    1.403905   -0.073722
| 42> C        -0.960450    0.695131    0.064779
| 43> C         0.384909    1.310083    0.191334
| 44> H        -2.124315   -2.485000   -0.081827
| 45> H        -4.258769   -1.228524   -0.316706
| 46> H        -4.258769    1.228523   -0.316706
| 47> H        -2.124316    2.485000   -0.081825
| 48> *
| 49>
| 50> $new_job
| 51> ! ri-mp2 aug-cc-pvqz aug-cc-pvqz/c tightscf
| 52> %pal nprocs 16 end
| 53> %maxcore 3800
| 54> %base "QZ_P-Cl_25_AB"
| 55>
| 56> *xyz 0 1
| 57> Cl         3.008697    0.000000   -0.636059
| 58> O         0.651480   -2.456653   -0.028366
| 59> O         0.651480    2.456653   -0.028367
| 60> P         1.580158    0.000000    0.823486
| 61> C         0.384909   -1.310082    0.191333
| 62> C        -0.960449   -0.695131    0.064778
| 63> C        -2.143707   -1.403905   -0.073723
| 64> C        -3.323062   -0.697075   -0.206419
| 65> C        -3.323063    0.697075   -0.206419
| 66> C        -2.143708    1.403905   -0.073722
| 67> C        -0.960450    0.695131    0.064779
| 68> C         0.384909    1.310083    0.191334
| 69> H        -2.124315   -2.485000   -0.081827
| 70> H        -4.258769   -1.228524   -0.316706
| 71> H        -4.258769    1.228523   -0.316706
| 72> H        -2.124316    2.485000   -0.081825
| 73> *
| 74>
| 75>
| 76>
| 77>
| 78>                          ****END OF INPUT****
 Total Charge           Charge          ....    0
 Multiplicity           Mult            ....    1
 Number of Electrons    NEL             ....  100
MP2 TOTAL ENERGY:    -1257.013698018 Eh
FINAL SINGLE POINT ENERGY     -1257.013698017979
MP2 TOTAL ENERGY:    -1257.495871900 Eh
FINAL SINGLE POINT ENERGY     -1257.495871899905

CARTESIAN COORDINATES (ANGSTROEM)
---------------------------------
  Cl     3.008697    0.000000   -0.636059
  O      0.651480   -2.456653   -0.028366
  O      0.651480    2.456653   -0.028367
  P      1.580158    0.000000    0.823486
  C      0.384909   -1.310082    0.191333
  C     -0.960449   -0.695131    0.064778
  C     -2.143707   -1.403905   -0.073723
  C     -3.323062   -0.697075   -0.206419
  C     -3.323063    0.697075   -0.206419
  C     -2.143708    1.403905   -0.073722
  C     -0.960450    0.695131    0.064779
  C      0.384909    1.310083    0.191334
  H     -2.124315   -2.485000   -0.081827
  H     -4.258769   -1.228524   -0.316706
  H     -4.258769    1.228523   -0.316706
  H     -2.124316    2.485000   -0.081825

 Multiplicity           Mult            ....    1
 Number of Electrons    NEL             ....  100
 Basis Dimension        Dim             .... 1152

ORBITAL ENERGIES
----------------

  NO   OCC          E(Eh)            E(eV)
   0   2.0000    -104.851881     -2853.1647
   1   2.0000     -80.017700     -2177.3923
   2   2.0000     -20.581768      -560.0584
   3   2.0000     -20.581768      -560.0584
   4   2.0000     -11.363271      -309.2103
   5   2.0000     -11.363263      -309.2101
   6   2.0000     -11.282517      -307.0129
   7   2.0000     -11.281268      -306.9789
   8   2.0000     -11.277635      -306.8800
   9   2.0000     -11.276550      -306.8505
  10   2.0000     -11.274965      -306.8074
  11   2.0000     -11.274833      -306.8038
  12   2.0000     -10.577792      -287.8364
  13   2.0000      -8.044692      -218.9072
  14   2.0000      -8.043087      -218.8635
  15   2.0000      -8.042979      -218.8606
  16   2.0000      -7.556318      -205.6179
  17   2.0000      -5.449845      -148.2978
  18   2.0000      -5.448909      -148.2724
  19   2.0000      -5.448333      -148.2567
  20   2.0000      -1.428096       -38.8605
  21   2.0000      -1.425454       -38.7886
  22   2.0000      -1.212511       -32.9941
  23   2.0000      -1.134032       -30.8586
  24   2.0000      -1.097391       -29.8615
  25   2.0000      -1.068859       -29.0851
  26   2.0000      -0.953207       -25.9381
  27   2.0000      -0.918820       -25.0024
  28   2.0000      -0.850280       -23.1373
  29   2.0000      -0.793124       -21.5820
  30   2.0000      -0.785261       -21.3680
  31   2.0000      -0.710881       -19.3441
  32   2.0000      -0.691827       -18.8256
  33   2.0000      -0.676985       -18.4217
  34   2.0000      -0.650644       -17.7049
  35   2.0000      -0.649323       -17.6690
  36   2.0000      -0.638373       -17.3710
  37   2.0000      -0.615504       -16.7487
  38   2.0000      -0.593871       -16.1600
  39   2.0000      -0.568859       -15.4794
  40   2.0000      -0.565093       -15.3770
  41   2.0000      -0.542182       -14.7535
  42   2.0000      -0.532650       -14.4941
  43   2.0000      -0.498643       -13.5688
  44   2.0000      -0.489897       -13.3308
  45   2.0000      -0.483128       -13.1466
  46   2.0000      -0.402188       -10.9441
  47   2.0000      -0.383812       -10.4440
  48   2.0000      -0.379568       -10.3286
  49   2.0000      -0.379470       -10.3259
  50   0.0000       0.016310         0.4438
  51   0.0000       0.026200         0.7129
  52   0.0000       0.026227         0.7137
  53   0.0000       0.032337         0.8799
  54   0.0000       0.033544         0.9128

MULLIKEN ATOMIC CHARGES
-----------------------
   0 Cl:   -0.466889
   1 O :   -0.810153
   2 O :   -0.810160
   3 P :    0.782404
   4 C :    0.649997
   5 C :    0.127523
   6 C :   -0.310749
   7 C :   -0.408664
   8 C :   -0.408696
   9 C :   -0.310743
  10 C :    0.127479
  11 C :    0.649994
  12 H :    0.320787
  13 H :    0.273538
  14 H :    0.273541
  15 H :    0.320790
Sum of atomic charges:    0.0000000

LOEWDIN ATOMIC CHARGES
----------------------
   0 Cl:    0.761823
   1 O :    0.635792
   2 O :    0.635792
   3 P :    0.149770
   4 C :   -0.935073
   5 C :   -0.263430
   6 C :    0.354146
   7 C :    0.372720
   8 C :    0.372720
   9 C :    0.354146
  10 C :   -0.263429
  11 C :   -0.935072
  12 H :   -0.308868
  13 H :   -0.311083
  14 H :   -0.311085
  15 H :   -0.308868

  Mayer bond orders larger than 0.100000
B(  0-Cl,  3-P ) :   0.8757 B(  1-O ,  4-C ) :   0.9006 B(  1-O ,  5-C ) :   0.4728
B(  2-O , 10-C ) :   0.4728 B(  2-O , 11-C ) :   0.9006 B(  3-P ,  4-C ) :   1.0388
B(  3-P ,  5-C ) :  -0.1396 B(  3-P , 10-C ) :  -0.1395 B(  3-P , 11-C ) :   1.0388
B(  4-C ,  5-C ) :   0.8497 B(  4-C , 10-C ) :  -0.1752 B(  4-C , 11-C ) :  -0.1677
B(  5-C ,  6-C ) :   0.9027 B(  5-C ,  7-C ) :  -0.1983 B(  5-C ,  9-C ) :  -0.1650
B(  5-C , 10-C ) :   0.8648 B(  5-C , 11-C ) :  -0.1752 B(  5-C , 12-H ) :  -0.1211
B(  6-C ,  7-C ) :   1.3065 B(  6-C ,  9-C ) :   0.1644 B(  6-C , 10-C ) :  -0.1650
B(  6-C , 12-H ) :   0.9391 B(  6-C , 13-H ) :  -0.1384 B(  7-C ,  8-C ) :   1.1833
B(  7-C , 13-H ) :   1.0998 B(  7-C , 14-H ) :  -0.1005 B(  8-C ,  9-C ) :   1.3065
B(  8-C , 10-C ) :  -0.1983 B(  8-C , 13-H ) :  -0.1006 B(  8-C , 14-H ) :   1.0998
B(  9-C , 10-C ) :   0.9027 B(  9-C , 14-H ) :  -0.1384 B(  9-C , 15-H ) :   0.9391
B( 10-C , 11-C ) :   0.8497 B( 10-C , 15-H ) :  -0.1212

MP2 TOTAL ENERGY:    -1257.655063584 Eh
FINAL SINGLE POINT ENERGY     -1257.655063584037

DIPOLE MOMENT
-------------
                                X             Y             Z
Electronic contribution:     15.57102       0.00000       0.86875
Nuclear contribution   :    -17.55145      -0.00000      -0.63589
                        -----------------------------------------
Total Dipole Moment    :     -1.98043       0.00000       0.23287
                        -----------------------------------------
Magnitude (a.u.)       :      1.99408
Magnitude (Debye)      :      5.06854

Rotational constants in cm-1:     0.047068     0.018837     0.014314
Rotational constants in MHz :  1411.060528   564.733041   429.137102

                             ****ORCA TERMINATED NORMALLY****
TOTAL RUN TIME: 0 days 0 hours 51 minutes 16 seconds 969 msec
