                         Program Version 5.0.4 -  RELEASE  -
|  1> ! ri-mp2 aug-cc-pvdz aug-cc-pvdz/c tightscf
|  2> %pal nprocs 16 end
|  3> %maxcore 3800
|  4> %base "DZ_S-S_40_AB"
|  5>
|  6> *xyz 0 1
|  7> S         1.808664    0.300789   -0.093162
|  8> S         0.235727   -0.929000    0.021623
|  9> N        -1.206511    0.212565   -0.002277
| 10> O        -2.246613   -0.391843   -0.013192
| 11> O        -1.033574    1.394047    0.006011
| 12> H         1.976821    0.545777    1.218008
| 13> *
| 14>
| 15> $new_job
| 16> ! ri-mp2 aug-cc-pvtz aug-cc-pvtz/c tightscf
| 17> %pal nprocs 16 end
| 18> %maxcore 3800
| 19> %base "TZ_S-S_40_AB"
| 20>
| 21> *xyz 0 1
| 22> S         1.808664    0.300789   -0.093162
| 23> S         0.235727   -0.929000    0.021623
| 24> N        -1.206511    0.212565   -0.002277
| 25> O        -2.246613   -0.391843   -0.013192
| 26> O        -1.033574    1.394047    0.006011
| 27> H         1.976821    0.545777    1.218008
| 28> *
| 29>
| 30> $new_job
| 31> ! ri-mp2 aug-cc-pvqz aug-cc-pvqz/c tightscf
| 32> %pal nprocs 16 end
| 33> %maxcore 3800
| 34> %base "QZ_S-S_40_AB"
| 35>
| 36> *xyz 0 1
| 37> S         1.808664    0.300789   -0.093162
| 38> S         0.235727   -0.929000    0.021623
| 39> N        -1.206511    0.212565   -0.002277
| 40> O        -2.246613   -0.391843   -0.013192
| 41> O        -1.033574    1.394047    0.006011
| 42> H         1.976821    0.545777    1.218008
| 43> *
| 44>
| 45>
| 46>
| 47>
| 48>                          ****END OF INPUT****
 Total Charge           Charge          ....    0
 Multiplicity           Mult            ....    1
 Number of Electrons    NEL             ....   56
MP2 TOTAL ENERGY:    -1000.581871737 Eh
FINAL SINGLE POINT ENERGY     -1000.581871736900
MP2 TOTAL ENERGY:    -1000.853503214 Eh
FINAL SINGLE POINT ENERGY     -1000.853503214201

CARTESIAN COORDINATES (ANGSTROEM)
---------------------------------
  S      1.808664    0.300789   -0.093162
  S      0.235727   -0.929000    0.021623
  N     -1.206511    0.212565   -0.002277
  O     -2.246613   -0.391843   -0.013192
  O     -1.033574    1.394047    0.006011
  H      1.976821    0.545777    1.218008

 Multiplicity           Mult            ....    1
 Number of Electrons    NEL             ....   56
 Basis Dimension        Dim             ....  454

ORBITAL ENERGIES
----------------

  NO   OCC          E(Eh)            E(eV)
   0   2.0000     -92.062430     -2505.1461
   1   2.0000     -92.027602     -2504.1984
   2   2.0000     -20.626455      -561.2744
   3   2.0000     -20.620693      -561.1176
   4   2.0000     -15.873219      -431.9322
   5   2.0000      -9.059573      -246.5235
   6   2.0000      -9.028471      -245.6772
   7   2.0000      -6.740276      -183.4122
   8   2.0000      -6.738880      -183.3743
   9   2.0000      -6.737619      -183.3399
  10   2.0000      -6.709708      -182.5804
  11   2.0000      -6.708519      -182.5481
  12   2.0000      -6.707773      -182.5278
  13   2.0000      -1.640252       -44.6335
  14   2.0000      -1.439893       -39.1815
  15   2.0000      -1.129559       -30.7369
  16   2.0000      -0.987781       -26.8789
  17   2.0000      -0.855624       -23.2827
  18   2.0000      -0.765090       -20.8192
  19   2.0000      -0.750147       -20.4125
  20   2.0000      -0.745990       -20.2994
  21   2.0000      -0.612325       -16.6622
  22   2.0000      -0.548373       -14.9220
  23   2.0000      -0.509117       -13.8538
  24   2.0000      -0.489156       -13.3106
  25   2.0000      -0.480599       -13.0778
  26   2.0000      -0.429134       -11.6773
  27   2.0000      -0.420544       -11.4436
  28   0.0000       0.021446         0.5836
  29   0.0000       0.040570         1.1040
  30   0.0000       0.056118         1.5271
  31   0.0000       0.064749         1.7619
  32   0.0000       0.067485         1.8364

MULLIKEN ATOMIC CHARGES
-----------------------
   0 S :   -0.065890
   1 S :    0.250116
   2 N :    0.707581
   3 O :   -0.519503
   4 O :   -0.512860
   5 H :    0.140555
Sum of atomic charges:   -0.0000000

LOEWDIN ATOMIC CHARGES
----------------------
   0 S :    0.984877
   1 S :    0.478578
   2 N :   -1.350301
   3 O :    0.375974
   4 O :    0.383575
   5 H :   -0.872703

  Mayer bond orders larger than 0.100000
B(  0-S ,  1-S ) :   1.2169 B(  0-S ,  5-H ) :   0.9483 B(  1-S ,  2-N ) :   0.8111
B(  2-N ,  3-O ) :   1.4324 B(  2-N ,  4-O ) :   1.4758 B(  3-O ,  4-O ) :   0.1467

MP2 TOTAL ENERGY:    -1000.945297900 Eh
FINAL SINGLE POINT ENERGY     -1000.945297899709

DIPOLE MOMENT
-------------
                                X             Y             Z
Electronic contribution:     -0.41647      -0.84384      -0.80220
Nuclear contribution   :      1.75545       0.55098       1.15465
                        -----------------------------------------
Total Dipole Moment    :      1.33899      -0.29286       0.35245
                        -----------------------------------------
Magnitude (a.u.)       :      1.41523
Magnitude (Debye)      :      3.59722

Rotational constants in cm-1:     0.252380     0.073111     0.057362
Rotational constants in MHz :  7566.176594  2191.801002  1719.678328

                             ****ORCA TERMINATED NORMALLY****
TOTAL RUN TIME: 0 days 0 hours 2 minutes 55 seconds 703 msec
