                         Program Version 5.0.4 -  RELEASE  -
|  1> ! ri-mp2 aug-cc-pvdz aug-cc-pvdz/c tightscf
|  2> %pal nprocs 16 end
|  3> %maxcore 3800
|  4> %base "DZ_P-Si_21_AB"
|  5>
|  6> *xyz 0 1
|  7> C         0.347658    0.278927    0.271482
|  8> C         0.822393   -1.010141    0.513592
|  9> C         2.137207   -1.346983    0.248225
| 10> C         3.004374   -0.397868   -0.269249
| 11> C         2.551191    0.885431   -0.518993
| 12> C         1.233556    1.218574   -0.250310
| 13> P        -2.767469   -0.651852   -0.557901
| 14> H         2.487384   -2.351979    0.443745
| 15> H         4.033095   -0.660407   -0.478288
| 16> H         3.224361    1.629573   -0.924018
| 17> H         0.892282    2.226987   -0.450264
| 18> H         0.156249   -1.765946    0.913092
| 19> Si        -1.428288    0.728543    0.618216
| 20> H        -2.524065   -0.019398   -1.799105
| 21> H        -3.952385    0.075568   -0.295548
| 22> H        -1.624511    2.158244    0.289737
| 23> H        -1.762601    0.517903    2.045662
| 24> *
| 25>
| 26> $new_job
| 27> ! ri-mp2 aug-cc-pvtz aug-cc-pvtz/c tightscf
| 28> %pal nprocs 16 end
| 29> %maxcore 3800
| 30> %base "TZ_P-Si_21_AB"
| 31>
| 32> *xyz 0 1
| 33> C         0.347658    0.278927    0.271482
| 34> C         0.822393   -1.010141    0.513592
| 35> C         2.137207   -1.346983    0.248225
| 36> C         3.004374   -0.397868   -0.269249
| 37> C         2.551191    0.885431   -0.518993
| 38> C         1.233556    1.218574   -0.250310
| 39> P        -2.767469   -0.651852   -0.557901
| 40> H         2.487384   -2.351979    0.443745
| 41> H         4.033095   -0.660407   -0.478288
| 42> H         3.224361    1.629573   -0.924018
| 43> H         0.892282    2.226987   -0.450264
| 44> H         0.156249   -1.765946    0.913092
| 45> Si        -1.428288    0.728543    0.618216
| 46> H        -2.524065   -0.019398   -1.799105
| 47> H        -3.952385    0.075568   -0.295548
| 48> H        -1.624511    2.158244    0.289737
| 49> H        -1.762601    0.517903    2.045662
| 50> *
| 51>
| 52> $new_job
| 53> ! ri-mp2 aug-cc-pvqz aug-cc-pvqz/c tightscf
| 54> %pal nprocs 16 end
| 55> %maxcore 3800
| 56> %base "QZ_P-Si_21_AB"
| 57>
| 58> *xyz 0 1
| 59> C         0.347658    0.278927    0.271482
| 60> C         0.822393   -1.010141    0.513592
| 61> C         2.137207   -1.346983    0.248225
| 62> C         3.004374   -0.397868   -0.269249
| 63> C         2.551191    0.885431   -0.518993
| 64> C         1.233556    1.218574   -0.250310
| 65> P        -2.767469   -0.651852   -0.557901
| 66> H         2.487384   -2.351979    0.443745
| 67> H         4.033095   -0.660407   -0.478288
| 68> H         3.224361    1.629573   -0.924018
| 69> H         0.892282    2.226987   -0.450264
| 70> H         0.156249   -1.765946    0.913092
| 71> Si        -1.428288    0.728543    0.618216
| 72> H        -2.524065   -0.019398   -1.799105
| 73> H        -3.952385    0.075568   -0.295548
| 74> H        -1.624511    2.158244    0.289737
| 75> H        -1.762601    0.517903    2.045662
| 76> *
| 77>
| 78>
| 79>
| 80>
| 81>                          ****END OF INPUT****
 Total Charge           Charge          ....    0
 Multiplicity           Mult            ....    1
 Number of Electrons    NEL             ....   74
MP2 TOTAL ENERGY:     -863.196514087 Eh
FINAL SINGLE POINT ENERGY      -863.196514086974
MP2 TOTAL ENERGY:     -863.480867961 Eh
FINAL SINGLE POINT ENERGY      -863.480867960673

CARTESIAN COORDINATES (ANGSTROEM)
---------------------------------
  C      0.347658    0.278927    0.271482
  C      0.822393   -1.010141    0.513592
  C      2.137207   -1.346983    0.248225
  C      3.004374   -0.397868   -0.269249
  C      2.551191    0.885431   -0.518993
  C      1.233556    1.218574   -0.250310
  P     -2.767469   -0.651852   -0.557901
  H      2.487384   -2.351979    0.443745
  H      4.033095   -0.660407   -0.478288
  H      3.224361    1.629573   -0.924018
  H      0.892282    2.226987   -0.450264
  H      0.156249   -1.765946    0.913092
  Si    -1.428288    0.728543    0.618216
  H     -2.524065   -0.019398   -1.799105
  H     -3.952385    0.075568   -0.295548
  H     -1.624511    2.158244    0.289737
  H     -1.762601    0.517903    2.045662

 Multiplicity           Mult            ....    1
 Number of Electrons    NEL             ....   74
 Basis Dimension        Dim             .... 1062

ORBITAL ENERGIES
----------------

  NO   OCC          E(Eh)            E(eV)
   0   2.0000     -79.929174     -2174.9834
   1   2.0000     -68.776307     -1871.4985
   2   2.0000     -11.240867      -305.8796
   3   2.0000     -11.240621      -305.8728
   4   2.0000     -11.240077      -305.8581
   5   2.0000     -11.235963      -305.7461
   6   2.0000     -11.235714      -305.7393
   7   2.0000     -11.225516      -305.4618
   8   2.0000      -7.474125      -203.3813
   9   2.0000      -6.125384      -166.6802
  10   2.0000      -5.367982      -146.0702
  11   2.0000      -5.367659      -146.0614
  12   2.0000      -5.367047      -146.0448
  13   2.0000      -4.231727      -115.1511
  14   2.0000      -4.231599      -115.1477
  15   2.0000      -4.231306      -115.1397
  16   2.0000      -1.159812       -31.5601
  17   2.0000      -1.022928       -27.8353
  18   2.0000      -1.021804       -27.8047
  19   2.0000      -0.857197       -23.3255
  20   2.0000      -0.831513       -22.6266
  21   2.0000      -0.823922       -22.4200
  22   2.0000      -0.724714       -19.7205
  23   2.0000      -0.672867       -18.3096
  24   2.0000      -0.631903       -17.1949
  25   2.0000      -0.629007       -17.1161
  26   2.0000      -0.593491       -16.1497
  27   2.0000      -0.556353       -15.1391
  28   2.0000      -0.528203       -14.3731
  29   2.0000      -0.512924       -13.9574
  30   2.0000      -0.499164       -13.5829
  31   2.0000      -0.489996       -13.3335
  32   2.0000      -0.458168       -12.4674
  33   2.0000      -0.437297       -11.8994
  34   2.0000      -0.368043       -10.0150
  35   2.0000      -0.344059        -9.3623
  36   2.0000      -0.339281        -9.2323
  37   0.0000       0.021786         0.5928
  38   0.0000       0.028342         0.7712
  39   0.0000       0.029603         0.8055
  40   0.0000       0.036539         0.9943
  41   0.0000       0.040333         1.0975

MULLIKEN ATOMIC CHARGES
-----------------------
   0 C :    0.027211
   1 C :   -0.399061
   2 C :   -0.247159
   3 C :   -0.366157
   4 C :   -0.298876
   5 C :   -0.524514
   6 P :    0.011070
   7 H :    0.261181
   8 H :    0.345554
   9 H :    0.253531
  10 H :    0.324934
  11 H :    0.329503
  12 Si:    1.020244
  13 H :   -0.058634
  14 H :   -0.115981
  15 H :   -0.304342
  16 H :   -0.258503
Sum of atomic charges:   -0.0000000

LOEWDIN ATOMIC CHARGES
----------------------
   0 C :   -0.156891
   1 C :    0.235391
   2 C :    0.339657
   3 C :    0.335633
   4 C :    0.338341
   5 C :    0.245390
   6 P :    1.433951
   7 H :   -0.319348
   8 H :   -0.318906
   9 H :   -0.320259
  10 H :   -0.346676
  11 H :   -0.339200
  12 Si:    0.481044
  13 H :   -0.550200
  14 H :   -0.561620
  15 H :   -0.240965
  16 H :   -0.255342

  Mayer bond orders larger than 0.100000
B(  0-C ,  1-C ) :   0.9932 B(  0-C ,  2-C ) :  -0.3004 B(  0-C ,  4-C ) :  -0.3248
B(  0-C ,  5-C ) :   0.7969 B(  0-C , 10-H ) :  -0.1415 B(  0-C , 11-H ) :  -0.1558
B(  0-C , 12-Si) :   0.9792 B(  0-C , 15-H ) :  -0.1475 B(  1-C ,  2-C ) :   1.2596
B(  1-C ,  3-C ) :   0.1016 B(  1-C ,  4-C ) :   0.1382 B(  1-C ,  7-H ) :  -0.1395
B(  1-C , 11-H ) :   0.9199 B(  1-C , 12-Si) :  -0.1511 B(  2-C ,  3-C ) :   1.1625
B(  2-C ,  4-C ) :  -0.1030 B(  2-C ,  5-C ) :   0.1345 B(  2-C ,  7-H ) :   1.0916
B(  3-C ,  4-C ) :   1.1521 B(  3-C ,  5-C ) :   0.1545 B(  3-C ,  8-H ) :   0.9770
B(  4-C ,  5-C ) :   1.3740 B(  4-C ,  9-H ) :   1.1119 B(  5-C ,  9-H ) :  -0.1498
B(  5-C , 10-H ) :   0.9284 B(  5-C , 12-Si) :  -0.1508 B(  6-P , 12-Si) :   0.7729
B(  6-P , 13-H ) :   0.9178 B(  6-P , 14-H ) :   0.9313 B( 12-Si, 15-H ) :   0.6890
B( 12-Si, 16-H ) :   0.7267

MP2 TOTAL ENERGY:     -863.571409577 Eh
FINAL SINGLE POINT ENERGY      -863.571409576815

DIPOLE MOMENT
-------------
                                X             Y             Z
Electronic contribution:     -3.23024      -2.14228      -0.31629
Nuclear contribution   :      3.62038       2.36634       0.23673
                        -----------------------------------------
Total Dipole Moment    :      0.39015       0.22406      -0.07955
                        -----------------------------------------
Magnitude (a.u.)       :      0.45689
Magnitude (Debye)      :      1.16131

Rotational constants in cm-1:     0.109577     0.025327     0.022787
Rotational constants in MHz :  3285.045627   759.281208   683.142110

                             ****ORCA TERMINATED NORMALLY****
TOTAL RUN TIME: 0 days 0 hours 29 minutes 48 seconds 688 msec
