                         Program Version 5.0.4 -  RELEASE  -
|  1> ! ri-mp2 aug-cc-pvdz aug-cc-pvdz/c tightscf
|  2> %pal nprocs 16 end
|  3> %maxcore 3800
|  4> %base "DZ_P-S_2_AB"
|  5> %scf
|  6> STABPerform true
|  7> STABRestartUHFifUnstable true
|  8> end
|  9>
| 10> *xyz 0 1
| 11> S        -0.342339    1.466668   -0.339954
| 12> P        -1.335004   -0.287163    0.105293
| 13> O        -1.060867   -0.831408    1.435207
| 14> C         1.163200    1.296374    0.685699
| 15> C         2.402638    0.887143   -0.094661
| 16> H         0.925930    0.607787    1.493267
| 17> C         2.371396   -0.516562   -0.685201
| 18> H         3.254514    0.972784    0.588031
| 19> H         2.572913    1.612831   -0.892906
| 20> C         2.315172   -1.625189    0.356906
| 21> H         3.265090   -0.645402   -1.299639
| 22> H         1.522130   -0.602080   -1.366160
| 23> H         3.170315   -1.569378    1.033894
| 24> H         2.339505   -2.606030   -0.119747
| 25> H         1.410372   -1.576405    0.963380
| 26> H         1.302427    2.282520    1.125398
| 27> O        -1.039414   -1.300128   -1.081115
| 28> H        -0.971486   -2.207537   -0.759433
| 29> O        -2.845597    0.087408   -0.219257
| 30> H        -3.236627    0.674100    0.438647
| 31> *
| 32>
| 33> $new_job
| 34> ! ri-mp2 aug-cc-pvtz aug-cc-pvtz/c tightscf
| 35> %pal nprocs 16 end
| 36> %maxcore 3800
| 37> %base "TZ_P-S_2_AB"
| 38>
| 39> *xyz 0 1
| 40> S        -0.342339    1.466668   -0.339954
| 41> P        -1.335004   -0.287163    0.105293
| 42> O        -1.060867   -0.831408    1.435207
| 43> C         1.163200    1.296374    0.685699
| 44> C         2.402638    0.887143   -0.094661
| 45> H         0.925930    0.607787    1.493267
| 46> C         2.371396   -0.516562   -0.685201
| 47> H         3.254514    0.972784    0.588031
| 48> H         2.572913    1.612831   -0.892906
| 49> C         2.315172   -1.625189    0.356906
| 50> H         3.265090   -0.645402   -1.299639
| 51> H         1.522130   -0.602080   -1.366160
| 52> H         3.170315   -1.569378    1.033894
| 53> H         2.339505   -2.606030   -0.119747
| 54> H         1.410372   -1.576405    0.963380
| 55> H         1.302427    2.282520    1.125398
| 56> O        -1.039414   -1.300128   -1.081115
| 57> H        -0.971486   -2.207537   -0.759433
| 58> O        -2.845597    0.087408   -0.219257
| 59> H        -3.236627    0.674100    0.438647
| 60> *
| 61>
| 62> $new_job
| 63> ! ri-mp2 aug-cc-pvqz aug-cc-pvqz/c tightscf
| 64> %pal nprocs 16 end
| 65> %maxcore 3800
| 66> %base "QZ_P-S_2_AB"
| 67>
| 68> *xyz 0 1
| 69> S        -0.342339    1.466668   -0.339954
| 70> P        -1.335004   -0.287163    0.105293
| 71> O        -1.060867   -0.831408    1.435207
| 72> C         1.163200    1.296374    0.685699
| 73> C         2.402638    0.887143   -0.094661
| 74> H         0.925930    0.607787    1.493267
| 75> C         2.371396   -0.516562   -0.685201
| 76> H         3.254514    0.972784    0.588031
| 77> H         2.572913    1.612831   -0.892906
| 78> C         2.315172   -1.625189    0.356906
| 79> H         3.265090   -0.645402   -1.299639
| 80> H         1.522130   -0.602080   -1.366160
| 81> H         3.170315   -1.569378    1.033894
| 82> H         2.339505   -2.606030   -0.119747
| 83> H         1.410372   -1.576405    0.963380
| 84> H         1.302427    2.282520    1.125398
| 85> O        -1.039414   -1.300128   -1.081115
| 86> H        -0.971486   -2.207537   -0.759433
| 87> O        -2.845597    0.087408   -0.219257
| 88> H        -3.236627    0.674100    0.438647
| 89> *
| 90>
| 91>
| 92>
| 93>
| 94>                          ****END OF INPUT****
 Total Charge           Charge          ....    0
 Multiplicity           Mult            ....    1
 Number of Electrons    NEL             ....   90
MP2 TOTAL ENERGY:    -1122.348484519 Eh
FINAL SINGLE POINT ENERGY     -1122.348484519129
MP2 TOTAL ENERGY:    -1122.821760380 Eh
FINAL SINGLE POINT ENERGY     -1122.821760379999

CARTESIAN COORDINATES (ANGSTROEM)
---------------------------------
  S     -0.342339    1.466668   -0.339954
  P     -1.335004   -0.287163    0.105293
  O     -1.060867   -0.831408    1.435207
  C      1.163200    1.296374    0.685699
  C      2.402638    0.887143   -0.094661
  H      0.925930    0.607787    1.493267
  C      2.371396   -0.516562   -0.685201
  H      3.254514    0.972784    0.588031
  H      2.572913    1.612831   -0.892906
  C      2.315172   -1.625189    0.356906
  H      3.265090   -0.645402   -1.299639
  H      1.522130   -0.602080   -1.366160
  H      3.170315   -1.569378    1.033894
  H      2.339505   -2.606030   -0.119747
  H      1.410372   -1.576405    0.963380
  H      1.302427    2.282520    1.125398
  O     -1.039414   -1.300128   -1.081115
  H     -0.971486   -2.207537   -0.759433
  O     -2.845597    0.087408   -0.219257
  H     -3.236627    0.674100    0.438647

 Multiplicity           Mult            ....    1
 Number of Electrons    NEL             ....   90
 Basis Dimension        Dim             .... 1234

ORBITAL ENERGIES
----------------

  NO   OCC          E(Eh)            E(eV)
   0   2.0000     -91.964136     -2502.4714
   1   2.0000     -80.090022     -2179.3603
   2   2.0000     -20.606625      -560.7348
   3   2.0000     -20.603241      -560.6427
   4   2.0000     -20.514587      -558.2303
   5   2.0000     -11.266887      -306.5876
   6   2.0000     -11.230264      -305.5910
   7   2.0000     -11.218239      -305.2638
   8   2.0000     -11.208585      -305.0011
   9   2.0000      -8.968340      -244.0409
  10   2.0000      -7.610343      -207.0880
  11   2.0000      -6.649746      -180.9488
  12   2.0000      -6.648860      -180.9247
  13   2.0000      -6.648170      -180.9059
  14   2.0000      -5.508567      -149.8957
  15   2.0000      -5.508251      -149.8871
  16   2.0000      -5.507366      -149.8631
  17   2.0000      -1.446065       -39.3494
  18   2.0000      -1.391532       -37.8655
  19   2.0000      -1.309126       -35.6231
  20   2.0000      -1.103376       -30.0244
  21   2.0000      -1.031875       -28.0787
  22   2.0000      -0.954827       -25.9822
  23   2.0000      -0.881754       -23.9938
  24   2.0000      -0.835215       -22.7274
  25   2.0000      -0.776227       -21.1222
  26   2.0000      -0.741599       -20.1799
  27   2.0000      -0.686523       -18.6812
  28   2.0000      -0.663326       -18.0500
  29   2.0000      -0.649263       -17.6673
  30   2.0000      -0.635902       -17.3038
  31   2.0000      -0.613805       -16.7025
  32   2.0000      -0.586000       -15.9459
  33   2.0000      -0.571239       -15.5442
  34   2.0000      -0.560847       -15.2614
  35   2.0000      -0.558622       -15.2009
  36   2.0000      -0.554336       -15.0842
  37   2.0000      -0.506396       -13.7797
  38   2.0000      -0.498878       -13.5752
  39   2.0000      -0.485172       -13.2022
  40   2.0000      -0.470750       -12.8098
  41   2.0000      -0.468305       -12.7432
  42   2.0000      -0.463650       -12.6166
  43   2.0000      -0.437032       -11.8922
  44   2.0000      -0.380507       -10.3541
  45   0.0000       0.023509         0.6397
  46   0.0000       0.028602         0.7783
  47   0.0000       0.030142         0.8202
  48   0.0000       0.035690         0.9712
  49   0.0000       0.040573         1.1040

MULLIKEN ATOMIC CHARGES
-----------------------
   0 S :   -0.304644
   1 P :    2.589607
   2 O :   -1.200417
   3 C :   -0.445519
   4 C :   -0.497690
   5 H :    0.301992
   6 C :   -0.344552
   7 H :    0.233063
   8 H :    0.286522
   9 C :   -1.007724
  10 H :    0.269786
  11 H :    0.325869
  12 H :    0.277202
  13 H :    0.269002
  14 H :    0.263932
  15 H :    0.342726
  16 O :   -0.963880
  17 H :    0.416044
  18 O :   -1.184074
  19 H :    0.372754
Sum of atomic charges:   -0.0000000

LOEWDIN ATOMIC CHARGES
----------------------
   0 S :    1.243269
   1 P :   -1.073305
   2 O :    0.312810
   3 C :    0.134725
   4 C :    0.442270
   5 H :   -0.427237
   6 C :    0.481681
   7 H :   -0.275048
   8 H :   -0.288466
   9 C :    0.915479
  10 H :   -0.270385
  11 H :   -0.325715
  12 H :   -0.274132
  13 H :   -0.275238
  14 H :   -0.339760
  15 H :   -0.362184
  16 O :    1.065212
  17 H :   -0.860180
  18 O :    1.048753
  19 H :   -0.872549

  Mayer bond orders larger than 0.100000
B(  0-S ,  1-P ) :   1.0113 B(  0-S ,  3-C ) :   0.8828 B(  1-P ,  2-O ) :   1.3780
B(  1-P , 16-O ) :   0.5401 B(  1-P , 18-O ) :   0.2307 B(  2-O ,  3-C ) :  -0.1168
B(  3-C ,  4-C ) :   0.9355 B(  3-C ,  5-H ) :   0.9117 B(  3-C , 15-H ) :   0.8511
B(  4-C ,  6-C ) :   0.8678 B(  4-C ,  7-H ) :   0.8950 B(  4-C ,  8-H ) :   0.8952
B(  6-C ,  9-C ) :   0.8942 B(  6-C , 10-H ) :   0.9160 B(  6-C , 11-H ) :   0.8840
B(  9-C , 12-H ) :   0.9455 B(  9-C , 13-H ) :   0.9853 B(  9-C , 14-H ) :   0.9330
B( 16-O , 17-H ) :   0.8748 B( 18-O , 19-H ) :   0.9096

MP2 TOTAL ENERGY:    -1122.972012223 Eh
FINAL SINGLE POINT ENERGY     -1122.972012222924

DIPOLE MOMENT
-------------
                                X             Y             Z
Electronic contribution:    -16.28235       3.13044      -1.20530
Nuclear contribution   :     16.64717      -2.84170       1.10961
                        -----------------------------------------
Total Dipole Moment    :      0.36483       0.28874      -0.09569
                        -----------------------------------------
Magnitude (a.u.)       :      0.47501
Magnitude (Debye)      :      1.20737

Rotational constants in cm-1:     0.059825     0.028949     0.023966
Rotational constants in MHz :  1793.508469   867.858204   718.480763

                             ****ORCA TERMINATED NORMALLY****
TOTAL RUN TIME: 0 days 4 hours 27 minutes 43 seconds 255 msec
