                         Program Version 5.0.4 -  RELEASE  -
|  1> ! ri-mp2 aug-cc-pvdz aug-cc-pvdz/c tightscf
|  2> %pal nprocs 16 end
|  3> %maxcore 3800
|  4> %base "DZ_B-F_7_AB"
|  5>
|  6> *xyz 0 1
|  7> F        -1.327933    1.140965   -0.000101
|  8> F        -1.327922   -1.140970    0.000178
|  9> N         0.813126    0.000003    0.000015
| 10> B        -0.711679    0.000001    0.000034
| 11> O         1.360445   -0.000163   -1.083871
| 12> O         1.360706    0.000167    1.083751
| 13> *
| 14>
| 15> $new_job
| 16> ! ri-mp2 aug-cc-pvtz aug-cc-pvtz/c tightscf
| 17> %pal nprocs 16 end
| 18> %maxcore 3800
| 19> %base "TZ_B-F_7_AB"
| 20>
| 21> *xyz 0 1
| 22> F        -1.327933    1.140965   -0.000101
| 23> F        -1.327922   -1.140970    0.000178
| 24> N         0.813126    0.000003    0.000015
| 25> B        -0.711679    0.000001    0.000034
| 26> O         1.360445   -0.000163   -1.083871
| 27> O         1.360706    0.000167    1.083751
| 28> *
| 29>
| 30> $new_job
| 31> ! ri-mp2 aug-cc-pvqz aug-cc-pvqz/c tightscf
| 32> %pal nprocs 16 end
| 33> %maxcore 3800
| 34> %base "QZ_B-F_7_AB"
| 35>
| 36> *xyz 0 1
| 37> F        -1.327933    1.140965   -0.000101
| 38> F        -1.327922   -1.140970    0.000178
| 39> N         0.813126    0.000003    0.000015
| 40> B        -0.711679    0.000001    0.000034
| 41> O         1.360445   -0.000163   -1.083871
| 42> O         1.360706    0.000167    1.083751
| 43> *
| 44>
| 45>
| 46>
| 47>
| 48>                          ****END OF INPUT****
 Total Charge           Charge          ....    0
 Multiplicity           Mult            ....    1
 Number of Electrons    NEL             ....   46
MP2 TOTAL ENERGY:     -428.857349532 Eh
FINAL SINGLE POINT ENERGY      -428.857349531601
MP2 TOTAL ENERGY:     -429.218398748 Eh
FINAL SINGLE POINT ENERGY      -429.218398747994

CARTESIAN COORDINATES (ANGSTROEM)
---------------------------------
  F     -1.327933    1.140965   -0.000101
  F     -1.327922   -1.140970    0.000178
  N      0.813126    0.000003    0.000015
  B     -0.711679    0.000001    0.000034
  O      1.360445   -0.000163   -1.083871
  O      1.360706    0.000167    1.083751

 Multiplicity           Mult            ....    1
 Number of Electrons    NEL             ....   46
 Basis Dimension        Dim             ....  480

ORBITAL ENERGIES
----------------

  NO   OCC          E(Eh)            E(eV)
   0   2.0000     -26.381610      -717.8801
   1   2.0000     -26.381594      -717.8797
   2   2.0000     -20.636755      -561.5547
   3   2.0000     -20.636704      -561.5533
   4   2.0000     -15.858064      -431.5199
   5   2.0000      -7.814524      -212.6440
   6   2.0000      -1.717512       -46.7359
   7   2.0000      -1.689571       -45.9756
   8   2.0000      -1.638439       -44.5842
   9   2.0000      -1.437987       -39.1296
  10   2.0000      -1.028891       -27.9976
  11   2.0000      -0.879886       -23.9429
  12   2.0000      -0.842560       -22.9272
  13   2.0000      -0.830818       -22.6077
  14   2.0000      -0.786007       -21.3883
  15   2.0000      -0.753286       -20.4980
  16   2.0000      -0.748420       -20.3655
  17   2.0000      -0.744958       -20.2713
  18   2.0000      -0.726495       -19.7689
  19   2.0000      -0.713327       -19.4106
  20   2.0000      -0.537732       -14.6324
  21   2.0000      -0.511120       -13.9083
  22   2.0000      -0.483800       -13.1649
  23   0.0000       0.027708         0.7540
  24   0.0000       0.035445         0.9645
  25   0.0000       0.037537         1.0214
  26   0.0000       0.043525         1.1844
  27   0.0000       0.057127         1.5545

MULLIKEN ATOMIC CHARGES
-----------------------
   0 F :   -0.703863
   1 F :   -0.703862
   2 N :    0.756696
   3 B :    1.755022
   4 O :   -0.552006
   5 O :   -0.551987
Sum of atomic charges:    0.0000000

LOEWDIN ATOMIC CHARGES
----------------------
   0 F :    0.853929
   1 F :    0.853928
   2 N :   -0.779627
   3 B :   -1.991013
   4 O :    0.531396
   5 O :    0.531387

  Mayer bond orders larger than 0.100000
B(  0-F ,  3-B ) :   0.5429 B(  1-F ,  3-B ) :   0.5429 B(  2-N ,  3-B ) :   0.6918
B(  2-N ,  4-O ) :   1.4200 B(  2-N ,  5-O ) :   1.4200 B(  4-O ,  5-O ) :   0.2030

MP2 TOTAL ENERGY:     -429.337533902 Eh
FINAL SINGLE POINT ENERGY      -429.337533902371

DIPOLE MOMENT
-------------
                                X             Y             Z
Electronic contribution:     -3.87794       0.00000       0.00024
Nuclear contribution   :      2.95595       0.00000      -0.00010
                        -----------------------------------------
Total Dipole Moment    :     -0.92198       0.00001       0.00014
                        -----------------------------------------
Magnitude (a.u.)       :      0.92198
Magnitude (Debye)      :      2.34349

Rotational constants in cm-1:     0.193655     0.094468     0.088573
Rotational constants in MHz :  5805.637236  2832.077720  2655.343959

                             ****ORCA TERMINATED NORMALLY****
TOTAL RUN TIME: 0 days 0 hours 2 minutes 24 seconds 886 msec
