                         Program Version 5.0.4 -  RELEASE  -
|  1> ! ri-mp2 aug-cc-pvdz aug-cc-pvdz/c tightscf
|  2> %pal nprocs 16 end
|  3> %maxcore 3800
|  4> %base "DZ_B-F_79_AB"
|  5> %scf
|  6> STABPerform true
|  7> STABRestartUHFifUnstable true
|  8> end
|  9>
| 10> *xyz 0 1
| 11> F         2.022567   -0.015842   -1.131336
| 12> F         2.022564   -0.015839    1.131339
| 13> N        -0.011155   -0.492310   -0.000000
| 14> C        -1.496782    1.430855   -0.000003
| 15> C        -1.177767   -0.038719   -0.000002
| 16> C        -2.360372   -0.961949    0.000002
| 17> B         1.333670   -0.140558    0.000000
| 18> H        -0.592538    2.034220   -0.000004
| 19> H        -2.096050    1.683352    0.876806
| 20> H        -2.096052    1.683350   -0.876811
| 21> H        -2.035319   -1.998056    0.000005
| 22> H        -2.983479   -0.774950   -0.876907
| 23> H        -2.983477   -0.774945    0.876910
| 24> *
| 25>
| 26> $new_job
| 27> ! ri-mp2 aug-cc-pvtz aug-cc-pvtz/c tightscf
| 28> %pal nprocs 16 end
| 29> %maxcore 3800
| 30> %base "TZ_B-F_79_AB"
| 31>
| 32> *xyz 0 1
| 33> F         2.022567   -0.015842   -1.131336
| 34> F         2.022564   -0.015839    1.131339
| 35> N        -0.011155   -0.492310   -0.000000
| 36> C        -1.496782    1.430855   -0.000003
| 37> C        -1.177767   -0.038719   -0.000002
| 38> C        -2.360372   -0.961949    0.000002
| 39> B         1.333670   -0.140558    0.000000
| 40> H        -0.592538    2.034220   -0.000004
| 41> H        -2.096050    1.683352    0.876806
| 42> H        -2.096052    1.683350   -0.876811
| 43> H        -2.035319   -1.998056    0.000005
| 44> H        -2.983479   -0.774950   -0.876907
| 45> H        -2.983477   -0.774945    0.876910
| 46> *
| 47>
| 48> $new_job
| 49> ! ri-mp2 aug-cc-pvqz aug-cc-pvqz/c tightscf
| 50> %pal nprocs 16 end
| 51> %maxcore 3800
| 52> %base "QZ_B-F_79_AB"
| 53>
| 54> *xyz 0 1
| 55> F         2.022567   -0.015842   -1.131336
| 56> F         2.022564   -0.015839    1.131339
| 57> N        -0.011155   -0.492310   -0.000000
| 58> C        -1.496782    1.430855   -0.000003
| 59> C        -1.177767   -0.038719   -0.000002
| 60> C        -2.360372   -0.961949    0.000002
| 61> B         1.333670   -0.140558    0.000000
| 62> H        -0.592538    2.034220   -0.000004
| 63> H        -2.096050    1.683352    0.876806
| 64> H        -2.096052    1.683350   -0.876811
| 65> H        -2.035319   -1.998056    0.000005
| 66> H        -2.983479   -0.774950   -0.876907
| 67> H        -2.983477   -0.774945    0.876910
| 68> *
| 69>
| 70>
| 71>
| 72>
| 73>                          ****END OF INPUT****
 Total Charge           Charge          ....    0
 Multiplicity           Mult            ....    1
 Number of Electrons    NEL             ....   54
MP2 TOTAL ENERGY:     -396.384184030 Eh
FINAL SINGLE POINT ENERGY      -396.384184029544
MP2 TOTAL ENERGY:     -396.737933527 Eh
FINAL SINGLE POINT ENERGY      -396.737933526772

CARTESIAN COORDINATES (ANGSTROEM)
---------------------------------
  F      2.022567   -0.015842   -1.131336
  F      2.022564   -0.015839    1.131339
  N     -0.011155   -0.492310   -0.000000
  C     -1.496782    1.430855   -0.000003
  C     -1.177767   -0.038719   -0.000002
  C     -2.360372   -0.961949    0.000002
  B      1.333670   -0.140558    0.000000
  H     -0.592538    2.034220   -0.000004
  H     -2.096050    1.683352    0.876806
  H     -2.096052    1.683350   -0.876811
  H     -2.035319   -1.998056    0.000005
  H     -2.983479   -0.774950   -0.876907
  H     -2.983477   -0.774945    0.876910

 Multiplicity           Mult            ....    1
 Number of Electrons    NEL             ....   54
 Basis Dimension        Dim             ....  836

ORBITAL ENERGIES
----------------

  NO   OCC          E(Eh)            E(eV)
   0   2.0000     -26.288169      -715.3374
   1   2.0000     -26.288152      -715.3370
   2   2.0000     -15.543989      -422.9735
   3   2.0000     -11.321843      -308.0830
   4   2.0000     -11.244734      -305.9848
   5   2.0000     -11.237816      -305.7965
   6   2.0000      -7.699264      -209.5076
   7   2.0000      -1.620707       -44.1017
   8   2.0000      -1.588769       -43.2326
   9   2.0000      -1.239125       -33.7183
  10   2.0000      -1.038004       -28.2455
  11   2.0000      -0.974149       -26.5079
  12   2.0000      -0.837029       -22.7767
  13   2.0000      -0.777233       -21.1496
  14   2.0000      -0.740490       -20.1498
  15   2.0000      -0.696723       -18.9588
  16   2.0000      -0.691387       -18.8136
  17   2.0000      -0.642991       -17.4967
  18   2.0000      -0.640333       -17.4244
  19   2.0000      -0.633107       -17.2277
  20   2.0000      -0.628748       -17.1091
  21   2.0000      -0.623085       -16.9550
  22   2.0000      -0.570489       -15.5238
  23   2.0000      -0.565194       -15.3797
  24   2.0000      -0.539195       -14.6723
  25   2.0000      -0.449183       -12.2229
  26   2.0000      -0.403484       -10.9794
  27   0.0000       0.020016         0.5447
  28   0.0000       0.029347         0.7986
  29   0.0000       0.032833         0.8934
  30   0.0000       0.037799         1.0286
  31   0.0000       0.049518         1.3475

MULLIKEN ATOMIC CHARGES
-----------------------
   0 F :   -0.785923
   1 F :   -0.785922
   2 N :   -0.537056
   3 C :   -0.775537
   4 C :    0.523065
   5 C :   -0.810045
   6 B :    1.542318
   7 H :    0.277699
   8 H :    0.267830
   9 H :    0.267830
  10 H :    0.286611
  11 H :    0.264565
  12 H :    0.264566
Sum of atomic charges:    0.0000000

LOEWDIN ATOMIC CHARGES
----------------------
   0 F :    0.783168
   1 F :    0.783166
   2 N :    0.631599
   3 C :    0.921604
   4 C :   -0.309936
   5 C :    0.906029
   6 B :   -1.979260
   7 H :   -0.300818
   8 H :   -0.279152
   9 H :   -0.279153
  10 H :   -0.307649
  11 H :   -0.284798
  12 H :   -0.284799

  Mayer bond orders larger than 0.100000
B(  0-F ,  2-N ) :  -0.1778 B(  0-F ,  6-B ) :   0.4296 B(  1-F ,  2-N ) :  -0.1778
B(  1-F ,  6-B ) :   0.4296 B(  2-N ,  4-C ) :   1.5347 B(  2-N ,  6-B ) :   1.1233
B(  3-C ,  4-C ) :   0.8304 B(  3-C ,  7-H ) :   0.9700 B(  3-C ,  8-H ) :   0.9340
B(  3-C ,  9-H ) :   0.9340 B(  4-C ,  5-C ) :   0.7936 B(  5-C , 10-H ) :   0.9763
B(  5-C , 11-H ) :   0.9525 B(  5-C , 12-H ) :   0.9525

MP2 TOTAL ENERGY:     -396.849576267 Eh
FINAL SINGLE POINT ENERGY      -396.849576267139

DIPOLE MOMENT
-------------
                                X             Y             Z
Electronic contribution:     15.64256      -1.49634       0.00000
Nuclear contribution   :    -17.26450       1.92849      -0.00000
                        -----------------------------------------
Total Dipole Moment    :     -1.62194       0.43215      -0.00000
                        -----------------------------------------
Magnitude (a.u.)       :      1.67852
Magnitude (Debye)      :      4.26647

Rotational constants in cm-1:     0.158804     0.046159     0.045821
Rotational constants in MHz :  4760.814542  1383.801304  1373.684365

                             ****ORCA TERMINATED NORMALLY****
TOTAL RUN TIME: 0 days 0 hours 56 minutes 48 seconds 1 msec
