                         Program Version 5.0.4 -  RELEASE  -
|  1> ! ri-mp2 aug-cc-pvdz aug-cc-pvdz/c tightscf
|  2> %pal nprocs 16 end
|  3> %maxcore 3800
|  4> %base "DZ_P-N_28_AB"
|  5> %scf
|  6> STABPerform true
|  7> STABRestartUHFifUnstable true
|  8> end
|  9>
| 10> *xyz 0 1
| 11> C        -2.081936   -0.491411    0.025954
| 12> C        -0.776692    0.253808   -0.018663
| 13> H        -2.421540   -0.645708   -1.000469
| 14> H        -2.828732    0.099557    0.552452
| 15> H        -1.975418   -1.471384    0.491681
| 16> N         1.954524    0.403299    0.126886
| 17> O        -0.719044    1.457870   -0.030778
| 18> P         0.777238   -0.773256   -0.117605
| 19> H         0.578547   -1.266856    1.197598
| 20> H         1.624636    1.291776    0.483382
| 21> H         2.586385    0.531009   -0.646293
| 22> *
| 23>
| 24> $new_job
| 25> ! ri-mp2 aug-cc-pvtz aug-cc-pvtz/c tightscf
| 26> %pal nprocs 16 end
| 27> %maxcore 3800
| 28> %base "TZ_P-N_28_AB"
| 29>
| 30> *xyz 0 1
| 31> C        -2.081936   -0.491411    0.025954
| 32> C        -0.776692    0.253808   -0.018663
| 33> H        -2.421540   -0.645708   -1.000469
| 34> H        -2.828732    0.099557    0.552452
| 35> H        -1.975418   -1.471384    0.491681
| 36> N         1.954524    0.403299    0.126886
| 37> O        -0.719044    1.457870   -0.030778
| 38> P         0.777238   -0.773256   -0.117605
| 39> H         0.578547   -1.266856    1.197598
| 40> H         1.624636    1.291776    0.483382
| 41> H         2.586385    0.531009   -0.646293
| 42> *
| 43>
| 44> $new_job
| 45> ! ri-mp2 aug-cc-pvqz aug-cc-pvqz/c tightscf
| 46> %pal nprocs 16 end
| 47> %maxcore 3800
| 48> %base "QZ_P-N_28_AB"
| 49>
| 50> *xyz 0 1
| 51> C        -2.081936   -0.491411    0.025954
| 52> C        -0.776692    0.253808   -0.018663
| 53> H        -2.421540   -0.645708   -1.000469
| 54> H        -2.828732    0.099557    0.552452
| 55> H        -1.975418   -1.471384    0.491681
| 56> N         1.954524    0.403299    0.126886
| 57> O        -0.719044    1.457870   -0.030778
| 58> P         0.777238   -0.773256   -0.117605
| 59> H         0.578547   -1.266856    1.197598
| 60> H         1.624636    1.291776    0.483382
| 61> H         2.586385    0.531009   -0.646293
| 62> *
| 63>
| 64>
| 65>
| 66>
| 67>                          ****END OF INPUT****
 Total Charge           Charge          ....    0
 Multiplicity           Mult            ....    1
 Number of Electrons    NEL             ....   48
MP2 TOTAL ENERGY:     -550.090279702 Eh
FINAL SINGLE POINT ENERGY      -550.090279702149
MP2 TOTAL ENERGY:     -550.322849834 Eh
FINAL SINGLE POINT ENERGY      -550.322849834341

CARTESIAN COORDINATES (ANGSTROEM)
---------------------------------
  C     -2.081936   -0.491411    0.025954
  C     -0.776692    0.253808   -0.018663
  H     -2.421540   -0.645708   -1.000469
  H     -2.828732    0.099557    0.552452
  H     -1.975418   -1.471384    0.491681
  N      1.954524    0.403299    0.126886
  O     -0.719044    1.457870   -0.030778
  P      0.777238   -0.773256   -0.117605
  H      0.578547   -1.266856    1.197598
  H      1.624636    1.291776    0.483382
  H      2.586385    0.531009   -0.646293

 Multiplicity           Mult            ....    1
 Number of Electrons    NEL             ....   48
 Basis Dimension        Dim             ....  680

ORBITAL ENERGIES
----------------

  NO   OCC          E(Eh)            E(eV)
   0   2.0000     -79.966916     -2176.0104
   1   2.0000     -20.557133      -559.3880
   2   2.0000     -15.555071      -423.2750
   3   2.0000     -11.334224      -308.4199
   4   2.0000     -11.240232      -305.8623
   5   2.0000      -7.506739      -204.2688
   6   2.0000      -5.400936      -146.9669
   7   2.0000      -5.400516      -146.9555
   8   2.0000      -5.400131      -146.9450
   9   2.0000      -1.401393       -38.1338
  10   2.0000      -1.172820       -31.9140
  11   2.0000      -1.024332       -27.8735
  12   2.0000      -0.867051       -23.5937
  13   2.0000      -0.733032       -19.9468
  14   2.0000      -0.684300       -18.6208
  15   2.0000      -0.645158       -17.5556
  16   2.0000      -0.633677       -17.2432
  17   2.0000      -0.611984       -16.6529
  18   2.0000      -0.561301       -15.2738
  19   2.0000      -0.558916       -15.2089
  20   2.0000      -0.513369       -13.9695
  21   2.0000      -0.463239       -12.6054
  22   2.0000      -0.395245       -10.7552
  23   2.0000      -0.365309        -9.9406
  24   0.0000       0.024614         0.6698
  25   0.0000       0.030949         0.8422
  26   0.0000       0.037742         1.0270
  27   0.0000       0.041538         1.1303
  28   0.0000       0.052110         1.4180

MULLIKEN ATOMIC CHARGES
-----------------------
   0 C :   -0.800935
   1 C :    0.478202
   2 H :    0.280436
   3 H :    0.301926
   4 H :    0.241499
   5 N :   -0.914346
   6 O :   -0.787705
   7 P :    0.729039
   8 H :   -0.096735
   9 H :    0.311728
  10 H :    0.256892
Sum of atomic charges:    0.0000000

LOEWDIN ATOMIC CHARGES
----------------------
   0 C :    0.797984
   1 C :   -0.851597
   2 H :   -0.305689
   3 H :   -0.315998
   4 H :   -0.332134
   5 N :    0.990728
   6 O :    0.653279
   7 P :    1.059676
   8 H :   -0.434600
   9 H :   -0.645608
  10 H :   -0.616041

  Mayer bond orders larger than 0.100000
B(  0-C ,  1-C ) :   0.8957 B(  0-C ,  2-H ) :   0.8903 B(  0-C ,  3-H ) :   0.9546
B(  0-C ,  4-H ) :   0.9808 B(  1-C ,  6-O ) :   1.4093 B(  1-C ,  7-P ) :   0.7389
B(  5-N ,  7-P ) :   0.9029 B(  5-N ,  9-H ) :   0.8991 B(  5-N , 10-H ) :   0.9536
B(  7-P ,  8-H ) :   0.9228

MP2 TOTAL ENERGY:     -550.397612985 Eh
FINAL SINGLE POINT ENERGY      -550.397612985277

DIPOLE MOMENT
-------------
                                X             Y             Z
Electronic contribution:      2.95922       0.15009      -1.21305
Nuclear contribution   :     -3.14472      -0.69289       1.17881
                        -----------------------------------------
Total Dipole Moment    :     -0.18550      -0.54280      -0.03423
                        -----------------------------------------
Magnitude (a.u.)       :      0.57464
Magnitude (Debye)      :      1.46062

Rotational constants in cm-1:     0.246255     0.097908     0.072650
Rotational constants in MHz :  7382.527645  2935.212951  2177.989180

                             ****ORCA TERMINATED NORMALLY****
TOTAL RUN TIME: 0 days 0 hours 35 minutes 32 seconds 734 msec
