                         Program Version 5.0.4 -  RELEASE  -
|  1> ! ri-mp2 aug-cc-pvdz aug-cc-pvdz/c tightscf
|  2> %pal nprocs 16 end
|  3> %maxcore 3800
|  4> %base "DZ_P-C_55_AB"
|  5>
|  6> *xyz 0 1
|  7> P        -1.629311   -0.648740    0.000000
|  8> C         0.157375   -0.224651    0.000000
|  9> C         1.075490   -1.267908   -0.000002
| 10> C         0.640090    1.081326    0.000001
| 11> C         1.998797    1.336096    0.000001
| 12> C         2.902763    0.284445    0.000000
| 13> C         2.439256   -1.018292   -0.000001
| 14> H         3.966328    0.483648    0.000000
| 15> H         3.138657   -1.843988   -0.000002
| 16> H         0.713740   -2.288515   -0.000003
| 17> H        -0.050379    1.915398    0.000002
| 18> H         2.356308    2.357621    0.000003
| 19> C        -2.230737    0.376912    1.403940
| 20> H        -3.317915    0.306876    1.451112
| 21> H        -1.828803   -0.015756    2.337183
| 22> H        -1.952663    1.427814    1.316461
| 23> C        -2.230738    0.376914   -1.403939
| 24> H        -1.828803   -0.015751   -2.337183
| 25> H        -1.952663    1.427817   -1.316458
| 26> H        -3.317915    0.306879   -1.451111
| 27> *
| 28>
| 29> $new_job
| 30> ! ri-mp2 aug-cc-pvtz aug-cc-pvtz/c tightscf
| 31> %pal nprocs 16 end
| 32> %maxcore 3800
| 33> %base "TZ_P-C_55_AB"
| 34>
| 35> *xyz 0 1
| 36> P        -1.629311   -0.648740    0.000000
| 37> C         0.157375   -0.224651    0.000000
| 38> C         1.075490   -1.267908   -0.000002
| 39> C         0.640090    1.081326    0.000001
| 40> C         1.998797    1.336096    0.000001
| 41> C         2.902763    0.284445    0.000000
| 42> C         2.439256   -1.018292   -0.000001
| 43> H         3.966328    0.483648    0.000000
| 44> H         3.138657   -1.843988   -0.000002
| 45> H         0.713740   -2.288515   -0.000003
| 46> H        -0.050379    1.915398    0.000002
| 47> H         2.356308    2.357621    0.000003
| 48> C        -2.230737    0.376912    1.403940
| 49> H        -3.317915    0.306876    1.451112
| 50> H        -1.828803   -0.015756    2.337183
| 51> H        -1.952663    1.427814    1.316461
| 52> C        -2.230738    0.376914   -1.403939
| 53> H        -1.828803   -0.015751   -2.337183
| 54> H        -1.952663    1.427817   -1.316458
| 55> H        -3.317915    0.306879   -1.451111
| 56> *
| 57>
| 58> $new_job
| 59> ! ri-mp2 aug-cc-pvqz aug-cc-pvqz/c tightscf
| 60> %pal nprocs 16 end
| 61> %maxcore 3800
| 62> %base "QZ_P-C_55_AB"
| 63>
| 64> *xyz 0 1
| 65> P        -1.629311   -0.648740    0.000000
| 66> C         0.157375   -0.224651    0.000000
| 67> C         1.075490   -1.267908   -0.000002
| 68> C         0.640090    1.081326    0.000001
| 69> C         1.998797    1.336096    0.000001
| 70> C         2.902763    0.284445    0.000000
| 71> C         2.439256   -1.018292   -0.000001
| 72> H         3.966328    0.483648    0.000000
| 73> H         3.138657   -1.843988   -0.000002
| 74> H         0.713740   -2.288515   -0.000003
| 75> H        -0.050379    1.915398    0.000002
| 76> H         2.356308    2.357621    0.000003
| 77> C        -2.230737    0.376912    1.403940
| 78> H        -3.317915    0.306876    1.451112
| 79> H        -1.828803   -0.015756    2.337183
| 80> H        -1.952663    1.427814    1.316461
| 81> C        -2.230738    0.376914   -1.403939
| 82> H        -1.828803   -0.015751   -2.337183
| 83> H        -1.952663    1.427817   -1.316458
| 84> H        -3.317915    0.306879   -1.451111
| 85> *
| 86>
| 87>
| 88>
| 89>
| 90>                          ****END OF INPUT****
 Total Charge           Charge          ....    0
 Multiplicity           Mult            ....    1
 Number of Electrons    NEL             ....   74
MP2 TOTAL ENERGY:     -651.367207023 Eh
FINAL SINGLE POINT ENERGY      -651.367207022892
MP2 TOTAL ENERGY:     -651.695660094 Eh
FINAL SINGLE POINT ENERGY      -651.695660094048

CARTESIAN COORDINATES (ANGSTROEM)
---------------------------------
  P     -1.629311   -0.648740    0.000000
  C      0.157375   -0.224651    0.000000
  C      1.075490   -1.267908   -0.000002
  C      0.640090    1.081326    0.000001
  C      1.998797    1.336096    0.000001
  C      2.902763    0.284445    0.000000
  C      2.439256   -1.018292   -0.000001
  H      3.966328    0.483648    0.000000
  H      3.138657   -1.843988   -0.000002
  H      0.713740   -2.288515   -0.000003
  H     -0.050379    1.915398    0.000002
  H      2.356308    2.357621    0.000003
  C     -2.230737    0.376912    1.403940
  H     -3.317915    0.306876    1.451112
  H     -1.828803   -0.015756    2.337183
  H     -1.952663    1.427814    1.316461
  C     -2.230738    0.376914   -1.403939
  H     -1.828803   -0.015751   -2.337183
  H     -1.952663    1.427817   -1.316458
  H     -3.317915    0.306879   -1.451111

 Multiplicity           Mult            ....    1
 Number of Electrons    NEL             ....   74
 Basis Dimension        Dim             .... 1230

ORBITAL ENERGIES
----------------

  NO   OCC          E(Eh)            E(eV)
   0   2.0000     -79.929452     -2174.9910
   1   2.0000     -11.236399      -305.7580
   2   2.0000     -11.235890      -305.7441
   3   2.0000     -11.234005      -305.6928
   4   2.0000     -11.233280      -305.6731
   5   2.0000     -11.231810      -305.6331
   6   2.0000     -11.231145      -305.6150
   7   2.0000     -11.216938      -305.2284
   8   2.0000     -11.216928      -305.2281
   9   2.0000      -7.470734      -203.2890
  10   2.0000      -5.364940      -145.9874
  11   2.0000      -5.364780      -145.9831
  12   2.0000      -5.363798      -145.9564
  13   2.0000      -1.158511       -31.5247
  14   2.0000      -1.037101       -28.2209
  15   2.0000      -1.019522       -27.7426
  16   2.0000      -0.986319       -26.8391
  17   2.0000      -0.935422       -25.4541
  18   2.0000      -0.834450       -22.7065
  19   2.0000      -0.827020       -22.5044
  20   2.0000      -0.741368       -20.1737
  21   2.0000      -0.689248       -18.7554
  22   2.0000      -0.631004       -17.1705
  23   2.0000      -0.625988       -17.0340
  24   2.0000      -0.595577       -16.2065
  25   2.0000      -0.586702       -15.9650
  26   2.0000      -0.577208       -15.7066
  27   2.0000      -0.559127       -15.2146
  28   2.0000      -0.552813       -15.0428
  29   2.0000      -0.538643       -14.6572
  30   2.0000      -0.509889       -13.8748
  31   2.0000      -0.496163       -13.5013
  32   2.0000      -0.461578       -12.5602
  33   2.0000      -0.450974       -12.2716
  34   2.0000      -0.340728        -9.2717
  35   2.0000      -0.338390        -9.2081
  36   2.0000      -0.334257        -9.0956
  37   0.0000       0.023471         0.6387
  38   0.0000       0.027651         0.7524
  39   0.0000       0.030926         0.8415
  40   0.0000       0.034942         0.9508
  41   0.0000       0.039141         1.0651

MULLIKEN ATOMIC CHARGES
-----------------------
   0 P :    0.675840
   1 C :    0.044388
   2 C :   -0.468973
   3 C :   -0.569635
   4 C :   -0.106099
   5 C :   -0.413172
   6 C :   -0.260686
   7 H :    0.352618
   8 H :    0.276138
   9 H :    0.329570
  10 H :    0.324529
  11 H :    0.216707
  12 C :   -1.205532
  13 H :    0.377459
  14 H :    0.318036
  15 H :    0.309425
  16 C :   -1.205530
  17 H :    0.318036
  18 H :    0.309424
  19 H :    0.377458
Sum of atomic charges:    0.0000000

LOEWDIN ATOMIC CHARGES
----------------------
   0 P :    0.948414
   1 C :   -0.236888
   2 C :    0.243406
   3 C :    0.257809
   4 C :    0.346229
   5 C :    0.334607
   6 C :    0.337048
   7 H :   -0.320353
   8 H :   -0.321502
   9 H :   -0.350357
  10 H :   -0.351075
  11 H :   -0.319703
  12 C :    0.782397
  13 H :   -0.355889
  14 H :   -0.351294
  15 H :   -0.359031
  16 C :    0.782397
  17 H :   -0.351294
  18 H :   -0.359030
  19 H :   -0.355890

  Mayer bond orders larger than 0.100000
B(  0-P ,  1-C ) :   0.6010 B(  0-P ,  2-C ) :  -0.1499 B(  0-P , 12-C ) :   0.8452
B(  0-P , 16-C ) :   0.8452 B(  1-C ,  2-C ) :   0.6902 B(  1-C ,  3-C ) :   0.9714
B(  1-C ,  4-C ) :  -0.3276 B(  1-C ,  6-C ) :  -0.3771 B(  1-C ,  9-H ) :  -0.1400
B(  1-C , 10-H ) :  -0.1460 B(  2-C ,  4-C ) :   0.1413 B(  2-C ,  5-C ) :   0.1807
B(  2-C ,  6-C ) :   1.4799 B(  2-C ,  7-H ) :  -0.1083 B(  2-C ,  8-H ) :  -0.1251
B(  2-C ,  9-H ) :   0.9494 B(  3-C ,  4-C ) :   1.3052 B(  3-C ,  5-C ) :   0.1613
B(  3-C ,  6-C ) :   0.1639 B(  3-C ,  7-H ) :  -0.1042 B(  3-C , 10-H ) :   0.9116
B(  3-C , 11-H ) :  -0.1184 B(  4-C ,  5-C ) :   1.0798 B(  4-C ,  6-C ) :  -0.1191
B(  4-C , 11-H ) :   1.1462 B(  5-C ,  6-C ) :   1.1273 B(  5-C ,  7-H ) :   0.9951
B(  5-C ,  8-H ) :  -0.1069 B(  5-C , 11-H ) :  -0.1008 B(  6-C ,  8-H ) :   1.0774
B( 12-C , 13-H ) :   0.8854 B( 12-C , 14-H ) :   0.9170 B( 12-C , 15-H ) :   0.8881
B( 16-C , 17-H ) :   0.9170 B( 16-C , 18-H ) :   0.8881 B( 16-C , 19-H ) :   0.8854

MP2 TOTAL ENERGY:     -651.797509487 Eh
FINAL SINGLE POINT ENERGY      -651.797509487094

DIPOLE MOMENT
-------------
                                X             Y             Z
Electronic contribution:      2.69823      -4.17377      -0.00000
Nuclear contribution   :     -2.53750       4.70791       0.00000
                        -----------------------------------------
Total Dipole Moment    :      0.16072       0.53415       0.00000
                        -----------------------------------------
Magnitude (a.u.)       :      0.55781
Magnitude (Debye)      :      1.41783

Rotational constants in cm-1:     0.097119     0.029252     0.027292
Rotational constants in MHz :  2911.562899   876.948062   818.202024

                             ****ORCA TERMINATED NORMALLY****
TOTAL RUN TIME: 0 days 0 hours 55 minutes 46 seconds 615 msec
