                         Program Version 5.0.4 -  RELEASE  -
|  1> ! ri-mp2 aug-cc-pvdz aug-cc-pvdz/c tightscf
|  2> %pal nprocs 16 end
|  3> %maxcore 3800
|  4> %base "DZ_P-Si_37_AB"
|  5> %scf
|  6> STABPerform true
|  7> STABRestartUHFifUnstable true
|  8> end
|  9>
| 10> *xyz 0 1
| 11> P        -1.902818    0.345491    0.568661
| 12> Si        -0.388902   -0.666038   -0.769744
| 13> C         1.353173   -0.172984   -0.256935
| 14> C         1.577995    1.332643   -0.394927
| 15> H         0.948831    1.891494    0.301660
| 16> H         1.356681    1.690726   -1.401572
| 17> C         1.695931   -0.658180    1.150883
| 18> H         2.614901    1.592521   -0.170921
| 19> H         2.016073   -0.682050   -0.965568
| 20> H         2.725635   -0.400569    1.408921
| 21> H         1.047518   -0.195919    1.897911
| 22> H         1.590135   -1.739503    1.246789
| 23> H        -3.018114   -0.144135   -0.149868
| 24> H        -1.874563    1.580051   -0.121119
| 25> H        -0.604231   -0.333326   -2.198249
| 26> H        -0.578560   -2.125992   -0.595622
| 27> *
| 28>
| 29> $new_job
| 30> ! ri-mp2 aug-cc-pvtz aug-cc-pvtz/c tightscf
| 31> %pal nprocs 16 end
| 32> %maxcore 3800
| 33> %base "TZ_P-Si_37_AB"
| 34>
| 35> *xyz 0 1
| 36> P        -1.902818    0.345491    0.568661
| 37> Si        -0.388902   -0.666038   -0.769744
| 38> C         1.353173   -0.172984   -0.256935
| 39> C         1.577995    1.332643   -0.394927
| 40> H         0.948831    1.891494    0.301660
| 41> H         1.356681    1.690726   -1.401572
| 42> C         1.695931   -0.658180    1.150883
| 43> H         2.614901    1.592521   -0.170921
| 44> H         2.016073   -0.682050   -0.965568
| 45> H         2.725635   -0.400569    1.408921
| 46> H         1.047518   -0.195919    1.897911
| 47> H         1.590135   -1.739503    1.246789
| 48> H        -3.018114   -0.144135   -0.149868
| 49> H        -1.874563    1.580051   -0.121119
| 50> H        -0.604231   -0.333326   -2.198249
| 51> H        -0.578560   -2.125992   -0.595622
| 52> *
| 53>
| 54> $new_job
| 55> ! ri-mp2 aug-cc-pvqz aug-cc-pvqz/c tightscf
| 56> %pal nprocs 16 end
| 57> %maxcore 3800
| 58> %base "QZ_P-Si_37_AB"
| 59>
| 60> *xyz 0 1
| 61> P        -1.902818    0.345491    0.568661
| 62> Si        -0.388902   -0.666038   -0.769744
| 63> C         1.353173   -0.172984   -0.256935
| 64> C         1.577995    1.332643   -0.394927
| 65> H         0.948831    1.891494    0.301660
| 66> H         1.356681    1.690726   -1.401572
| 67> C         1.695931   -0.658180    1.150883
| 68> H         2.614901    1.592521   -0.170921
| 69> H         2.016073   -0.682050   -0.965568
| 70> H         2.725635   -0.400569    1.408921
| 71> H         1.047518   -0.195919    1.897911
| 72> H         1.590135   -1.739503    1.246789
| 73> H        -3.018114   -0.144135   -0.149868
| 74> H        -1.874563    1.580051   -0.121119
| 75> H        -0.604231   -0.333326   -2.198249
| 76> H        -0.578560   -2.125992   -0.595622
| 77> *
| 78>
| 79>
| 80>
| 81>
| 82>                          ****END OF INPUT****
 Total Charge           Charge          ....    0
 Multiplicity           Mult            ....    1
 Number of Electrons    NEL             ....   58
MP2 TOTAL ENERGY:     -750.392910293 Eh
FINAL SINGLE POINT ENERGY      -750.392910292714
MP2 TOTAL ENERGY:     -750.592147277 Eh
FINAL SINGLE POINT ENERGY      -750.592147277437

CARTESIAN COORDINATES (ANGSTROEM)
---------------------------------
  P     -1.902818    0.345491    0.568661
  Si    -0.388902   -0.666038   -0.769744
  C      1.353173   -0.172984   -0.256935
  C      1.577995    1.332643   -0.394927
  H      0.948831    1.891494    0.301660
  H      1.356681    1.690726   -1.401572
  C      1.695931   -0.658180    1.150883
  H      2.614901    1.592521   -0.170921
  H      2.016073   -0.682050   -0.965568
  H      2.725635   -0.400569    1.408921
  H      1.047518   -0.195919    1.897911
  H      1.590135   -1.739503    1.246789
  H     -3.018114   -0.144135   -0.149868
  H     -1.874563    1.580051   -0.121119
  H     -0.604231   -0.333326   -2.198249
  H     -0.578560   -2.125992   -0.595622

 Multiplicity           Mult            ....    1
 Number of Electrons    NEL             ....   58
 Basis Dimension        Dim             ....  914

ORBITAL ENERGIES
----------------

  NO   OCC          E(Eh)            E(eV)
   0   2.0000     -79.927209     -2174.9299
   1   2.0000     -68.768151     -1871.2765
   2   2.0000     -11.220768      -305.3326
   3   2.0000     -11.218609      -305.2739
   4   2.0000     -11.217509      -305.2439
   5   2.0000      -7.472213      -203.3293
   6   2.0000      -6.117857      -166.4754
   7   2.0000      -5.366117      -146.0195
   8   2.0000      -5.365777      -146.0102
   9   2.0000      -5.365169      -145.9937
  10   2.0000      -4.224194      -114.9462
  11   2.0000      -4.223919      -114.9387
  12   2.0000      -4.223421      -114.9251
  13   2.0000      -1.063172       -28.9304
  14   2.0000      -0.935668       -25.4608
  15   2.0000      -0.852141       -23.1879
  16   2.0000      -0.806065       -21.9341
  17   2.0000      -0.676150       -18.3990
  18   2.0000      -0.622370       -16.9355
  19   2.0000      -0.587362       -15.9829
  20   2.0000      -0.567330       -15.4378
  21   2.0000      -0.543258       -14.7828
  22   2.0000      -0.521352       -14.1867
  23   2.0000      -0.490942       -13.3592
  24   2.0000      -0.486600       -13.2411
  25   2.0000      -0.475384       -12.9358
  26   2.0000      -0.444920       -12.1069
  27   2.0000      -0.407594       -11.0912
  28   2.0000      -0.360793        -9.8177
  29   0.0000       0.023255         0.6328
  30   0.0000       0.032849         0.8939
  31   0.0000       0.033715         0.9174
  32   0.0000       0.034699         0.9442
  33   0.0000       0.046846         1.2747

MULLIKEN ATOMIC CHARGES
-----------------------
   0 P :   -0.031309
   1 Si:    0.995706
   2 C :   -0.100300
   3 C :   -0.963619
   4 H :    0.206149
   5 H :    0.241547
   6 C :   -0.948729
   7 H :    0.325922
   8 H :    0.297476
   9 H :    0.296488
  10 H :    0.228915
  11 H :    0.252063
  12 H :   -0.107651
  13 H :   -0.052669
  14 H :   -0.303905
  15 H :   -0.336083
Sum of atomic charges:   -0.0000000

LOEWDIN ATOMIC CHARGES
----------------------
   0 P :    1.444540
   1 Si:    0.496050
   2 C :    0.040975
   3 C :    0.835300
   4 H :   -0.301734
   5 H :   -0.287232
   6 C :    0.834316
   7 H :   -0.275901
   8 H :   -0.337539
   9 H :   -0.277254
  10 H :   -0.302909
  11 H :   -0.289321
  12 H :   -0.558642
  13 H :   -0.545483
  14 H :   -0.233645
  15 H :   -0.241520

  Mayer bond orders larger than 0.100000
B(  0-P ,  1-Si) :   0.7873 B(  0-P , 12-H ) :   0.9220 B(  0-P , 13-H ) :   0.9116
B(  1-Si,  2-C ) :   0.6802 B(  1-Si, 14-H ) :   0.7694 B(  1-Si, 15-H ) :   0.7210
B(  2-C ,  3-C ) :   0.7871 B(  2-C ,  6-C ) :   0.7985 B(  2-C ,  8-H ) :   0.8781
B(  3-C ,  4-H ) :   0.9802 B(  3-C ,  5-H ) :   0.9801 B(  3-C ,  7-H ) :   0.9288
B(  6-C ,  9-H ) :   0.9551 B(  6-C , 10-H ) :   0.9630 B(  6-C , 11-H ) :   0.9698

MP2 TOTAL ENERGY:     -750.652894934 Eh
FINAL SINGLE POINT ENERGY      -750.652894934065

DIPOLE MOMENT
-------------
                                X             Y             Z
Electronic contribution:     -7.90770      -0.82072       1.00497
Nuclear contribution   :      8.26865       0.86655      -1.27463
                        -----------------------------------------
Total Dipole Moment    :      0.36095       0.04583      -0.26966
                        -----------------------------------------
Magnitude (a.u.)       :      0.45288
Magnitude (Debye)      :      1.15113

Rotational constants in cm-1:     0.136580     0.056284     0.055151
Rotational constants in MHz :  4094.563843  1687.346653  1653.396289

                             ****ORCA TERMINATED NORMALLY****
TOTAL RUN TIME: 0 days 1 hours 20 minutes 40 seconds 91 msec
