                         Program Version 5.0.4 -  RELEASE  -
|  1> ! ri-mp2 aug-cc-pvdz aug-cc-pvdz/c tightscf
|  2> %pal nprocs 16 end
|  3> %maxcore 3800
|  4> %base "DZ_S-F_53_AB"
|  5> %scf
|  6> STABPerform true
|  7> STABRestartUHFifUnstable true
|  8> end
|  9>
| 10> *xyz 0 1
| 11> F        -2.135408   -1.206315   -0.000008
| 12> S        -1.703438    0.360791   -0.000007
| 13> C         0.001428    0.312598    0.000001
| 14> S         0.647117    1.816990    0.000004
| 15> S         0.781992   -1.220460    0.000005
| 16> C         2.507405   -0.729653    0.000004
| 17> H         3.073608   -1.658851    0.000003
| 18> H         2.740668   -0.149569    0.888598
| 19> H         2.740667   -0.149568   -0.888590
| 20> *
| 21>
| 22> $new_job
| 23> ! ri-mp2 aug-cc-pvtz aug-cc-pvtz/c tightscf
| 24> %pal nprocs 16 end
| 25> %maxcore 3800
| 26> %base "TZ_S-F_53_AB"
| 27>
| 28> *xyz 0 1
| 29> F        -2.135408   -1.206315   -0.000008
| 30> S        -1.703438    0.360791   -0.000007
| 31> C         0.001428    0.312598    0.000001
| 32> S         0.647117    1.816990    0.000004
| 33> S         0.781992   -1.220460    0.000005
| 34> C         2.507405   -0.729653    0.000004
| 35> H         3.073608   -1.658851    0.000003
| 36> H         2.740668   -0.149569    0.888598
| 37> H         2.740667   -0.149568   -0.888590
| 38> *
| 39>
| 40> $new_job
| 41> ! ri-mp2 aug-cc-pvqz aug-cc-pvqz/c tightscf
| 42> %pal nprocs 16 end
| 43> %maxcore 3800
| 44> %base "QZ_S-F_53_AB"
| 45>
| 46> *xyz 0 1
| 47> F        -2.135408   -1.206315   -0.000008
| 48> S        -1.703438    0.360791   -0.000007
| 49> C         0.001428    0.312598    0.000001
| 50> S         0.647117    1.816990    0.000004
| 51> S         0.781992   -1.220460    0.000005
| 52> C         2.507405   -0.729653    0.000004
| 53> H         3.073608   -1.658851    0.000003
| 54> H         2.740668   -0.149569    0.888598
| 55> H         2.740667   -0.149568   -0.888590
| 56> *
| 57>
| 58>
| 59>
| 60>
| 61>                          ****END OF INPUT****
 Total Charge           Charge          ....    0
 Multiplicity           Mult            ....    1
 Number of Electrons    NEL             ....   72
MP2 TOTAL ENERGY:    -1370.406221743 Eh
FINAL SINGLE POINT ENERGY     -1370.406221742595
MP2 TOTAL ENERGY:    -1370.715204240 Eh
FINAL SINGLE POINT ENERGY     -1370.715204239755

CARTESIAN COORDINATES (ANGSTROEM)
---------------------------------
  F     -2.135408   -1.206315   -0.000008
  S     -1.703438    0.360791   -0.000007
  C      0.001428    0.312598    0.000001
  S      0.647117    1.816990    0.000004
  S      0.781992   -1.220460    0.000005
  C      2.507405   -0.729653    0.000004
  H      3.073608   -1.658851    0.000003
  H      2.740668   -0.149569    0.888598
  H      2.740667   -0.149568   -0.888590

 Multiplicity           Mult            ....    1
 Number of Electrons    NEL             ....   72
 Basis Dimension        Dim             ....  630

ORBITAL ENERGIES
----------------

  NO   OCC          E(Eh)            E(eV)
   0   2.0000     -92.069788     -2505.3463
   1   2.0000     -92.007117     -2503.6409
   2   2.0000     -91.942144     -2501.8729
   3   2.0000     -26.327507      -716.4079
   4   2.0000     -11.384761      -309.7951
   5   2.0000     -11.277034      -306.8637
   6   2.0000      -9.063806      -246.6387
   7   2.0000      -9.009288      -245.1552
   8   2.0000      -8.946318      -243.4417
   9   2.0000      -6.745059      -183.5424
  10   2.0000      -6.742900      -183.4837
  11   2.0000      -6.741720      -183.4515
  12   2.0000      -6.690727      -182.0639
  13   2.0000      -6.689464      -182.0296
  14   2.0000      -6.688934      -182.0151
  15   2.0000      -6.627728      -180.3496
  16   2.0000      -6.626251      -180.3095
  17   2.0000      -6.625467      -180.2881
  18   2.0000      -1.627518       -44.2870
  19   2.0000      -1.171415       -31.8758
  20   2.0000      -1.063051       -28.9271
  21   2.0000      -0.965796       -26.2806
  22   2.0000      -0.921841       -25.0846
  23   2.0000      -0.762689       -20.7538
  24   2.0000      -0.709541       -19.3076
  25   2.0000      -0.700537       -19.0626
  26   2.0000      -0.681396       -18.5417
  27   2.0000      -0.620636       -16.8884
  28   2.0000      -0.606856       -16.5134
  29   2.0000      -0.569806       -15.5052
  30   2.0000      -0.526653       -14.3310
  31   2.0000      -0.519290       -14.1306
  32   2.0000      -0.483994       -13.1701
  33   2.0000      -0.390367       -10.6224
  34   2.0000      -0.358874        -9.7655
  35   2.0000      -0.351812        -9.5733
  36   0.0000       0.023277         0.6334
  37   0.0000       0.031378         0.8538
  38   0.0000       0.039694         1.0801
  39   0.0000       0.042767         1.1638
  40   0.0000       0.046971         1.2782

MULLIKEN ATOMIC CHARGES
-----------------------
   0 F :   -0.638737
   1 S :    0.857938
   2 C :   -0.695523
   3 S :   -0.012313
   4 S :    0.449702
   5 C :   -0.960266
   6 H :    0.419704
   7 H :    0.289747
   8 H :    0.289748
Sum of atomic charges:    0.0000000

LOEWDIN ATOMIC CHARGES
----------------------
   0 F :    0.081634
   1 S :    0.475994
   2 C :   -1.902345
   3 S :    0.874894
   4 S :    1.151820
   5 C :    0.490202
   6 H :   -0.387752
   7 H :   -0.392224
   8 H :   -0.392224

  Mayer bond orders larger than 0.100000
B(  0-F ,  1-S ) :   0.5916 B(  1-S ,  2-C ) :   0.9598 B(  1-S ,  3-S ) :   0.1069
B(  2-C ,  3-S ) :   1.4964 B(  2-C ,  4-S ) :   1.0389 B(  4-S ,  5-C ) :   1.0091
B(  5-C ,  6-H ) :   0.8022 B(  5-C ,  7-H ) :   0.9140 B(  5-C ,  8-H ) :   0.9140

MP2 TOTAL ENERGY:    -1370.817538724 Eh
FINAL SINGLE POINT ENERGY     -1370.817538724149

DIPOLE MOMENT
-------------
                                X             Y             Z
Electronic contribution:     -9.37263       0.24229      -0.00002
Nuclear contribution   :     10.14684      -0.75698       0.00002
                        -----------------------------------------
Total Dipole Moment    :      0.77421      -0.51470      -0.00000
                        -----------------------------------------
Magnitude (a.u.)       :      0.92968
Magnitude (Debye)      :      2.36307

Rotational constants in cm-1:     0.085667     0.053639     0.033192
Rotational constants in MHz :  2568.240771  1608.046935   995.079890

                             ****ORCA TERMINATED NORMALLY****
TOTAL RUN TIME: 0 days 0 hours 21 minutes 53 seconds 186 msec
