                         Program Version 5.0.4 -  RELEASE  -
|  1> ! ri-mp2 aug-cc-pvdz aug-cc-pvdz/c tightscf
|  2> %pal nprocs 16 end
|  3> %maxcore 3800
|  4> %base "DZ_B-Cl_34_AB"
|  5> %scf
|  6> STABPerform true
|  7> STABRestartUHFifUnstable true
|  8> end
|  9>
| 10> *xyz 0 1
| 11> Cl        -1.782076   -1.512190   -0.000002
| 12> Cl        -1.782086    1.512186   -0.000002
| 13> B        -0.909245    0.000001   -0.000003
| 14> N         0.487205    0.000005   -0.000005
| 15> C         1.673177    0.000003    0.000000
| 16> S         3.230467    0.000001    0.000006
| 17> *
| 18>
| 19> $new_job
| 20> ! ri-mp2 aug-cc-pvtz aug-cc-pvtz/c tightscf
| 21> %pal nprocs 16 end
| 22> %maxcore 3800
| 23> %base "TZ_B-Cl_34_AB"
| 24>
| 25> *xyz 0 1
| 26> Cl        -1.782076   -1.512190   -0.000002
| 27> Cl        -1.782086    1.512186   -0.000002
| 28> B        -0.909245    0.000001   -0.000003
| 29> N         0.487205    0.000005   -0.000005
| 30> C         1.673177    0.000003    0.000000
| 31> S         3.230467    0.000001    0.000006
| 32> *
| 33>
| 34> $new_job
| 35> ! ri-mp2 aug-cc-pvqz aug-cc-pvqz/c tightscf
| 36> %pal nprocs 16 end
| 37> %maxcore 3800
| 38> %base "QZ_B-Cl_34_AB"
| 39>
| 40> *xyz 0 1
| 41> Cl        -1.782076   -1.512190   -0.000002
| 42> Cl        -1.782086    1.512186   -0.000002
| 43> B        -0.909245    0.000001   -0.000003
| 44> N         0.487205    0.000005   -0.000005
| 45> C         1.673177    0.000003    0.000000
| 46> S         3.230467    0.000001    0.000006
| 47> *
| 48>
| 49>
| 50>
| 51>
| 52>                          ****END OF INPUT****
 Total Charge           Charge          ....    0
 Multiplicity           Mult            ....    1
 Number of Electrons    NEL             ....   68
MP2 TOTAL ENERGY:    -1434.476170420 Eh
FINAL SINGLE POINT ENERGY     -1434.476170419779
MP2 TOTAL ENERGY:    -1434.741400122 Eh
FINAL SINGLE POINT ENERGY     -1434.741400121670

CARTESIAN COORDINATES (ANGSTROEM)
---------------------------------
  Cl    -1.782076   -1.512190   -0.000002
  Cl    -1.782086    1.512186   -0.000002
  B     -0.909245    0.000001   -0.000003
  N      0.487205    0.000005   -0.000005
  C      1.673177    0.000003    0.000000
  S      3.230467    0.000001    0.000006

 Multiplicity           Mult            ....    1
 Number of Electrons    NEL             ....   68
 Basis Dimension        Dim             ....  492

ORBITAL ENERGIES
----------------

  NO   OCC          E(Eh)            E(eV)
   0   2.0000    -104.856419     -2853.2882
   1   2.0000    -104.856418     -2853.2882
   2   2.0000     -91.976629     -2502.8113
   3   2.0000     -15.618532      -425.0019
   4   2.0000     -11.407381      -310.4106
   5   2.0000     -10.584114      -288.0084
   6   2.0000     -10.584105      -288.0081
   7   2.0000      -8.981305      -244.3937
   8   2.0000      -8.050962      -219.0778
   9   2.0000      -8.050961      -219.0778
  10   2.0000      -8.049793      -219.0460
  11   2.0000      -8.049791      -219.0460
  12   2.0000      -8.049569      -219.0399
  13   2.0000      -8.049568      -219.0399
  14   2.0000      -7.761909      -211.2123
  15   2.0000      -6.663087      -181.3118
  16   2.0000      -6.660746      -181.2481
  17   2.0000      -6.660528      -181.2422
  18   2.0000      -1.311034       -35.6750
  19   2.0000      -1.159411       -31.5492
  20   2.0000      -1.116968       -30.3942
  21   2.0000      -1.069345       -29.0984
  22   2.0000      -0.888886       -24.1878
  23   2.0000      -0.658289       -17.9130
  24   2.0000      -0.638406       -17.3719
  25   2.0000      -0.624460       -16.9924
  26   2.0000      -0.613376       -16.6908
  27   2.0000      -0.555663       -15.1204
  28   2.0000      -0.524182       -14.2637
  29   2.0000      -0.504801       -13.7363
  30   2.0000      -0.482285       -13.1236
  31   2.0000      -0.470254       -12.7963
  32   2.0000      -0.396464       -10.7883
  33   2.0000      -0.388253       -10.5649
  34   0.0000       0.030456         0.8287
  35   0.0000       0.034783         0.9465
  36   0.0000       0.038170         1.0387
  37   0.0000       0.039169         1.0658
  38   0.0000       0.039838         1.0841

MULLIKEN ATOMIC CHARGES
-----------------------
   0 Cl:   -0.199734
   1 Cl:   -0.199735
   2 B :    0.741220
   3 N :   -0.639878
   4 C :    0.122582
   5 S :    0.175547
Sum of atomic charges:    0.0000000

LOEWDIN ATOMIC CHARGES
----------------------
   0 Cl:    1.230253
   1 Cl:    1.230254
   2 B :   -2.647975
   3 N :    0.229175
   4 C :   -1.061424
   5 S :    1.019717

  Mayer bond orders larger than 0.100000
B(  0-Cl,  2-B ) :   1.0308 B(  0-Cl,  3-N ) :   0.1097 B(  1-Cl,  2-B ) :   1.0308
B(  1-Cl,  3-N ) :   0.1097 B(  2-B ,  3-N ) :   1.0015 B(  3-N ,  4-C ) :   2.1565
B(  4-C ,  5-S ) :   1.6350

MP2 TOTAL ENERGY:    -1434.830882372 Eh
FINAL SINGLE POINT ENERGY     -1434.830882371760

DIPOLE MOMENT
-------------
                                X             Y             Z
Electronic contribution:     -5.26095      -0.00000      -0.00001
Nuclear contribution   :      5.23916       0.00000       0.00001
                        -----------------------------------------
Total Dipole Moment    :     -0.02179       0.00000      -0.00000
                        -----------------------------------------
Magnitude (a.u.)       :      0.02179
Magnitude (Debye)      :      0.05538

Rotational constants in cm-1:     0.103969     0.027845     0.021963
Rotational constants in MHz :  3116.901248   834.766642   658.427090

                             ****ORCA TERMINATED NORMALLY****
TOTAL RUN TIME: 0 days 0 hours 22 minutes 23 seconds 124 msec
