                         Program Version 5.0.4 -  RELEASE  -
|  1> ! ri-mp2 aug-cc-pvdz aug-cc-pvdz/c tightscf
|  2> %pal nprocs 16 end
|  3> %maxcore 3800
|  4> %base "DZ_P-Cl_27_AB"
|  5> %scf
|  6> STABPerform true
|  7> STABRestartUHFifUnstable true
|  8> end
|  9>
| 10> *xyz 0 1
| 11> Cl        -2.776302   -0.155326   -0.499686
| 12> O        -0.235382   -2.362128   -0.212978
| 13> O        -0.581509    2.469286    0.014490
| 14> P        -1.257850   -0.046963    0.858409
| 15> N         1.061650    0.886140   -0.025101
| 16> C        -0.207897    1.331889    0.166499
| 17> C        -0.029818   -1.231337    0.109714
| 18> C         1.343512   -0.553128   -0.005184
| 19> C         2.100454    1.833079   -0.375098
| 20> H         2.295222    1.836462   -1.448576
| 21> H         1.766455    2.824336   -0.083840
| 22> C         2.025717   -1.007044   -1.288005
| 23> H         3.037121   -0.607425   -1.350595
| 24> H         2.081033   -2.092897   -1.301864
| 25> H         1.464405   -0.681511   -2.163274
| 26> H         3.022715    1.591534    0.151339
| 27> C         2.164766   -0.947112    1.224449
| 28> H         3.141189   -0.464012    1.200488
| 29> H         2.318227   -2.025103    1.237829
| 30> H         1.661698   -0.654737    2.146389
| 31> *
| 32>
| 33> $new_job
| 34> ! ri-mp2 aug-cc-pvtz aug-cc-pvtz/c tightscf
| 35> %pal nprocs 16 end
| 36> %maxcore 3800
| 37> %base "TZ_P-Cl_27_AB"
| 38>
| 39> *xyz 0 1
| 40> Cl        -2.776302   -0.155326   -0.499686
| 41> O        -0.235382   -2.362128   -0.212978
| 42> O        -0.581509    2.469286    0.014490
| 43> P        -1.257850   -0.046963    0.858409
| 44> N         1.061650    0.886140   -0.025101
| 45> C        -0.207897    1.331889    0.166499
| 46> C        -0.029818   -1.231337    0.109714
| 47> C         1.343512   -0.553128   -0.005184
| 48> C         2.100454    1.833079   -0.375098
| 49> H         2.295222    1.836462   -1.448576
| 50> H         1.766455    2.824336   -0.083840
| 51> C         2.025717   -1.007044   -1.288005
| 52> H         3.037121   -0.607425   -1.350595
| 53> H         2.081033   -2.092897   -1.301864
| 54> H         1.464405   -0.681511   -2.163274
| 55> H         3.022715    1.591534    0.151339
| 56> C         2.164766   -0.947112    1.224449
| 57> H         3.141189   -0.464012    1.200488
| 58> H         2.318227   -2.025103    1.237829
| 59> H         1.661698   -0.654737    2.146389
| 60> *
| 61>
| 62> $new_job
| 63> ! ri-mp2 aug-cc-pvqz aug-cc-pvqz/c tightscf
| 64> %pal nprocs 16 end
| 65> %maxcore 3800
| 66> %base "QZ_P-Cl_27_AB"
| 67>
| 68> *xyz 0 1
| 69> Cl        -2.776302   -0.155326   -0.499686
| 70> O        -0.235382   -2.362128   -0.212978
| 71> O        -0.581509    2.469286    0.014490
| 72> P        -1.257850   -0.046963    0.858409
| 73> N         1.061650    0.886140   -0.025101
| 74> C        -0.207897    1.331889    0.166499
| 75> C        -0.029818   -1.231337    0.109714
| 76> C         1.343512   -0.553128   -0.005184
| 77> C         2.100454    1.833079   -0.375098
| 78> H         2.295222    1.836462   -1.448576
| 79> H         1.766455    2.824336   -0.083840
| 80> C         2.025717   -1.007044   -1.288005
| 81> H         3.037121   -0.607425   -1.350595
| 82> H         2.081033   -2.092897   -1.301864
| 83> H         1.464405   -0.681511   -2.163274
| 84> H         3.022715    1.591534    0.151339
| 85> C         2.164766   -0.947112    1.224449
| 86> H         3.141189   -0.464012    1.200488
| 87> H         2.318227   -2.025103    1.237829
| 88> H         1.661698   -0.654737    2.146389
| 89> *
| 90>
| 91>
| 92>
| 93>
| 94>                          ****END OF INPUT****
 Total Charge           Charge          ....    0
 Multiplicity           Mult            ....    1
 Number of Electrons    NEL             ....  100
MP2 TOTAL ENERGY:    -1238.624330607 Eh
FINAL SINGLE POINT ENERGY     -1238.624330607151
MP2 TOTAL ENERGY:    -1239.107121562 Eh
FINAL SINGLE POINT ENERGY     -1239.107121561940

CARTESIAN COORDINATES (ANGSTROEM)
---------------------------------
  Cl    -2.776302   -0.155326   -0.499686
  O     -0.235382   -2.362128   -0.212978
  O     -0.581509    2.469286    0.014490
  P     -1.257850   -0.046963    0.858409
  N      1.061650    0.886140   -0.025101
  C     -0.207897    1.331889    0.166499
  C     -0.029818   -1.231337    0.109714
  C      1.343512   -0.553128   -0.005184
  C      2.100454    1.833079   -0.375098
  H      2.295222    1.836462   -1.448576
  H      1.766455    2.824336   -0.083840
  C      2.025717   -1.007044   -1.288005
  H      3.037121   -0.607425   -1.350595
  H      2.081033   -2.092897   -1.301864
  H      1.464405   -0.681511   -2.163274
  H      3.022715    1.591534    0.151339
  C      2.164766   -0.947112    1.224449
  H      3.141189   -0.464012    1.200488
  H      2.318227   -2.025103    1.237829
  H      1.661698   -0.654737    2.146389

 Multiplicity           Mult            ....    1
 Number of Electrons    NEL             ....  100
 Basis Dimension        Dim             .... 1302

ORBITAL ENERGIES
----------------

  NO   OCC          E(Eh)            E(eV)
   0   2.0000    -104.851925     -2853.1659
   1   2.0000     -80.017129     -2177.3768
   2   2.0000     -20.587155      -560.2050
   3   2.0000     -20.540953      -558.9478
   4   2.0000     -15.612785      -424.8455
   5   2.0000     -11.368483      -309.3522
   6   2.0000     -11.360042      -309.1225
   7   2.0000     -11.315514      -307.9108
   8   2.0000     -11.274602      -306.7975
   9   2.0000     -11.250325      -306.1369
  10   2.0000     -11.241869      -305.9068
  11   2.0000     -10.577836      -287.8375
  12   2.0000      -8.044743      -218.9086
  13   2.0000      -8.043120      -218.8644
  14   2.0000      -8.043016      -218.8616
  15   2.0000      -7.556241      -205.6158
  16   2.0000      -5.449761      -148.2955
  17   2.0000      -5.448965      -148.2739
  18   2.0000      -5.448267      -148.2549
  19   2.0000      -1.434852       -39.0443
  20   2.0000      -1.409277       -38.3484
  21   2.0000      -1.289430       -35.0872
  22   2.0000      -1.132192       -30.8085
  23   2.0000      -1.099645       -29.9229
  24   2.0000      -1.012435       -27.5498
  25   2.0000      -0.974155       -26.5081
  26   2.0000      -0.911459       -24.8021
  27   2.0000      -0.877006       -23.8645
  28   2.0000      -0.789515       -21.4838
  29   2.0000      -0.742879       -20.2148
  30   2.0000      -0.686683       -18.6856
  31   2.0000      -0.676006       -18.3951
  32   2.0000      -0.665953       -18.1215
  33   2.0000      -0.649221       -17.6662
  34   2.0000      -0.637988       -17.3605
  35   2.0000      -0.614056       -16.7093
  36   2.0000      -0.597509       -16.2590
  37   2.0000      -0.580656       -15.8004
  38   2.0000      -0.572679       -15.5834
  39   2.0000      -0.567725       -15.4486
  40   2.0000      -0.558122       -15.1873
  41   2.0000      -0.552229       -15.0269
  42   2.0000      -0.542766       -14.7694
  43   2.0000      -0.527201       -14.3459
  44   2.0000      -0.496918       -13.5218
  45   2.0000      -0.486620       -13.2416
  46   2.0000      -0.478220       -13.0130
  47   2.0000      -0.402033       -10.9399
  48   2.0000      -0.396770       -10.7967
  49   2.0000      -0.380375       -10.3505
  50   0.0000       0.018338         0.4990
  51   0.0000       0.026668         0.7257
  52   0.0000       0.030220         0.8223
  53   0.0000       0.034968         0.9515
  54   0.0000       0.046580         1.2675

MULLIKEN ATOMIC CHARGES
-----------------------
   0 Cl:   -0.503054
   1 O :   -0.906536
   2 O :   -0.963002
   3 P :    0.820079
   4 N :   -0.396205
   5 C :    1.003446
   6 C :    0.758938
   7 C :    0.926381
   8 C :   -1.079008
   9 H :    0.322789
  10 H :    0.324992
  11 C :   -1.026832
  12 H :    0.200650
  13 H :    0.298464
  14 H :    0.218386
  15 H :    0.273697
  16 C :   -1.095451
  17 H :    0.245645
  18 H :    0.327592
  19 H :    0.249029
Sum of atomic charges:    0.0000000

LOEWDIN ATOMIC CHARGES
----------------------
   0 Cl:    0.782679
   1 O :    0.684523
   2 O :    0.626117
   3 P :    0.174022
   4 N :    0.324537
   5 C :   -1.119435
   6 C :   -0.952470
   7 C :   -0.579860
   8 C :    0.771437
   9 H :   -0.266243
  10 H :   -0.329386
  11 C :    0.894953
  12 H :   -0.276431
  13 H :   -0.288404
  14 H :   -0.258104
  15 H :   -0.286621
  16 C :    0.912139
  17 H :   -0.277445
  18 H :   -0.268360
  19 H :   -0.267648

  Mayer bond orders larger than 0.100000
B(  0-Cl,  3-P ) :   0.8175 B(  1-O ,  6-C ) :   0.7289 B(  1-O ,  7-C ) :   0.3657
B(  2-O ,  4-N ) :   0.3661 B(  2-O ,  5-C ) :   0.8619 B(  3-P ,  5-C ) :   0.8511
B(  3-P ,  6-C ) :   0.9739 B(  4-N ,  5-C ) :   1.5095 B(  4-N ,  6-C ) :  -0.1102
B(  4-N ,  7-C ) :   0.2849 B(  4-N ,  8-C ) :   0.7053 B(  5-C ,  7-C ) :  -0.1798
B(  6-C ,  7-C ) :   0.9721 B(  7-C ,  8-C ) :  -0.1524 B(  7-C , 11-C ) :   0.4052
B(  7-C , 12-H ) :  -0.1059 B(  7-C , 14-H ) :  -0.1498 B(  7-C , 16-C ) :   0.6133
B(  7-C , 19-H ) :  -0.1208 B(  8-C ,  9-H ) :   0.9914 B(  8-C , 10-H ) :   0.9558
B(  8-C , 15-H ) :   0.9813 B( 11-C , 12-H ) :   1.0602 B( 11-C , 13-H ) :   0.9513
B( 11-C , 14-H ) :   1.0650 B( 11-C , 16-C ) :   0.1527 B( 16-C , 17-H ) :   0.9805
B( 16-C , 18-H ) :   0.9210 B( 16-C , 19-H ) :   1.0567

MP2 TOTAL ENERGY:    -1239.263832358 Eh
FINAL SINGLE POINT ENERGY     -1239.263832357693

DIPOLE MOMENT
-------------
                                X             Y             Z
Electronic contribution:    -23.32560      -0.28666       1.89161
Nuclear contribution   :     25.17870       0.00047      -1.66688
                        -----------------------------------------
Total Dipole Moment    :      1.85310      -0.28619       0.22473
                        -----------------------------------------
Magnitude (a.u.)       :      1.88849
Magnitude (Debye)      :      4.80016

Rotational constants in cm-1:     0.040157     0.025393     0.018675
Rotational constants in MHz :  1203.872755   761.264196   559.874640

                             ****ORCA TERMINATED NORMALLY****
TOTAL RUN TIME: 0 days 5 hours 6 minutes 19 seconds 501 msec
