                         Program Version 5.0.4 -  RELEASE  -
|  1> ! ri-mp2 aug-cc-pvdz aug-cc-pvdz/c tightscf
|  2> %pal nprocs 16 end
|  3> %maxcore 3800
|  4> %base "DZ_P-N_57_AB"
|  5> %scf
|  6> STABPerform true
|  7> STABRestartUHFifUnstable true
|  8> end
|  9>
| 10> *xyz 0 1
| 11> C         1.315368    0.351029   -0.000019
| 12> N         0.033386    0.821078   -0.000085
| 13> P        -1.396885   -0.148394   -0.000024
| 14> O         1.614227   -0.813331    0.000159
| 15> H         2.067942    1.158172   -0.000143
| 16> H        -1.037828   -1.050247    1.026166
| 17> H        -1.037728   -1.050537   -1.025926
| 18> H        -0.078837    1.821446   -0.000297
| 19> *
| 20>
| 21> $new_job
| 22> ! ri-mp2 aug-cc-pvtz aug-cc-pvtz/c tightscf
| 23> %pal nprocs 16 end
| 24> %maxcore 3800
| 25> %base "TZ_P-N_57_AB"
| 26>
| 27> *xyz 0 1
| 28> C         1.315368    0.351029   -0.000019
| 29> N         0.033386    0.821078   -0.000085
| 30> P        -1.396885   -0.148394   -0.000024
| 31> O         1.614227   -0.813331    0.000159
| 32> H         2.067942    1.158172   -0.000143
| 33> H        -1.037828   -1.050247    1.026166
| 34> H        -1.037728   -1.050537   -1.025926
| 35> H        -0.078837    1.821446   -0.000297
| 36> *
| 37>
| 38> $new_job
| 39> ! ri-mp2 aug-cc-pvqz aug-cc-pvqz/c tightscf
| 40> %pal nprocs 16 end
| 41> %maxcore 3800
| 42> %base "QZ_P-N_57_AB"
| 43>
| 44> *xyz 0 1
| 45> C         1.315368    0.351029   -0.000019
| 46> N         0.033386    0.821078   -0.000085
| 47> P        -1.396885   -0.148394   -0.000024
| 48> O         1.614227   -0.813331    0.000159
| 49> H         2.067942    1.158172   -0.000143
| 50> H        -1.037828   -1.050247    1.026166
| 51> H        -1.037728   -1.050537   -1.025926
| 52> H        -0.078837    1.821446   -0.000297
| 53> *
| 54>
| 55>
| 56>
| 57>
| 58>                          ****END OF INPUT****
 Total Charge           Charge          ....    0
 Multiplicity           Mult            ....    1
 Number of Electrons    NEL             ....   40
MP2 TOTAL ENERGY:     -510.910702634 Eh
FINAL SINGLE POINT ENERGY      -510.910702634221
MP2 TOTAL ENERGY:     -511.102950254 Eh
FINAL SINGLE POINT ENERGY      -511.102950253739

CARTESIAN COORDINATES (ANGSTROEM)
---------------------------------
  C      1.315368    0.351029   -0.000019
  N      0.033386    0.821078   -0.000085
  P     -1.396885   -0.148394   -0.000024
  O      1.614227   -0.813331    0.000159
  H      2.067942    1.158172   -0.000143
  H     -1.037828   -1.050247    1.026166
  H     -1.037728   -1.050537   -1.025926
  H     -0.078837    1.821446   -0.000297

 Multiplicity           Mult            ....    1
 Number of Electrons    NEL             ....   40
 Basis Dimension        Dim             ....  508

ORBITAL ENERGIES
----------------

  NO   OCC          E(Eh)            E(eV)
   0   2.0000     -79.973764     -2176.1967
   1   2.0000     -20.539330      -558.9036
   2   2.0000     -15.597232      -424.4223
   3   2.0000     -11.359739      -309.1142
   4   2.0000      -7.513284      -204.4468
   5   2.0000      -5.407549      -147.1469
   6   2.0000      -5.406831      -147.1274
   7   2.0000      -5.406224      -147.1108
   8   2.0000      -1.402737       -38.1704
   9   2.0000      -1.227826       -33.4108
  10   2.0000      -0.899059       -24.4646
  11   2.0000      -0.800992       -21.7961
  12   2.0000      -0.738572       -20.0976
  13   2.0000      -0.649910       -17.6850
  14   2.0000      -0.604384       -16.4461
  15   2.0000      -0.585224       -15.9247
  16   2.0000      -0.523602       -14.2479
  17   2.0000      -0.446791       -12.1578
  18   2.0000      -0.423244       -11.5170
  19   2.0000      -0.392826       -10.6893
  20   0.0000       0.019917         0.5420
  21   0.0000       0.034697         0.9442
  22   0.0000       0.040700         1.1075
  23   0.0000       0.049585         1.3493
  24   0.0000       0.060079         1.6348

MULLIKEN ATOMIC CHARGES
-----------------------
   0 C :    0.236357
   1 N :   -0.605712
   2 P :    0.437164
   3 O :   -0.712109
   4 H :    0.516724
   5 H :   -0.044162
   6 H :   -0.044166
   7 H :    0.215904
Sum of atomic charges:    0.0000000

LOEWDIN ATOMIC CHARGES
----------------------
   0 C :   -0.564596
   1 N :    0.496389
   2 P :    1.360867
   3 O :    0.654110
   4 H :   -0.368364
   5 H :   -0.475235
   6 H :   -0.475235
   7 H :   -0.627934

  Mayer bond orders larger than 0.100000
B(  0-C ,  1-N ) :   1.2041 B(  0-C ,  3-O ) :   1.6815 B(  0-C ,  4-H ) :   0.7216
B(  1-N ,  2-P ) :   0.7566 B(  1-N ,  3-O ) :   0.1017 B(  1-N ,  7-H ) :   1.0007
B(  2-P ,  5-H ) :   0.9186 B(  2-P ,  6-H ) :   0.9186

MP2 TOTAL ENERGY:     -511.165702995 Eh
FINAL SINGLE POINT ENERGY      -511.165702995397

DIPOLE MOMENT
-------------
                                X             Y             Z
Electronic contribution:     -1.57366       0.19017      -0.00005
Nuclear contribution   :      1.23823       0.98719      -0.00017
                        -----------------------------------------
Total Dipole Moment    :     -0.33543       1.17736      -0.00023
                        -----------------------------------------
Magnitude (a.u.)       :      1.22421
Magnitude (Debye)      :      3.11169

Rotational constants in cm-1:     0.543049     0.128009     0.106365
Rotational constants in MHz : 16280.214015  3837.619073  3188.741819

                             ****ORCA TERMINATED NORMALLY****
TOTAL RUN TIME: 0 days 0 hours 13 minutes 41 seconds 601 msec
