                         Program Version 5.0.4 -  RELEASE  -
|  1> ! ri-mp2 aug-cc-pvdz aug-cc-pvdz/c tightscf
|  2> %pal nprocs 16 end
|  3> %maxcore 3800
|  4> %base "DZ_B-Si_25_AB"
|  5> %scf
|  6> STABPerform true
|  7> STABRestartUHFifUnstable true
|  8> end
|  9>
| 10> *xyz 0 1
| 11> N        -1.417309    0.831321   -0.000020
| 12> F        -0.984745    1.593758    1.095132
| 13> F        -0.984728    1.593732   -1.095185
| 14> Si        -0.356487   -0.664334    0.000005
| 15> C        -0.820501   -1.553695   -1.557866
| 16> H        -1.888470   -1.773098   -1.577169
| 17> H        -0.280172   -2.498981   -1.632172
| 18> H        -0.575273   -0.956355   -2.435470
| 19> C        -0.820524   -1.553657    1.557891
| 20> H        -1.888493   -1.773059    1.577185
| 21> H        -0.575308   -0.956296    2.435485
| 22> H        -0.280197   -2.498941    1.632229
| 23> B         1.568828   -0.001098    0.000011
| 24> F         2.229278    0.216702    1.120227
| 25> F         2.229296    0.216671   -1.120200
| 26> *
| 27>
| 28> $new_job
| 29> ! ri-mp2 aug-cc-pvtz aug-cc-pvtz/c tightscf
| 30> %pal nprocs 16 end
| 31> %maxcore 3800
| 32> %base "TZ_B-Si_25_AB"
| 33>
| 34> *xyz 0 1
| 35> N        -1.417309    0.831321   -0.000020
| 36> F        -0.984745    1.593758    1.095132
| 37> F        -0.984728    1.593732   -1.095185
| 38> Si        -0.356487   -0.664334    0.000005
| 39> C        -0.820501   -1.553695   -1.557866
| 40> H        -1.888470   -1.773098   -1.577169
| 41> H        -0.280172   -2.498981   -1.632172
| 42> H        -0.575273   -0.956355   -2.435470
| 43> C        -0.820524   -1.553657    1.557891
| 44> H        -1.888493   -1.773059    1.577185
| 45> H        -0.575308   -0.956296    2.435485
| 46> H        -0.280197   -2.498941    1.632229
| 47> B         1.568828   -0.001098    0.000011
| 48> F         2.229278    0.216702    1.120227
| 49> F         2.229296    0.216671   -1.120200
| 50> *
| 51>
| 52> $new_job
| 53> ! ri-mp2 aug-cc-pvqz aug-cc-pvqz/c tightscf
| 54> %pal nprocs 16 end
| 55> %maxcore 3800
| 56> %base "QZ_B-Si_25_AB"
| 57>
| 58> *xyz 0 1
| 59> N        -1.417309    0.831321   -0.000020
| 60> F        -0.984745    1.593758    1.095132
| 61> F        -0.984728    1.593732   -1.095185
| 62> Si        -0.356487   -0.664334    0.000005
| 63> C        -0.820501   -1.553695   -1.557866
| 64> H        -1.888470   -1.773098   -1.577169
| 65> H        -0.280172   -2.498981   -1.632172
| 66> H        -0.575273   -0.956355   -2.435470
| 67> C        -0.820524   -1.553657    1.557891
| 68> H        -1.888493   -1.773059    1.577185
| 69> H        -0.575308   -0.956296    2.435485
| 70> H        -0.280197   -2.498941    1.632229
| 71> B         1.568828   -0.001098    0.000011
| 72> F         2.229278    0.216702    1.120227
| 73> F         2.229296    0.216671   -1.120200
| 74> *
| 75>
| 76>
| 77>
| 78>
| 79>                          ****END OF INPUT****
 Total Charge           Charge          ....    0
 Multiplicity           Mult            ....    1
 Number of Electrons    NEL             ....   80
MP2 TOTAL ENERGY:     -846.583591904 Eh
FINAL SINGLE POINT ENERGY      -846.583591904271
MP2 TOTAL ENERGY:     -847.102150268 Eh
FINAL SINGLE POINT ENERGY      -847.102150267880

CARTESIAN COORDINATES (ANGSTROEM)
---------------------------------
  N     -1.417309    0.831321   -0.000020
  F     -0.984745    1.593758    1.095132
  F     -0.984728    1.593732   -1.095185
  Si    -0.356487   -0.664334    0.000005
  C     -0.820501   -1.553695   -1.557866
  H     -1.888470   -1.773098   -1.577169
  H     -0.280172   -2.498981   -1.632172
  H     -0.575273   -0.956355   -2.435470
  C     -0.820524   -1.553657    1.557891
  H     -1.888493   -1.773059    1.577185
  H     -0.575308   -0.956296    2.435485
  H     -0.280197   -2.498941    1.632229
  B      1.568828   -0.001098    0.000011
  F      2.229278    0.216702    1.120227
  F      2.229296    0.216671   -1.120200

 Multiplicity           Mult            ....    1
 Number of Electrons    NEL             ....   80
 Basis Dimension        Dim             .... 1000

ORBITAL ENERGIES
----------------

  NO   OCC          E(Eh)            E(eV)
   0   2.0000     -68.802448     -1872.2098
   1   2.0000     -26.330158      -716.4800
   2   2.0000     -26.330139      -716.4795
   3   2.0000     -26.320403      -716.2146
   4   2.0000     -26.320386      -716.2141
   5   2.0000     -15.729263      -428.0150
   6   2.0000     -11.227119      -305.5054
   7   2.0000     -11.227111      -305.5052
   8   2.0000      -7.718461      -210.0300
   9   2.0000      -6.152096      -167.4070
  10   2.0000      -4.258889      -115.8902
  11   2.0000      -4.257831      -115.8615
  12   2.0000      -4.257824      -115.8613
  13   2.0000      -1.673506       -45.5384
  14   2.0000      -1.654367       -45.0176
  15   2.0000      -1.621223       -44.1157
  16   2.0000      -1.593753       -43.3682
  17   2.0000      -1.085524       -29.5386
  18   2.0000      -0.985019       -26.8037
  19   2.0000      -0.958398       -26.0793
  20   2.0000      -0.832378       -22.6502
  21   2.0000      -0.789775       -21.4909
  22   2.0000      -0.768890       -20.9226
  23   2.0000      -0.750935       -20.4340
  24   2.0000      -0.748979       -20.3807
  25   2.0000      -0.739455       -20.1216
  26   2.0000      -0.719759       -19.5856
  27   2.0000      -0.678876       -18.4731
  28   2.0000      -0.665720       -18.1152
  29   2.0000      -0.659641       -17.9497
  30   2.0000      -0.649898       -17.6846
  31   2.0000      -0.633779       -17.2460
  32   2.0000      -0.603966       -16.4347
  33   2.0000      -0.590299       -16.0628
  34   2.0000      -0.573773       -15.6132
  35   2.0000      -0.571940       -15.5633
  36   2.0000      -0.556704       -15.1487
  37   2.0000      -0.476272       -12.9600
  38   2.0000      -0.468048       -12.7362
  39   2.0000      -0.443227       -12.0608
  40   0.0000       0.017093         0.4651
  41   0.0000       0.029191         0.7943
  42   0.0000       0.031937         0.8691
  43   0.0000       0.036248         0.9864
  44   0.0000       0.047909         1.3037

MULLIKEN ATOMIC CHARGES
-----------------------
   0 N :    0.199778
   1 F :   -0.462733
   2 F :   -0.462733
   3 Si:    1.496626
   4 C :   -1.120300
   5 H :    0.273554
   6 H :    0.253812
   7 H :    0.289544
   8 C :   -1.120301
   9 H :    0.273554
  10 H :    0.289543
  11 H :    0.253812
  12 B :    1.548141
  13 F :   -0.856149
  14 F :   -0.856148
Sum of atomic charges:   -0.0000000

LOEWDIN ATOMIC CHARGES
----------------------
   0 N :   -0.634985
   1 F :    0.421678
   2 F :    0.421677
   3 Si:    0.004275
   4 C :    0.958470
   5 H :   -0.336463
   6 H :   -0.338553
   7 H :   -0.344155
   8 C :    0.958470
   9 H :   -0.336464
  10 H :   -0.344154
  11 H :   -0.338554
  12 B :   -1.620774
  13 F :    0.764766
  14 F :    0.764767

  Mayer bond orders larger than 0.100000
B(  0-N ,  1-F ) :   0.6748 B(  0-N ,  2-F ) :   0.6748 B(  0-N ,  3-Si) :   0.4839
B(  1-F ,  3-Si) :  -0.1204 B(  2-F ,  3-Si) :  -0.1204 B(  3-Si,  4-C ) :   0.8463
B(  3-Si,  8-C ) :   0.8463 B(  3-Si, 12-B ) :   0.9179 B(  4-C ,  5-H ) :   0.9381
B(  4-C ,  6-H ) :   0.9546 B(  4-C ,  7-H ) :   0.9533 B(  8-C ,  9-H ) :   0.9381
B(  8-C , 10-H ) :   0.9533 B(  8-C , 11-H ) :   0.9546 B( 12-B , 13-F ) :   0.1254
B( 12-B , 14-F ) :   0.1254

MP2 TOTAL ENERGY:     -847.268312525 Eh
FINAL SINGLE POINT ENERGY      -847.268312525207

DIPOLE MOMENT
-------------
                                X             Y             Z
Electronic contribution:      8.50320      11.68870      -0.00008
Nuclear contribution   :     -8.69252     -13.21941       0.00010
                        -----------------------------------------
Total Dipole Moment    :     -0.18932      -1.53071       0.00002
                        -----------------------------------------
Magnitude (a.u.)       :      1.54237
Magnitude (Debye)      :      3.92040

Rotational constants in cm-1:     0.045500     0.034913     0.033344
Rotational constants in MHz :  1364.043084  1046.652662   999.639770

                             ****ORCA TERMINATED NORMALLY****
TOTAL RUN TIME: 0 days 1 hours 47 minutes 41 seconds 236 msec
