                         Program Version 5.0.4 -  RELEASE  -
|  1> ! ri-mp2 aug-cc-pvdz aug-cc-pvdz/c tightscf
|  2> %pal nprocs 16 end
|  3> %maxcore 3800
|  4> %base "DZ_Si-Cl_92_AB"
|  5> %scf
|  6> STABPerform true
|  7> STABRestartUHFifUnstable true
|  8> end
|  9>
| 10> *xyz 0 1
| 11> C         0.960496    0.000000   -0.437811
| 12> Si        -0.708751    0.000000    0.438163
| 13> Cl         1.852769    1.467829    0.019714
| 14> Cl         1.852769   -1.467829    0.019717
| 15> Cl        -1.741120    1.658083   -0.133714
| 16> Cl        -1.741120   -1.658083   -0.133716
| 17> H         0.872563   -0.000001   -1.519357
| 18> H        -0.509098   -0.000001    1.887934
| 19> *
| 20>
| 21> $new_job
| 22> ! ri-mp2 aug-cc-pvtz aug-cc-pvtz/c tightscf
| 23> %pal nprocs 16 end
| 24> %maxcore 3800
| 25> %base "TZ_Si-Cl_92_AB"
| 26>
| 27> *xyz 0 1
| 28> C         0.960496    0.000000   -0.437811
| 29> Si        -0.708751    0.000000    0.438163
| 30> Cl         1.852769    1.467829    0.019714
| 31> Cl         1.852769   -1.467829    0.019717
| 32> Cl        -1.741120    1.658083   -0.133714
| 33> Cl        -1.741120   -1.658083   -0.133716
| 34> H         0.872563   -0.000001   -1.519357
| 35> H        -0.509098   -0.000001    1.887934
| 36> *
| 37>
| 38> $new_job
| 39> ! ri-mp2 aug-cc-pvqz aug-cc-pvqz/c tightscf
| 40> %pal nprocs 16 end
| 41> %maxcore 3800
| 42> %base "QZ_Si-Cl_92_AB"
| 43>
| 44> *xyz 0 1
| 45> C         0.960496    0.000000   -0.437811
| 46> Si        -0.708751    0.000000    0.438163
| 47> Cl         1.852769    1.467829    0.019714
| 48> Cl         1.852769   -1.467829    0.019717
| 49> Cl        -1.741120    1.658083   -0.133714
| 50> Cl        -1.741120   -1.658083   -0.133716
| 51> H         0.872563   -0.000001   -1.519357
| 52> H        -0.509098   -0.000001    1.887934
| 53> *
| 54>
| 55>
| 56>
| 57>
| 58>                          ****END OF INPUT****
 Total Charge           Charge          ....    0
 Multiplicity           Mult            ....    1
 Number of Electrons    NEL             ....   90
MP2 TOTAL ENERGY:    -2166.921326395 Eh
FINAL SINGLE POINT ENERGY     -2166.921326395057
MP2 TOTAL ENERGY:    -2167.240088591 Eh
FINAL SINGLE POINT ENERGY     -2167.240088591463

CARTESIAN COORDINATES (ANGSTROEM)
---------------------------------
  C      0.960496    0.000000   -0.437811
  Si    -0.708751    0.000000    0.438163
  Cl     1.852769    1.467829    0.019714
  Cl     1.852769   -1.467829    0.019717
  Cl    -1.741120    1.658083   -0.133714
  Cl    -1.741120   -1.658083   -0.133716
  H      0.872563   -0.000001   -1.519357
  H     -0.509098   -0.000001    1.887934

 Multiplicity           Mult            ....    1
 Number of Electrons    NEL             ....   90
 Basis Dimension        Dim             ....  592

ORBITAL ENERGIES
----------------

  NO   OCC          E(Eh)            E(eV)
   0   2.0000    -104.859870     -2853.3821
   1   2.0000    -104.859869     -2853.3821
   2   2.0000    -104.851047     -2853.1420
   3   2.0000    -104.851047     -2853.1420
   4   2.0000     -68.877554     -1874.2535
   5   2.0000     -11.364868      -309.2538
   6   2.0000     -10.585384      -288.0429
   7   2.0000     -10.585376      -288.0427
   8   2.0000     -10.578647      -287.8596
   9   2.0000     -10.578642      -287.8595
  10   2.0000      -8.052410      -219.1172
  11   2.0000      -8.052408      -219.1172
  12   2.0000      -8.050568      -219.0671
  13   2.0000      -8.050568      -219.0671
  14   2.0000      -8.050488      -219.0649
  15   2.0000      -8.050487      -219.0649
  16   2.0000      -8.045429      -218.9272
  17   2.0000      -8.045427      -218.9272
  18   2.0000      -8.044244      -218.8950
  19   2.0000      -8.044243      -218.8950
  20   2.0000      -8.044233      -218.8947
  21   2.0000      -8.044233      -218.8947
  22   2.0000      -6.218303      -169.2086
  23   2.0000      -4.325630      -117.7064
  24   2.0000      -4.324757      -117.6826
  25   2.0000      -4.323975      -117.6613
  26   2.0000      -1.203547       -32.7502
  27   2.0000      -1.137026       -30.9401
  28   2.0000      -1.112893       -30.2834
  29   2.0000      -1.103958       -30.0402
  30   2.0000      -0.898639       -24.4532
  31   2.0000      -0.737197       -20.0602
  32   2.0000      -0.649555       -17.6753
  33   2.0000      -0.605373       -16.4730
  34   2.0000      -0.601736       -16.3741
  35   2.0000      -0.568288       -15.4639
  36   2.0000      -0.561394       -15.2763
  37   2.0000      -0.503752       -13.7078
  38   2.0000      -0.493447       -13.4274
  39   2.0000      -0.489406       -13.3174
  40   2.0000      -0.488451       -13.2914
  41   2.0000      -0.475554       -12.9405
  42   2.0000      -0.473494       -12.8844
  43   2.0000      -0.452973       -12.3260
  44   2.0000      -0.431960       -11.7542
  45   0.0000       0.028250         0.7687
  46   0.0000       0.035070         0.9543
  47   0.0000       0.040658         1.1064
  48   0.0000       0.041068         1.1175
  49   0.0000       0.057649         1.5687

MULLIKEN ATOMIC CHARGES
-----------------------
   0 C :   -0.149060
   1 Si:    1.649823
   2 Cl:   -0.259491
   3 Cl:   -0.259492
   4 Cl:   -0.576852
   5 Cl:   -0.576852
   6 H :    0.360234
   7 H :   -0.188308
Sum of atomic charges:    0.0000000

LOEWDIN ATOMIC CHARGES
----------------------
   0 C :   -1.438703
   1 Si:   -1.536495
   2 Cl:    1.049889
   3 Cl:    1.049888
   4 Cl:    0.910364
   5 Cl:    0.910364
   6 H :   -0.623030
   7 H :   -0.322278

  Mayer bond orders larger than 0.100000
B(  0-C ,  1-Si) :   0.7463 B(  0-C ,  2-Cl) :   0.8154 B(  0-C ,  3-Cl) :   0.8154
B(  0-C ,  6-H ) :   0.7831 B(  1-Si,  4-Cl) :   0.5447 B(  1-Si,  5-Cl) :   0.5447
B(  1-Si,  7-H ) :   0.9422

MP2 TOTAL ENERGY:    -2167.347220484 Eh
FINAL SINGLE POINT ENERGY     -2167.347220484153

DIPOLE MOMENT
-------------
                                X             Y             Z
Electronic contribution:     -0.16850       0.00000      -0.70734
Nuclear contribution   :      0.07998      -0.00000       0.61404
                        -----------------------------------------
Total Dipole Moment    :     -0.08852       0.00000      -0.09330
                        -----------------------------------------
Magnitude (a.u.)       :      0.12861
Magnitude (Debye)      :      0.32689

Rotational constants in cm-1:     0.046492     0.033750     0.020254
Rotational constants in MHz :  1393.789882  1011.813007   607.210081

                             ****ORCA TERMINATED NORMALLY****
TOTAL RUN TIME: 0 days 0 hours 36 minutes 12 seconds 519 msec
