                         Program Version 5.0.4 -  RELEASE  -
|  1> ! ri-mp2 aug-cc-pvdz aug-cc-pvdz/c tightscf
|  2> %pal nprocs 16 end
|  3> %maxcore 3800
|  4> %base "DZ_Si-Si_94_AB"
|  5> %scf
|  6> STABPerform true
|  7> STABRestartUHFifUnstable true
|  8> end
|  9>
| 10> *xyz 0 1
| 11> Si        -1.774954   -0.797501   -0.050240
| 12> Si        -0.405414    1.087132    0.160201
| 13> H        -3.142291   -0.381213    0.331932
| 14> H        -1.306855   -1.869816    0.848858
| 15> H        -1.767577   -1.261038   -1.452596
| 16> O         1.170674    0.740911   -0.393864
| 17> H        -0.280082    1.542305    1.559173
| 18> H        -0.804742    2.210458   -0.703174
| 19> C         1.853542   -0.288077   -0.069607
| 20> N         2.477151   -1.213479    0.206415
| 21> *
| 22>
| 23> $new_job
| 24> ! ri-mp2 aug-cc-pvtz aug-cc-pvtz/c tightscf
| 25> %pal nprocs 16 end
| 26> %maxcore 3800
| 27> %base "TZ_Si-Si_94_AB"
| 28>
| 29> *xyz 0 1
| 30> Si        -1.774954   -0.797501   -0.050240
| 31> Si        -0.405414    1.087132    0.160201
| 32> H        -3.142291   -0.381213    0.331932
| 33> H        -1.306855   -1.869816    0.848858
| 34> H        -1.767577   -1.261038   -1.452596
| 35> O         1.170674    0.740911   -0.393864
| 36> H        -0.280082    1.542305    1.559173
| 37> H        -0.804742    2.210458   -0.703174
| 38> C         1.853542   -0.288077   -0.069607
| 39> N         2.477151   -1.213479    0.206415
| 40> *
| 41>
| 42> $new_job
| 43> ! ri-mp2 aug-cc-pvqz aug-cc-pvqz/c tightscf
| 44> %pal nprocs 16 end
| 45> %maxcore 3800
| 46> %base "QZ_Si-Si_94_AB"
| 47>
| 48> *xyz 0 1
| 49> Si        -1.774954   -0.797501   -0.050240
| 50> Si        -0.405414    1.087132    0.160201
| 51> H        -3.142291   -0.381213    0.331932
| 52> H        -1.306855   -1.869816    0.848858
| 53> H        -1.767577   -1.261038   -1.452596
| 54> O         1.170674    0.740911   -0.393864
| 55> H        -0.280082    1.542305    1.559173
| 56> H        -0.804742    2.210458   -0.703174
| 57> C         1.853542   -0.288077   -0.069607
| 58> N         2.477151   -1.213479    0.206415
| 59> *
| 60>
| 61>
| 62>
| 63>
| 64>                          ****END OF INPUT****
 Total Charge           Charge          ....    0
 Multiplicity           Mult            ....    1
 Number of Electrons    NEL             ....   54
MP2 TOTAL ENERGY:     -748.664647995 Eh
FINAL SINGLE POINT ENERGY      -748.664647994829
MP2 TOTAL ENERGY:     -748.882253160 Eh
FINAL SINGLE POINT ENERGY      -748.882253160219

CARTESIAN COORDINATES (ANGSTROEM)
---------------------------------
  Si    -1.774954   -0.797501   -0.050240
  Si    -0.405414    1.087132    0.160201
  H     -3.142291   -0.381213    0.331932
  H     -1.306855   -1.869816    0.848858
  H     -1.767577   -1.261038   -1.452596
  O      1.170674    0.740911   -0.393864
  H     -0.280082    1.542305    1.559173
  H     -0.804742    2.210458   -0.703174
  C      1.853542   -0.288077   -0.069607
  N      2.477151   -1.213479    0.206415

 Multiplicity           Mult            ....    1
 Number of Electrons    NEL             ....   54
 Basis Dimension        Dim             ....  638

ORBITAL ENERGIES
----------------

  NO   OCC          E(Eh)            E(eV)
   0   2.0000     -68.835938     -1873.1211
   1   2.0000     -68.791254     -1871.9052
   2   2.0000     -20.648365      -561.8706
   3   2.0000     -15.560309      -423.4175
   4   2.0000     -11.335712      -308.4604
   5   2.0000      -6.181504      -168.2073
   6   2.0000      -6.142451      -167.1446
   7   2.0000      -4.288455      -116.6948
   8   2.0000      -4.287362      -116.6650
   9   2.0000      -4.287164      -116.6597
  10   2.0000      -4.248730      -115.6138
  11   2.0000      -4.248494      -115.6074
  12   2.0000      -4.248388      -115.6045
  13   2.0000      -1.473816       -40.1046
  14   2.0000      -1.216739       -33.1091
  15   2.0000      -0.874303       -23.7910
  16   2.0000      -0.762780       -20.7563
  17   2.0000      -0.700134       -19.0516
  18   2.0000      -0.674328       -18.3494
  19   2.0000      -0.644818       -17.5464
  20   2.0000      -0.560840       -15.2612
  21   2.0000      -0.526903       -14.3378
  22   2.0000      -0.509558       -13.8658
  23   2.0000      -0.501591       -13.6490
  24   2.0000      -0.460321       -12.5260
  25   2.0000      -0.449439       -12.2299
  26   2.0000      -0.425404       -11.5758
  27   0.0000       0.020495         0.5577
  28   0.0000       0.025548         0.6952
  29   0.0000       0.033325         0.9068
  30   0.0000       0.036535         0.9942
  31   0.0000       0.045932         1.2499

MULLIKEN ATOMIC CHARGES
-----------------------
   0 Si:    0.327975
   1 Si:    1.041134
   2 H :   -0.157064
   3 H :   -0.113337
   4 H :   -0.121242
   5 O :   -0.783433
   6 H :   -0.194745
   7 H :   -0.193641
   8 C :    0.876618
   9 N :   -0.682265
Sum of atomic charges:   -0.0000000

LOEWDIN ATOMIC CHARGES
----------------------
   0 Si:    1.074722
   1 Si:    0.446087
   2 H :   -0.317571
   3 H :   -0.305977
   4 H :   -0.308286
   5 O :    0.552371
   6 H :   -0.267772
   7 H :   -0.277548
   8 C :   -0.925265
   9 N :    0.329240

  Mayer bond orders larger than 0.100000
B(  0-Si,  1-Si) :   0.8261 B(  0-Si,  2-H ) :   0.7814 B(  0-Si,  3-H ) :   0.7878
B(  0-Si,  4-H ) :   0.7742 B(  1-Si,  5-O ) :   0.3005 B(  1-Si,  6-H ) :   0.8887
B(  1-Si,  7-H ) :   0.8790 B(  5-O ,  8-C ) :   1.1815 B(  8-C ,  9-N ) :   2.6217

MP2 TOTAL ENERGY:     -748.953415514 Eh
FINAL SINGLE POINT ENERGY      -748.953415513760

DIPOLE MOMENT
-------------
                                X             Y             Z
Electronic contribution:      5.41897       0.76715      -0.63479
Nuclear contribution   :     -7.01085       0.22367       0.56246
                        -----------------------------------------
Total Dipole Moment    :     -1.59188       0.99083      -0.07233
                        -----------------------------------------
Magnitude (a.u.)       :      1.87645
Magnitude (Debye)      :      4.76955

Rotational constants in cm-1:     0.162377     0.063086     0.047975
Rotational constants in MHz :  4867.940412  1891.275672  1438.269035

                             ****ORCA TERMINATED NORMALLY****
TOTAL RUN TIME: 0 days 0 hours 27 minutes 38 seconds 283 msec
