                         Program Version 5.0.4 -  RELEASE  -
|  1> ! ri-mp2 aug-cc-pvdz aug-cc-pvdz/c tightscf
|  2> %pal nprocs 16 end
|  3> %maxcore 3800
|  4> %base "DZ_P-F_2_AB"
|  5> %scf
|  6> STABPerform true
|  7> STABRestartUHFifUnstable true
|  8> end
|  9>
| 10> *xyz 0 1
| 11> C        -1.260199    0.280774   -0.058226
| 12> C        -0.770265    1.710947    0.119491
| 13> H        -1.178876    2.091546    1.057740
| 14> H        -1.195419    2.311700   -0.682562
| 15> C         0.770073    1.711034    0.119422
| 16> H         1.195080    2.311762   -0.682728
| 17> H         1.178732    2.091769    1.057594
| 18> C         1.260166    0.280906   -0.058226
| 19> F         0.000117   -2.110520   -0.277084
| 20> P         0.000043   -0.867976    0.706962
| 21> O        -2.273878   -0.043516   -0.599736
| 22> O         2.273895   -0.043287   -0.599700
| 23> *
| 24>
| 25> $new_job
| 26> ! ri-mp2 aug-cc-pvtz aug-cc-pvtz/c tightscf
| 27> %pal nprocs 16 end
| 28> %maxcore 3800
| 29> %base "TZ_P-F_2_AB"
| 30>
| 31> *xyz 0 1
| 32> C        -1.260199    0.280774   -0.058226
| 33> C        -0.770265    1.710947    0.119491
| 34> H        -1.178876    2.091546    1.057740
| 35> H        -1.195419    2.311700   -0.682562
| 36> C         0.770073    1.711034    0.119422
| 37> H         1.195080    2.311762   -0.682728
| 38> H         1.178732    2.091769    1.057594
| 39> C         1.260166    0.280906   -0.058226
| 40> F         0.000117   -2.110520   -0.277084
| 41> P         0.000043   -0.867976    0.706962
| 42> O        -2.273878   -0.043516   -0.599736
| 43> O         2.273895   -0.043287   -0.599700
| 44> *
| 45>
| 46> $new_job
| 47> ! ri-mp2 aug-cc-pvqz aug-cc-pvqz/c tightscf
| 48> %pal nprocs 16 end
| 49> %maxcore 3800
| 50> %base "QZ_P-F_2_AB"
| 51>
| 52> *xyz 0 1
| 53> C        -1.260199    0.280774   -0.058226
| 54> C        -0.770265    1.710947    0.119491
| 55> H        -1.178876    2.091546    1.057740
| 56> H        -1.195419    2.311700   -0.682562
| 57> C         0.770073    1.711034    0.119422
| 58> H         1.195080    2.311762   -0.682728
| 59> H         1.178732    2.091769    1.057594
| 60> C         1.260166    0.280906   -0.058226
| 61> F         0.000117   -2.110520   -0.277084
| 62> P         0.000043   -0.867976    0.706962
| 63> O        -2.273878   -0.043516   -0.599736
| 64> O         2.273895   -0.043287   -0.599700
| 65> *
| 66>
| 67>
| 68>
| 69>
| 70>                          ****END OF INPUT****
 Total Charge           Charge          ....    0
 Multiplicity           Mult            ....    1
 Number of Electrons    NEL             ....   68
MP2 TOTAL ENERGY:     -744.998423032 Eh
FINAL SINGLE POINT ENERGY      -744.998423031618
MP2 TOTAL ENERGY:     -745.384150874 Eh
FINAL SINGLE POINT ENERGY      -745.384150874042

CARTESIAN COORDINATES (ANGSTROEM)
---------------------------------
  C     -1.260199    0.280774   -0.058226
  C     -0.770265    1.710947    0.119491
  H     -1.178876    2.091546    1.057740
  H     -1.195419    2.311700   -0.682562
  C      0.770073    1.711034    0.119422
  H      1.195080    2.311762   -0.682728
  H      1.178732    2.091769    1.057594
  C      1.260166    0.280906   -0.058226
  F      0.000117   -2.110520   -0.277084
  P      0.000043   -0.867976    0.706962
  O     -2.273878   -0.043516   -0.599736
  O      2.273895   -0.043287   -0.599700

 Multiplicity           Mult            ....    1
 Number of Electrons    NEL             ....   68
 Basis Dimension        Dim             ....  828

ORBITAL ENERGIES
----------------

  NO   OCC          E(Eh)            E(eV)
   0   2.0000     -80.032401     -2177.7923
   1   2.0000     -26.324945      -716.3382
   2   2.0000     -20.585923      -560.1715
   3   2.0000     -20.585923      -560.1714
   4   2.0000     -11.361882      -309.1725
   5   2.0000     -11.361875      -309.1723
   6   2.0000     -11.275034      -306.8093
   7   2.0000     -11.274452      -306.7934
   8   2.0000      -7.568588      -205.9518
   9   2.0000      -5.462820      -148.6509
  10   2.0000      -5.461569      -148.6169
  11   2.0000      -5.461009      -148.6016
  12   2.0000      -1.633186       -44.4412
  13   2.0000      -1.431968       -38.9658
  14   2.0000      -1.429470       -38.8978
  15   2.0000      -1.132519       -30.8174
  16   2.0000      -0.961321       -26.1589
  17   2.0000      -0.947658       -25.7871
  18   2.0000      -0.790276       -21.5045
  19   2.0000      -0.773383       -21.0448
  20   2.0000      -0.718909       -19.5625
  21   2.0000      -0.707270       -19.2458
  22   2.0000      -0.705419       -19.1954
  23   2.0000      -0.684593       -18.6287
  24   2.0000      -0.661321       -17.9955
  25   2.0000      -0.642668       -17.4879
  26   2.0000      -0.620079       -16.8732
  27   2.0000      -0.599614       -16.3163
  28   2.0000      -0.579735       -15.7754
  29   2.0000      -0.544689       -14.8218
  30   2.0000      -0.519048       -14.1240
  31   2.0000      -0.504832       -13.7372
  32   2.0000      -0.397660       -10.8209
  33   2.0000      -0.389834       -10.6079
  34   0.0000       0.017222         0.4686
  35   0.0000       0.029922         0.8142
  36   0.0000       0.033457         0.9104
  37   0.0000       0.037978         1.0334
  38   0.0000       0.049895         1.3577

MULLIKEN ATOMIC CHARGES
-----------------------
   0 C :    0.504373
   1 C :   -0.531942
   2 H :    0.297788
   3 H :    0.273553
   4 C :   -0.531951
   5 H :    0.273534
   6 H :    0.297787
   7 C :    0.504382
   8 F :   -0.695621
   9 P :    1.176055
  10 O :   -0.783981
  11 O :   -0.783977
Sum of atomic charges:    0.0000000

LOEWDIN ATOMIC CHARGES
----------------------
   0 C :   -0.841817
   1 C :    0.405598
   2 H :   -0.285115
   3 H :   -0.297554
   4 C :    0.405603
   5 H :   -0.297555
   6 H :   -0.285113
   7 C :   -0.841814
   8 F :    0.306303
   9 P :    0.430239
  10 O :    0.650612
  11 O :    0.650612

  Mayer bond orders larger than 0.100000
B(  0-C ,  1-C ) :   0.9746 B(  0-C ,  8-F ) :  -0.1020 B(  0-C ,  9-P ) :   0.8404
B(  0-C , 10-O ) :   1.2766 B(  1-C ,  2-H ) :   0.8629 B(  1-C ,  3-H ) :   0.8684
B(  1-C ,  4-C ) :   1.1131 B(  1-C , 10-O ) :   0.1575 B(  4-C ,  5-H ) :   0.8684
B(  4-C ,  6-H ) :   0.8629 B(  4-C ,  7-C ) :   0.9746 B(  4-C , 11-O ) :   0.1575
B(  7-C ,  8-F ) :  -0.1020 B(  7-C ,  9-P ) :   0.8404 B(  7-C , 11-O ) :   1.2766
B(  8-F ,  9-P ) :   0.6533

MP2 TOTAL ENERGY:     -745.511345053 Eh
FINAL SINGLE POINT ENERGY      -745.511345053492

DIPOLE MOMENT
-------------
                                X             Y             Z
Electronic contribution:      0.00052      -9.68247       0.63247
Nuclear contribution   :     -0.00061      11.16248       0.31582
                        -----------------------------------------
Total Dipole Moment    :     -0.00009       1.48001       0.94829
                        -----------------------------------------
Magnitude (a.u.)       :      1.75774
Magnitude (Debye)      :      4.46783

Rotational constants in cm-1:     0.073013     0.065958     0.039913
Rotational constants in MHz :  2188.878888  1977.366862  1196.573113

                             ****ORCA TERMINATED NORMALLY****
TOTAL RUN TIME: 0 days 1 hours 13 minutes 5 seconds 431 msec
