                         Program Version 5.0.4 -  RELEASE  -
|  1> ! ri-mp2 aug-cc-pvdz aug-cc-pvdz/c tightscf
|  2> %pal nprocs 16 end
|  3> %maxcore 3800
|  4> %base "DZ_Si-Si_159_AB"
|  5>
|  6> *xyz 0 1
|  7> Si         0.922283    2.417378    0.724656
|  8> Si        -0.922284    2.417377   -0.724655
|  9> C        -1.869403    0.835808   -0.407636
| 10> H        -0.437674    2.451539   -2.125075
| 11> H        -1.812615    3.577970   -0.490918
| 12> C        -1.357766   -0.383626   -0.846538
| 13> C        -3.014999    0.831905    0.382819
| 14> C        -3.625581   -0.364550    0.726181
| 15> C        -3.096539   -1.570885    0.310289
| 16> C        -1.951232   -1.577352   -0.472358
| 17> H        -3.435201    1.764859    0.735673
| 18> H        -4.520660   -0.358104    1.334343
| 19> C         1.869403    0.835809    0.407636
| 20> H         0.437673    2.451538    2.125076
| 21> H         1.812614    3.577970    0.490919
| 22> C         1.357767   -0.383626    0.846539
| 23> C         3.014998    0.831906   -0.382821
| 24> C         3.625580   -0.364549   -0.726183
| 25> C         3.096539   -1.570884   -0.310291
| 26> C         1.951233   -1.577351    0.472358
| 27> H         3.435198    1.764861   -0.735676
| 28> H         4.520658   -0.358102   -1.334347
| 29> O        -1.439024   -2.788164   -0.823622
| 30> O         1.439026   -2.788164    0.823623
| 31> H        -3.551675   -2.513118    0.583091
| 32> H         3.551675   -2.513116   -0.583093
| 33> H        -0.464395   -0.413107   -1.460755
| 34> H         0.464397   -0.413107    1.460758
| 35> H        -0.605107   -2.675827   -1.292266
| 36> H         0.605111   -2.675827    1.292270
| 37> *
| 38>
| 39> $new_job
| 40> ! ri-mp2 aug-cc-pvtz aug-cc-pvtz/c tightscf
| 41> %pal nprocs 16 end
| 42> %maxcore 3800
| 43> %base "TZ_Si-Si_159_AB"
| 44>
| 45> *xyz 0 1
| 46> Si         0.922283    2.417378    0.724656
| 47> Si        -0.922284    2.417377   -0.724655
| 48> C        -1.869403    0.835808   -0.407636
| 49> H        -0.437674    2.451539   -2.125075
| 50> H        -1.812615    3.577970   -0.490918
| 51> C        -1.357766   -0.383626   -0.846538
| 52> C        -3.014999    0.831905    0.382819
| 53> C        -3.625581   -0.364550    0.726181
| 54> C        -3.096539   -1.570885    0.310289
| 55> C        -1.951232   -1.577352   -0.472358
| 56> H        -3.435201    1.764859    0.735673
| 57> H        -4.520660   -0.358104    1.334343
| 58> C         1.869403    0.835809    0.407636
| 59> H         0.437673    2.451538    2.125076
| 60> H         1.812614    3.577970    0.490919
| 61> C         1.357767   -0.383626    0.846539
| 62> C         3.014998    0.831906   -0.382821
| 63> C         3.625580   -0.364549   -0.726183
| 64> C         3.096539   -1.570884   -0.310291
| 65> C         1.951233   -1.577351    0.472358
| 66> H         3.435198    1.764861   -0.735676
| 67> H         4.520658   -0.358102   -1.334347
| 68> O        -1.439024   -2.788164   -0.823622
| 69> O         1.439026   -2.788164    0.823623
| 70> H        -3.551675   -2.513118    0.583091
| 71> H         3.551675   -2.513116   -0.583093
| 72> H        -0.464395   -0.413107   -1.460755
| 73> H         0.464397   -0.413107    1.460758
| 74> H        -0.605107   -2.675827   -1.292266
| 75> H         0.605111   -2.675827    1.292270
| 76> *
| 77>
| 78> $new_job
| 79> ! ri-mp2 aug-cc-pvqz aug-cc-pvqz/c tightscf
| 80> %pal nprocs 16 end
| 81> %maxcore 3800
| 82> %base "QZ_Si-Si_159_AB"
| 83>
| 84> *xyz 0 1
| 85> Si         0.922283    2.417378    0.724656
| 86> Si        -0.922284    2.417377   -0.724655
| 87> C        -1.869403    0.835808   -0.407636
| 88> H        -0.437674    2.451539   -2.125075
| 89> H        -1.812615    3.577970   -0.490918
| 90> C        -1.357766   -0.383626   -0.846538
| 91> C        -3.014999    0.831905    0.382819
| 92> C        -3.625581   -0.364550    0.726181
| 93> C        -3.096539   -1.570885    0.310289
| 94> C        -1.951232   -1.577352   -0.472358
| 95> H        -3.435201    1.764859    0.735673
| 96> H        -4.520660   -0.358104    1.334343
| 97> C         1.869403    0.835809    0.407636
| 98> H         0.437673    2.451538    2.125076
| 99> H         1.812614    3.577970    0.490919
|100> C         1.357767   -0.383626    0.846539
|101> C         3.014998    0.831906   -0.382821
|102> C         3.625580   -0.364549   -0.726183
|103> C         3.096539   -1.570884   -0.310291
|104> C         1.951233   -1.577351    0.472358
|105> H         3.435198    1.764861   -0.735676
|106> H         4.520658   -0.358102   -1.334347
|107> O        -1.439024   -2.788164   -0.823622
|108> O         1.439026   -2.788164    0.823623
|109> H        -3.551675   -2.513118    0.583091
|110> H         3.551675   -2.513116   -0.583093
|111> H        -0.464395   -0.413107   -1.460755
|112> H         0.464397   -0.413107    1.460758
|113> H        -0.605107   -2.675827   -1.292266
|114> H         0.605111   -2.675827    1.292270
|115> *
|116>
|117>
|118>
|119>
|120>                          ****END OF INPUT****
 Total Charge           Charge          ....    0
 Multiplicity           Mult            ....    1
 Number of Electrons    NEL             ....  130
MP2 TOTAL ENERGY:    -1192.465993515 Eh
FINAL SINGLE POINT ENERGY     -1192.465993515098
MP2 TOTAL ENERGY:    -1193.064760746 Eh
FINAL SINGLE POINT ENERGY     -1193.064760746295

CARTESIAN COORDINATES (ANGSTROEM)
---------------------------------
  Si     0.922283    2.417378    0.724656
  Si    -0.922284    2.417377   -0.724655
  C     -1.869403    0.835808   -0.407636
  H     -0.437674    2.451539   -2.125075
  H     -1.812615    3.577970   -0.490918
  C     -1.357766   -0.383626   -0.846538
  C     -3.014999    0.831905    0.382819
  C     -3.625581   -0.364550    0.726181
  C     -3.096539   -1.570885    0.310289
  C     -1.951232   -1.577352   -0.472358
  H     -3.435201    1.764859    0.735673
  H     -4.520660   -0.358104    1.334343
  C      1.869403    0.835809    0.407636
  H      0.437673    2.451538    2.125076
  H      1.812614    3.577970    0.490919
  C      1.357767   -0.383626    0.846539
  C      3.014998    0.831906   -0.382821
  C      3.625580   -0.364549   -0.726183
  C      3.096539   -1.570884   -0.310291
  C      1.951233   -1.577351    0.472358
  H      3.435198    1.764861   -0.735676
  H      4.520658   -0.358102   -1.334347
  O     -1.439024   -2.788164   -0.823622
  O      1.439026   -2.788164    0.823623
  H     -3.551675   -2.513118    0.583091
  H      3.551675   -2.513116   -0.583093
  H     -0.464395   -0.413107   -1.460755
  H      0.464397   -0.413107    1.460758
  H     -0.605107   -2.675827   -1.292266
  H      0.605111   -2.675827    1.292270

 Multiplicity           Mult            ....    1
 Number of Electrons    NEL             ....  130
 Basis Dimension        Dim             .... 1932

ORBITAL ENERGIES
----------------

  NO   OCC          E(Eh)            E(eV)
   0   2.0000     -68.765734     -1871.2108
   1   2.0000     -68.765733     -1871.2107
   2   2.0000     -20.592507      -560.3506
   3   2.0000     -20.592505      -560.3506
   4   2.0000     -11.304854      -307.6207
   5   2.0000     -11.304854      -307.6207
   6   2.0000     -11.242701      -305.9294
   7   2.0000     -11.242701      -305.9294
   8   2.0000     -11.237435      -305.7861
   9   2.0000     -11.237432      -305.7861
  10   2.0000     -11.234365      -305.7026
  11   2.0000     -11.234365      -305.7026
  12   2.0000     -11.233615      -305.6822
  13   2.0000     -11.233615      -305.6822
  14   2.0000     -11.232114      -305.6414
  15   2.0000     -11.232114      -305.6414
  16   2.0000      -6.116577      -166.4405
  17   2.0000      -6.116430      -166.4365
  18   2.0000      -4.222934      -114.9119
  19   2.0000      -4.222783      -114.9078
  20   2.0000      -4.222720      -114.9060
  21   2.0000      -4.222512      -114.9004
  22   2.0000      -4.222461      -114.8990
  23   2.0000      -4.222106      -114.8893
  24   2.0000      -1.413946       -38.4754
  25   2.0000      -1.411498       -38.4088
  26   2.0000      -1.158458       -31.5232
  27   2.0000      -1.156620       -31.4732
  28   2.0000      -1.030972       -28.0542
  29   2.0000      -1.025904       -27.9163
  30   2.0000      -1.014349       -27.6018
  31   2.0000      -1.012948       -27.5637
  32   2.0000      -0.857503       -23.3339
  33   2.0000      -0.853490       -23.2246
  34   2.0000      -0.835646       -22.7391
  35   2.0000      -0.828268       -22.5383
  36   2.0000      -0.758225       -20.6324
  37   2.0000      -0.741820       -20.1860
  38   2.0000      -0.719705       -19.5842
  39   2.0000      -0.697416       -18.9776
  40   2.0000      -0.687877       -18.7181
  41   2.0000      -0.664912       -18.0932
  42   2.0000      -0.653943       -17.7947
  43   2.0000      -0.645681       -17.5699
  44   2.0000      -0.609679       -16.5902
  45   2.0000      -0.607859       -16.5407
  46   2.0000      -0.606459       -16.5026
  47   2.0000      -0.592378       -16.1194
  48   2.0000      -0.576378       -15.6841
  49   2.0000      -0.576329       -15.6827
  50   2.0000      -0.558516       -15.1980
  51   2.0000      -0.551913       -15.0183
  52   2.0000      -0.518737       -14.1155
  53   2.0000      -0.518687       -14.1142
  54   2.0000      -0.506371       -13.7790
  55   2.0000      -0.499071       -13.5804
  56   2.0000      -0.483576       -13.1588
  57   2.0000      -0.479240       -13.0408
  58   2.0000      -0.456899       -12.4329
  59   2.0000      -0.449994       -12.2450
  60   2.0000      -0.410127       -11.1601
  61   2.0000      -0.349388        -9.5073
  62   2.0000      -0.344966        -9.3870
  63   2.0000      -0.320532        -8.7221
  64   2.0000      -0.319818        -8.7027
  65   0.0000       0.020580         0.5600
  66   0.0000       0.024370         0.6631
  67   0.0000       0.027874         0.7585
  68   0.0000       0.030369         0.8264
  69   0.0000       0.035501         0.9660

MULLIKEN ATOMIC CHARGES
-----------------------
   0 Si:    1.128229
   1 Si:    1.128212
   2 C :   -0.214695
   3 H :   -0.340853
   4 H :   -0.535979
   5 C :   -0.445791
   6 C :   -0.456637
   7 C :   -0.425182
   8 C :   -0.701994
   9 C :    1.271407
  10 H :    0.337758
  11 H :    0.252031
  12 C :   -0.214635
  13 H :   -0.340860
  14 H :   -0.535987
  15 C :   -0.445794
  16 C :   -0.456657
  17 C :   -0.425204
  18 C :   -0.702034
  19 C :    1.271377
  20 H :    0.337763
  21 H :    0.252051
  22 O :   -0.986480
  23 O :   -0.986488
  24 H :    0.360250
  25 H :    0.360283
  26 H :    0.345066
  27 H :    0.345067
  28 H :    0.412889
  29 H :    0.412885
Sum of atomic charges:   -0.0000000

LOEWDIN ATOMIC CHARGES
----------------------
   0 Si:    0.772654
   1 Si:    0.772654
   2 C :   -0.145811
   3 H :   -0.239872
   4 H :   -0.245706
   5 C :    0.215890
   6 C :    0.254253
   7 C :    0.336306
   8 C :    0.326583
   9 C :   -0.442443
  10 H :   -0.343944
  11 H :   -0.315968
  12 C :   -0.145810
  13 H :   -0.239872
  14 H :   -0.245707
  15 C :    0.215890
  16 C :    0.254253
  17 C :    0.336305
  18 C :    0.326584
  19 C :   -0.442442
  20 H :   -0.343943
  21 H :   -0.315968
  22 O :    1.290069
  23 O :    1.290070
  24 H :   -0.321885
  25 H :   -0.321886
  26 H :   -0.337979
  27 H :   -0.337979
  28 H :   -0.802147
  29 H :   -0.802148

  Mayer bond orders larger than 0.100000
B(  0-Si,  1-Si) :   0.7853 B(  0-Si, 12-C ) :   1.2480 B(  0-Si, 13-H ) :   0.6210
B(  0-Si, 14-H ) :   0.3918 B(  0-Si, 15-C ) :  -0.1956 B(  0-Si, 16-C ) :  -0.2384
B(  1-Si,  2-C ) :   1.2479 B(  1-Si,  3-H ) :   0.6210 B(  1-Si,  4-H ) :   0.3918
B(  1-Si,  5-C ) :  -0.1956 B(  1-Si,  6-C ) :  -0.2384 B(  2-C ,  5-C ) :   0.6932
B(  2-C ,  6-C ) :   0.9132 B(  2-C ,  7-C ) :  -0.3252 B(  2-C ,  9-C ) :  -0.3102
B(  2-C , 10-H ) :  -0.1548 B(  2-C , 26-H ) :  -0.2442 B(  5-C ,  6-C ) :  -0.1203
B(  5-C ,  7-C ) :   0.1538 B(  5-C ,  9-C ) :   1.4700 B(  5-C , 22-O ) :   0.3241
B(  5-C , 26-H ) :   0.8091 B(  6-C ,  7-C ) :   1.2880 B(  6-C ,  8-C ) :   0.2469
B(  6-C , 10-H ) :   0.9170 B(  6-C , 11-H ) :  -0.1623 B(  7-C ,  8-C ) :   1.3994
B(  7-C ,  9-C ) :  -0.2846 B(  7-C , 11-H ) :   1.1459 B(  8-C ,  9-C ) :   1.1979
B(  8-C , 11-H ) :  -0.1400 B(  8-C , 22-O ) :   0.2951 B(  8-C , 24-H ) :   0.8613
B(  9-C , 22-O ) :  -0.3210 B(  9-C , 26-H ) :  -0.1152 B(  9-C , 28-H ) :  -0.1208
B( 12-C , 15-C ) :   0.6932 B( 12-C , 16-C ) :   0.9132 B( 12-C , 17-C ) :  -0.3252
B( 12-C , 19-C ) :  -0.3102 B( 12-C , 20-H ) :  -0.1548 B( 12-C , 27-H ) :  -0.2443
B( 15-C , 16-C ) :  -0.1203 B( 15-C , 17-C ) :   0.1538 B( 15-C , 19-C ) :   1.4700
B( 15-C , 23-O ) :   0.3241 B( 15-C , 27-H ) :   0.8091 B( 16-C , 17-C ) :   1.2880
B( 16-C , 18-C ) :   0.2469 B( 16-C , 20-H ) :   0.9170 B( 16-C , 21-H ) :  -0.1623
B( 17-C , 18-C ) :   1.3995 B( 17-C , 19-C ) :  -0.2846 B( 17-C , 21-H ) :   1.1459
B( 18-C , 19-C ) :   1.1980 B( 18-C , 21-H ) :  -0.1399 B( 18-C , 23-O ) :   0.2951
B( 18-C , 25-H ) :   0.8613 B( 19-C , 23-O ) :  -0.3210 B( 19-C , 27-H ) :  -0.1151
B( 19-C , 29-H ) :  -0.1208 B( 22-O , 28-H ) :   0.8137 B( 23-O , 29-H ) :   0.8137

MP2 TOTAL ENERGY:    -1193.257725480 Eh
FINAL SINGLE POINT ENERGY     -1193.257725480382

DIPOLE MOMENT
-------------
                                X             Y             Z
Electronic contribution:      0.00000      -3.01768       0.00000
Nuclear contribution   :     -0.00000       3.25681       0.00000
                        -----------------------------------------
Total Dipole Moment    :      0.00000       0.23913       0.00000
                        -----------------------------------------
Magnitude (a.u.)       :      0.23913
Magnitude (Debye)      :      0.60781

Rotational constants in cm-1:     0.018189     0.012813     0.008407
Rotational constants in MHz :   545.290665   384.114610   252.045090

                             ****ORCA TERMINATED NORMALLY****
TOTAL RUN TIME: 0 days 3 hours 37 minutes 44 seconds 649 msec
