                         Program Version 5.0.4 -  RELEASE  -
|  1> ! ri-mp2 aug-cc-pvdz aug-cc-pvdz/c tightscf
|  2> %pal nprocs 16 end
|  3> %maxcore 3800
|  4> %base "DZ_S-Cl_12_AB"
|  5>
|  6> *xyz 0 1
|  7> Cl         1.570850   -0.462430    0.000025
|  8> S         0.089051    0.949557   -0.000015
|  9> Si        -1.588109   -0.386005   -0.000011
| 10> H        -1.574774   -1.229063    1.208923
| 11> H        -2.746223    0.530650   -0.000040
| 12> H        -1.574747   -1.229105   -1.208914
| 13> *
| 14>
| 15> $new_job
| 16> ! ri-mp2 aug-cc-pvtz aug-cc-pvtz/c tightscf
| 17> %pal nprocs 16 end
| 18> %maxcore 3800
| 19> %base "TZ_S-Cl_12_AB"
| 20>
| 21> *xyz 0 1
| 22> Cl         1.570850   -0.462430    0.000025
| 23> S         0.089051    0.949557   -0.000015
| 24> Si        -1.588109   -0.386005   -0.000011
| 25> H        -1.574774   -1.229063    1.208923
| 26> H        -2.746223    0.530650   -0.000040
| 27> H        -1.574747   -1.229105   -1.208914
| 28> *
| 29>
| 30> $new_job
| 31> ! ri-mp2 aug-cc-pvqz aug-cc-pvqz/c tightscf
| 32> %pal nprocs 16 end
| 33> %maxcore 3800
| 34> %base "QZ_S-Cl_12_AB"
| 35>
| 36> *xyz 0 1
| 37> Cl         1.570850   -0.462430    0.000025
| 38> S         0.089051    0.949557   -0.000015
| 39> Si        -1.588109   -0.386005   -0.000011
| 40> H        -1.574774   -1.229063    1.208923
| 41> H        -2.746223    0.530650   -0.000040
| 42> H        -1.574747   -1.229105   -1.208914
| 43> *
| 44>
| 45>
| 46>
| 47>
| 48>                          ****END OF INPUT****
 Total Charge           Charge          ....    0
 Multiplicity           Mult            ....    1
 Number of Electrons    NEL             ....   50
MP2 TOTAL ENERGY:    -1148.115233789 Eh
FINAL SINGLE POINT ENERGY     -1148.115233788787
MP2 TOTAL ENERGY:    -1148.270741902 Eh
FINAL SINGLE POINT ENERGY     -1148.270741901850

CARTESIAN COORDINATES (ANGSTROEM)
---------------------------------
  Cl     1.570850   -0.462430    0.000025
  S      0.089051    0.949557   -0.000015
  Si    -1.588109   -0.386005   -0.000011
  H     -1.574774   -1.229063    1.208923
  H     -2.746223    0.530650   -0.000040
  H     -1.574747   -1.229105   -1.208914

 Multiplicity           Mult            ....    1
 Number of Electrons    NEL             ....   50
 Basis Dimension        Dim             ....  390

ORBITAL ENERGIES
----------------

  NO   OCC          E(Eh)            E(eV)
   0   2.0000    -104.859543     -2853.3732
   1   2.0000     -92.002508     -2503.5155
   2   2.0000     -68.810918     -1872.4403
   3   2.0000     -10.583512      -287.9920
   4   2.0000      -9.002600      -244.9732
   5   2.0000      -8.050541      -219.0664
   6   2.0000      -8.048540      -219.0119
   7   2.0000      -8.048410      -219.0084
   8   2.0000      -6.683903      -181.8783
   9   2.0000      -6.682225      -181.8326
  10   2.0000      -6.681354      -181.8089
  11   2.0000      -6.158587      -167.5837
  12   2.0000      -4.265347      -116.0660
  13   2.0000      -4.264572      -116.0449
  14   2.0000      -4.264226      -116.0355
  15   2.0000      -1.142164       -31.0799
  16   2.0000      -0.925170       -25.1752
  17   2.0000      -0.725695       -19.7472
  18   2.0000      -0.554573       -15.0907
  19   2.0000      -0.537726       -14.6323
  20   2.0000      -0.536446       -14.5974
  21   2.0000      -0.496783       -13.5182
  22   2.0000      -0.495455       -13.4820
  23   2.0000      -0.426976       -11.6186
  24   2.0000      -0.374694       -10.1959
  25   0.0000       0.026404         0.7185
  26   0.0000       0.034534         0.9397
  27   0.0000       0.040291         1.0964
  28   0.0000       0.041555         1.1308
  29   0.0000       0.051612         1.4044

MULLIKEN ATOMIC CHARGES
-----------------------
   0 Cl:   -0.285181
   1 S :   -0.128893
   2 Si:    0.955056
   3 H :   -0.170174
   4 H :   -0.200634
   5 H :   -0.170173
Sum of atomic charges:    0.0000000

LOEWDIN ATOMIC CHARGES
----------------------
   0 Cl:    0.399895
   1 S :    0.167324
   2 Si:    0.415282
   3 H :   -0.323658
   4 H :   -0.335185
   5 H :   -0.323659

  Mayer bond orders larger than 0.100000
B(  0-Cl,  1-S ) :   0.9328 B(  1-S ,  2-Si) :   0.7276 B(  2-Si,  3-H ) :   0.8614
B(  2-Si,  4-H ) :   0.8665 B(  2-Si,  5-H ) :   0.8614

MP2 TOTAL ENERGY:    -1148.322386004 Eh
FINAL SINGLE POINT ENERGY     -1148.322386003516

DIPOLE MOMENT
-------------
                                X             Y             Z
Electronic contribution:      6.99107       1.07789       0.00006
Nuclear contribution   :     -7.66424      -1.21095      -0.00006
                        -----------------------------------------
Total Dipole Moment    :     -0.67317      -0.13306      -0.00001
                        -----------------------------------------
Magnitude (a.u.)       :      0.68619
Magnitude (Debye)      :      1.74416

Rotational constants in cm-1:     0.359927     0.097124     0.078586
Rotational constants in MHz : 10790.331639  2911.712247  2355.956075

                             ****ORCA TERMINATED NORMALLY****
TOTAL RUN TIME: 0 days 0 hours 1 minutes 19 seconds 228 msec
