                         Program Version 5.0.4 -  RELEASE  -
|  1> ! ri-mp2 aug-cc-pvdz aug-cc-pvdz/c tightscf
|  2> %pal nprocs 16 end
|  3> %maxcore 3800
|  4> %base "DZ_P-N_25_AB"
|  5> %scf
|  6> STABPerform true
|  7> STABRestartUHFifUnstable true
|  8> end
|  9>
| 10> *xyz 0 1
| 11> N        -1.031120   -0.467184    0.492243
| 12> F        -2.347498   -0.062463    0.222796
| 13> F        -1.014906   -1.777327    0.041316
| 14> P        -0.112049    0.459191   -0.771271
| 15> C        -0.320459    2.080758    0.013287
| 16> H        -1.316964    2.448365   -0.224351
| 17> H         0.412342    2.760697   -0.420629
| 18> H        -0.188172    2.035850    1.091845
| 19> N         1.533814    0.185965   -0.181688
| 20> F         1.874594   -1.122226   -0.480399
| 21> F         1.618635    0.223261    1.201686
| 22> *
| 23>
| 24> $new_job
| 25> ! ri-mp2 aug-cc-pvtz aug-cc-pvtz/c tightscf
| 26> %pal nprocs 16 end
| 27> %maxcore 3800
| 28> %base "TZ_P-N_25_AB"
| 29>
| 30> *xyz 0 1
| 31> N        -1.031120   -0.467184    0.492243
| 32> F        -2.347498   -0.062463    0.222796
| 33> F        -1.014906   -1.777327    0.041316
| 34> P        -0.112049    0.459191   -0.771271
| 35> C        -0.320459    2.080758    0.013287
| 36> H        -1.316964    2.448365   -0.224351
| 37> H         0.412342    2.760697   -0.420629
| 38> H        -0.188172    2.035850    1.091845
| 39> N         1.533814    0.185965   -0.181688
| 40> F         1.874594   -1.122226   -0.480399
| 41> F         1.618635    0.223261    1.201686
| 42> *
| 43>
| 44> $new_job
| 45> ! ri-mp2 aug-cc-pvqz aug-cc-pvqz/c tightscf
| 46> %pal nprocs 16 end
| 47> %maxcore 3800
| 48> %base "QZ_P-N_25_AB"
| 49>
| 50> *xyz 0 1
| 51> N        -1.031120   -0.467184    0.492243
| 52> F        -2.347498   -0.062463    0.222796
| 53> F        -1.014906   -1.777327    0.041316
| 54> P        -0.112049    0.459191   -0.771271
| 55> C        -0.320459    2.080758    0.013287
| 56> H        -1.316964    2.448365   -0.224351
| 57> H         0.412342    2.760697   -0.420629
| 58> H        -0.188172    2.035850    1.091845
| 59> N         1.533814    0.185965   -0.181688
| 60> F         1.874594   -1.122226   -0.480399
| 61> F         1.618635    0.223261    1.201686
| 62> *
| 63>
| 64>
| 65>
| 66>
| 67>                          ****END OF INPUT****
 Total Charge           Charge          ....    0
 Multiplicity           Mult            ....    1
 Number of Electrons    NEL             ....   74
MP2 TOTAL ENERGY:     -888.204557416 Eh
FINAL SINGLE POINT ENERGY      -888.204557415685
MP2 TOTAL ENERGY:     -888.703264472 Eh
FINAL SINGLE POINT ENERGY      -888.703264471536

CARTESIAN COORDINATES (ANGSTROEM)
---------------------------------
  N     -1.031120   -0.467184    0.492243
  F     -2.347498   -0.062463    0.222796
  F     -1.014906   -1.777327    0.041316
  P     -0.112049    0.459191   -0.771271
  C     -0.320459    2.080758    0.013287
  H     -1.316964    2.448365   -0.224351
  H      0.412342    2.760697   -0.420629
  H     -0.188172    2.035850    1.091845
  N      1.533814    0.185965   -0.181688
  F      1.874594   -1.122226   -0.480399
  F      1.618635    0.223261    1.201686

 Multiplicity           Mult            ....    1
 Number of Electrons    NEL             ....   74
 Basis Dimension        Dim             ....  782

ORBITAL ENERGIES
----------------

  NO   OCC          E(Eh)            E(eV)
   0   2.0000     -80.045022     -2178.1358
   1   2.0000     -26.354643      -717.1463
   2   2.0000     -26.353916      -717.1265
   3   2.0000     -26.353694      -717.1205
   4   2.0000     -26.349838      -717.0155
   5   2.0000     -15.772524      -429.1922
   6   2.0000     -15.771151      -429.1548
   7   2.0000     -11.266861      -306.5869
   8   2.0000      -7.582379      -206.3270
   9   2.0000      -5.475685      -149.0010
  10   2.0000      -5.474949      -148.9809
  11   2.0000      -5.473658      -148.9458
  12   2.0000      -1.706460       -46.4352
  13   2.0000      -1.700748       -46.2797
  14   2.0000      -1.619169       -44.0598
  15   2.0000      -1.616609       -43.9902
  16   2.0000      -1.165902       -31.7258
  17   2.0000      -1.102456       -29.9993
  18   2.0000      -1.016004       -27.6469
  19   2.0000      -0.862869       -23.4799
  20   2.0000      -0.799879       -21.7658
  21   2.0000      -0.784674       -21.3521
  22   2.0000      -0.780134       -21.2285
  23   2.0000      -0.773696       -21.0533
  24   2.0000      -0.762066       -20.7369
  25   2.0000      -0.708677       -19.2841
  26   2.0000      -0.701684       -19.0938
  27   2.0000      -0.696287       -18.9469
  28   2.0000      -0.657015       -17.8783
  29   2.0000      -0.653666       -17.7872
  30   2.0000      -0.640503       -17.4290
  31   2.0000      -0.621166       -16.9028
  32   2.0000      -0.597512       -16.2591
  33   2.0000      -0.567657       -15.4467
  34   2.0000      -0.515268       -14.0211
  35   2.0000      -0.477171       -12.9845
  36   2.0000      -0.425487       -11.5781
  37   0.0000       0.021497         0.5849
  38   0.0000       0.036692         0.9984
  39   0.0000       0.038911         1.0588
  40   0.0000       0.049560         1.3486
  41   0.0000       0.063923         1.7394

MULLIKEN ATOMIC CHARGES
-----------------------
   0 N :    0.334749
   1 F :   -0.424014
   2 F :   -0.408940
   3 P :    1.109978
   4 C :   -1.099495
   5 H :    0.367414
   6 H :    0.342783
   7 H :    0.304794
   8 N :    0.269889
   9 F :   -0.396330
  10 F :   -0.400828
Sum of atomic charges:   -0.0000000

LOEWDIN ATOMIC CHARGES
----------------------
   0 N :   -0.834616
   1 F :    0.404323
   2 F :    0.405329
   3 P :    0.439471
   4 C :    0.719953
   5 H :   -0.370861
   6 H :   -0.362741
   7 H :   -0.369514
   8 N :   -0.882940
   9 F :    0.412474
  10 F :    0.439122

  Mayer bond orders larger than 0.100000
B(  0-N ,  1-F ) :   0.6959 B(  0-N ,  2-F ) :   0.6979 B(  0-N ,  3-P ) :   0.7706
B(  3-P ,  4-C ) :   0.9508 B(  3-P ,  8-N ) :   0.6886 B(  4-C ,  5-H ) :   0.8798
B(  4-C ,  6-H ) :   0.8918 B(  4-C ,  7-H ) :   0.8957 B(  8-N ,  9-F ) :   0.6935
B(  8-N , 10-F ) :   0.6998

MP2 TOTAL ENERGY:     -888.867019999 Eh
FINAL SINGLE POINT ENERGY      -888.867019998768

DIPOLE MOMENT
-------------
                                X             Y             Z
Electronic contribution:      0.86167      -7.46251      -0.54044
Nuclear contribution   :     -1.03049       8.81094       0.19460
                        -----------------------------------------
Total Dipole Moment    :     -0.16882       1.34843      -0.34584
                        -----------------------------------------
Magnitude (a.u.)       :      1.40227
Magnitude (Debye)      :      3.56430

Rotational constants in cm-1:     0.076351     0.048334     0.036924
Rotational constants in MHz :  2288.939058  1449.011847  1106.940395

                             ****ORCA TERMINATED NORMALLY****
TOTAL RUN TIME: 0 days 0 hours 52 minutes 52 seconds 826 msec
