                         Program Version 5.0.4 -  RELEASE  -
|  1> ! ri-mp2 aug-cc-pvdz aug-cc-pvdz/c tightscf
|  2> %pal nprocs 16 end
|  3> %maxcore 3800
|  4> %base "DZ_P-F_10_AB"
|  5>
|  6> *xyz 0 1
|  7> F        -1.555268   -1.936273   -0.367458
|  8> S        -0.658984    0.675763    0.497135
|  9> O        -0.882548    2.042226    0.089010
| 10> O        -0.990680    0.242351    1.829667
| 11> P        -1.780994   -0.477977   -0.992958
| 12> C         1.028118    0.259115    0.191054
| 13> C         1.596293   -0.801669    0.877979
| 14> H         1.014429   -1.334809    1.616082
| 15> C         2.909107   -1.144095    0.610420
| 16> H         3.369092   -1.966476    1.140886
| 17> C         3.633811   -0.430406   -0.330859
| 18> H         4.661222   -0.700940   -0.535151
| 19> C         3.054432    0.630416   -1.009019
| 20> H         3.627899    1.188613   -1.736273
| 21> C         1.741577    0.980693   -0.752354
| 22> H         1.271363    1.811866   -1.258430
| 23> C        -3.389167   -0.079353   -0.249891
| 24> H        -3.592119    0.979667   -0.413117
| 25> H        -3.398534   -0.295294    0.817507
| 26> H        -4.156484   -0.663556   -0.757569
| 27> *
| 28>
| 29> $new_job
| 30> ! ri-mp2 aug-cc-pvtz aug-cc-pvtz/c tightscf
| 31> %pal nprocs 16 end
| 32> %maxcore 3800
| 33> %base "TZ_P-F_10_AB"
| 34>
| 35> *xyz 0 1
| 36> F        -1.555268   -1.936273   -0.367458
| 37> S        -0.658984    0.675763    0.497135
| 38> O        -0.882548    2.042226    0.089010
| 39> O        -0.990680    0.242351    1.829667
| 40> P        -1.780994   -0.477977   -0.992958
| 41> C         1.028118    0.259115    0.191054
| 42> C         1.596293   -0.801669    0.877979
| 43> H         1.014429   -1.334809    1.616082
| 44> C         2.909107   -1.144095    0.610420
| 45> H         3.369092   -1.966476    1.140886
| 46> C         3.633811   -0.430406   -0.330859
| 47> H         4.661222   -0.700940   -0.535151
| 48> C         3.054432    0.630416   -1.009019
| 49> H         3.627899    1.188613   -1.736273
| 50> C         1.741577    0.980693   -0.752354
| 51> H         1.271363    1.811866   -1.258430
| 52> C        -3.389167   -0.079353   -0.249891
| 53> H        -3.592119    0.979667   -0.413117
| 54> H        -3.398534   -0.295294    0.817507
| 55> H        -4.156484   -0.663556   -0.757569
| 56> *
| 57>
| 58> $new_job
| 59> ! ri-mp2 aug-cc-pvqz aug-cc-pvqz/c tightscf
| 60> %pal nprocs 16 end
| 61> %maxcore 3800
| 62> %base "QZ_P-F_10_AB"
| 63>
| 64> *xyz 0 1
| 65> F        -1.555268   -1.936273   -0.367458
| 66> S        -0.658984    0.675763    0.497135
| 67> O        -0.882548    2.042226    0.089010
| 68> O        -0.990680    0.242351    1.829667
| 69> P        -1.780994   -0.477977   -0.992958
| 70> C         1.028118    0.259115    0.191054
| 71> C         1.596293   -0.801669    0.877979
| 72> H         1.014429   -1.334809    1.616082
| 73> C         2.909107   -1.144095    0.610420
| 74> H         3.369092   -1.966476    1.140886
| 75> C         3.633811   -0.430406   -0.330859
| 76> H         4.661222   -0.700940   -0.535151
| 77> C         3.054432    0.630416   -1.009019
| 78> H         3.627899    1.188613   -1.736273
| 79> C         1.741577    0.980693   -0.752354
| 80> H         1.271363    1.811866   -1.258430
| 81> C        -3.389167   -0.079353   -0.249891
| 82> H        -3.592119    0.979667   -0.413117
| 83> H        -3.398534   -0.295294    0.817507
| 84> H        -4.156484   -0.663556   -0.757569
| 85> *
| 86>
| 87>
| 88>
| 89>
| 90>                          ****END OF INPUT****
 Total Charge           Charge          ....    0
 Multiplicity           Mult            ....    1
 Number of Electrons    NEL             ....  106
MP2 TOTAL ENERGY:    -1259.006237298 Eh
FINAL SINGLE POINT ENERGY     -1259.006237298455
MP2 TOTAL ENERGY:    -1259.591972363 Eh
FINAL SINGLE POINT ENERGY     -1259.591972362859

CARTESIAN COORDINATES (ANGSTROEM)
---------------------------------
  F     -1.555268   -1.936273   -0.367458
  S     -0.658984    0.675763    0.497135
  O     -0.882548    2.042226    0.089010
  O     -0.990680    0.242351    1.829667
  P     -1.780994   -0.477977   -0.992958
  C      1.028118    0.259115    0.191054
  C      1.596293   -0.801669    0.877979
  H      1.014429   -1.334809    1.616082
  C      2.909107   -1.144095    0.610420
  H      3.369092   -1.966476    1.140886
  C      3.633811   -0.430406   -0.330859
  H      4.661222   -0.700940   -0.535151
  C      3.054432    0.630416   -1.009019
  H      3.627899    1.188613   -1.736273
  C      1.741577    0.980693   -0.752354
  H      1.271363    1.811866   -1.258430
  C     -3.389167   -0.079353   -0.249891
  H     -3.592119    0.979667   -0.413117
  H     -3.398534   -0.295294    0.817507
  H     -4.156484   -0.663556   -0.757569

 Multiplicity           Mult            ....    1
 Number of Electrons    NEL             ....  106
 Basis Dimension        Dim             .... 1336

ORBITAL ENERGIES
----------------

  NO   OCC          E(Eh)            E(eV)
   0   2.0000     -92.164279     -2507.9175
   1   2.0000     -80.038501     -2177.9583
   2   2.0000     -26.317396      -716.1328
   3   2.0000     -20.547391      -559.1229
   4   2.0000     -20.547338      -559.1215
   5   2.0000     -11.274751      -306.8016
   6   2.0000     -11.265140      -306.5400
   7   2.0000     -11.264681      -306.5276
   8   2.0000     -11.262098      -306.4573
   9   2.0000     -11.254542      -306.2517
  10   2.0000     -11.254191      -306.2421
  11   2.0000     -11.246829      -306.0418
  12   2.0000      -9.136846      -248.6262
  13   2.0000      -7.572185      -206.0496
  14   2.0000      -6.821743      -185.6291
  15   2.0000      -6.821342      -185.6182
  16   2.0000      -6.821169      -185.6135
  17   2.0000      -5.465790      -148.7317
  18   2.0000      -5.464906      -148.7076
  19   2.0000      -5.463433      -148.6676
  20   2.0000      -1.625081       -44.2207
  21   2.0000      -1.456170       -39.6244
  22   2.0000      -1.346217       -36.6324
  23   2.0000      -1.189316       -32.3629
  24   2.0000      -1.065048       -28.9814
  25   2.0000      -1.046999       -28.4903
  26   2.0000      -1.021299       -27.7909
  27   2.0000      -0.927511       -25.2389
  28   2.0000      -0.857938       -23.3457
  29   2.0000      -0.850537       -23.1443
  30   2.0000      -0.801626       -21.8133
  31   2.0000      -0.745111       -20.2755
  32   2.0000      -0.718427       -19.5494
  33   2.0000      -0.704561       -19.1721
  34   2.0000      -0.687991       -18.7212
  35   2.0000      -0.671760       -18.2795
  36   2.0000      -0.665214       -18.1014
  37   2.0000      -0.641059       -17.4441
  38   2.0000      -0.631761       -17.1911
  39   2.0000      -0.618460       -16.8292
  40   2.0000      -0.617125       -16.7928
  41   2.0000      -0.589144       -16.0314
  42   2.0000      -0.575397       -15.6573
  43   2.0000      -0.548278       -14.9194
  44   2.0000      -0.536608       -14.6018
  45   2.0000      -0.523438       -14.2435
  46   2.0000      -0.509213       -13.8564
  47   2.0000      -0.497032       -13.5249
  48   2.0000      -0.483355       -13.1527
  49   2.0000      -0.445857       -12.1324
  50   2.0000      -0.386071       -10.5055
  51   2.0000      -0.371172       -10.1001
  52   2.0000      -0.363718        -9.8973
  53   0.0000       0.019785         0.5384
  54   0.0000       0.026665         0.7256
  55   0.0000       0.028255         0.7689
  56   0.0000       0.036684         0.9982
  57   0.0000       0.042701         1.1620

MULLIKEN ATOMIC CHARGES
-----------------------
   0 F :   -0.726797
   1 S :    2.794841
   2 O :   -1.352926
   3 O :   -1.347016
   4 P :    1.194833
   5 C :   -0.343377
   6 C :   -0.362297
   7 H :    0.393993
   8 C :   -0.275140
   9 H :    0.238850
  10 C :   -0.306535
  11 H :    0.350780
  12 C :   -0.287385
  13 H :    0.237432
  14 C :   -0.400115
  15 H :    0.364514
  16 C :   -1.133917
  17 H :    0.292647
  18 H :    0.294007
  19 H :    0.373605
Sum of atomic charges:    0.0000000

LOEWDIN ATOMIC CHARGES
----------------------
   0 F :    0.295361
   1 S :   -0.402939
   2 O :    0.265520
   3 O :    0.279413
   4 P :    0.333310
   5 C :   -0.321688
   6 C :    0.272340
   7 H :   -0.342781
   8 C :    0.356636
   9 H :   -0.316560
  10 C :    0.348590
  11 H :   -0.312955
  12 C :    0.355038
  13 H :   -0.317018
  14 C :    0.268643
  15 H :   -0.345442
  16 C :    0.708356
  17 H :   -0.373373
  18 H :   -0.380808
  19 H :   -0.369644

  Mayer bond orders larger than 0.100000
B(  0-F ,  4-P ) :   0.4719 B(  1-S ,  2-O ) :   0.8282 B(  1-S ,  3-O ) :   0.8302
B(  1-S ,  4-P ) :   0.7983 B(  1-S ,  5-C ) :   0.8337 B(  1-S ,  6-C ) :  -0.1720
B(  1-S , 14-C ) :  -0.1975 B(  2-O , 14-C ) :   0.1221 B(  3-O ,  5-C ) :  -0.1604
B(  3-O ,  6-C ) :   0.1459 B(  4-P , 16-C ) :   0.9605 B(  5-C ,  6-C ) :   0.9568
B(  5-C ,  8-C ) :  -0.3407 B(  5-C , 12-C ) :  -0.3367 B(  5-C , 14-C ) :   0.9447
B(  5-C , 15-H ) :  -0.1074 B(  6-C ,  7-H ) :   0.8256 B(  6-C ,  8-C ) :   1.3783
B(  6-C ,  9-H ) :  -0.1183 B(  6-C , 10-C ) :   0.1030 B(  6-C , 12-C ) :   0.1257
B(  8-C ,  9-H ) :   1.1316 B(  8-C , 10-C ) :   1.1192 B(  8-C , 12-C ) :  -0.1023
B(  8-C , 14-C ) :   0.1376 B(  9-H , 10-C ) :  -0.1097 B( 10-C , 11-H ) :   0.9762
B( 10-C , 12-C ) :   1.1035 B( 10-C , 13-H ) :  -0.1169 B( 12-C , 13-H ) :   1.1340
B( 12-C , 14-C ) :   1.3883 B( 13-H , 14-C ) :  -0.1224 B( 14-C , 15-H ) :   0.8474
B( 16-C , 17-H ) :   0.9123 B( 16-C , 18-H ) :   0.9022 B( 16-C , 19-H ) :   0.8402

MP2 TOTAL ENERGY:    -1259.781968152 Eh
FINAL SINGLE POINT ENERGY     -1259.781968151605

DIPOLE MOMENT
-------------
                                X             Y             Z
Electronic contribution:     -5.19298      -2.09885      -1.21402
Nuclear contribution   :      5.81264       1.35345       0.19061
                        -----------------------------------------
Total Dipole Moment    :      0.61966      -0.74540      -1.02341
                        -----------------------------------------
Magnitude (a.u.)       :      1.40960
Magnitude (Debye)      :      3.58292

Rotational constants in cm-1:     0.047350     0.016746     0.015543
Rotational constants in MHz :  1419.503658   502.045602   465.969782

                             ****ORCA TERMINATED NORMALLY****
TOTAL RUN TIME: 0 days 1 hours 12 minutes 34 seconds 610 msec
