                         Program Version 5.0.4 -  RELEASE  -
|  1> ! ri-mp2 aug-cc-pvdz aug-cc-pvdz/c tightscf
|  2> %pal nprocs 16 end
|  3> %maxcore 3800
|  4> %base "DZ_B-S_16_AB"
|  5> %scf
|  6> STABPerform true
|  7> STABRestartUHFifUnstable true
|  8> end
|  9>
| 10> *xyz 0 1
| 11> F         2.315394   -0.176463   -0.000002
| 12> S         0.993089   -1.121714    0.000002
| 13> B        -0.348648    0.059375    0.000001
| 14> S        -2.017869   -0.627094    0.000001
| 15> S        -0.138809    1.835432   -0.000002
| 16> H         1.201437    1.831190   -0.000001
| 17> H        -1.679324   -1.925877   -0.000001
| 18> *
| 19>
| 20> $new_job
| 21> ! ri-mp2 aug-cc-pvtz aug-cc-pvtz/c tightscf
| 22> %pal nprocs 16 end
| 23> %maxcore 3800
| 24> %base "TZ_B-S_16_AB"
| 25>
| 26> *xyz 0 1
| 27> F         2.315394   -0.176463   -0.000002
| 28> S         0.993089   -1.121714    0.000002
| 29> B        -0.348648    0.059375    0.000001
| 30> S        -2.017869   -0.627094    0.000001
| 31> S        -0.138809    1.835432   -0.000002
| 32> H         1.201437    1.831190   -0.000001
| 33> H        -1.679324   -1.925877   -0.000001
| 34> *
| 35>
| 36> $new_job
| 37> ! ri-mp2 aug-cc-pvqz aug-cc-pvqz/c tightscf
| 38> %pal nprocs 16 end
| 39> %maxcore 3800
| 40> %base "QZ_B-S_16_AB"
| 41>
| 42> *xyz 0 1
| 43> F         2.315394   -0.176463   -0.000002
| 44> S         0.993089   -1.121714    0.000002
| 45> B        -0.348648    0.059375    0.000001
| 46> S        -2.017869   -0.627094    0.000001
| 47> S        -0.138809    1.835432   -0.000002
| 48> H         1.201437    1.831190   -0.000001
| 49> H        -1.679324   -1.925877   -0.000001
| 50> *
| 51>
| 52>
| 53>
| 54>
| 55>                          ****END OF INPUT****
 Total Charge           Charge          ....    0
 Multiplicity           Mult            ....    1
 Number of Electrons    NEL             ....   64
MP2 TOTAL ENERGY:    -1318.671185346 Eh
FINAL SINGLE POINT ENERGY     -1318.671185346021
MP2 TOTAL ENERGY:    -1318.929025170 Eh
FINAL SINGLE POINT ENERGY     -1318.929025169729

CARTESIAN COORDINATES (ANGSTROEM)
---------------------------------
  F      2.315394   -0.176463   -0.000002
  S      0.993089   -1.121714    0.000002
  B     -0.348648    0.059375    0.000001
  S     -2.017869   -0.627094    0.000001
  S     -0.138809    1.835432   -0.000002
  H      1.201437    1.831190   -0.000001
  H     -1.679324   -1.925877   -0.000001

 Multiplicity           Mult            ....    1
 Number of Electrons    NEL             ....   64
 Basis Dimension        Dim             ....  504

ORBITAL ENERGIES
----------------

  NO   OCC          E(Eh)            E(eV)
   0   2.0000     -92.043209     -2504.6230
   1   2.0000     -91.977513     -2502.8354
   2   2.0000     -91.972384     -2502.6958
   3   2.0000     -26.326185      -716.3719
   4   2.0000      -9.039767      -245.9846
   5   2.0000      -8.982175      -244.4174
   6   2.0000      -8.977380      -244.2869
   7   2.0000      -7.690864      -209.2791
   8   2.0000      -6.721448      -182.8999
   9   2.0000      -6.719158      -182.8376
  10   2.0000      -6.718528      -182.8204
  11   2.0000      -6.663659      -181.3274
  12   2.0000      -6.662820      -181.3046
  13   2.0000      -6.662135      -181.2859
  14   2.0000      -6.658866      -181.1970
  15   2.0000      -6.658083      -181.1757
  16   2.0000      -6.657489      -181.1595
  17   2.0000      -1.624726       -44.2110
  18   2.0000      -1.049346       -28.5542
  19   2.0000      -0.985693       -26.8221
  20   2.0000      -0.972853       -26.4727
  21   2.0000      -0.732006       -19.9189
  22   2.0000      -0.706353       -19.2208
  23   2.0000      -0.697621       -18.9832
  24   2.0000      -0.659763       -17.9531
  25   2.0000      -0.550845       -14.9893
  26   2.0000      -0.539746       -14.6872
  27   2.0000      -0.496465       -13.5095
  28   2.0000      -0.473880       -12.8949
  29   2.0000      -0.455442       -12.3932
  30   2.0000      -0.389714       -10.6047
  31   2.0000      -0.386053       -10.5050
  32   0.0000       0.026873         0.7312
  33   0.0000       0.033213         0.9038
  34   0.0000       0.038923         1.0592
  35   0.0000       0.040300         1.0966
  36   0.0000       0.057923         1.5762

MULLIKEN ATOMIC CHARGES
-----------------------
   0 F :   -0.647810
   1 S :    0.570004
   2 B :   -0.042322
   3 S :    0.009423
   4 S :   -0.023461
   5 H :    0.099471
   6 H :    0.034694
Sum of atomic charges:    0.0000000

LOEWDIN ATOMIC CHARGES
----------------------
   0 F :    0.110978
   1 S :    0.704880
   2 B :   -2.259177
   3 S :    1.536606
   4 S :    1.584765
   5 H :   -0.856520
   6 H :   -0.821532

  Mayer bond orders larger than 0.100000
B(  0-F ,  1-S ) :   0.5975 B(  1-S ,  2-B ) :   1.2293 B(  2-B ,  3-S ) :   1.1627
B(  2-B ,  4-S ) :   1.2199 B(  3-S ,  6-H ) :   1.0425 B(  4-S ,  5-H ) :   1.0271

MP2 TOTAL ENERGY:    -1319.015412605 Eh
FINAL SINGLE POINT ENERGY     -1319.015412605458

DIPOLE MOMENT
-------------
                                X             Y             Z
Electronic contribution:      2.22571      -0.38317       0.00000
Nuclear contribution   :     -2.29841       0.02730      -0.00000
                        -----------------------------------------
Total Dipole Moment    :     -0.07270      -0.35587       0.00000
                        -----------------------------------------
Magnitude (a.u.)       :      0.36322
Magnitude (Debye)      :      0.92324

Rotational constants in cm-1:     0.100125     0.062314     0.038410
Rotational constants in MHz :  3001.662931  1868.141071  1151.489834

                             ****ORCA TERMINATED NORMALLY****
TOTAL RUN TIME: 0 days 0 hours 15 minutes 37 seconds 392 msec
