                         Program Version 5.0.4 -  RELEASE  -
|  1> ! ri-mp2 aug-cc-pvdz aug-cc-pvdz/c tightscf
|  2> %pal nprocs 16 end
|  3> %maxcore 3800
|  4> %base "DZ_Si-Si_128_A"
|  5> %scf
|  6> STABPerform true
|  7> STABRestartUHFifUnstable true
|  8> end
|  9>
| 10> *xyz 0 2
| 11> Si        -1.641868   -0.417765   -0.088296
| 12> C         0.040320    0.476453    0.001445
| 13> H        -1.572294   -1.780533    0.481382
| 14> H        -2.682796    0.425698    0.529339
| 15> O         0.122157    1.674284    0.014332
| 16> S         1.478576   -0.591580    0.007643
| 17> H         2.364843    0.415841   -0.020193
| 18> *
| 19>
| 20> $new_job
| 21> ! ri-mp2 aug-cc-pvtz aug-cc-pvtz/c tightscf
| 22> %pal nprocs 16 end
| 23> %maxcore 3800
| 24> %base "TZ_Si-Si_128_A"
| 25>
| 26> *xyz 0 2
| 27> Si        -1.641868   -0.417765   -0.088296
| 28> C         0.040320    0.476453    0.001445
| 29> H        -1.572294   -1.780533    0.481382
| 30> H        -2.682796    0.425698    0.529339
| 31> O         0.122157    1.674284    0.014332
| 32> S         1.478576   -0.591580    0.007643
| 33> H         2.364843    0.415841   -0.020193
| 34> *
| 35>
| 36> $new_job
| 37> ! ri-mp2 aug-cc-pvqz aug-cc-pvqz/c tightscf
| 38> %pal nprocs 16 end
| 39> %maxcore 3800
| 40> %base "QZ_Si-Si_128_A"
| 41>
| 42> *xyz 0 2
| 43> Si        -1.641868   -0.417765   -0.088296
| 44> C         0.040320    0.476453    0.001445
| 45> H        -1.572294   -1.780533    0.481382
| 46> H        -2.682796    0.425698    0.529339
| 47> O         0.122157    1.674284    0.014332
| 48> S         1.478576   -0.591580    0.007643
| 49> H         2.364843    0.415841   -0.020193
| 50> *
| 51>
| 52>
| 53>
| 54>
| 55>                          ****END OF INPUT****
 Total Charge           Charge          ....    0
 Multiplicity           Mult            ....    2
 Number of Electrons    NEL             ....   47
MP2 TOTAL ENERGY:     -801.464385111 Eh
FINAL SINGLE POINT ENERGY      -801.464385110642
MP2 TOTAL ENERGY:     -801.640570409 Eh
FINAL SINGLE POINT ENERGY      -801.640570408618

CARTESIAN COORDINATES (ANGSTROEM)
---------------------------------
  Si    -1.641868   -0.417765   -0.088296
  C      0.040320    0.476453    0.001445
  H     -1.572294   -1.780533    0.481382
  H     -2.682796    0.425698    0.529339
  O      0.122157    1.674284    0.014332
  S      1.478576   -0.591580    0.007643
  H      2.364843    0.415841   -0.020193

 Multiplicity           Mult            ....    2
 Number of Electrons    NEL             ....   47
 Basis Dimension        Dim             ....  466

ORBITAL ENERGIES
----------------
                 SPIN UP ORBITALS
  NO   OCC          E(Eh)            E(eV)
   0   1.0000     -91.981310     -2502.9387
   1   1.0000     -68.808935     -1872.3863
   2   1.0000     -20.578651      -559.9736
   3   1.0000     -11.362154      -309.1799
   4   1.0000      -8.985159      -244.4986
   5   1.0000      -6.666697      -181.4100
   6   1.0000      -6.665629      -181.3810
   7   1.0000      -6.664586      -181.3526
   8   1.0000      -6.160051      -167.6235
   9   1.0000      -4.272919      -116.2720
  10   1.0000      -4.262759      -115.9956
  11   1.0000      -4.262584      -115.9908
  12   1.0000      -1.425690       -38.7950
  13   1.0000      -1.029289       -28.0084
  14   1.0000      -0.829407       -22.5693
  15   1.0000      -0.715113       -19.4592
  16   1.0000      -0.645518       -17.5654
  17   1.0000      -0.619269       -16.8512
  18   1.0000      -0.586959       -15.9720
  19   1.0000      -0.525704       -14.3051
  20   1.0000      -0.510917       -13.9028
  21   1.0000      -0.409172       -11.1341
  22   1.0000      -0.402879       -10.9629
  23   1.0000      -0.350816        -9.5462
  24   0.0000       0.025002         0.6803
  25   0.0000       0.034775         0.9463
  26   0.0000       0.039804         1.0831
  27   0.0000       0.041561         1.1309
  28   0.0000       0.049230         1.3396

                 SPIN DOWN ORBITALS
  NO   OCC          E(Eh)            E(eV)
   0   1.0000     -91.981294     -2502.9383
   1   1.0000     -68.803028     -1872.2256
   2   1.0000     -20.572673      -559.8109
   3   1.0000     -11.364532      -309.2446
   4   1.0000      -8.985138      -244.4980
   5   1.0000      -6.666573      -181.4067
   6   1.0000      -6.665541      -181.3786
   7   1.0000      -6.664709      -181.3560
   8   1.0000      -6.151045      -167.3784
   9   1.0000      -4.258621      -115.8830
  10   1.0000      -4.258539      -115.8807
  11   1.0000      -4.249829      -115.6437
  12   1.0000      -1.413212       -38.4555
  13   1.0000      -1.028116       -27.9765
  14   1.0000      -0.812390       -22.1063
  15   1.0000      -0.694465       -18.8974
  16   1.0000      -0.642237       -17.4762
  17   1.0000      -0.608353       -16.5541
  18   1.0000      -0.558973       -15.2104
  19   1.0000      -0.523670       -14.2498
  20   1.0000      -0.505263       -13.7489
  21   1.0000      -0.399191       -10.8625
  22   1.0000      -0.391824       -10.6621
  23   0.0000       0.008362         0.2275
  24   0.0000       0.026577         0.7232
  25   0.0000       0.035335         0.9615
  26   0.0000       0.040082         1.0907
  27   0.0000       0.048522         1.3204

MULLIKEN ATOMIC CHARGES AND SPIN POPULATIONS
--------------------------------------------
   0 Si:    0.813090    0.957871
   1 C :    0.177120   -0.108122
   2 H :   -0.202479    0.005635
   3 H :   -0.188051    0.004810
   4 O :   -0.680641    0.135055
   5 S :   -0.011601    0.004714
   6 H :    0.092561    0.000036
Sum of atomic charges         :    0.0000000

LOEWDIN ATOMIC CHARGES AND SPIN POPULATIONS
-------------------------------------------
   0 Si:    0.923691    0.518023
   1 C :   -1.329569    0.125972
   2 H :   -0.362202    0.131285
   3 H :   -0.355292    0.127345
   4 O :    0.490149    0.090699
   5 S :    1.451188    0.006506
   6 H :   -0.817964    0.000171

  Mayer bond orders larger than 0.100000
B(  0-Si,  1-C ) :   0.7714 B(  0-Si,  2-H ) :   0.8846 B(  0-Si,  3-H ) :   0.9170
B(  1-C ,  4-O ) :   1.6290 B(  1-C ,  5-S ) :   0.9666 B(  5-S ,  6-H ) :   1.0389

MP2 TOTAL ENERGY:     -801.699771275 Eh
FINAL SINGLE POINT ENERGY      -801.699771275340

DIPOLE MOMENT
-------------
                                X             Y             Z
Electronic contribution:      1.57851       0.17806      -0.95805
Nuclear contribution   :     -1.77572      -0.84125       0.96409
                        -----------------------------------------
Total Dipole Moment    :     -0.19721      -0.66318       0.00603
                        -----------------------------------------
Magnitude (a.u.)       :      0.69191
Magnitude (Debye)      :      1.75869

Rotational constants in cm-1:     0.248391     0.103929     0.073715
Rotational constants in MHz :  7446.580256  3115.721403  2209.916013

                             ****ORCA TERMINATED NORMALLY****
TOTAL RUN TIME: 0 days 0 hours 18 minutes 5 seconds 383 msec
