                         Program Version 5.0.4 -  RELEASE  -
|  1> ! ri-mp2 aug-cc-pvdz aug-cc-pvdz/c tightscf
|  2> %pal nprocs 16 end
|  3> %maxcore 3800
|  4> %base "DZ_Si-S_11_AB"
|  5> %scf
|  6> STABPerform true
|  7> STABRestartUHFifUnstable true
|  8> end
|  9>
| 10> *xyz 0 1
| 11> S        -0.721802   -0.496972    0.021563
| 12> C         0.906626   -0.988320   -0.560978
| 13> Si        -0.778225    1.728213    0.015222
| 14> O        -0.836866   -0.935788    1.393447
| 15> O        -1.675267   -0.954498   -0.961409
| 16> C         1.993847   -0.424526    0.284670
| 17> H         0.976911   -0.678850   -1.602884
| 18> C         2.872381    0.462582   -0.149626
| 19> H         2.020685   -0.764751    1.313148
| 20> H         2.863312    0.817217   -1.173576
| 21> H         3.641396    0.857860    0.499652
| 22> H         0.857580   -2.078950   -0.514932
| 23> H         0.040165    2.246554    1.120997
| 24> H        -2.211645    2.002004    0.197020
| 25> H        -0.284481    2.179353   -1.298243
| 26> *
| 27>
| 28> $new_job
| 29> ! ri-mp2 aug-cc-pvtz aug-cc-pvtz/c tightscf
| 30> %pal nprocs 16 end
| 31> %maxcore 3800
| 32> %base "TZ_Si-S_11_AB"
| 33>
| 34> *xyz 0 1
| 35> S        -0.721802   -0.496972    0.021563
| 36> C         0.906626   -0.988320   -0.560978
| 37> Si        -0.778225    1.728213    0.015222
| 38> O        -0.836866   -0.935788    1.393447
| 39> O        -1.675267   -0.954498   -0.961409
| 40> C         1.993847   -0.424526    0.284670
| 41> H         0.976911   -0.678850   -1.602884
| 42> C         2.872381    0.462582   -0.149626
| 43> H         2.020685   -0.764751    1.313148
| 44> H         2.863312    0.817217   -1.173576
| 45> H         3.641396    0.857860    0.499652
| 46> H         0.857580   -2.078950   -0.514932
| 47> H         0.040165    2.246554    1.120997
| 48> H        -2.211645    2.002004    0.197020
| 49> H        -0.284481    2.179353   -1.298243
| 50> *
| 51>
| 52> $new_job
| 53> ! ri-mp2 aug-cc-pvqz aug-cc-pvqz/c tightscf
| 54> %pal nprocs 16 end
| 55> %maxcore 3800
| 56> %base "QZ_Si-S_11_AB"
| 57>
| 58> *xyz 0 1
| 59> S        -0.721802   -0.496972    0.021563
| 60> C         0.906626   -0.988320   -0.560978
| 61> Si        -0.778225    1.728213    0.015222
| 62> O        -0.836866   -0.935788    1.393447
| 63> O        -1.675267   -0.954498   -0.961409
| 64> C         1.993847   -0.424526    0.284670
| 65> H         0.976911   -0.678850   -1.602884
| 66> C         2.872381    0.462582   -0.149626
| 67> H         2.020685   -0.764751    1.313148
| 68> H         2.863312    0.817217   -1.173576
| 69> H         3.641396    0.857860    0.499652
| 70> H         0.857580   -2.078950   -0.514932
| 71> H         0.040165    2.246554    1.120997
| 72> H        -2.211645    2.002004    0.197020
| 73> H        -0.284481    2.179353   -1.298243
| 74> *
| 75>
| 76>
| 77>
| 78>
| 79>                          ****END OF INPUT****
 Total Charge           Charge          ....    0
 Multiplicity           Mult            ....    1
 Number of Electrons    NEL             ....   72
MP2 TOTAL ENERGY:     -955.454405633 Eh
FINAL SINGLE POINT ENERGY      -955.454405632867
MP2 TOTAL ENERGY:     -955.816719774 Eh
FINAL SINGLE POINT ENERGY      -955.816719774149

CARTESIAN COORDINATES (ANGSTROEM)
---------------------------------
  S     -0.721802   -0.496972    0.021563
  C      0.906626   -0.988320   -0.560978
  Si    -0.778225    1.728213    0.015222
  O     -0.836866   -0.935788    1.393447
  O     -1.675267   -0.954498   -0.961409
  C      1.993847   -0.424526    0.284670
  H      0.976911   -0.678850   -1.602884
  C      2.872381    0.462582   -0.149626
  H      2.020685   -0.764751    1.313148
  H      2.863312    0.817217   -1.173576
  H      3.641396    0.857860    0.499652
  H      0.857580   -2.078950   -0.514932
  H      0.040165    2.246554    1.120997
  H     -2.211645    2.002004    0.197020
  H     -0.284481    2.179353   -1.298243

 Multiplicity           Mult            ....    1
 Number of Electrons    NEL             ....   72
 Basis Dimension        Dim             ....  936

ORBITAL ENERGIES
----------------

  NO   OCC          E(Eh)            E(eV)
   0   2.0000     -92.150919     -2507.5540
   1   2.0000     -68.817960     -1872.6319
   2   2.0000     -20.538016      -558.8678
   3   2.0000     -20.537958      -558.8663
   4   2.0000     -11.279347      -306.9266
   5   2.0000     -11.263214      -306.4876
   6   2.0000     -11.252988      -306.2094
   7   2.0000      -9.124778      -248.2978
   8   2.0000      -6.809616      -185.2991
   9   2.0000      -6.808935      -185.2806
  10   2.0000      -6.808925      -185.2803
  11   2.0000      -6.167528      -167.8270
  12   2.0000      -4.273974      -116.3007
  13   2.0000      -4.273216      -116.2801
  14   2.0000      -4.273133      -116.2779
  15   2.0000      -1.445368       -39.3305
  16   2.0000      -1.335202       -36.3327
  17   2.0000      -1.118434       -30.4341
  18   2.0000      -1.004592       -27.3363
  19   2.0000      -0.867719       -23.6118
  20   2.0000      -0.799601       -21.7582
  21   2.0000      -0.750228       -20.4148
  22   2.0000      -0.689631       -18.7658
  23   2.0000      -0.662621       -18.0308
  24   2.0000      -0.649146       -17.6642
  25   2.0000      -0.637019       -17.3342
  26   2.0000      -0.616335       -16.7713
  27   2.0000      -0.573690       -15.6109
  28   2.0000      -0.536233       -14.5916
  29   2.0000      -0.531684       -14.4679
  30   2.0000      -0.521614       -14.1938
  31   2.0000      -0.496163       -13.5013
  32   2.0000      -0.490792       -13.3551
  33   2.0000      -0.469818       -12.7844
  34   2.0000      -0.422982       -11.5099
  35   2.0000      -0.384790       -10.4707
  36   0.0000       0.017065         0.4644
  37   0.0000       0.028243         0.7685
  38   0.0000       0.030686         0.8350
  39   0.0000       0.034064         0.9269
  40   0.0000       0.045071         1.2264

MULLIKEN ATOMIC CHARGES
-----------------------
   0 S :    2.205572
   1 C :   -0.607685
   2 Si:    0.912282
   3 O :   -1.273433
   4 O :   -1.328460
   5 C :   -0.471463
   6 H :    0.316277
   7 C :   -0.706035
   8 H :    0.397963
   9 H :    0.329606
  10 H :    0.385386
  11 H :    0.397169
  12 H :   -0.127324
  13 H :   -0.271417
  14 H :   -0.158439
Sum of atomic charges:    0.0000000

LOEWDIN ATOMIC CHARGES
----------------------
   0 S :   -0.299381
   1 C :    0.296954
   2 Si:    0.997634
   3 O :    0.240479
   4 O :    0.235500
   5 C :    0.272503
   6 H :   -0.357393
   7 C :    0.785827
   8 H :   -0.330623
   9 H :   -0.343571
  10 H :   -0.340969
  11 H :   -0.332389
  12 H :   -0.272756
  13 H :   -0.280626
  14 H :   -0.271190

  Mayer bond orders larger than 0.100000
B(  0-S ,  1-C ) :   0.9142 B(  0-S ,  2-Si) :   0.5584 B(  0-S ,  3-O ) :   1.0006
B(  0-S ,  4-O ) :   0.9159 B(  1-C ,  5-C ) :   0.9193 B(  1-C ,  6-H ) :   0.8875
B(  1-C , 11-H ) :   0.7880 B(  2-Si, 12-H ) :   0.7899 B(  2-Si, 13-H ) :   0.7465
B(  2-Si, 14-H ) :   0.7819 B(  5-C ,  7-C ) :   1.7884 B(  5-C ,  8-H ) :   0.8377
B(  7-C ,  9-H ) :   0.8898 B(  7-C , 10-H ) :   0.9134

MP2 TOTAL ENERGY:     -955.934312846 Eh
FINAL SINGLE POINT ENERGY      -955.934312845842

DIPOLE MOMENT
-------------
                                X             Y             Z
Electronic contribution:     -6.30274      -3.08869       0.99093
Nuclear contribution   :      7.87445       4.42767      -1.44272
                        -----------------------------------------
Total Dipole Moment    :      1.57172       1.33898      -0.45179
                        -----------------------------------------
Magnitude (a.u.)       :      2.11359
Magnitude (Debye)      :      5.37232

Rotational constants in cm-1:     0.077510     0.049766     0.038664
Rotational constants in MHz :  2323.684199  1491.935408  1159.108733

                             ****ORCA TERMINATED NORMALLY****
TOTAL RUN TIME: 0 days 1 hours 29 minutes 19 seconds 280 msec
