                         Program Version 5.0.4 -  RELEASE  -
|  1> ! ri-mp2 aug-cc-pvdz aug-cc-pvdz/c tightscf
|  2> %pal nprocs 16 end
|  3> %maxcore 3800
|  4> %base "DZ_P-N_39_AB"
|  5> %scf
|  6> STABPerform true
|  7> STABRestartUHFifUnstable true
|  8> end
|  9>
| 10> *xyz 0 1
| 11> P        -0.673365    0.000011    0.510386
| 12> N         0.846086   -0.000018   -0.478983
| 13> F        -1.302451    1.193890   -0.285840
| 14> F        -1.302476   -1.193908   -0.285770
| 15> F         1.534544    1.090488    0.046783
| 16> F         1.534591   -1.090475    0.046726
| 17> *
| 18>
| 19> $new_job
| 20> ! ri-mp2 aug-cc-pvtz aug-cc-pvtz/c tightscf
| 21> %pal nprocs 16 end
| 22> %maxcore 3800
| 23> %base "TZ_P-N_39_AB"
| 24>
| 25> *xyz 0 1
| 26> P        -0.673365    0.000011    0.510386
| 27> N         0.846086   -0.000018   -0.478983
| 28> F        -1.302451    1.193890   -0.285840
| 29> F        -1.302476   -1.193908   -0.285770
| 30> F         1.534544    1.090488    0.046783
| 31> F         1.534591   -1.090475    0.046726
| 32> *
| 33>
| 34> $new_job
| 35> ! ri-mp2 aug-cc-pvqz aug-cc-pvqz/c tightscf
| 36> %pal nprocs 16 end
| 37> %maxcore 3800
| 38> %base "QZ_P-N_39_AB"
| 39>
| 40> *xyz 0 1
| 41> P        -0.673365    0.000011    0.510386
| 42> N         0.846086   -0.000018   -0.478983
| 43> F        -1.302451    1.193890   -0.285840
| 44> F        -1.302476   -1.193908   -0.285770
| 45> F         1.534544    1.090488    0.046783
| 46> F         1.534591   -1.090475    0.046726
| 47> *
| 48>
| 49>
| 50>
| 51>
| 52>                          ****END OF INPUT****
 Total Charge           Charge          ....    0
 Multiplicity           Mult            ....    1
 Number of Electrons    NEL             ....   58
MP2 TOTAL ENERGY:     -794.002632409 Eh
FINAL SINGLE POINT ENERGY      -794.002632408515
MP2 TOTAL ENERGY:     -794.430708455 Eh
FINAL SINGLE POINT ENERGY      -794.430708455338

CARTESIAN COORDINATES (ANGSTROEM)
---------------------------------
  P     -0.673365    0.000011    0.510386
  N      0.846086   -0.000018   -0.478983
  F     -1.302451    1.193890   -0.285840
  F     -1.302476   -1.193908   -0.285770
  F      1.534544    1.090488    0.046783
  F      1.534591   -1.090475    0.046726

 Multiplicity           Mult            ....    1
 Number of Electrons    NEL             ....   58
 Basis Dimension        Dim             ....  484

ORBITAL ENERGIES
----------------

  NO   OCC          E(Eh)            E(eV)
   0   2.0000     -80.129352     -2180.4305
   1   2.0000     -26.361718      -717.3388
   2   2.0000     -26.361697      -717.3383
   3   2.0000     -26.359532      -717.2793
   4   2.0000     -26.359520      -717.2790
   5   2.0000     -15.778595      -429.3574
   6   2.0000      -7.653799      -208.2705
   7   2.0000      -5.547185      -150.9466
   8   2.0000      -5.546420      -150.9258
   9   2.0000      -5.544419      -150.8713
  10   2.0000      -1.714678       -46.6588
  11   2.0000      -1.690988       -46.0141
  12   2.0000      -1.658044       -45.1177
  13   2.0000      -1.626303       -44.2540
  14   2.0000      -1.135694       -30.9038
  15   2.0000      -0.921881       -25.0857
  16   2.0000      -0.817711       -22.2510
  17   2.0000      -0.805303       -21.9134
  18   2.0000      -0.790575       -21.5126
  19   2.0000      -0.777985       -21.1701
  20   2.0000      -0.763414       -20.7735
  21   2.0000      -0.734794       -19.9947
  22   2.0000      -0.721701       -19.6385
  23   2.0000      -0.707707       -19.2577
  24   2.0000      -0.694795       -18.9063
  25   2.0000      -0.661537       -18.0013
  26   2.0000      -0.624975       -17.0064
  27   2.0000      -0.542987       -14.7754
  28   2.0000      -0.452520       -12.3137
  29   0.0000       0.040202         1.0940
  30   0.0000       0.047215         1.2848
  31   0.0000       0.051382         1.3982
  32   0.0000       0.062008         1.6873
  33   0.0000       0.098611         2.6833

MULLIKEN ATOMIC CHARGES
-----------------------
   0 P :    1.769787
   1 N :    0.282288
   2 F :   -0.652401
   3 F :   -0.652402
   4 F :   -0.373642
   5 F :   -0.373631
Sum of atomic charges:    0.0000000

LOEWDIN ATOMIC CHARGES
----------------------
   0 P :   -0.415908
   1 N :   -0.900468
   2 F :    0.284761
   3 F :    0.284754
   4 F :    0.373416
   5 F :    0.373445

  Mayer bond orders larger than 0.100000
B(  0-P ,  1-N ) :   0.7581 B(  0-P ,  2-F ) :   0.5695 B(  0-P ,  3-F ) :   0.5695
B(  1-N ,  4-F ) :   0.7341 B(  1-N ,  5-F ) :   0.7341

MP2 TOTAL ENERGY:     -794.572387265 Eh
FINAL SINGLE POINT ENERGY      -794.572387265111

DIPOLE MOMENT
-------------
                                X             Y             Z
Electronic contribution:     -0.67582      -0.00004       0.49550
Nuclear contribution   :      0.16911      -0.00001      -0.01506
                        -----------------------------------------
Total Dipole Moment    :     -0.50670      -0.00004       0.48045
                        -----------------------------------------
Magnitude (a.u.)       :      0.69827
Magnitude (Debye)      :      1.77486

Rotational constants in cm-1:     0.148122     0.087584     0.060781
Rotational constants in MHz :  4440.584292  2625.711058  1822.181263

                             ****ORCA TERMINATED NORMALLY****
TOTAL RUN TIME: 0 days 0 hours 10 minutes 25 seconds 973 msec
