                         Program Version 5.0.4 -  RELEASE  -
|  1> ! ri-mp2 aug-cc-pvdz aug-cc-pvdz/c tightscf
|  2> %pal nprocs 16 end
|  3> %maxcore 3800
|  4> %base "DZ_B-Cl_45_AB"
|  5>
|  6> *xyz 0 1
|  7> Cl         1.245677    1.703290   -0.000002
|  8> B         0.671622    0.060926   -0.000001
|  9> Cl         1.859568   -1.226153    0.000002
| 10> C        -0.843677   -0.289191   -0.000003
| 11> N        -1.610665    0.734603   -0.000004
| 12> O        -2.939880    0.395159    0.000006
| 13> H        -3.390479    1.246752    0.000006
| 14> C        -1.381998   -1.686653   -0.000000
| 15> H        -0.581529   -2.419381    0.000001
| 16> H        -2.013760   -1.845879   -0.874797
| 17> H        -2.013759   -1.845876    0.874798
| 18> *
| 19>
| 20> $new_job
| 21> ! ri-mp2 aug-cc-pvtz aug-cc-pvtz/c tightscf
| 22> %pal nprocs 16 end
| 23> %maxcore 3800
| 24> %base "TZ_B-Cl_45_AB"
| 25>
| 26> *xyz 0 1
| 27> Cl         1.245677    1.703290   -0.000002
| 28> B         0.671622    0.060926   -0.000001
| 29> Cl         1.859568   -1.226153    0.000002
| 30> C        -0.843677   -0.289191   -0.000003
| 31> N        -1.610665    0.734603   -0.000004
| 32> O        -2.939880    0.395159    0.000006
| 33> H        -3.390479    1.246752    0.000006
| 34> C        -1.381998   -1.686653   -0.000000
| 35> H        -0.581529   -2.419381    0.000001
| 36> H        -2.013760   -1.845879   -0.874797
| 37> H        -2.013759   -1.845876    0.874798
| 38> *
| 39>
| 40> $new_job
| 41> ! ri-mp2 aug-cc-pvqz aug-cc-pvqz/c tightscf
| 42> %pal nprocs 16 end
| 43> %maxcore 3800
| 44> %base "QZ_B-Cl_45_AB"
| 45>
| 46> *xyz 0 1
| 47> Cl         1.245677    1.703290   -0.000002
| 48> B         0.671622    0.060926   -0.000001
| 49> Cl         1.859568   -1.226153    0.000002
| 50> C        -0.843677   -0.289191   -0.000003
| 51> N        -1.610665    0.734603   -0.000004
| 52> O        -2.939880    0.395159    0.000006
| 53> H        -3.390479    1.246752    0.000006
| 54> C        -1.381998   -1.686653   -0.000000
| 55> H        -0.581529   -2.419381    0.000001
| 56> H        -2.013760   -1.845879   -0.874797
| 57> H        -2.013759   -1.845876    0.874798
| 58> *
| 59>
| 60>
| 61>
| 62>
| 63>                          ****END OF INPUT****
 Total Charge           Charge          ....    0
 Multiplicity           Mult            ....    1
 Number of Electrons    NEL             ....   70
MP2 TOTAL ENERGY:    -1152.163864483 Eh
FINAL SINGLE POINT ENERGY     -1152.163864482595
MP2 TOTAL ENERGY:    -1152.482130410 Eh
FINAL SINGLE POINT ENERGY     -1152.482130409554

CARTESIAN COORDINATES (ANGSTROEM)
---------------------------------
  Cl     1.245677    1.703290   -0.000002
  B      0.671622    0.060926   -0.000001
  Cl     1.859568   -1.226153    0.000002
  C     -0.843677   -0.289191   -0.000003
  N     -1.610665    0.734603   -0.000004
  O     -2.939880    0.395159    0.000006
  H     -3.390479    1.246752    0.000006
  C     -1.381998   -1.686653   -0.000000
  H     -0.581529   -2.419381    0.000001
  H     -2.013760   -1.845879   -0.874797
  H     -2.013759   -1.845876    0.874798

 Multiplicity           Mult            ....    1
 Number of Electrons    NEL             ....   70
 Basis Dimension        Dim             ....  752

ORBITAL ENERGIES
----------------

  NO   OCC          E(Eh)            E(eV)
   0   2.0000    -104.845003     -2852.9776
   1   2.0000    -104.837916     -2852.7847
   2   2.0000     -20.620375      -561.1089
   3   2.0000     -15.650985      -425.8849
   4   2.0000     -11.272520      -306.7409
   5   2.0000     -11.232574      -305.6539
   6   2.0000     -10.572957      -287.7048
   7   2.0000     -10.565764      -287.5091
   8   2.0000      -8.039757      -218.7729
   9   2.0000      -8.038737      -218.7451
  10   2.0000      -8.038469      -218.7379
  11   2.0000      -8.032620      -218.5787
  12   2.0000      -8.031522      -218.5488
  13   2.0000      -8.031248      -218.5414
  14   2.0000      -7.714762      -209.9294
  15   2.0000      -1.460719       -39.7482
  16   2.0000      -1.185934       -32.2709
  17   2.0000      -1.140520       -31.0351
  18   2.0000      -1.101000       -29.9597
  19   2.0000      -0.991088       -26.9689
  20   2.0000      -0.820564       -22.3287
  21   2.0000      -0.724692       -19.7199
  22   2.0000      -0.691825       -18.8255
  23   2.0000      -0.645509       -17.5652
  24   2.0000      -0.634067       -17.2538
  25   2.0000      -0.598560       -16.2876
  26   2.0000      -0.565297       -15.3825
  27   2.0000      -0.565151       -15.3785
  28   2.0000      -0.544321       -14.8117
  29   2.0000      -0.521168       -14.1817
  30   2.0000      -0.477041       -12.9810
  31   2.0000      -0.467829       -12.7303
  32   2.0000      -0.455953       -12.4071
  33   2.0000      -0.445222       -12.1151
  34   2.0000      -0.403084       -10.9685
  35   0.0000       0.022909         0.6234
  36   0.0000       0.031152         0.8477
  37   0.0000       0.035761         0.9731
  38   0.0000       0.039758         1.0819
  39   0.0000       0.049118         1.3366

MULLIKEN ATOMIC CHARGES
-----------------------
   0 Cl:   -0.210969
   1 B :    0.802483
   2 Cl:   -0.232446
   3 C :   -0.077255
   4 N :   -0.170598
   5 O :   -0.558543
   6 H :    0.308874
   7 C :   -0.716361
   8 H :    0.348690
   9 H :    0.253062
  10 H :    0.253063
Sum of atomic charges:    0.0000000

LOEWDIN ATOMIC CHARGES
----------------------
   0 Cl:    1.275958
   1 B :   -2.395997
   2 Cl:    1.298376
   3 C :   -0.448162
   4 N :    0.235421
   5 O :    1.034686
   6 H :   -0.839659
   7 C :    0.805188
   8 H :   -0.372450
   9 H :   -0.296680
  10 H :   -0.296681

  Mayer bond orders larger than 0.100000
B(  0-Cl,  1-B ) :   0.9532 B(  0-Cl,  3-C ) :   0.1923 B(  1-B ,  2-Cl) :   0.9624
B(  1-B ,  3-C ) :   1.0486 B(  2-Cl,  3-C ) :   0.1147 B(  3-C ,  4-N ) :   1.6134
B(  3-C ,  7-C ) :   0.7876 B(  4-N ,  5-O ) :   0.7961 B(  5-O ,  6-H ) :   0.9450
B(  7-C ,  8-H ) :   0.9241 B(  7-C ,  9-H ) :   0.9621 B(  7-C , 10-H ) :   0.9621

MP2 TOTAL ENERGY:    -1152.588310882 Eh
FINAL SINGLE POINT ENERGY     -1152.588310882046

DIPOLE MOMENT
-------------
                                X             Y             Z
Electronic contribution:     11.58892       5.02716      -0.00001
Nuclear contribution   :    -12.26377      -5.25345       0.00001
                        -----------------------------------------
Total Dipole Moment    :     -0.67485      -0.22629       0.00000
                        -----------------------------------------
Magnitude (a.u.)       :      0.71178
Magnitude (Debye)      :      1.80921

Rotational constants in cm-1:     0.077706     0.041199     0.027057
Rotational constants in MHz :  2329.555294  1235.105760   811.156129

                             ****ORCA TERMINATED NORMALLY****
TOTAL RUN TIME: 0 days 0 hours 9 minutes 49 seconds 386 msec
