                         Program Version 5.0.4 -  RELEASE  -
|  1> ! ri-mp2 aug-cc-pvdz aug-cc-pvdz/c tightscf
|  2> %pal nprocs 16 end
|  3> %maxcore 3800
|  4> %base "DZ_S-S_12_AB"
|  5>
|  6> *xyz 0 1
|  7> C         3.338662    0.607092    0.551199
|  8> O         2.669288    0.869899    1.499528
|  9> S         2.911047   -0.679350   -0.644871
| 10> S         1.134888   -1.338979    0.067257
| 11> C         0.035897   -0.001536   -0.478776
| 12> O         0.459821    0.986579   -0.999505
| 13> C         4.605887    1.318261    0.171267
| 14> H         5.110993    1.650206    1.075527
| 15> H         4.334965    2.193925   -0.420494
| 16> H         5.266896    0.691582   -0.425199
| 17> C        -1.400165   -0.229286   -0.177513
| 18> C        -1.907624   -1.475040    0.161536
| 19> C        -3.259638   -1.610272    0.421981
| 20> C        -4.094444   -0.511121    0.349690
| 21> C        -3.602023    0.746743    0.012332
| 22> C        -2.250029    0.869485   -0.253153
| 23> H        -3.663833   -2.579891    0.679155
| 24> H        -1.263478   -2.342039    0.206662
| 25> H        -5.151424   -0.628805    0.556284
| 26> H        -1.827235    1.827325   -0.524511
| 27> C        -4.516571    1.935105   -0.047056
| 28> H        -4.854824    2.216037    0.951972
| 29> H        -5.404057    1.719536   -0.642824
| 30> H        -4.015557    2.796974   -0.483979
| 31> *
| 32>
| 33> $new_job
| 34> ! ri-mp2 aug-cc-pvtz aug-cc-pvtz/c tightscf
| 35> %pal nprocs 16 end
| 36> %maxcore 3800
| 37> %base "TZ_S-S_12_AB"
| 38>
| 39> *xyz 0 1
| 40> C         3.338662    0.607092    0.551199
| 41> O         2.669288    0.869899    1.499528
| 42> S         2.911047   -0.679350   -0.644871
| 43> S         1.134888   -1.338979    0.067257
| 44> C         0.035897   -0.001536   -0.478776
| 45> O         0.459821    0.986579   -0.999505
| 46> C         4.605887    1.318261    0.171267
| 47> H         5.110993    1.650206    1.075527
| 48> H         4.334965    2.193925   -0.420494
| 49> H         5.266896    0.691582   -0.425199
| 50> C        -1.400165   -0.229286   -0.177513
| 51> C        -1.907624   -1.475040    0.161536
| 52> C        -3.259638   -1.610272    0.421981
| 53> C        -4.094444   -0.511121    0.349690
| 54> C        -3.602023    0.746743    0.012332
| 55> C        -2.250029    0.869485   -0.253153
| 56> H        -3.663833   -2.579891    0.679155
| 57> H        -1.263478   -2.342039    0.206662
| 58> H        -5.151424   -0.628805    0.556284
| 59> H        -1.827235    1.827325   -0.524511
| 60> C        -4.516571    1.935105   -0.047056
| 61> H        -4.854824    2.216037    0.951972
| 62> H        -5.404057    1.719536   -0.642824
| 63> H        -4.015557    2.796974   -0.483979
| 64> *
| 65>
| 66> $new_job
| 67> ! ri-mp2 aug-cc-pvqz aug-cc-pvqz/c tightscf
| 68> %pal nprocs 16 end
| 69> %maxcore 3800
| 70> %base "QZ_S-S_12_AB"
| 71>
| 72> *xyz 0 1
| 73> C         3.338662    0.607092    0.551199
| 74> O         2.669288    0.869899    1.499528
| 75> S         2.911047   -0.679350   -0.644871
| 76> S         1.134888   -1.338979    0.067257
| 77> C         0.035897   -0.001536   -0.478776
| 78> O         0.459821    0.986579   -0.999505
| 79> C         4.605887    1.318261    0.171267
| 80> H         5.110993    1.650206    1.075527
| 81> H         4.334965    2.193925   -0.420494
| 82> H         5.266896    0.691582   -0.425199
| 83> C        -1.400165   -0.229286   -0.177513
| 84> C        -1.907624   -1.475040    0.161536
| 85> C        -3.259638   -1.610272    0.421981
| 86> C        -4.094444   -0.511121    0.349690
| 87> C        -3.602023    0.746743    0.012332
| 88> C        -2.250029    0.869485   -0.253153
| 89> H        -3.663833   -2.579891    0.679155
| 90> H        -1.263478   -2.342039    0.206662
| 91> H        -5.151424   -0.628805    0.556284
| 92> H        -1.827235    1.827325   -0.524511
| 93> C        -4.516571    1.935105   -0.047056
| 94> H        -4.854824    2.216037    0.951972
| 95> H        -5.404057    1.719536   -0.642824
| 96> H        -4.015557    2.796974   -0.483979
| 97> *
| 98>
| 99>
|100>
|101>
|102>                          ****END OF INPUT****
 Total Charge           Charge          ....    0
 Multiplicity           Mult            ....    1
 Number of Electrons    NEL             ....  118
MP2 TOTAL ENERGY:    -1331.414361200 Eh
FINAL SINGLE POINT ENERGY     -1331.414361199947
MP2 TOTAL ENERGY:    -1331.980352808 Eh
FINAL SINGLE POINT ENERGY     -1331.980352807629

CARTESIAN COORDINATES (ANGSTROEM)
---------------------------------
  C      3.338662    0.607092    0.551199
  O      2.669288    0.869899    1.499528
  S      2.911047   -0.679350   -0.644871
  S      1.134888   -1.338979    0.067257
  C      0.035897   -0.001536   -0.478776
  O      0.459821    0.986579   -0.999505
  C      4.605887    1.318261    0.171267
  H      5.110993    1.650206    1.075527
  H      4.334965    2.193925   -0.420494
  H      5.266896    0.691582   -0.425199
  C     -1.400165   -0.229286   -0.177513
  C     -1.907624   -1.475040    0.161536
  C     -3.259638   -1.610272    0.421981
  C     -4.094444   -0.511121    0.349690
  C     -3.602023    0.746743    0.012332
  C     -2.250029    0.869485   -0.253153
  H     -3.663833   -2.579891    0.679155
  H     -1.263478   -2.342039    0.206662
  H     -5.151424   -0.628805    0.556284
  H     -1.827235    1.827325   -0.524511
  C     -4.516571    1.935105   -0.047056
  H     -4.854824    2.216037    0.951972
  H     -5.404057    1.719536   -0.642824
  H     -4.015557    2.796974   -0.483979

 Multiplicity           Mult            ....    1
 Number of Electrons    NEL             ....  118
 Basis Dimension        Dim             .... 1588

ORBITAL ENERGIES
----------------

  NO   OCC          E(Eh)            E(eV)
   0   2.0000     -91.991874     -2503.2262
   1   2.0000     -91.991727     -2503.2222
   2   2.0000     -20.561053      -559.4947
   3   2.0000     -20.560176      -559.4708
   4   2.0000     -11.368379      -309.3493
   5   2.0000     -11.366409      -309.2957
   6   2.0000     -11.256465      -306.3040
   7   2.0000     -11.252543      -306.1973
   8   2.0000     -11.251748      -306.1756
   9   2.0000     -11.248203      -306.0792
  10   2.0000     -11.247961      -306.0726
  11   2.0000     -11.245504      -306.0057
  12   2.0000     -11.244836      -305.9875
  13   2.0000     -11.230517      -305.5979
  14   2.0000      -8.993534      -244.7265
  15   2.0000      -8.993280      -244.7196
  16   2.0000      -6.674885      -181.6328
  17   2.0000      -6.674464      -181.6214
  18   2.0000      -6.673414      -181.5928
  19   2.0000      -6.673208      -181.5872
  20   2.0000      -6.672718      -181.5739
  21   2.0000      -6.672593      -181.5705
  22   2.0000      -1.418882       -38.6098
  23   2.0000      -1.415308       -38.5125
  24   2.0000      -1.181299       -32.1448
  25   2.0000      -1.094808       -29.7912
  26   2.0000      -1.070976       -29.1427
  27   2.0000      -1.046359       -28.4729
  28   2.0000      -1.028685       -27.9919
  29   2.0000      -0.954228       -25.9659
  30   2.0000      -0.931027       -25.3345
  31   2.0000      -0.864079       -23.5128
  32   2.0000      -0.829578       -22.5740
  33   2.0000      -0.765282       -20.8244
  34   2.0000      -0.729465       -19.8497
  35   2.0000      -0.709899       -19.3173
  36   2.0000      -0.675384       -18.3781
  37   2.0000      -0.659121       -17.9356
  38   2.0000      -0.651954       -17.7406
  39   2.0000      -0.643991       -17.5239
  40   2.0000      -0.627716       -17.0810
  41   2.0000      -0.619136       -16.8475
  42   2.0000      -0.601270       -16.3614
  43   2.0000      -0.591855       -16.1052
  44   2.0000      -0.588025       -16.0010
  45   2.0000      -0.578703       -15.7473
  46   2.0000      -0.561902       -15.2901
  47   2.0000      -0.551810       -15.0155
  48   2.0000      -0.526673       -14.3315
  49   2.0000      -0.521583       -14.1930
  50   2.0000      -0.504923       -13.7396
  51   2.0000      -0.502419       -13.6715
  52   2.0000      -0.481810       -13.1107
  53   2.0000      -0.430444       -11.7130
  54   2.0000      -0.426669       -11.6102
  55   2.0000      -0.388561       -10.5733
  56   2.0000      -0.373733       -10.1698
  57   2.0000      -0.354136        -9.6365
  58   2.0000      -0.343106        -9.3364
  59   0.0000       0.021823         0.5938
  60   0.0000       0.026527         0.7218
  61   0.0000       0.027497         0.7482
  62   0.0000       0.035897         0.9768
  63   0.0000       0.039818         1.0835

MULLIKEN ATOMIC CHARGES
-----------------------
   0 C :    0.577620
   1 O :   -0.760980
   2 S :    0.042283
   3 S :    0.028903
   4 C :    0.827449
   5 O :   -0.857097
   6 C :   -0.804230
   7 H :    0.297687
   8 H :    0.318268
   9 H :    0.268761
  10 C :   -0.190472
  11 C :   -0.181811
  12 C :   -0.368137
  13 C :   -0.354179
  14 C :    0.323573
  15 C :   -0.193476
  16 H :    0.211578
  17 H :    0.291972
  18 H :    0.313983
  19 H :    0.346170
  20 C :   -0.814469
  21 H :    0.247379
  22 H :    0.210016
  23 H :    0.219212
Sum of atomic charges:    0.0000000

LOEWDIN ATOMIC CHARGES
----------------------
   0 C :   -1.168740
   1 O :    0.627973
   2 S :    0.747941
   3 S :    0.760514
   4 C :   -1.148940
   5 O :    0.643390
   6 C :    0.773477
   7 H :   -0.315413
   8 H :   -0.303408
   9 H :   -0.346039
  10 C :   -0.227193
  11 C :    0.277348
  12 C :    0.366311
  13 C :    0.355151
  14 C :   -0.056992
  15 C :    0.320126
  16 H :   -0.315627
  17 H :   -0.393630
  18 H :   -0.306817
  19 H :   -0.336835
  20 C :    0.915094
  21 H :   -0.277864
  22 H :   -0.286186
  23 H :   -0.303641

  Mayer bond orders larger than 0.100000
B(  0-C ,  1-O ) :   1.4423 B(  0-C ,  2-S ) :   0.9586 B(  0-C ,  6-C ) :   0.8608
B(  2-S ,  3-S ) :   1.0788 B(  2-S ,  4-C ) :  -0.1120 B(  3-S ,  4-C ) :   0.9772
B(  3-S , 10-C ) :  -0.1372 B(  4-C ,  5-O ) :   1.0365 B(  4-C , 10-C ) :   1.0484
B(  4-C , 11-C ) :  -0.4830 B(  4-C , 15-C ) :  -0.4634 B(  5-O , 10-C ) :   0.4732
B(  5-O , 15-C ) :  -0.1482 B(  6-C ,  7-H ) :   0.9691 B(  6-C ,  8-H ) :   0.8620
B(  6-C ,  9-H ) :   0.9767 B( 10-C , 11-C ) :   1.1107 B( 10-C , 12-C ) :  -0.3538
B( 10-C , 14-C ) :  -0.5111 B( 10-C , 15-C ) :   1.0714 B( 10-C , 17-H ) :  -0.1274
B( 11-C , 12-C ) :   1.1971 B( 11-C , 16-H ) :  -0.1406 B( 11-C , 17-H ) :   0.9500
B( 12-C , 13-C ) :   1.2342 B( 12-C , 14-C ) :  -0.1986 B( 12-C , 15-C ) :   0.1648
B( 12-C , 16-H ) :   1.1907 B( 13-C , 14-C ) :   1.0123 B( 13-C , 16-H ) :  -0.1573
B( 13-C , 18-H ) :   0.9527 B( 14-C , 15-C ) :   1.0907 B( 14-C , 20-C ) :   0.8111
B( 15-C , 19-H ) :   0.8328 B( 15-C , 20-C ) :  -0.1027 B( 20-C , 21-H ) :   0.9858
B( 20-C , 22-H ) :   1.0426 B( 20-C , 23-H ) :   1.0490

MP2 TOTAL ENERGY:    -1332.163572305 Eh
FINAL SINGLE POINT ENERGY     -1332.163572305421

DIPOLE MOMENT
-------------
                                X             Y             Z
Electronic contribution:     10.79386      -7.64219      -1.14489
Nuclear contribution   :    -11.30358       7.47796       0.97759
                        -----------------------------------------
Total Dipole Moment    :     -0.50971      -0.16423      -0.16731
                        -----------------------------------------
Magnitude (a.u.)       :      0.56105
Magnitude (Debye)      :      1.42607

Rotational constants in cm-1:     0.045788     0.008664     0.007837
Rotational constants in MHz :  1372.696505   259.737448   234.944151

                             ****ORCA TERMINATED NORMALLY****
TOTAL RUN TIME: 0 days 1 hours 46 minutes 10 seconds 174 msec
