                         Program Version 5.0.4 -  RELEASE  -
|  1> ! ri-mp2 aug-cc-pvdz aug-cc-pvdz/c tightscf
|  2> %pal nprocs 16 end
|  3> %maxcore 3800
|  4> %base "DZ_P-C_74_AB"
|  5> %scf
|  6> STABPerform true
|  7> STABRestartUHFifUnstable true
|  8> end
|  9>
| 10> *xyz 0 1
| 11> P         0.740516   -0.766306   -0.273331
| 12> C         2.003747    0.441390    0.277894
| 13> H         1.766340    0.895638    1.236793
| 14> H         2.064603    1.228667   -0.471096
| 15> H         2.972226   -0.053627    0.333923
| 16> C        -0.795628    0.258390   -0.050408
| 17> C        -2.081989   -0.483322    0.201000
| 18> H        -2.128579   -1.403314   -0.382449
| 19> H        -2.927914    0.158687   -0.035055
| 20> H        -2.128766   -0.760440    1.256235
| 21> O        -0.757067    1.456909   -0.164649
| 22> H         0.574107   -1.525041    0.907878
| 23> *
| 24>
| 25> $new_job
| 26> ! ri-mp2 aug-cc-pvtz aug-cc-pvtz/c tightscf
| 27> %pal nprocs 16 end
| 28> %maxcore 3800
| 29> %base "TZ_P-C_74_AB"
| 30>
| 31> *xyz 0 1
| 32> P         0.740516   -0.766306   -0.273331
| 33> C         2.003747    0.441390    0.277894
| 34> H         1.766340    0.895638    1.236793
| 35> H         2.064603    1.228667   -0.471096
| 36> H         2.972226   -0.053627    0.333923
| 37> C        -0.795628    0.258390   -0.050408
| 38> C        -2.081989   -0.483322    0.201000
| 39> H        -2.128579   -1.403314   -0.382449
| 40> H        -2.927914    0.158687   -0.035055
| 41> H        -2.128766   -0.760440    1.256235
| 42> O        -0.757067    1.456909   -0.164649
| 43> H         0.574107   -1.525041    0.907878
| 44> *
| 45>
| 46> $new_job
| 47> ! ri-mp2 aug-cc-pvqz aug-cc-pvqz/c tightscf
| 48> %pal nprocs 16 end
| 49> %maxcore 3800
| 50> %base "QZ_P-C_74_AB"
| 51>
| 52> *xyz 0 1
| 53> P         0.740516   -0.766306   -0.273331
| 54> C         2.003747    0.441390    0.277894
| 55> H         1.766340    0.895638    1.236793
| 56> H         2.064603    1.228667   -0.471096
| 57> H         2.972226   -0.053627    0.333923
| 58> C        -0.795628    0.258390   -0.050408
| 59> C        -2.081989   -0.483322    0.201000
| 60> H        -2.128579   -1.403314   -0.382449
| 61> H        -2.927914    0.158687   -0.035055
| 62> H        -2.128766   -0.760440    1.256235
| 63> O        -0.757067    1.456909   -0.164649
| 64> H         0.574107   -1.525041    0.907878
| 65> *
| 66>
| 67>
| 68>
| 69>
| 70>                          ****END OF INPUT****
 Total Charge           Charge          ....    0
 Multiplicity           Mult            ....    1
 Number of Electrons    NEL             ....   48
MP2 TOTAL ENERGY:     -534.053238821 Eh
FINAL SINGLE POINT ENERGY      -534.053238820927
MP2 TOTAL ENERGY:     -534.271738966 Eh
FINAL SINGLE POINT ENERGY      -534.271738966487

CARTESIAN COORDINATES (ANGSTROEM)
---------------------------------
  P      0.740516   -0.766306   -0.273331
  C      2.003747    0.441390    0.277894
  H      1.766340    0.895638    1.236793
  H      2.064603    1.228667   -0.471096
  H      2.972226   -0.053627    0.333923
  C     -0.795628    0.258390   -0.050408
  C     -2.081989   -0.483322    0.201000
  H     -2.128579   -1.403314   -0.382449
  H     -2.927914    0.158687   -0.035055
  H     -2.128766   -0.760440    1.256235
  O     -0.757067    1.456909   -0.164649
  H      0.574107   -1.525041    0.907878

 Multiplicity           Mult            ....    1
 Number of Electrons    NEL             ....   48
 Basis Dimension        Dim             ....  726

ORBITAL ENERGIES
----------------

  NO   OCC          E(Eh)            E(eV)
   0   2.0000     -79.947677     -2175.4869
   1   2.0000     -20.553212      -559.2813
   2   2.0000     -11.333808      -308.4086
   3   2.0000     -11.237525      -305.7886
   4   2.0000     -11.230027      -305.5846
   5   2.0000      -7.491139      -203.8443
   6   2.0000      -5.385149      -146.5374
   7   2.0000      -5.385043      -146.5345
   8   2.0000      -5.384045      -146.5073
   9   2.0000      -1.397917       -38.0393
  10   2.0000      -1.024602       -27.8808
  11   2.0000      -0.989009       -26.9123
  12   2.0000      -0.843697       -22.9582
  13   2.0000      -0.721079       -19.6215
  14   2.0000      -0.642877       -17.4936
  15   2.0000      -0.624448       -16.9921
  16   2.0000      -0.612259       -16.6604
  17   2.0000      -0.582176       -15.8418
  18   2.0000      -0.576382       -15.6842
  19   2.0000      -0.536808       -14.6073
  20   2.0000      -0.508514       -13.8374
  21   2.0000      -0.496077       -13.4990
  22   2.0000      -0.412627       -11.2282
  23   2.0000      -0.357074        -9.7165
  24   0.0000       0.024156         0.6573
  25   0.0000       0.029290         0.7970
  26   0.0000       0.038112         1.0371
  27   0.0000       0.039118         1.0644
  28   0.0000       0.050812         1.3827

MULLIKEN ATOMIC CHARGES
-----------------------
   0 P :    0.600846
   1 C :   -1.105690
   2 H :    0.286561
   3 H :    0.276916
   4 H :    0.373271
   5 C :    0.477674
   6 C :   -0.840272
   7 H :    0.230566
   8 H :    0.306435
   9 H :    0.281302
  10 O :   -0.790226
  11 H :   -0.097384
Sum of atomic charges:   -0.0000000

LOEWDIN ATOMIC CHARGES
----------------------
   0 P :    1.198679
   1 C :    0.713901
   2 H :   -0.353821
   3 H :   -0.374027
   4 H :   -0.370502
   5 C :   -0.870940
   6 C :    0.798359
   7 H :   -0.323893
   8 H :   -0.321940
   9 H :   -0.307907
  10 O :    0.647688
  11 H :   -0.435596

  Mayer bond orders larger than 0.100000
B(  0-P ,  1-C ) :   0.9435 B(  0-P ,  5-C ) :   0.7468 B(  0-P , 11-H ) :   0.9247
B(  1-C ,  2-H ) :   0.8970 B(  1-C ,  3-H ) :   0.9112 B(  1-C ,  4-H ) :   0.8687
B(  5-C ,  6-C ) :   0.9154 B(  5-C , 10-O ) :   1.3361 B(  6-C ,  7-H ) :   0.9938
B(  6-C ,  8-H ) :   0.9544 B(  6-C ,  9-H ) :   0.8802 B(  6-C , 10-O ) :   0.1092

MP2 TOTAL ENERGY:     -534.341017500 Eh
FINAL SINGLE POINT ENERGY      -534.341017499601

DIPOLE MOMENT
-------------
                                X             Y             Z
Electronic contribution:      0.58213      -0.10038      -2.61556
Nuclear contribution   :     -0.52566      -0.70733       3.10689
                        -----------------------------------------
Total Dipole Moment    :      0.05647      -0.80770       0.49133
                        -----------------------------------------
Magnitude (a.u.)       :      0.94709
Magnitude (Debye)      :      2.40731

Rotational constants in cm-1:     0.229942     0.094936     0.072071
Rotational constants in MHz :  6893.475432  2846.120327  2160.619470

                             ****ORCA TERMINATED NORMALLY****
TOTAL RUN TIME: 0 days 0 hours 39 minutes 54 seconds 240 msec
