                         Program Version 5.0.4 -  RELEASE  -
|  1> ! ri-mp2 aug-cc-pvdz aug-cc-pvdz/c tightscf
|  2> %pal nprocs 16 end
|  3> %maxcore 3800
|  4> %base "DZ_Si-Si_139_A"
|  5> %scf
|  6> STABPerform true
|  7> STABRestartUHFifUnstable true
|  8> end
|  9>
| 10> *xyz 0 2
| 11> Si         1.130349    0.015790   -0.090417
| 12> P        -1.115024   -0.107503   -0.037592
| 13> H         1.732828    1.164977    0.626953
| 14> H         1.722977   -1.249525    0.399219
| 15> H        -1.307269    1.207979   -0.518743
| 16> H        -1.248057    0.268055    1.322290
| 17> *
| 18>
| 19> $new_job
| 20> ! ri-mp2 aug-cc-pvtz aug-cc-pvtz/c tightscf
| 21> %pal nprocs 16 end
| 22> %maxcore 3800
| 23> %base "TZ_Si-Si_139_A"
| 24>
| 25> *xyz 0 2
| 26> Si         1.130349    0.015790   -0.090417
| 27> P        -1.115024   -0.107503   -0.037592
| 28> H         1.732828    1.164977    0.626953
| 29> H         1.722977   -1.249525    0.399219
| 30> H        -1.307269    1.207979   -0.518743
| 31> H        -1.248057    0.268055    1.322290
| 32> *
| 33>
| 34> $new_job
| 35> ! ri-mp2 aug-cc-pvqz aug-cc-pvqz/c tightscf
| 36> %pal nprocs 16 end
| 37> %maxcore 3800
| 38> %base "QZ_Si-Si_139_A"
| 39>
| 40> *xyz 0 2
| 41> Si         1.130349    0.015790   -0.090417
| 42> P        -1.115024   -0.107503   -0.037592
| 43> H         1.732828    1.164977    0.626953
| 44> H         1.722977   -1.249525    0.399219
| 45> H        -1.307269    1.207979   -0.518743
| 46> H        -1.248057    0.268055    1.322290
| 47> *
| 48>
| 49>
| 50>
| 51>
| 52>                          ****END OF INPUT****
 Total Charge           Charge          ....    0
 Multiplicity           Mult            ....    2
 Number of Electrons    NEL             ....   33
MP2 TOTAL ENERGY:     -632.181136248 Eh
FINAL SINGLE POINT ENERGY      -632.181136247921
MP2 TOTAL ENERGY:     -632.258087723 Eh
FINAL SINGLE POINT ENERGY      -632.258087722959

CARTESIAN COORDINATES (ANGSTROEM)
---------------------------------
  Si     1.130349    0.015790   -0.090417
  P     -1.115024   -0.107503   -0.037592
  H      1.732828    1.164977    0.626953
  H      1.722977   -1.249525    0.399219
  H     -1.307269    1.207979   -0.518743
  H     -1.248057    0.268055    1.322290

 Multiplicity           Mult            ....    2
 Number of Electrons    NEL             ....   33
 Basis Dimension        Dim             ....  352

ORBITAL ENERGIES
----------------
                 SPIN UP ORBITALS
  NO   OCC          E(Eh)            E(eV)
   0   1.0000     -79.941145     -2175.3092
   1   1.0000     -68.791988     -1871.9252
   2   1.0000      -7.485403      -203.6882
   3   1.0000      -6.141648      -167.1227
   4   1.0000      -5.379055      -146.3715
   5   1.0000      -5.378953      -146.3688
   6   1.0000      -5.378099      -146.3455
   7   1.0000      -4.254425      -115.7688
   8   1.0000      -4.244479      -115.4981
   9   1.0000      -4.244178      -115.4900
  10   1.0000      -0.862924       -23.4813
  11   1.0000      -0.697323       -18.9751
  12   1.0000      -0.536636       -14.6026
  13   1.0000      -0.504890       -13.7388
  14   1.0000      -0.459332       -12.4991
  15   1.0000      -0.375557       -10.2194
  16   1.0000      -0.330878        -9.0036
  17   0.0000       0.025717         0.6998
  18   0.0000       0.033174         0.9027
  19   0.0000       0.041695         1.1346
  20   0.0000       0.043734         1.1901
  21   0.0000       0.057450         1.5633

                 SPIN DOWN ORBITALS
  NO   OCC          E(Eh)            E(eV)
   0   1.0000     -79.941103     -2175.3080
   1   1.0000     -68.786210     -1871.7679
   2   1.0000      -7.485256      -203.6842
   3   1.0000      -6.132825      -166.8827
   4   1.0000      -5.379139      -146.3738
   5   1.0000      -5.378716      -146.3623
   6   1.0000      -5.378248      -146.3496
   7   1.0000      -4.240376      -115.3865
   8   1.0000      -4.240263      -115.3834
   9   1.0000      -4.231765      -115.1522
  10   1.0000      -0.854367       -23.2485
  11   1.0000      -0.656406       -17.8617
  12   1.0000      -0.528226       -14.3738
  13   1.0000      -0.496413       -13.5081
  14   1.0000      -0.451592       -12.2885
  15   1.0000      -0.372736       -10.1427
  16   0.0000       0.021158         0.5757
  17   0.0000       0.029190         0.7943
  18   0.0000       0.034168         0.9298
  19   0.0000       0.042800         1.1647
  20   0.0000       0.050452         1.3729

MULLIKEN ATOMIC CHARGES AND SPIN POPULATIONS
--------------------------------------------
   0 Si:    0.518988    0.970879
   1 P :   -0.023737   -0.015428
   2 H :   -0.186918    0.015646
   3 H :   -0.197115    0.001389
   4 H :   -0.060099   -0.002987
   5 H :   -0.051120    0.030501
Sum of atomic charges         :   -0.0000000

LOEWDIN ATOMIC CHARGES AND SPIN POPULATIONS
-------------------------------------------
   0 Si:    0.736776    0.550871
   1 P :    1.262514    0.148356
   2 H :   -0.401627    0.135218
   3 H :   -0.418718    0.131958
   4 H :   -0.598006    0.003835
   5 H :   -0.580939    0.029761

  Mayer bond orders larger than 0.100000
B(  0-Si,  1-P ) :   0.9663 B(  0-Si,  2-H ) :   0.8864 B(  0-Si,  3-H ) :   0.8834
B(  1-P ,  4-H ) :   0.8962 B(  1-P ,  5-H ) :   0.8928

MP2 TOTAL ENERGY:     -632.282985385 Eh
FINAL SINGLE POINT ENERGY      -632.282985385351

DIPOLE MOMENT
-------------
                                X             Y             Z
Electronic contribution:     -1.76170      -1.22822      -1.69696
Nuclear contribution   :      1.86029       1.46651       1.83793
                        -----------------------------------------
Total Dipole Moment    :      0.09859       0.23829       0.14097
                        -----------------------------------------
Magnitude (a.u.)       :      0.29390
Magnitude (Debye)      :      0.74704

Rotational constants in cm-1:     2.229886     0.194852     0.190538
Rotational constants in MHz : 66850.306068  5841.507458  5712.184629

                             ****ORCA TERMINATED NORMALLY****
TOTAL RUN TIME: 0 days 0 hours 9 minutes 7 seconds 171 msec
