                         Program Version 5.0.4 -  RELEASE  -
|  1> ! ri-mp2 aug-cc-pvdz aug-cc-pvdz/c tightscf
|  2> %pal nprocs 16 end
|  3> %maxcore 3800
|  4> %base "DZ_S-F_89_AB"
|  5> %scf
|  6> STABPerform true
|  7> STABRestartUHFifUnstable true
|  8> end
|  9>
| 10> *xyz 0 1
| 11> C        -0.422622    0.982687    0.129958
| 12> C        -1.783648    1.473167   -0.348216
| 13> C        -2.914049    0.602075    0.184514
| 14> C        -2.693247   -0.862015   -0.174240
| 15> C        -1.331631   -1.351503    0.303553
| 16> C         1.141521   -1.011312    0.281835
| 17> C        -0.192034   -0.482785   -0.228879
| 18> S         2.625000   -0.279982   -0.389410
| 19> F         2.686102    1.093707    0.485999
| 20> H        -0.355629    1.094815    1.218008
| 21> H         0.370428    1.599778   -0.292333
| 22> H        -1.805155    1.460592   -1.442831
| 23> H        -1.930419    2.512089   -0.047564
| 24> H        -3.874585    0.945798   -0.203925
| 25> H        -2.963208    0.702112    1.273816
| 26> H        -2.755776   -0.979752   -1.260831
| 27> H        -3.483748   -1.482630    0.251947
| 28> H        -1.178242   -2.391538    0.004109
| 29> H        -1.306548   -1.335309    1.398998
| 30> H         1.257760   -2.067936    0.016266
| 31> H         1.206832   -0.958036    1.371283
| 32> H        -0.182371   -0.565517   -1.321510
| 33> *
| 34>
| 35> $new_job
| 36> ! ri-mp2 aug-cc-pvtz aug-cc-pvtz/c tightscf
| 37> %pal nprocs 16 end
| 38> %maxcore 3800
| 39> %base "TZ_S-F_89_AB"
| 40>
| 41> *xyz 0 1
| 42> C        -0.422622    0.982687    0.129958
| 43> C        -1.783648    1.473167   -0.348216
| 44> C        -2.914049    0.602075    0.184514
| 45> C        -2.693247   -0.862015   -0.174240
| 46> C        -1.331631   -1.351503    0.303553
| 47> C         1.141521   -1.011312    0.281835
| 48> C        -0.192034   -0.482785   -0.228879
| 49> S         2.625000   -0.279982   -0.389410
| 50> F         2.686102    1.093707    0.485999
| 51> H        -0.355629    1.094815    1.218008
| 52> H         0.370428    1.599778   -0.292333
| 53> H        -1.805155    1.460592   -1.442831
| 54> H        -1.930419    2.512089   -0.047564
| 55> H        -3.874585    0.945798   -0.203925
| 56> H        -2.963208    0.702112    1.273816
| 57> H        -2.755776   -0.979752   -1.260831
| 58> H        -3.483748   -1.482630    0.251947
| 59> H        -1.178242   -2.391538    0.004109
| 60> H        -1.306548   -1.335309    1.398998
| 61> H         1.257760   -2.067936    0.016266
| 62> H         1.206832   -0.958036    1.371283
| 63> H        -0.182371   -0.565517   -1.321510
| 64> *
| 65>
| 66> $new_job
| 67> ! ri-mp2 aug-cc-pvqz aug-cc-pvqz/c tightscf
| 68> %pal nprocs 16 end
| 69> %maxcore 3800
| 70> %base "QZ_S-F_89_AB"
| 71>
| 72> *xyz 0 1
| 73> C        -0.422622    0.982687    0.129958
| 74> C        -1.783648    1.473167   -0.348216
| 75> C        -2.914049    0.602075    0.184514
| 76> C        -2.693247   -0.862015   -0.174240
| 77> C        -1.331631   -1.351503    0.303553
| 78> C         1.141521   -1.011312    0.281835
| 79> C        -0.192034   -0.482785   -0.228879
| 80> S         2.625000   -0.279982   -0.389410
| 81> F         2.686102    1.093707    0.485999
| 82> H        -0.355629    1.094815    1.218008
| 83> H         0.370428    1.599778   -0.292333
| 84> H        -1.805155    1.460592   -1.442831
| 85> H        -1.930419    2.512089   -0.047564
| 86> H        -3.874585    0.945798   -0.203925
| 87> H        -2.963208    0.702112    1.273816
| 88> H        -2.755776   -0.979752   -1.260831
| 89> H        -3.483748   -1.482630    0.251947
| 90> H        -1.178242   -2.391538    0.004109
| 91> H        -1.306548   -1.335309    1.398998
| 92> H         1.257760   -2.067936    0.016266
| 93> H         1.206832   -0.958036    1.371283
| 94> H        -0.182371   -0.565517   -1.321510
| 95> *
| 96>
| 97>
| 98>
| 99>
|100>                          ****END OF INPUT****
 Total Charge           Charge          ....    0
 Multiplicity           Mult            ....    1
 Number of Electrons    NEL             ....   80
MP2 TOTAL ENERGY:     -771.016985172 Eh
FINAL SINGLE POINT ENERGY      -771.016985171576
MP2 TOTAL ENERGY:     -771.410459600 Eh
FINAL SINGLE POINT ENERGY      -771.410459599870

CARTESIAN COORDINATES (ANGSTROEM)
---------------------------------
  C     -0.422622    0.982687    0.129958
  C     -1.783648    1.473167   -0.348216
  C     -2.914049    0.602075    0.184514
  C     -2.693247   -0.862015   -0.174240
  C     -1.331631   -1.351503    0.303553
  C      1.141521   -1.011312    0.281835
  C     -0.192034   -0.482785   -0.228879
  S      2.625000   -0.279982   -0.389410
  F      2.686102    1.093707    0.485999
  H     -0.355629    1.094815    1.218008
  H      0.370428    1.599778   -0.292333
  H     -1.805155    1.460592   -1.442831
  H     -1.930419    2.512089   -0.047564
  H     -3.874585    0.945798   -0.203925
  H     -2.963208    0.702112    1.273816
  H     -2.755776   -0.979752   -1.260831
  H     -3.483748   -1.482630    0.251947
  H     -1.178242   -2.391538    0.004109
  H     -1.306548   -1.335309    1.398998
  H      1.257760   -2.067936    0.016266
  H      1.206832   -0.958036    1.371283
  H     -0.182371   -0.565517   -1.321510

 Multiplicity           Mult            ....    1
 Number of Electrons    NEL             ....   80
 Basis Dimension        Dim             .... 1322

ORBITAL ENERGIES
----------------

  NO   OCC          E(Eh)            E(eV)
   0   2.0000     -92.018874     -2503.9609
   1   2.0000     -26.295924      -715.5485
   2   2.0000     -11.265065      -306.5380
   3   2.0000     -11.232500      -305.6519
   4   2.0000     -11.222297      -305.3742
   5   2.0000     -11.218610      -305.2739
   6   2.0000     -11.215601      -305.1920
   7   2.0000     -11.214839      -305.1713
   8   2.0000     -11.214040      -305.1495
   9   2.0000      -9.013680      -245.2747
  10   2.0000      -6.695403      -182.1912
  11   2.0000      -6.693270      -182.1331
  12   2.0000      -6.692116      -182.1017
  13   2.0000      -1.594393       -43.3857
  14   2.0000      -1.138220       -30.9725
  15   2.0000      -1.069758       -29.1096
  16   2.0000      -1.010327       -27.4924
  17   2.0000      -0.989305       -26.9204
  18   2.0000      -0.877503       -23.8781
  19   2.0000      -0.838543       -22.8179
  20   2.0000      -0.805427       -21.9168
  21   2.0000      -0.761775       -20.7290
  22   2.0000      -0.683943       -18.6110
  23   2.0000      -0.679665       -18.4946
  24   2.0000      -0.667509       -18.1639
  25   2.0000      -0.651129       -17.7181
  26   2.0000      -0.614167       -16.7123
  27   2.0000      -0.612259       -16.6604
  28   2.0000      -0.598042       -16.2735
  29   2.0000      -0.568767       -15.4769
  30   2.0000      -0.545458       -14.8427
  31   2.0000      -0.531338       -14.4584
  32   2.0000      -0.516717       -14.0606
  33   2.0000      -0.489120       -13.3096
  34   2.0000      -0.484395       -13.1811
  35   2.0000      -0.472958       -12.8698
  36   2.0000      -0.458233       -12.4692
  37   2.0000      -0.438656       -11.9364
  38   2.0000      -0.427568       -11.6347
  39   2.0000      -0.358817        -9.7639
  40   0.0000       0.023669         0.6441
  41   0.0000       0.027984         0.7615
  42   0.0000       0.029950         0.8150
  43   0.0000       0.034102         0.9280
  44   0.0000       0.044107         1.2002

MULLIKEN ATOMIC CHARGES
-----------------------
   0 C :   -0.460639
   1 C :   -0.465963
   2 C :   -0.459049
   3 C :   -0.485124
   4 C :   -0.459317
   5 C :   -0.598954
   6 C :    0.660000
   7 S :    0.339287
   8 F :   -0.670015
   9 H :    0.165049
  10 H :    0.344933
  11 H :    0.131727
  12 H :    0.223013
  13 H :    0.242654
  14 H :    0.114054
  15 H :    0.143413
  16 H :    0.220958
  17 H :    0.247160
  18 H :    0.168282
  19 H :    0.226095
  20 H :    0.165336
  21 H :    0.207102
Sum of atomic charges:   -0.0000000

LOEWDIN ATOMIC CHARGES
----------------------
   0 C :    0.497024
   1 C :    0.543273
   2 C :    0.535331
   3 C :    0.542046
   4 C :    0.519442
   5 C :    0.095465
   6 C :    0.034315
   7 S :    0.784196
   8 F :    0.108667
   9 H :   -0.258708
  10 H :   -0.305122
  11 H :   -0.259654
  12 H :   -0.256043
  13 H :   -0.258073
  14 H :   -0.261871
  15 H :   -0.260394
  16 H :   -0.256626
  17 H :   -0.256482
  18 H :   -0.259001
  19 H :   -0.386300
  20 H :   -0.355345
  21 H :   -0.286139

  Mayer bond orders larger than 0.100000
B(  0-C ,  1-C ) :   0.8102 B(  0-C ,  5-C ) :   0.1094 B(  0-C ,  6-C ) :   0.7036
B(  0-C ,  9-H ) :   0.9813 B(  0-C , 10-H ) :   0.9402 B(  1-C ,  2-C ) :   0.9008
B(  1-C , 11-H ) :   1.0385 B(  1-C , 12-H ) :   1.0103 B(  2-C ,  3-C ) :   0.8764
B(  2-C , 13-H ) :   0.9590 B(  2-C , 14-H ) :   1.0501 B(  3-C ,  4-C ) :   0.8630
B(  3-C , 15-H ) :   1.0237 B(  3-C , 16-H ) :   1.0095 B(  4-C ,  5-C ) :   0.1173
B(  4-C ,  6-C ) :   0.6199 B(  4-C , 17-H ) :   0.9696 B(  4-C , 18-H ) :   0.9921
B(  5-C ,  6-C ) :   0.4889 B(  5-C ,  7-S ) :   1.0012 B(  5-C ,  8-F ) :  -0.1497
B(  5-C , 19-H ) :   1.0090 B(  5-C , 20-H ) :   1.0061 B(  6-C ,  7-S ) :  -0.3699
B(  6-C , 21-H ) :   0.9460 B(  7-S ,  8-F ) :   0.6036

MP2 TOTAL ENERGY:     -771.533689255 Eh
FINAL SINGLE POINT ENERGY      -771.533689254926

DIPOLE MOMENT
-------------
                                X             Y             Z
Electronic contribution:     19.20622       1.93161      -0.52703
Nuclear contribution   :    -20.00159      -2.57137       0.50421
                        -----------------------------------------
Total Dipole Moment    :     -0.79537      -0.63976      -0.02281
                        -----------------------------------------
Magnitude (a.u.)       :      1.02099
Magnitude (Debye)      :      2.59515

Rotational constants in cm-1:     0.099044     0.023851     0.020486
Rotational constants in MHz :  2969.255328   715.029401   614.155389

                             ****ORCA TERMINATED NORMALLY****
TOTAL RUN TIME: 0 days 5 hours 25 minutes 14 seconds 413 msec
