                         Program Version 5.0.4 -  RELEASE  -
|  1> ! ri-mp2 aug-cc-pvdz aug-cc-pvdz/c tightscf
|  2> %pal nprocs 16 end
|  3> %maxcore 3800
|  4> %base "DZ_B-F_37_AB"
|  5> %scf
|  6> STABPerform true
|  7> STABRestartUHFifUnstable true
|  8> end
|  9>
| 10> *xyz 0 1
| 11> F        -0.253473   -1.872398    0.000000
| 12> F        -2.147394   -0.648843   -0.000000
| 13> B        -0.844917   -0.698444   -0.000000
| 14> C        -0.000000    0.665567   -0.000000
| 15> O        -0.552656    1.731326   -0.000000
| 16> S         1.774928    0.569193    0.000000
| 17> H         1.854791   -0.767705    0.000000
| 18> *
| 19>
| 20> $new_job
| 21> ! ri-mp2 aug-cc-pvtz aug-cc-pvtz/c tightscf
| 22> %pal nprocs 16 end
| 23> %maxcore 3800
| 24> %base "TZ_B-F_37_AB"
| 25>
| 26> *xyz 0 1
| 27> F        -0.253473   -1.872398    0.000000
| 28> F        -2.147394   -0.648843   -0.000000
| 29> B        -0.844917   -0.698444   -0.000000
| 30> C        -0.000000    0.665567   -0.000000
| 31> O        -0.552656    1.731326   -0.000000
| 32> S         1.774928    0.569193    0.000000
| 33> H         1.854791   -0.767705    0.000000
| 34> *
| 35>
| 36> $new_job
| 37> ! ri-mp2 aug-cc-pvqz aug-cc-pvqz/c tightscf
| 38> %pal nprocs 16 end
| 39> %maxcore 3800
| 40> %base "QZ_B-F_37_AB"
| 41>
| 42> *xyz 0 1
| 43> F        -0.253473   -1.872398    0.000000
| 44> F        -2.147394   -0.648843   -0.000000
| 45> B        -0.844917   -0.698444   -0.000000
| 46> C        -0.000000    0.665567   -0.000000
| 47> O        -0.552656    1.731326   -0.000000
| 48> S         1.774928    0.569193    0.000000
| 49> H         1.854791   -0.767705    0.000000
| 50> *
| 51>
| 52>
| 53>
| 54>
| 55>                          ****END OF INPUT****
 Total Charge           Charge          ....    0
 Multiplicity           Mult            ....    1
 Number of Electrons    NEL             ....   54
MP2 TOTAL ENERGY:     -735.509353008 Eh
FINAL SINGLE POINT ENERGY      -735.509353007738
MP2 TOTAL ENERGY:     -735.847577506 Eh
FINAL SINGLE POINT ENERGY      -735.847577505856

CARTESIAN COORDINATES (ANGSTROEM)
---------------------------------
  F     -0.253473   -1.872398    0.000000
  F     -2.147394   -0.648843   -0.000000
  B     -0.844917   -0.698444   -0.000000
  C     -0.000000    0.665567   -0.000000
  O     -0.552656    1.731326   -0.000000
  S      1.774928    0.569193    0.000000
  H      1.854791   -0.767705    0.000000

 Multiplicity           Mult            ....    1
 Number of Electrons    NEL             ....   54
 Basis Dimension        Dim             ....  530

ORBITAL ENERGIES
----------------

  NO   OCC          E(Eh)            E(eV)
   0   2.0000     -91.995420     -2503.3226
   1   2.0000     -26.351165      -717.0516
   2   2.0000     -26.342507      -716.8161
   3   2.0000     -20.590960      -560.3085
   4   2.0000     -11.375285      -309.5372
   5   2.0000      -8.998921      -244.8731
   6   2.0000      -7.753470      -210.9826
   7   2.0000      -6.680157      -181.7763
   8   2.0000      -6.679348      -181.7543
   9   2.0000      -6.678531      -181.7321
  10   2.0000      -1.682420       -45.7810
  11   2.0000      -1.650523       -44.9130
  12   2.0000      -1.434347       -39.0306
  13   2.0000      -1.049448       -28.5569
  14   2.0000      -0.876210       -23.8429
  15   2.0000      -0.824859       -22.4456
  16   2.0000      -0.799008       -21.7421
  17   2.0000      -0.750619       -20.4254
  18   2.0000      -0.749440       -20.3933
  19   2.0000      -0.692533       -18.8448
  20   2.0000      -0.689534       -18.7632
  21   2.0000      -0.668234       -18.1836
  22   2.0000      -0.644582       -17.5400
  23   2.0000      -0.582618       -15.8538
  24   2.0000      -0.538078       -14.6418
  25   2.0000      -0.432972       -11.7818
  26   2.0000      -0.407986       -11.1019
  27   0.0000       0.023732         0.6458
  28   0.0000       0.032822         0.8931
  29   0.0000       0.035917         0.9774
  30   0.0000       0.040871         1.1121
  31   0.0000       0.043742         1.1903

MULLIKEN ATOMIC CHARGES
-----------------------
   0 F :   -0.757799
   1 F :   -0.739537
   2 B :    1.705260
   3 C :    0.274140
   4 O :   -0.642238
   5 S :    0.081584
   6 H :    0.078589
Sum of atomic charges:   -0.0000000

LOEWDIN ATOMIC CHARGES
----------------------
   0 F :    0.822444
   1 F :    0.831343
   2 B :   -1.897304
   3 C :   -1.057986
   4 O :    0.575641
   5 S :    1.567529
   6 H :   -0.841666

  Mayer bond orders larger than 0.100000
B(  0-F ,  2-B ) :   0.3994 B(  1-F ,  2-B ) :   0.4242 B(  2-B ,  3-C ) :   0.8837
B(  2-B ,  4-O ) :   0.1074 B(  3-C ,  4-O ) :   1.5873 B(  3-C ,  5-S ) :   1.0355
B(  5-S ,  6-H ) :   1.0248

MP2 TOTAL ENERGY:     -735.958328428 Eh
FINAL SINGLE POINT ENERGY      -735.958328428080

DIPOLE MOMENT
-------------
                                X             Y             Z
Electronic contribution:     -3.93956      -3.00045      -0.00000
Nuclear contribution   :      4.46998       2.11794       0.00000
                        -----------------------------------------
Total Dipole Moment    :      0.53043      -0.88251      -0.00000
                        -----------------------------------------
Magnitude (a.u.)       :      1.02965
Magnitude (Debye)      :      2.61715

Rotational constants in cm-1:     0.153621     0.070229     0.048196
Rotational constants in MHz :  4605.444706  2105.402112  1444.871753

                             ****ORCA TERMINATED NORMALLY****
TOTAL RUN TIME: 0 days 0 hours 15 minutes 49 seconds 303 msec
