                         Program Version 5.0.4 -  RELEASE  -
|  1> ! ri-mp2 aug-cc-pvdz aug-cc-pvdz/c tightscf
|  2> %pal nprocs 16 end
|  3> %maxcore 3800
|  4> %base "DZ_S-Cl_80_AB"
|  5>
|  6> *xyz 0 1
|  7> Cl         3.105863    0.075675    0.000008
|  8> S         1.348731   -0.999429   -0.000009
|  9> C         0.155108    0.293849   -0.000003
| 10> C        -1.208164   -0.017016    0.000000
| 11> C        -2.201571    0.948420    0.000005
| 12> C        -1.850158    2.276667    0.000007
| 13> C         0.481120    1.649589    0.000001
| 14> H         1.516865    1.945407    0.000001
| 15> C        -0.503164    2.614936    0.000005
| 16> H        -0.209769    3.656213    0.000008
| 17> H        -2.611762    3.042854    0.000009
| 18> N        -1.608886   -1.402471   -0.000003
| 19> O        -0.696435   -2.223412   -0.000022
| 20> O        -2.781079   -1.694924    0.000011
| 21> H        -3.231422    0.625221    0.000006
| 22> *
| 23>
| 24> $new_job
| 25> ! ri-mp2 aug-cc-pvtz aug-cc-pvtz/c tightscf
| 26> %pal nprocs 16 end
| 27> %maxcore 3800
| 28> %base "TZ_S-Cl_80_AB"
| 29>
| 30> *xyz 0 1
| 31> Cl         3.105863    0.075675    0.000008
| 32> S         1.348731   -0.999429   -0.000009
| 33> C         0.155108    0.293849   -0.000003
| 34> C        -1.208164   -0.017016    0.000000
| 35> C        -2.201571    0.948420    0.000005
| 36> C        -1.850158    2.276667    0.000007
| 37> C         0.481120    1.649589    0.000001
| 38> H         1.516865    1.945407    0.000001
| 39> C        -0.503164    2.614936    0.000005
| 40> H        -0.209769    3.656213    0.000008
| 41> H        -2.611762    3.042854    0.000009
| 42> N        -1.608886   -1.402471   -0.000003
| 43> O        -0.696435   -2.223412   -0.000022
| 44> O        -2.781079   -1.694924    0.000011
| 45> H        -3.231422    0.625221    0.000006
| 46> *
| 47>
| 48> $new_job
| 49> ! ri-mp2 aug-cc-pvqz aug-cc-pvqz/c tightscf
| 50> %pal nprocs 16 end
| 51> %maxcore 3800
| 52> %base "QZ_S-Cl_80_AB"
| 53>
| 54> *xyz 0 1
| 55> Cl         3.105863    0.075675    0.000008
| 56> S         1.348731   -0.999429   -0.000009
| 57> C         0.155108    0.293849   -0.000003
| 58> C        -1.208164   -0.017016    0.000000
| 59> C        -2.201571    0.948420    0.000005
| 60> C        -1.850158    2.276667    0.000007
| 61> C         0.481120    1.649589    0.000001
| 62> H         1.516865    1.945407    0.000001
| 63> C        -0.503164    2.614936    0.000005
| 64> H        -0.209769    3.656213    0.000008
| 65> H        -2.611762    3.042854    0.000009
| 66> N        -1.608886   -1.402471   -0.000003
| 67> O        -0.696435   -2.223412   -0.000022
| 68> O        -2.781079   -1.694924    0.000011
| 69> H        -3.231422    0.625221    0.000006
| 70> *
| 71>
| 72>
| 73>
| 74>
| 75>                          ****END OF INPUT****
 Total Charge           Charge          ....    0
 Multiplicity           Mult            ....    1
 Number of Electrons    NEL             ....   96
MP2 TOTAL ENERGY:    -1292.342466102 Eh
FINAL SINGLE POINT ENERGY     -1292.342466101612
MP2 TOTAL ENERGY:    -1292.819941073 Eh
FINAL SINGLE POINT ENERGY     -1292.819941073316

CARTESIAN COORDINATES (ANGSTROEM)
---------------------------------
  Cl     3.105863    0.075675    0.000008
  S      1.348731   -0.999429   -0.000009
  C      0.155108    0.293849   -0.000003
  C     -1.208164   -0.017016    0.000000
  C     -2.201571    0.948420    0.000005
  C     -1.850158    2.276667    0.000007
  C      0.481120    1.649589    0.000001
  H      1.516865    1.945407    0.000001
  C     -0.503164    2.614936    0.000005
  H     -0.209769    3.656213    0.000008
  H     -2.611762    3.042854    0.000009
  N     -1.608886   -1.402471   -0.000003
  O     -0.696435   -2.223412   -0.000022
  O     -2.781079   -1.694924    0.000011
  H     -3.231422    0.625221    0.000006

 Multiplicity           Mult            ....    1
 Number of Electrons    NEL             ....   96
 Basis Dimension        Dim             .... 1072

ORBITAL ENERGIES
----------------

  NO   OCC          E(Eh)            E(eV)
   0   2.0000    -104.851110     -2853.1437
   1   2.0000     -92.037792     -2504.4756
   2   2.0000     -20.618468      -561.0570
   3   2.0000     -20.617311      -561.0256
   4   2.0000     -15.869160      -431.8218
   5   2.0000     -11.328197      -308.2559
   6   2.0000     -11.321930      -308.0854
   7   2.0000     -11.284335      -307.0624
   8   2.0000     -11.281076      -306.9737
   9   2.0000     -11.268924      -306.6430
  10   2.0000     -11.267454      -306.6030
  11   2.0000     -10.576146      -287.7916
  12   2.0000      -9.033954      -245.8264
  13   2.0000      -8.043053      -218.8626
  14   2.0000      -8.041353      -218.8163
  15   2.0000      -8.041143      -218.8106
  16   2.0000      -6.714720      -182.7168
  17   2.0000      -6.712756      -182.6634
  18   2.0000      -6.711422      -182.6271
  19   2.0000      -1.634127       -44.4669
  20   2.0000      -1.425077       -38.7783
  21   2.0000      -1.227378       -33.3987
  22   2.0000      -1.151348       -31.3298
  23   2.0000      -1.116140       -30.3717
  24   2.0000      -1.072658       -29.1885
  25   2.0000      -0.995439       -27.0873
  26   2.0000      -0.937439       -25.5090
  27   2.0000      -0.857922       -23.3452
  28   2.0000      -0.851473       -23.1697
  29   2.0000      -0.786262       -21.3953
  30   2.0000      -0.748829       -20.3767
  31   2.0000      -0.746788       -20.3211
  32   2.0000      -0.708698       -19.2846
  33   2.0000      -0.682902       -18.5827
  34   2.0000      -0.653090       -17.7715
  35   2.0000      -0.625683       -17.0257
  36   2.0000      -0.570432       -15.5223
  37   2.0000      -0.569655       -15.5011
  38   2.0000      -0.553969       -15.0743
  39   2.0000      -0.538553       -14.6548
  40   2.0000      -0.517377       -14.0785
  41   2.0000      -0.515011       -14.0142
  42   2.0000      -0.488343       -13.2885
  43   2.0000      -0.480951       -13.0874
  44   2.0000      -0.448440       -12.2027
  45   2.0000      -0.424403       -11.5486
  46   2.0000      -0.391448       -10.6518
  47   2.0000      -0.339638        -9.2420
  48   0.0000       0.017205         0.4682
  49   0.0000       0.022521         0.6128
  50   0.0000       0.026464         0.7201
  51   0.0000       0.035364         0.9623
  52   0.0000       0.046206         1.2573

MULLIKEN ATOMIC CHARGES
-----------------------
   0 Cl:   -0.458849
   1 S :    0.407326
   2 C :    0.155643
   3 C :    0.043448
   4 C :   -0.182522
   5 C :   -0.248501
   6 C :   -0.249820
   7 H :    0.400760
   8 C :   -0.276441
   9 H :    0.221522
  10 H :    0.283533
  11 N :    0.779515
  12 O :   -0.643457
  13 O :   -0.598614
  14 H :    0.366456
Sum of atomic charges:   -0.0000000

LOEWDIN ATOMIC CHARGES
----------------------
   0 Cl:    0.582334
   1 S :    0.489961
   2 C :   -0.620218
   3 C :   -0.429046
   4 C :    0.310692
   5 C :    0.367434
   6 C :    0.196999
   7 H :   -0.496181
   8 C :    0.355660
   9 H :   -0.306501
  10 H :   -0.315333
  11 N :   -0.834872
  12 O :    0.469765
  13 O :    0.579021
  14 H :   -0.349715

  Mayer bond orders larger than 0.100000
B(  0-Cl,  1-S ) :   0.8937 B(  0-Cl,  2-C ) :  -0.1324 B(  1-S ,  2-C ) :   0.8509
B(  1-S ,  3-C ) :  -0.1638 B(  2-C ,  3-C ) :   1.1002 B(  2-C ,  6-C ) :   1.0986
B(  2-C ,  8-C ) :  -0.1184 B(  2-C , 11-N ) :  -0.1232 B(  3-C ,  4-C ) :   1.1668
B(  3-C ,  5-C ) :  -0.2297 B(  3-C ,  6-C ) :  -0.1032 B(  3-C , 11-N ) :   0.7496
B(  3-C , 12-O ) :   0.2647 B(  3-C , 13-O ) :   0.2076 B(  4-C ,  5-C ) :   1.2437
B(  4-C ,  6-C ) :   0.1010 B(  4-C , 10-H ) :  -0.1129 B(  4-C , 14-H ) :   0.8513
B(  5-C ,  8-C ) :   1.1567 B(  5-C , 10-H ) :   1.0634 B(  6-C ,  7-H ) :   0.8634
B(  6-C ,  8-C ) :   1.1084 B(  6-C ,  9-H ) :  -0.1689 B(  8-C ,  9-H ) :   1.1554
B( 11-N , 12-O ) :   1.1215 B( 11-N , 13-O ) :   1.2282

MP2 TOTAL ENERGY:    -1292.977983780 Eh
FINAL SINGLE POINT ENERGY     -1292.977983780046

DIPOLE MOMENT
-------------
                                X             Y             Z
Electronic contribution:      8.26326      -6.78173      -0.00001
Nuclear contribution   :     -8.63878       8.67384       0.00001
                        -----------------------------------------
Total Dipole Moment    :     -0.37551       1.89212       0.00000
                        -----------------------------------------
Magnitude (a.u.)       :      1.92902
Magnitude (Debye)      :      4.90318

Rotational constants in cm-1:     0.042133     0.023723     0.015177
Rotational constants in MHz :  1263.123881   711.195505   455.006436

                             ****ORCA TERMINATED NORMALLY****
TOTAL RUN TIME: 0 days 0 hours 39 minutes 54 seconds 13 msec
