                         Program Version 5.0.4 -  RELEASE  -
|  1> ! ri-mp2 aug-cc-pvdz aug-cc-pvdz/c tightscf
|  2> %pal nprocs 16 end
|  3> %maxcore 3800
|  4> %base "DZ_B-B_3_AB"
|  5> %scf
|  6> STABPerform true
|  7> STABRestartUHFifUnstable true
|  8> end
|  9>
| 10> *xyz 0 1
| 11> B        -0.794148    0.590770    0.231471
| 12> B         0.794148    0.590772   -0.231466
| 13> C         1.923059   -0.282314    0.358265
| 14> C        -1.923061   -0.282301   -0.358276
| 15> C        -3.171429   -0.211525    0.105420
| 16> C         3.171430   -0.211522   -0.105419
| 17> H        -1.731369   -0.991143   -1.159924
| 18> H        -3.429188    0.475200    0.903481
| 19> H        -3.977096   -0.825848   -0.283158
| 20> H         1.731362   -0.991178    1.159892
| 21> H         3.429194    0.475227   -0.903458
| 22> H         3.977096   -0.825855    0.283148
| 23> H         1.132951    1.350950   -1.098834
| 24> H        -1.132942    1.350908    1.098879
| 25> *
| 26>
| 27> $new_job
| 28> ! ri-mp2 aug-cc-pvtz aug-cc-pvtz/c tightscf
| 29> %pal nprocs 16 end
| 30> %maxcore 3800
| 31> %base "TZ_B-B_3_AB"
| 32>
| 33> *xyz 0 1
| 34> B        -0.794148    0.590770    0.231471
| 35> B         0.794148    0.590772   -0.231466
| 36> C         1.923059   -0.282314    0.358265
| 37> C        -1.923061   -0.282301   -0.358276
| 38> C        -3.171429   -0.211525    0.105420
| 39> C         3.171430   -0.211522   -0.105419
| 40> H        -1.731369   -0.991143   -1.159924
| 41> H        -3.429188    0.475200    0.903481
| 42> H        -3.977096   -0.825848   -0.283158
| 43> H         1.731362   -0.991178    1.159892
| 44> H         3.429194    0.475227   -0.903458
| 45> H         3.977096   -0.825855    0.283148
| 46> H         1.132951    1.350950   -1.098834
| 47> H        -1.132942    1.350908    1.098879
| 48> *
| 49>
| 50> $new_job
| 51> ! ri-mp2 aug-cc-pvqz aug-cc-pvqz/c tightscf
| 52> %pal nprocs 16 end
| 53> %maxcore 3800
| 54> %base "QZ_B-B_3_AB"
| 55>
| 56> *xyz 0 1
| 57> B        -0.794148    0.590770    0.231471
| 58> B         0.794148    0.590772   -0.231466
| 59> C         1.923059   -0.282314    0.358265
| 60> C        -1.923061   -0.282301   -0.358276
| 61> C        -3.171429   -0.211525    0.105420
| 62> C         3.171430   -0.211522   -0.105419
| 63> H        -1.731369   -0.991143   -1.159924
| 64> H        -3.429188    0.475200    0.903481
| 65> H        -3.977096   -0.825848   -0.283158
| 66> H         1.731362   -0.991178    1.159892
| 67> H         3.429194    0.475227   -0.903458
| 68> H         3.977096   -0.825855    0.283148
| 69> H         1.132951    1.350950   -1.098834
| 70> H        -1.132942    1.350908    1.098879
| 71> *
| 72>
| 73>
| 74>
| 75>
| 76>                          ****END OF INPUT****
 Total Charge           Charge          ....    0
 Multiplicity           Mult            ....    1
 Number of Electrons    NEL             ....   42
MP2 TOTAL ENERGY:     -206.156163205 Eh
FINAL SINGLE POINT ENERGY      -206.156163204820
MP2 TOTAL ENERGY:     -206.343255593 Eh
FINAL SINGLE POINT ENERGY      -206.343255592918

CARTESIAN COORDINATES (ANGSTROEM)
---------------------------------
  B     -0.794148    0.590770    0.231471
  B      0.794148    0.590772   -0.231466
  C      1.923059   -0.282314    0.358265
  C     -1.923061   -0.282301   -0.358276
  C     -3.171429   -0.211525    0.105420
  C      3.171430   -0.211522   -0.105419
  H     -1.731369   -0.991143   -1.159924
  H     -3.429188    0.475200    0.903481
  H     -3.977096   -0.825848   -0.283158
  H      1.731362   -0.991178    1.159892
  H      3.429194    0.475227   -0.903458
  H      3.977096   -0.825855    0.283148
  H      1.132951    1.350950   -1.098834
  H     -1.132942    1.350908    1.098879

 Multiplicity           Mult            ....    1
 Number of Electrons    NEL             ....   42
 Basis Dimension        Dim             ....  848

ORBITAL ENERGIES
----------------

  NO   OCC          E(Eh)            E(eV)
   0   2.0000     -11.246501      -306.0329
   1   2.0000     -11.246501      -306.0328
   2   2.0000     -11.207377      -304.9682
   3   2.0000     -11.207377      -304.9682
   4   2.0000      -7.567081      -205.9107
   5   2.0000      -7.566161      -205.8857
   6   2.0000      -1.040779       -28.3210
   7   2.0000      -1.038917       -28.2704
   8   2.0000      -0.809193       -22.0193
   9   2.0000      -0.789526       -21.4841
  10   2.0000      -0.699596       -19.0370
  11   2.0000      -0.665213       -18.1014
  12   2.0000      -0.628416       -17.1001
  13   2.0000      -0.582564       -15.8524
  14   2.0000      -0.558601       -15.2003
  15   2.0000      -0.543527       -14.7901
  16   2.0000      -0.463152       -12.6030
  17   2.0000      -0.461442       -12.5565
  18   2.0000      -0.408207       -11.1079
  19   2.0000      -0.385220       -10.4824
  20   2.0000      -0.385032       -10.4773
  21   0.0000       0.023549         0.6408
  22   0.0000       0.028746         0.7822
  23   0.0000       0.032499         0.8843
  24   0.0000       0.033906         0.9226
  25   0.0000       0.042276         1.1504

MULLIKEN ATOMIC CHARGES
-----------------------
   0 B :    0.513943
   1 B :    0.513950
   2 C :   -0.696830
   3 C :   -0.696828
   4 C :   -0.703956
   5 C :   -0.703952
   6 H :    0.413725
   7 H :    0.455601
   8 H :    0.317852
   9 H :    0.413724
  10 H :    0.455601
  11 H :    0.317852
  12 H :   -0.300342
  13 H :   -0.300340
Sum of atomic charges:   -0.0000000

LOEWDIN ATOMIC CHARGES
----------------------
   0 B :   -0.004764
   1 B :   -0.004763
   2 C :    0.451722
   3 C :    0.451722
   4 C :    0.775666
   5 C :    0.775665
   6 H :   -0.362079
   7 H :   -0.355194
   8 H :   -0.328548
   9 H :   -0.362079
  10 H :   -0.355194
  11 H :   -0.328547
  12 H :   -0.176805
  13 H :   -0.176804

  Mayer bond orders larger than 0.100000
B(  0-B ,  1-B ) :   1.1903 B(  0-B ,  3-C ) :   0.8487 B(  0-B , 13-H ) :   0.8868
B(  1-B ,  2-C ) :   0.8487 B(  1-B , 12-H ) :   0.8868 B(  2-C ,  5-C ) :   1.6118
B(  2-C ,  9-H ) :   0.8243 B(  2-C , 11-H ) :  -0.1083 B(  3-C ,  4-C ) :   1.6118
B(  3-C ,  6-H ) :   0.8243 B(  3-C ,  8-H ) :  -0.1083 B(  4-C ,  7-H ) :   0.7473
B(  4-C ,  8-H ) :   0.9888 B(  5-C , 10-H ) :   0.7473 B(  5-C , 11-H ) :   0.9888

MP2 TOTAL ENERGY:     -206.401366372 Eh
FINAL SINGLE POINT ENERGY      -206.401366371688

DIPOLE MOMENT
-------------
                                X             Y             Z
Electronic contribution:     -0.00001       0.64669      -0.00003
Nuclear contribution   :      0.00001      -0.94766       0.00002
                        -----------------------------------------
Total Dipole Moment    :     -0.00000      -0.30097      -0.00001
                        -----------------------------------------
Magnitude (a.u.)       :      0.30097
Magnitude (Debye)      :      0.76500

Rotational constants in cm-1:     0.572122     0.040159     0.039541
Rotational constants in MHz : 17151.791436  1203.936147  1185.404257

                             ****ORCA TERMINATED NORMALLY****
TOTAL RUN TIME: 0 days 0 hours 47 minutes 6 seconds 240 msec
