                         Program Version 5.0.4 -  RELEASE  -
|  1> ! ri-mp2 aug-cc-pvdz aug-cc-pvdz/c tightscf
|  2> %pal nprocs 16 end
|  3> %maxcore 3800
|  4> %base "DZ_S-F_91_AB"
|  5>
|  6> *xyz 0 1
|  7> F        -2.948713    0.467075   -0.426460
|  8> C        -0.721348    0.145683    0.240071
|  9> C        -2.126008   -0.338928    0.347257
| 10> H        -2.484545   -0.270668    1.377662
| 11> H        -2.204510   -1.366916   -0.004242
| 12> N         0.216426   -0.665504   -0.007138
| 13> S         1.782742   -0.489085   -0.145278
| 14> F         2.090331    1.096503    0.102631
| 15> H        -0.540213    1.208733    0.391475
| 16> *
| 17>
| 18> $new_job
| 19> ! ri-mp2 aug-cc-pvtz aug-cc-pvtz/c tightscf
| 20> %pal nprocs 16 end
| 21> %maxcore 3800
| 22> %base "TZ_S-F_91_AB"
| 23>
| 24> *xyz 0 1
| 25> F        -2.948713    0.467075   -0.426460
| 26> C        -0.721348    0.145683    0.240071
| 27> C        -2.126008   -0.338928    0.347257
| 28> H        -2.484545   -0.270668    1.377662
| 29> H        -2.204510   -1.366916   -0.004242
| 30> N         0.216426   -0.665504   -0.007138
| 31> S         1.782742   -0.489085   -0.145278
| 32> F         2.090331    1.096503    0.102631
| 33> H        -0.540213    1.208733    0.391475
| 34> *
| 35>
| 36> $new_job
| 37> ! ri-mp2 aug-cc-pvqz aug-cc-pvqz/c tightscf
| 38> %pal nprocs 16 end
| 39> %maxcore 3800
| 40> %base "QZ_S-F_91_AB"
| 41>
| 42> *xyz 0 1
| 43> F        -2.948713    0.467075   -0.426460
| 44> C        -0.721348    0.145683    0.240071
| 45> C        -2.126008   -0.338928    0.347257
| 46> H        -2.484545   -0.270668    1.377662
| 47> H        -2.204510   -1.366916   -0.004242
| 48> N         0.216426   -0.665504   -0.007138
| 49> S         1.782742   -0.489085   -0.145278
| 50> F         2.090331    1.096503    0.102631
| 51> H        -0.540213    1.208733    0.391475
| 52> *
| 53>
| 54>
| 55>
| 56>
| 57>                          ****END OF INPUT****
 Total Charge           Charge          ....    0
 Multiplicity           Mult            ....    1
 Number of Electrons    NEL             ....   56
MP2 TOTAL ENERGY:     -729.307410270 Eh
FINAL SINGLE POINT ENERGY      -729.307410269661
MP2 TOTAL ENERGY:     -729.645758831 Eh
FINAL SINGLE POINT ENERGY      -729.645758831264

CARTESIAN COORDINATES (ANGSTROEM)
---------------------------------
  F     -2.948713    0.467075   -0.426460
  C     -0.721348    0.145683    0.240071
  C     -2.126008   -0.338928    0.347257
  H     -2.484545   -0.270668    1.377662
  H     -2.204510   -1.366916   -0.004242
  N      0.216426   -0.665504   -0.007138
  S      1.782742   -0.489085   -0.145278
  F      2.090331    1.096503    0.102631
  H     -0.540213    1.208733    0.391475

 Multiplicity           Mult            ....    1
 Number of Electrons    NEL             ....   56
 Basis Dimension        Dim             ....  622

ORBITAL ENERGIES
----------------

  NO   OCC          E(Eh)            E(eV)
   0   2.0000     -92.068670     -2505.3159
   1   2.0000     -26.312913      -716.0108
   2   2.0000     -26.295499      -715.5369
   3   2.0000     -15.627775      -425.2534
   4   2.0000     -11.334151      -308.4179
   5   2.0000     -11.316491      -307.9374
   6   2.0000      -9.060092      -246.5376
   7   2.0000      -6.741803      -183.4538
   8   2.0000      -6.739461      -183.3901
   9   2.0000      -6.738072      -183.3522
  10   2.0000      -1.612660       -43.8827
  11   2.0000      -1.607676       -43.7471
  12   2.0000      -1.296970       -35.2923
  13   2.0000      -1.061936       -28.8967
  14   2.0000      -0.953543       -25.9472
  15   2.0000      -0.819380       -22.2965
  16   2.0000      -0.756620       -20.5887
  17   2.0000      -0.725169       -19.7328
  18   2.0000      -0.711481       -19.3604
  19   2.0000      -0.696912       -18.9639
  20   2.0000      -0.693683       -18.8761
  21   2.0000      -0.672102       -18.2888
  22   2.0000      -0.591788       -16.1034
  23   2.0000      -0.568390       -15.4667
  24   2.0000      -0.553363       -15.0578
  25   2.0000      -0.535533       -14.5726
  26   2.0000      -0.467047       -12.7090
  27   2.0000      -0.355716        -9.6795
  28   0.0000       0.025796         0.7019
  29   0.0000       0.034383         0.9356
  30   0.0000       0.040356         1.0981
  31   0.0000       0.049607         1.3499
  32   0.0000       0.060995         1.6598

MULLIKEN ATOMIC CHARGES
-----------------------
   0 F :   -0.672340
   1 C :   -0.191883
   2 C :    0.147188
   3 H :    0.338072
   4 H :    0.326549
   5 N :   -0.713267
   6 S :    0.914977
   7 F :   -0.624457
   8 H :    0.475160
Sum of atomic charges:   -0.0000000

LOEWDIN ATOMIC CHARGES
----------------------
   0 F :    0.756064
   1 C :   -0.085129
   2 C :   -0.088096
   3 H :   -0.346316
   4 H :   -0.370069
   5 N :   -0.080358
   6 S :    0.504882
   7 F :    0.068477
   8 H :   -0.359457

  Mayer bond orders larger than 0.100000
B(  0-F ,  2-C ) :   0.4896 B(  1-C ,  2-C ) :   1.0506 B(  1-C ,  5-N ) :   1.5945
B(  1-C ,  8-H ) :   0.7024 B(  2-C ,  3-H ) :   0.8311 B(  2-C ,  4-H ) :   0.8821
B(  5-N ,  6-S ) :   1.1880 B(  6-S ,  7-F ) :   0.5659

MP2 TOTAL ENERGY:     -729.757051738 Eh
FINAL SINGLE POINT ENERGY      -729.757051738094

DIPOLE MOMENT
-------------
                                X             Y             Z
Electronic contribution:      3.96037       1.47995      -1.45535
Nuclear contribution   :     -4.19829      -1.85701       1.97752
                        -----------------------------------------
Total Dipole Moment    :     -0.23792      -0.37706       0.52217
                        -----------------------------------------
Magnitude (a.u.)       :      0.68662
Magnitude (Debye)      :      1.74524

Rotational constants in cm-1:     0.310369     0.039109     0.035984
Rotational constants in MHz :  9304.641121  1172.467810  1078.770454

                             ****ORCA TERMINATED NORMALLY****
TOTAL RUN TIME: 0 days 0 hours 5 minutes 46 seconds 961 msec
