                         Program Version 5.0.4 -  RELEASE  -
|  1> ! ri-mp2 aug-cc-pvdz aug-cc-pvdz/c tightscf
|  2> %pal nprocs 16 end
|  3> %maxcore 3800
|  4> %base "DZ_B-Si_42_AB"
|  5> %scf
|  6> STABPerform true
|  7> STABRestartUHFifUnstable true
|  8> end
|  9>
| 10> *xyz 0 1
| 11> B         0.958887    0.082895    0.003197
| 12> C         1.178067    1.628333    0.049574
| 13> H         1.157448    1.888397    1.118652
| 14> H         0.386919    2.222259   -0.409781
| 15> H         2.148711    1.957163   -0.327203
| 16> Si        -0.900679   -0.714048    0.091959
| 17> C         2.191656   -0.870501   -0.090121
| 18> H         3.108740   -0.448913    0.327459
| 19> H         2.375638   -0.987238   -1.168613
| 20> H         2.041836   -1.877702    0.299459
| 21> C        -2.296649    0.518886   -0.139182
| 22> H        -2.247832    1.306956    0.613738
| 23> H        -3.272027    0.039010   -0.058159
| 24> H        -2.238873    0.993945   -1.119696
| 25> H        -1.051771   -1.374304    1.418793
| 26> H        -1.032163   -1.797687   -0.919684
| 27> *
| 28>
| 29> $new_job
| 30> ! ri-mp2 aug-cc-pvtz aug-cc-pvtz/c tightscf
| 31> %pal nprocs 16 end
| 32> %maxcore 3800
| 33> %base "TZ_B-Si_42_AB"
| 34>
| 35> *xyz 0 1
| 36> B         0.958887    0.082895    0.003197
| 37> C         1.178067    1.628333    0.049574
| 38> H         1.157448    1.888397    1.118652
| 39> H         0.386919    2.222259   -0.409781
| 40> H         2.148711    1.957163   -0.327203
| 41> Si        -0.900679   -0.714048    0.091959
| 42> C         2.191656   -0.870501   -0.090121
| 43> H         3.108740   -0.448913    0.327459
| 44> H         2.375638   -0.987238   -1.168613
| 45> H         2.041836   -1.877702    0.299459
| 46> C        -2.296649    0.518886   -0.139182
| 47> H        -2.247832    1.306956    0.613738
| 48> H        -3.272027    0.039010   -0.058159
| 49> H        -2.238873    0.993945   -1.119696
| 50> H        -1.051771   -1.374304    1.418793
| 51> H        -1.032163   -1.797687   -0.919684
| 52> *
| 53>
| 54> $new_job
| 55> ! ri-mp2 aug-cc-pvqz aug-cc-pvqz/c tightscf
| 56> %pal nprocs 16 end
| 57> %maxcore 3800
| 58> %base "QZ_B-Si_42_AB"
| 59>
| 60> *xyz 0 1
| 61> B         0.958887    0.082895    0.003197
| 62> C         1.178067    1.628333    0.049574
| 63> H         1.157448    1.888397    1.118652
| 64> H         0.386919    2.222259   -0.409781
| 65> H         2.148711    1.957163   -0.327203
| 66> Si        -0.900679   -0.714048    0.091959
| 67> C         2.191656   -0.870501   -0.090121
| 68> H         3.108740   -0.448913    0.327459
| 69> H         2.375638   -0.987238   -1.168613
| 70> H         2.041836   -1.877702    0.299459
| 71> C        -2.296649    0.518886   -0.139182
| 72> H        -2.247832    1.306956    0.613738
| 73> H        -3.272027    0.039010   -0.058159
| 74> H        -2.238873    0.993945   -1.119696
| 75> H        -1.051771   -1.374304    1.418793
| 76> H        -1.032163   -1.797687   -0.919684
| 77> *
| 78>
| 79>
| 80>
| 81>
| 82>                          ****END OF INPUT****
 Total Charge           Charge          ....    0
 Multiplicity           Mult            ....    1
 Number of Electrons    NEL             ....   48
MP2 TOTAL ENERGY:     -434.287987001 Eh
FINAL SINGLE POINT ENERGY      -434.287987001304
MP2 TOTAL ENERGY:     -434.469392226 Eh
FINAL SINGLE POINT ENERGY      -434.469392226047

CARTESIAN COORDINATES (ANGSTROEM)
---------------------------------
  B      0.958887    0.082895    0.003197
  C      1.178067    1.628333    0.049574
  H      1.157448    1.888397    1.118652
  H      0.386919    2.222259   -0.409781
  H      2.148711    1.957163   -0.327203
  Si    -0.900679   -0.714048    0.091959
  C      2.191656   -0.870501   -0.090121
  H      3.108740   -0.448913    0.327459
  H      2.375638   -0.987238   -1.168613
  H      2.041836   -1.877702    0.299459
  C     -2.296649    0.518886   -0.139182
  H     -2.247832    1.306956    0.613738
  H     -3.272027    0.039010   -0.058159
  H     -2.238873    0.993945   -1.119696
  H     -1.051771   -1.374304    1.418793
  H     -1.032163   -1.797687   -0.919684

 Multiplicity           Mult            ....    1
 Number of Electrons    NEL             ....   48
 Basis Dimension        Dim             ....  910

ORBITAL ENERGIES
----------------

  NO   OCC          E(Eh)            E(eV)
   0   2.0000     -68.737243     -1870.4355
   1   2.0000     -11.198177      -304.7179
   2   2.0000     -11.195013      -304.6318
   3   2.0000     -11.193456      -304.5894
   4   2.0000      -7.586249      -206.4323
   5   2.0000      -6.088924      -165.6880
   6   2.0000      -4.195343      -114.1611
   7   2.0000      -4.195045      -114.1530
   8   2.0000      -4.194588      -114.1406
   9   2.0000      -0.972211       -26.4552
  10   2.0000      -0.939589       -25.5675
  11   2.0000      -0.925766       -25.1914
  12   2.0000      -0.695030       -18.9127
  13   2.0000      -0.599969       -16.3260
  14   2.0000      -0.576558       -15.6889
  15   2.0000      -0.562008       -15.2930
  16   2.0000      -0.553335       -15.0570
  17   2.0000      -0.549575       -14.9547
  18   2.0000      -0.538990       -14.6667
  19   2.0000      -0.528846       -14.3906
  20   2.0000      -0.463266       -12.6061
  21   2.0000      -0.454166       -12.3585
  22   2.0000      -0.438094       -11.9212
  23   2.0000      -0.374892       -10.2013
  24   0.0000       0.022638         0.6160
  25   0.0000       0.030866         0.8399
  26   0.0000       0.032992         0.8978
  27   0.0000       0.034575         0.9408
  28   0.0000       0.045600         1.2408

MULLIKEN ATOMIC CHARGES
-----------------------
   0 B :    0.299985
   1 C :   -1.136634
   2 H :    0.291189
   3 H :    0.356178
   4 H :    0.320473
   5 Si:    0.734122
   6 C :   -1.093620
   7 H :    0.311041
   8 H :    0.279396
   9 H :    0.328422
  10 C :   -1.027951
  11 H :    0.219363
  12 H :    0.344382
  13 H :    0.227313
  14 H :   -0.233528
  15 H :   -0.220131
Sum of atomic charges:    0.0000000

LOEWDIN ATOMIC CHARGES
----------------------
   0 B :   -0.467442
   1 C :    1.008871
   2 H :   -0.297609
   3 H :   -0.315767
   4 H :   -0.302479
   5 Si:    0.923565
   6 C :    0.998625
   7 H :   -0.303179
   8 H :   -0.300284
   9 H :   -0.313065
  10 C :    0.889844
  11 H :   -0.356020
  12 H :   -0.358083
  13 H :   -0.355458
  14 H :   -0.225235
  15 H :   -0.226283

  Mayer bond orders larger than 0.100000
B(  0-B ,  1-C ) :   0.9682 B(  0-B ,  5-Si) :   0.6460 B(  0-B ,  6-C ) :   0.9757
B(  1-C ,  2-H ) :   0.8909 B(  1-C ,  3-H ) :   0.8978 B(  1-C ,  4-H ) :   0.8746
B(  5-Si, 10-C ) :   0.7611 B(  5-Si, 14-H ) :   0.7562 B(  5-Si, 15-H ) :   0.7287
B(  6-C ,  7-H ) :   0.8818 B(  6-C ,  8-H ) :   0.8979 B(  6-C ,  9-H ) :   0.9076
B( 10-C , 11-H ) :   0.9611 B( 10-C , 12-H ) :   0.9156 B( 10-C , 13-H ) :   0.9558

MP2 TOTAL ENERGY:     -434.523842943 Eh
FINAL SINGLE POINT ENERGY      -434.523842943280

DIPOLE MOMENT
-------------
                                X             Y             Z
Electronic contribution:     -0.49100      -1.64036       0.17903
Nuclear contribution   :      0.69026       1.98960      -0.24439
                        -----------------------------------------
Total Dipole Moment    :      0.19926       0.34924      -0.06536
                        -----------------------------------------
Magnitude (a.u.)       :      0.40736
Magnitude (Debye)      :      1.03544

Rotational constants in cm-1:     0.183663     0.074058     0.055647
Rotational constants in MHz :  5506.074795  2220.203675  1668.251195

                             ****ORCA TERMINATED NORMALLY****
TOTAL RUN TIME: 0 days 1 hours 24 minutes 44 seconds 528 msec
