                         Program Version 5.0.4 -  RELEASE  -
|  1> ! ri-mp2 aug-cc-pvdz aug-cc-pvdz/c tightscf
|  2> %pal nprocs 16 end
|  3> %maxcore 3800
|  4> %base "DZ_S-Cl_14_AB"
|  5> %scf
|  6> STABPerform true
|  7> STABRestartUHFifUnstable true
|  8> end
|  9>
| 10> *xyz 0 1
| 11> Cl         1.873335    0.000040   -0.673430
| 12> S         0.751385   -0.000067    1.062460
| 13> P        -1.249736   -0.000028    0.503536
| 14> C        -1.381744   -1.412168   -0.651785
| 15> C        -1.381736    1.412249   -0.651617
| 16> H        -1.217447   -2.340758   -0.108649
| 17> H        -0.662937   -1.339028   -1.467259
| 18> H        -2.390597   -1.428036   -1.066238
| 19> H        -1.217434    2.340773   -0.108372
| 20> H        -2.390589    1.428172   -1.066069
| 21> H        -0.662929    1.339202   -1.467100
| 22> *
| 23>
| 24> $new_job
| 25> ! ri-mp2 aug-cc-pvtz aug-cc-pvtz/c tightscf
| 26> %pal nprocs 16 end
| 27> %maxcore 3800
| 28> %base "TZ_S-Cl_14_AB"
| 29>
| 30> *xyz 0 1
| 31> Cl         1.873335    0.000040   -0.673430
| 32> S         0.751385   -0.000067    1.062460
| 33> P        -1.249736   -0.000028    0.503536
| 34> C        -1.381744   -1.412168   -0.651785
| 35> C        -1.381736    1.412249   -0.651617
| 36> H        -1.217447   -2.340758   -0.108649
| 37> H        -0.662937   -1.339028   -1.467259
| 38> H        -2.390597   -1.428036   -1.066238
| 39> H        -1.217434    2.340773   -0.108372
| 40> H        -2.390589    1.428172   -1.066069
| 41> H        -0.662929    1.339202   -1.467100
| 42> *
| 43>
| 44> $new_job
| 45> ! ri-mp2 aug-cc-pvqz aug-cc-pvqz/c tightscf
| 46> %pal nprocs 16 end
| 47> %maxcore 3800
| 48> %base "QZ_S-Cl_14_AB"
| 49>
| 50> *xyz 0 1
| 51> Cl         1.873335    0.000040   -0.673430
| 52> S         0.751385   -0.000067    1.062460
| 53> P        -1.249736   -0.000028    0.503536
| 54> C        -1.381744   -1.412168   -0.651785
| 55> C        -1.381736    1.412249   -0.651617
| 56> H        -1.217447   -2.340758   -0.108649
| 57> H        -0.662937   -1.339028   -1.467259
| 58> H        -2.390597   -1.428036   -1.066238
| 59> H        -1.217434    2.340773   -0.108372
| 60> H        -2.390589    1.428172   -1.066069
| 61> H        -0.662929    1.339202   -1.467100
| 62> *
| 63>
| 64>
| 65>
| 66>
| 67>                          ****END OF INPUT****
 Total Charge           Charge          ....    0
 Multiplicity           Mult            ....    1
 Number of Electrons    NEL             ....   66
MP2 TOTAL ENERGY:    -1277.744550535 Eh
FINAL SINGLE POINT ENERGY     -1277.744550534636
MP2 TOTAL ENERGY:    -1277.987135692 Eh
FINAL SINGLE POINT ENERGY     -1277.987135692369

CARTESIAN COORDINATES (ANGSTROEM)
---------------------------------
  Cl     1.873335    0.000040   -0.673430
  S      0.751385   -0.000067    1.062460
  P     -1.249736   -0.000028    0.503536
  C     -1.381744   -1.412168   -0.651785
  C     -1.381736    1.412249   -0.651617
  H     -1.217447   -2.340758   -0.108649
  H     -0.662937   -1.339028   -1.467259
  H     -2.390597   -1.428036   -1.066238
  H     -1.217434    2.340773   -0.108372
  H     -2.390589    1.428172   -1.066069
  H     -0.662929    1.339202   -1.467100

 Multiplicity           Mult            ....    1
 Number of Electrons    NEL             ....   66
 Basis Dimension        Dim             ....  688

ORBITAL ENERGIES
----------------

  NO   OCC          E(Eh)            E(eV)
   0   2.0000    -104.847818     -2853.0542
   1   2.0000     -92.004109     -2503.5591
   2   2.0000     -79.972909     -2176.1735
   3   2.0000     -11.236237      -305.7536
   4   2.0000     -11.236226      -305.7533
   5   2.0000     -10.572052      -287.6802
   6   2.0000      -9.003008      -244.9843
   7   2.0000      -8.039007      -218.7525
   8   2.0000      -8.037170      -218.7025
   9   2.0000      -8.037022      -218.6985
  10   2.0000      -7.512999      -204.4391
  11   2.0000      -6.684158      -181.8852
  12   2.0000      -6.682318      -181.8351
  13   2.0000      -6.681411      -181.8104
  14   2.0000      -5.407484      -147.1451
  15   2.0000      -5.406333      -147.1138
  16   2.0000      -5.405733      -147.0975
  17   2.0000      -1.132646       -30.8209
  18   2.0000      -1.032133       -28.0858
  19   2.0000      -0.956118       -26.0173
  20   2.0000      -0.923725       -25.1358
  21   2.0000      -0.726617       -19.7723
  22   2.0000      -0.610750       -16.6194
  23   2.0000      -0.605040       -16.4640
  24   2.0000      -0.579562       -15.7707
  25   2.0000      -0.572211       -15.5706
  26   2.0000      -0.546531       -14.8719
  27   2.0000      -0.513681       -13.9780
  28   2.0000      -0.503203       -13.6928
  29   2.0000      -0.483058       -13.1447
  30   2.0000      -0.427406       -11.6303
  31   2.0000      -0.368146       -10.0178
  32   2.0000      -0.360206        -9.8017
  33   0.0000       0.024259         0.6601
  34   0.0000       0.032742         0.8909
  35   0.0000       0.037526         1.0211
  36   0.0000       0.041615         1.1324
  37   0.0000       0.051709         1.4071

MULLIKEN ATOMIC CHARGES
-----------------------
   0 Cl:   -0.360616
   1 S :   -0.044954
   2 P :    0.691627
   3 C :   -1.092790
   4 C :   -1.092791
   5 H :    0.366931
   6 H :    0.293158
   7 H :    0.289673
   8 H :    0.366931
   9 H :    0.289673
  10 H :    0.293158
Sum of atomic charges:   -0.0000000

LOEWDIN ATOMIC CHARGES
----------------------
   0 Cl:    0.430319
   1 S :    0.150908
   2 P :    0.327241
   3 C :    0.679988
   4 C :    0.679987
   5 H :   -0.376412
   6 H :   -0.395339
   7 H :   -0.362471
   8 H :   -0.376413
   9 H :   -0.362470
  10 H :   -0.395339

  Mayer bond orders larger than 0.100000
B(  0-Cl,  1-S ) :   0.8868 B(  1-S ,  2-P ) :   0.9641 B(  2-P ,  3-C ) :   0.8962
B(  2-P ,  4-C ) :   0.8962 B(  3-C ,  5-H ) :   0.8823 B(  3-C ,  6-H ) :   0.9029
B(  3-C ,  7-H ) :   0.9067 B(  4-C ,  8-H ) :   0.8823 B(  4-C ,  9-H ) :   0.9067
B(  4-C , 10-H ) :   0.9029

MP2 TOTAL ENERGY:    -1278.063607275 Eh
FINAL SINGLE POINT ENERGY     -1278.063607274842

DIPOLE MOMENT
-------------
                                X             Y             Z
Electronic contribution:      8.87874      -0.00025       4.14553
Nuclear contribution   :     -9.69489       0.00029      -4.65950
                        -----------------------------------------
Total Dipole Moment    :     -0.81615       0.00003      -0.51398
                        -----------------------------------------
Magnitude (a.u.)       :      0.96450
Magnitude (Debye)      :      2.45157

Rotational constants in cm-1:     0.117960     0.052907     0.051368
Rotational constants in MHz :  3536.364243  1586.110635  1539.963846

                             ****ORCA TERMINATED NORMALLY****
TOTAL RUN TIME: 0 days 0 hours 33 minutes 31 seconds 60 msec
