                         Program Version 5.0.4 -  RELEASE  -
|  1> ! ri-mp2 aug-cc-pvdz aug-cc-pvdz/c tightscf
|  2> %pal nprocs 16 end
|  3> %maxcore 3800
|  4> %base "DZ_Si-Si_31_AB"
|  5> %scf
|  6> STABPerform true
|  7> STABRestartUHFifUnstable true
|  8> end
|  9>
| 10> *xyz 0 1
| 11> Si         1.242051    0.000000   -0.366175
| 12> Si        -1.048892    0.000000    0.031276
| 13> Cl        -1.885075   -1.660300   -0.790267
| 14> Cl        -1.885075    1.660301   -0.790266
| 15> Cl         2.090822    1.664195    0.418830
| 16> Cl         2.090822   -1.664195    0.418830
| 17> Cl        -1.369181   -0.000001    2.038424
| 18> F         1.508494    0.000000   -1.926196
| 19> *
| 20>
| 21> $new_job
| 22> ! ri-mp2 aug-cc-pvtz aug-cc-pvtz/c tightscf
| 23> %pal nprocs 16 end
| 24> %maxcore 3800
| 25> %base "TZ_Si-Si_31_AB"
| 26>
| 27> *xyz 0 1
| 28> Si         1.242051    0.000000   -0.366175
| 29> Si        -1.048892    0.000000    0.031276
| 30> Cl        -1.885075   -1.660300   -0.790267
| 31> Cl        -1.885075    1.660301   -0.790266
| 32> Cl         2.090822    1.664195    0.418830
| 33> Cl         2.090822   -1.664195    0.418830
| 34> Cl        -1.369181   -0.000001    2.038424
| 35> F         1.508494    0.000000   -1.926196
| 36> *
| 37>
| 38> $new_job
| 39> ! ri-mp2 aug-cc-pvqz aug-cc-pvqz/c tightscf
| 40> %pal nprocs 16 end
| 41> %maxcore 3800
| 42> %base "QZ_Si-Si_31_AB"
| 43>
| 44> *xyz 0 1
| 45> Si         1.242051    0.000000   -0.366175
| 46> Si        -1.048892    0.000000    0.031276
| 47> Cl        -1.885075   -1.660300   -0.790267
| 48> Cl        -1.885075    1.660301   -0.790266
| 49> Cl         2.090822    1.664195    0.418830
| 50> Cl         2.090822   -1.664195    0.418830
| 51> Cl        -1.369181   -0.000001    2.038424
| 52> F         1.508494    0.000000   -1.926196
| 53> *
| 54>
| 55>
| 56>
| 57>
| 58>                          ****END OF INPUT****
 Total Charge           Charge          ....    0
 Multiplicity           Mult            ....    1
 Number of Electrons    NEL             ....  122
MP2 TOTAL ENERGY:    -2976.288543746 Eh
FINAL SINGLE POINT ENERGY     -2976.288543745579
MP2 TOTAL ENERGY:    -2976.758952803 Eh
FINAL SINGLE POINT ENERGY     -2976.758952802645

CARTESIAN COORDINATES (ANGSTROEM)
---------------------------------
  Si     1.242051    0.000000   -0.366175
  Si    -1.048892    0.000000    0.031276
  Cl    -1.885075   -1.660300   -0.790267
  Cl    -1.885075    1.660301   -0.790266
  Cl     2.090822    1.664195    0.418830
  Cl     2.090822   -1.664195    0.418830
  Cl    -1.369181   -0.000001    2.038424
  F      1.508494    0.000000   -1.926196

 Multiplicity           Mult            ....    1
 Number of Electrons    NEL             ....  122
 Basis Dimension        Dim             ....  668

ORBITAL ENERGIES
----------------

  NO   OCC          E(Eh)            E(eV)
   0   2.0000    -104.861779     -2853.4341
   1   2.0000    -104.861764     -2853.4337
   2   2.0000    -104.861763     -2853.4336
   3   2.0000    -104.861643     -2853.4304
   4   2.0000    -104.861643     -2853.4304
   5   2.0000     -68.914478     -1875.2583
   6   2.0000     -68.911475     -1875.1766
   7   2.0000     -26.323128      -716.2887
   8   2.0000     -10.589297      -288.1494
   9   2.0000     -10.589263      -288.1485
  10   2.0000     -10.589257      -288.1483
  11   2.0000     -10.589243      -288.1479
  12   2.0000     -10.589237      -288.1478
  13   2.0000      -8.056041      -219.2160
  14   2.0000      -8.056004      -219.2150
  15   2.0000      -8.056003      -219.2150
  16   2.0000      -8.055996      -219.2148
  17   2.0000      -8.055994      -219.2148
  18   2.0000      -8.054818      -219.1827
  19   2.0000      -8.054809      -219.1825
  20   2.0000      -8.054796      -219.1821
  21   2.0000      -8.054795      -219.1821
  22   2.0000      -8.054783      -219.1818
  23   2.0000      -8.054782      -219.1818
  24   2.0000      -8.054778      -219.1817
  25   2.0000      -8.054778      -219.1816
  26   2.0000      -8.054770      -219.1814
  27   2.0000      -8.054770      -219.1814
  28   2.0000      -6.250713      -170.0905
  29   2.0000      -6.247007      -169.9897
  30   2.0000      -4.357816      -118.5822
  31   2.0000      -4.357815      -118.5822
  32   2.0000      -4.356678      -118.5512
  33   2.0000      -4.354573      -118.4940
  34   2.0000      -4.354526      -118.4927
  35   2.0000      -4.353277      -118.4587
  36   2.0000      -1.629235       -44.3337
  37   2.0000      -1.163119       -31.6501
  38   2.0000      -1.147303       -31.2197
  39   2.0000      -1.121590       -30.5200
  40   2.0000      -1.119786       -30.4709
  41   2.0000      -1.118804       -30.4442
  42   2.0000      -0.801840       -21.8192
  43   2.0000      -0.734449       -19.9854
  44   2.0000      -0.708097       -19.2683
  45   2.0000      -0.703163       -19.1340
  46   2.0000      -0.654417       -17.8076
  47   2.0000      -0.591729       -16.1018
  48   2.0000      -0.589431       -16.0392
  49   2.0000      -0.575386       -15.6571
  50   2.0000      -0.568877       -15.4799
  51   2.0000      -0.525366       -14.2959
  52   2.0000      -0.518588       -14.1115
  53   2.0000      -0.517432       -14.0800
  54   2.0000      -0.513563       -13.9747
  55   2.0000      -0.502443       -13.6722
  56   2.0000      -0.491305       -13.3691
  57   2.0000      -0.490575       -13.3492
  58   2.0000      -0.483032       -13.1440
  59   2.0000      -0.475838       -12.9482
  60   2.0000      -0.435312       -11.8454
  61   0.0000       0.032703         0.8899
  62   0.0000       0.033077         0.9001
  63   0.0000       0.040260         1.0955
  64   0.0000       0.041099         1.1184
  65   0.0000       0.054867         1.4930

MULLIKEN ATOMIC CHARGES
-----------------------
   0 Si:    1.968963
   1 Si:    1.827002
   2 Cl:   -0.616821
   3 Cl:   -0.616821
   4 Cl:   -0.593690
   5 Cl:   -0.593690
   6 Cl:   -0.614555
   7 F :   -0.760388
Sum of atomic charges:    0.0000000

LOEWDIN ATOMIC CHARGES
----------------------
   0 Si:   -2.232915
   1 Si:   -2.508087
   2 Cl:    0.865065
   3 Cl:    0.865065
   4 Cl:    0.902487
   5 Cl:    0.902487
   6 Cl:    0.862353
   7 F :    0.343544

  Mayer bond orders larger than 0.100000
B(  0-Si,  1-Si) :   0.9318 B(  0-Si,  4-Cl) :   0.5613 B(  0-Si,  5-Cl) :   0.5613
B(  0-Si,  7-F ) :   0.3450 B(  1-Si,  2-Cl) :   0.5111 B(  1-Si,  3-Cl) :   0.5111
B(  1-Si,  6-Cl) :   0.5290

MP2 TOTAL ENERGY:    -2976.919083083 Eh
FINAL SINGLE POINT ENERGY     -2976.919083082987

DIPOLE MOMENT
-------------
                                X             Y             Z
Electronic contribution:      0.04746      -0.00000       0.11492
Nuclear contribution   :     -0.11925       0.00000       0.06275
                        -----------------------------------------
Total Dipole Moment    :     -0.07179      -0.00000       0.17767
                        -----------------------------------------
Magnitude (a.u.)       :      0.19163
Magnitude (Debye)      :      0.48708

Rotational constants in cm-1:     0.025155     0.016460     0.014817
Rotational constants in MHz :   754.127987   493.453700   444.215248

                             ****ORCA TERMINATED NORMALLY****
TOTAL RUN TIME: 0 days 0 hours 37 minutes 24 seconds 902 msec
