                         Program Version 5.0.4 -  RELEASE  -
|  1> ! ri-mp2 aug-cc-pvdz aug-cc-pvdz/c tightscf
|  2> %pal nprocs 16 end
|  3> %maxcore 3800
|  4> %base "DZ_B-P_78_AB"
|  5> %scf
|  6> STABPerform true
|  7> STABRestartUHFifUnstable true
|  8> end
|  9>
| 10> *xyz 0 1
| 11> C         2.192357   -0.006391    0.045479
| 12> N         0.844569   -0.276790   -0.118668
| 13> C        -0.152430    0.667656    0.025825
| 14> B        -2.162165   -1.534170    0.460077
| 15> O         3.032262   -0.853192   -0.072023
| 16> H         2.392068    1.043534    0.286972
| 17> O         0.061847    1.810468    0.330364
| 18> H         0.606606   -1.233727   -0.337276
| 19> P        -1.862002    0.083698   -0.367959
| 20> H        -1.297338   -2.348975    0.493552
| 21> H        -3.258575   -1.803904    0.822221
| 22> H        -2.606326    1.070173    0.289657
| 23> *
| 24>
| 25> $new_job
| 26> ! ri-mp2 aug-cc-pvtz aug-cc-pvtz/c tightscf
| 27> %pal nprocs 16 end
| 28> %maxcore 3800
| 29> %base "TZ_B-P_78_AB"
| 30>
| 31> *xyz 0 1
| 32> C         2.192357   -0.006391    0.045479
| 33> N         0.844569   -0.276790   -0.118668
| 34> C        -0.152430    0.667656    0.025825
| 35> B        -2.162165   -1.534170    0.460077
| 36> O         3.032262   -0.853192   -0.072023
| 37> H         2.392068    1.043534    0.286972
| 38> O         0.061847    1.810468    0.330364
| 39> H         0.606606   -1.233727   -0.337276
| 40> P        -1.862002    0.083698   -0.367959
| 41> H        -1.297338   -2.348975    0.493552
| 42> H        -3.258575   -1.803904    0.822221
| 43> H        -2.606326    1.070173    0.289657
| 44> *
| 45>
| 46> $new_job
| 47> ! ri-mp2 aug-cc-pvqz aug-cc-pvqz/c tightscf
| 48> %pal nprocs 16 end
| 49> %maxcore 3800
| 50> %base "QZ_B-P_78_AB"
| 51>
| 52> *xyz 0 1
| 53> C         2.192357   -0.006391    0.045479
| 54> N         0.844569   -0.276790   -0.118668
| 55> C        -0.152430    0.667656    0.025825
| 56> B        -2.162165   -1.534170    0.460077
| 57> O         3.032262   -0.853192   -0.072023
| 58> H         2.392068    1.043534    0.286972
| 59> O         0.061847    1.810468    0.330364
| 60> H         0.606606   -1.233727   -0.337276
| 61> P        -1.862002    0.083698   -0.367959
| 62> H        -1.297338   -2.348975    0.493552
| 63> H        -3.258575   -1.803904    0.822221
| 64> H        -2.606326    1.070173    0.289657
| 65> *
| 66>
| 67>
| 68>
| 69>
| 70>                          ****END OF INPUT****
 Total Charge           Charge          ....    0
 Multiplicity           Mult            ....    1
 Number of Electrons    NEL             ....   60
MP2 TOTAL ENERGY:     -649.315159578 Eh
FINAL SINGLE POINT ENERGY      -649.315159577671
MP2 TOTAL ENERGY:     -649.616408106 Eh
FINAL SINGLE POINT ENERGY      -649.616408105518

CARTESIAN COORDINATES (ANGSTROEM)
---------------------------------
  C      2.192357   -0.006391    0.045479
  N      0.844569   -0.276790   -0.118668
  C     -0.152430    0.667656    0.025825
  B     -2.162165   -1.534170    0.460077
  O      3.032262   -0.853192   -0.072023
  H      2.392068    1.043534    0.286972
  O      0.061847    1.810468    0.330364
  H      0.606606   -1.233727   -0.337276
  P     -1.862002    0.083698   -0.367959
  H     -1.297338   -2.348975    0.493552
  H     -3.258575   -1.803904    0.822221
  H     -2.606326    1.070173    0.289657

 Multiplicity           Mult            ....    1
 Number of Electrons    NEL             ....   60
 Basis Dimension        Dim             ....  794

ORBITAL ENERGIES
----------------

  NO   OCC          E(Eh)            E(eV)
   0   2.0000     -79.964900     -2175.9556
   1   2.0000     -20.565060      -559.6037
   2   2.0000     -20.559933      -559.4642
   3   2.0000     -15.629973      -425.3132
   4   2.0000     -11.395942      -310.0993
   5   2.0000     -11.375042      -309.5306
   6   2.0000      -7.644853      -208.0270
   7   2.0000      -7.512389      -204.4225
   8   2.0000      -5.406820      -147.1271
   9   2.0000      -5.406589      -147.1208
  10   2.0000      -5.406367      -147.1147
  11   2.0000      -1.439698       -39.1762
  12   2.0000      -1.416838       -38.5541
  13   2.0000      -1.268196       -34.5094
  14   2.0000      -0.965476       -26.2720
  15   2.0000      -0.873027       -23.7563
  16   2.0000      -0.841958       -22.9109
  17   2.0000      -0.733611       -19.9626
  18   2.0000      -0.716731       -19.5032
  19   2.0000      -0.680373       -18.5139
  20   2.0000      -0.644474       -17.5370
  21   2.0000      -0.640469       -17.4280
  22   2.0000      -0.611101       -16.6289
  23   2.0000      -0.560181       -15.2433
  24   2.0000      -0.551397       -15.0043
  25   2.0000      -0.519056       -14.1242
  26   2.0000      -0.481580       -13.1044
  27   2.0000      -0.444988       -12.1087
  28   2.0000      -0.434219       -11.8157
  29   2.0000      -0.384782       -10.4705
  30   0.0000       0.019021         0.5176
  31   0.0000       0.020447         0.5564
  32   0.0000       0.029117         0.7923
  33   0.0000       0.032560         0.8860
  34   0.0000       0.042110         1.1459

MULLIKEN ATOMIC CHARGES
-----------------------
   0 C :    0.420275
   1 N :   -0.637757
   2 C :    0.709329
   3 B :    0.228787
   4 O :   -0.758543
   5 H :    0.440710
   6 O :   -0.764203
   7 H :    0.312883
   8 P :    0.372628
   9 H :   -0.142485
  10 H :   -0.192854
  11 H :    0.011230
Sum of atomic charges:    0.0000000

LOEWDIN ATOMIC CHARGES
----------------------
   0 C :   -0.425120
   1 N :    0.684979
   2 C :   -1.072489
   3 B :    0.116192
   4 O :    0.692224
   5 H :   -0.382449
   6 O :    0.631259
   7 H :   -0.591853
   8 P :    1.299598
   9 H :   -0.248209
  10 H :   -0.256967
  11 H :   -0.447165

  Mayer bond orders larger than 0.100000
B(  0-C ,  1-N ) :   1.1725 B(  0-C ,  4-O ) :   1.5728 B(  0-C ,  5-H ) :   0.8210
B(  1-N ,  2-C ) :   0.9730 B(  1-N ,  6-O ) :   0.1633 B(  1-N ,  7-H ) :   0.9040
B(  2-C ,  6-O ) :   1.3640 B(  2-C ,  8-P ) :   0.7990 B(  3-B ,  8-P ) :   1.2817
B(  3-B ,  9-H ) :   0.9267 B(  3-B , 10-H ) :   0.9419 B(  8-P , 11-H ) :   0.9849

MP2 TOTAL ENERGY:     -649.716427330 Eh
FINAL SINGLE POINT ENERGY      -649.716427329553

DIPOLE MOMENT
-------------
                                X             Y             Z
Electronic contribution:     -0.73030       1.59238      -1.40996
Nuclear contribution   :     -0.57305      -2.02792       1.48336
                        -----------------------------------------
Total Dipole Moment    :     -1.30335      -0.43554       0.07340
                        -----------------------------------------
Magnitude (a.u.)       :      1.37615
Magnitude (Debye)      :      3.49790

Rotational constants in cm-1:     0.142415     0.041289     0.033231
Rotational constants in MHz :  4269.487524  1237.799409   996.249331

                             ****ORCA TERMINATED NORMALLY****
TOTAL RUN TIME: 0 days 0 hours 55 minutes 37 seconds 474 msec
