                         Program Version 5.0.4 -  RELEASE  -
|  1> ! ri-mp2 aug-cc-pvdz aug-cc-pvdz/c tightscf
|  2> %pal nprocs 16 end
|  3> %maxcore 3800
|  4> %base "DZ_P-S_28_A"
|  5> %scf
|  6> STABPerform true
|  7> STABRestartUHFifUnstable true
|  8> end
|  9>
| 10> *xyz 0 2
| 11> S         2.261380    0.000000   -0.461950
| 12> O         0.714384    0.000000   -0.979055
| 13> C        -0.329731    0.000000   -0.053491
| 14> Cl        -1.800917    0.000001   -1.018996
| 15> Cl        -0.273623    1.447126    0.966693
| 16> Cl        -0.273623   -1.447127    0.966691
| 17> *
| 18>
| 19> $new_job
| 20> ! ri-mp2 aug-cc-pvtz aug-cc-pvtz/c tightscf
| 21> %pal nprocs 16 end
| 22> %maxcore 3800
| 23> %base "TZ_P-S_28_A"
| 24>
| 25> *xyz 0 2
| 26> S         2.261380    0.000000   -0.461950
| 27> O         0.714384    0.000000   -0.979055
| 28> C        -0.329731    0.000000   -0.053491
| 29> Cl        -1.800917    0.000001   -1.018996
| 30> Cl        -0.273623    1.447126    0.966693
| 31> Cl        -0.273623   -1.447127    0.966691
| 32> *
| 33>
| 34> $new_job
| 35> ! ri-mp2 aug-cc-pvqz aug-cc-pvqz/c tightscf
| 36> %pal nprocs 16 end
| 37> %maxcore 3800
| 38> %base "QZ_P-S_28_A"
| 39>
| 40> *xyz 0 2
| 41> S         2.261380    0.000000   -0.461950
| 42> O         0.714384    0.000000   -0.979055
| 43> C        -0.329731    0.000000   -0.053491
| 44> Cl        -1.800917    0.000001   -1.018996
| 45> Cl        -0.273623    1.447126    0.966693
| 46> Cl        -0.273623   -1.447127    0.966691
| 47> *
| 48>
| 49>
| 50>
| 51>
| 52>                          ****END OF INPUT****
 Total Charge           Charge          ....    0
 Multiplicity           Mult            ....    2
 Number of Electrons    NEL             ....   81
MP2 TOTAL ENERGY:    -1889.615378837 Eh
FINAL SINGLE POINT ENERGY     -1889.615378837358
MP2 TOTAL ENERGY:    -1889.940184640 Eh
FINAL SINGLE POINT ENERGY     -1889.940184639730

CARTESIAN COORDINATES (ANGSTROEM)
---------------------------------
  S      2.261380    0.000000   -0.461950
  O      0.714384    0.000000   -0.979055
  C     -0.329731    0.000000   -0.053491
  Cl    -1.800917    0.000001   -1.018996
  Cl    -0.273623    1.447126    0.966693
  Cl    -0.273623   -1.447127    0.966691

 Multiplicity           Mult            ....    2
 Number of Electrons    NEL             ....   81
 Basis Dimension        Dim             ....  496

ORBITAL ENERGIES
----------------
                 SPIN UP ORBITALS
  NO   OCC          E(Eh)            E(eV)
   0   1.0000    -104.871658     -2853.7029
   1   1.0000    -104.871658     -2853.7029
   2   1.0000    -104.871253     -2853.6919
   3   1.0000     -92.044659     -2504.6625
   4   1.0000     -20.662727      -562.2614
   5   1.0000     -11.501734      -312.9781
   6   1.0000     -10.597703      -288.3782
   7   1.0000     -10.597693      -288.3779
   8   1.0000     -10.597218      -288.3650
   9   1.0000      -9.041454      -246.0305
  10   1.0000      -8.064805      -219.4545
  11   1.0000      -8.064803      -219.4544
  12   1.0000      -8.064205      -219.4382
  13   1.0000      -8.062667      -219.3963
  14   1.0000      -8.062665      -219.3963
  15   1.0000      -8.062614      -219.3949
  16   1.0000      -8.062613      -219.3949
  17   1.0000      -8.062143      -219.3821
  18   1.0000      -8.062134      -219.3818
  19   1.0000      -6.736351      -183.3054
  20   1.0000      -6.718771      -182.8270
  21   1.0000      -6.716393      -182.7624
  22   1.0000      -1.488711       -40.5099
  23   1.0000      -1.232985       -33.5512
  24   1.0000      -1.128283       -30.7021
  25   1.0000      -1.126660       -30.6580
  26   1.0000      -1.002367       -27.2758
  27   1.0000      -0.831470       -22.6254
  28   1.0000      -0.717882       -19.5346
  29   1.0000      -0.711298       -19.3554
  30   1.0000      -0.693161       -18.8619
  31   1.0000      -0.599219       -16.3056
  32   1.0000      -0.586077       -15.9480
  33   1.0000      -0.512549       -13.9472
  34   1.0000      -0.506167       -13.7735
  35   1.0000      -0.505778       -13.7629
  36   1.0000      -0.473031       -12.8718
  37   1.0000      -0.472367       -12.8538
  38   1.0000      -0.458834       -12.4855
  39   1.0000      -0.446475       -12.1492
  40   1.0000      -0.405504       -11.0343
  41   0.0000       0.039434         1.0730
  42   0.0000       0.046776         1.2728
  43   0.0000       0.056266         1.5311
  44   0.0000       0.059286         1.6133
  45   0.0000       0.072094         1.9618

                 SPIN DOWN ORBITALS
  NO   OCC          E(Eh)            E(eV)
   0   1.0000    -104.871585     -2853.7009
   1   1.0000    -104.871585     -2853.7009
   2   1.0000    -104.871277     -2853.6925
   3   1.0000     -92.035695     -2504.4186
   4   1.0000     -20.657148      -562.1096
   5   1.0000     -11.502173      -312.9901
   6   1.0000     -10.597638      -288.3764
   7   1.0000     -10.597628      -288.3761
   8   1.0000     -10.597244      -288.3657
   9   1.0000      -9.031569      -245.7615
  10   1.0000      -8.064475      -219.4455
  11   1.0000      -8.064472      -219.4454
  12   1.0000      -8.064266      -219.4398
  13   1.0000      -8.062628      -219.3953
  14   1.0000      -8.062627      -219.3952
  15   1.0000      -8.062563      -219.3935
  16   1.0000      -8.062561      -219.3934
  17   1.0000      -8.062183      -219.3831
  18   1.0000      -8.062155      -219.3824
  19   1.0000      -6.715045      -182.7257
  20   1.0000      -6.711295      -182.6236
  21   1.0000      -6.694912      -182.1778
  22   1.0000      -1.474365       -40.1195
  23   1.0000      -1.230077       -33.4721
  24   1.0000      -1.127804       -30.6891
  25   1.0000      -1.125902       -30.6374
  26   1.0000      -0.951837       -25.9008
  27   1.0000      -0.807503       -21.9733
  28   1.0000      -0.706372       -19.2214
  29   1.0000      -0.690438       -18.7878
  30   1.0000      -0.671493       -18.2723
  31   1.0000      -0.579556       -15.7705
  32   1.0000      -0.564876       -15.3711
  33   1.0000      -0.511934       -13.9304
  34   1.0000      -0.504497       -13.7281
  35   1.0000      -0.499858       -13.6018
  36   1.0000      -0.472330       -12.8527
  37   1.0000      -0.470606       -12.8059
  38   1.0000      -0.457607       -12.4521
  39   1.0000      -0.388453       -10.5704
  40   0.0000       0.001997         0.0543
  41   0.0000       0.040561         1.1037
  42   0.0000       0.047879         1.3028
  43   0.0000       0.058204         1.5838
  44   0.0000       0.059422         1.6169

MULLIKEN ATOMIC CHARGES AND SPIN POPULATIONS
--------------------------------------------
   0 S :    0.310875    0.964876
   1 O :   -0.553327    0.030703
   2 C :    0.618370   -0.005834
   3 Cl:   -0.111608   -0.001947
   4 Cl:   -0.132155    0.006101
   5 Cl:   -0.132154    0.006101
Sum of atomic charges         :    0.0000000

LOEWDIN ATOMIC CHARGES AND SPIN POPULATIONS
-------------------------------------------
   0 S :    0.557836    0.764413
   1 O :   -0.209900    0.207093
   2 C :   -3.188719    0.011681
   3 Cl:    0.964451   -0.001551
   4 Cl:    0.938166    0.009182
   5 Cl:    0.938166    0.009182

  Mayer bond orders larger than 0.100000
B(  0-S ,  1-O ) :   0.8535 B(  1-O ,  2-C ) :   0.7667 B(  2-C ,  3-Cl) :   0.8570
B(  2-C ,  4-Cl) :   0.8618 B(  2-C ,  5-Cl) :   0.8618

MP2 TOTAL ENERGY:    -1890.048629988 Eh
FINAL SINGLE POINT ENERGY     -1890.048629987647

DIPOLE MOMENT
-------------
                                X             Y             Z
Electronic contribution:     -2.77411      -0.00000       1.34930
Nuclear contribution   :      3.01717      -0.00000      -1.19681
                        -----------------------------------------
Total Dipole Moment    :      0.24306      -0.00000       0.15249
                        -----------------------------------------
Magnitude (a.u.)       :      0.28694
Magnitude (Debye)      :      0.72934

Rotational constants in cm-1:     0.061582     0.040240     0.038126
Rotational constants in MHz :  1846.172449  1206.372658  1142.979913

                             ****ORCA TERMINATED NORMALLY****
TOTAL RUN TIME: 0 days 0 hours 24 minutes 29 seconds 52 msec
