                         Program Version 5.0.4 -  RELEASE  -
|  1> ! ri-mp2 aug-cc-pvdz aug-cc-pvdz/c tightscf
|  2> %pal nprocs 16 end
|  3> %maxcore 3800
|  4> %base "DZ_B-B_22_AB"
|  5> %scf
|  6> STABPerform true
|  7> STABRestartUHFifUnstable true
|  8> end
|  9>
| 10> *xyz 0 1
| 11> B         0.059088    0.464373    0.000012
| 12> B        -1.498106   -0.136733    0.000008
| 13> O         1.147295   -0.345359   -0.000016
| 14> H         1.987041    0.122375   -0.000015
| 15> H         0.232326    1.658951    0.000030
| 16> H        -2.101306   -0.328352   -1.012766
| 17> H        -2.101328   -0.328307    1.012777
| 18> *
| 19>
| 20> $new_job
| 21> ! ri-mp2 aug-cc-pvtz aug-cc-pvtz/c tightscf
| 22> %pal nprocs 16 end
| 23> %maxcore 3800
| 24> %base "TZ_B-B_22_AB"
| 25>
| 26> *xyz 0 1
| 27> B         0.059088    0.464373    0.000012
| 28> B        -1.498106   -0.136733    0.000008
| 29> O         1.147295   -0.345359   -0.000016
| 30> H         1.987041    0.122375   -0.000015
| 31> H         0.232326    1.658951    0.000030
| 32> H        -2.101306   -0.328352   -1.012766
| 33> H        -2.101328   -0.328307    1.012777
| 34> *
| 35>
| 36> $new_job
| 37> ! ri-mp2 aug-cc-pvqz aug-cc-pvqz/c tightscf
| 38> %pal nprocs 16 end
| 39> %maxcore 3800
| 40> %base "QZ_B-B_22_AB"
| 41>
| 42> *xyz 0 1
| 43> B         0.059088    0.464373    0.000012
| 44> B        -1.498106   -0.136733    0.000008
| 45> O         1.147295   -0.345359   -0.000016
| 46> H         1.987041    0.122375   -0.000015
| 47> H         0.232326    1.658951    0.000030
| 48> H        -2.101306   -0.328352   -1.012766
| 49> H        -2.101328   -0.328307    1.012777
| 50> *
| 51>
| 52>
| 53>
| 54>
| 55>                          ****END OF INPUT****
 Total Charge           Charge          ....    0
 Multiplicity           Mult            ....    1
 Number of Electrons    NEL             ....   22
MP2 TOTAL ENERGY:     -126.946635632 Eh
FINAL SINGLE POINT ENERGY      -126.946635631944
MP2 TOTAL ENERGY:     -127.061637306 Eh
FINAL SINGLE POINT ENERGY      -127.061637305672

CARTESIAN COORDINATES (ANGSTROEM)
---------------------------------
  B      0.059088    0.464373    0.000012
  B     -1.498106   -0.136733    0.000008
  O      1.147295   -0.345359   -0.000016
  H      1.987041    0.122375   -0.000015
  H      0.232326    1.658951    0.000030
  H     -2.101306   -0.328352   -1.012766
  H     -2.101328   -0.328307    1.012777

 Multiplicity           Mult            ....    1
 Number of Electrons    NEL             ....   22
 Basis Dimension        Dim             ....  424

ORBITAL ENERGIES
----------------

  NO   OCC          E(Eh)            E(eV)
   0   2.0000     -20.577303      -559.9369
   1   2.0000      -7.605262      -206.9497
   2   2.0000      -7.586514      -206.4395
   3   2.0000      -1.370687       -37.2983
   4   2.0000      -0.775651       -21.1065
   5   2.0000      -0.685532       -18.6543
   6   2.0000      -0.641177       -17.4473
   7   2.0000      -0.545451       -14.8425
   8   2.0000      -0.536905       -14.6099
   9   2.0000      -0.483920       -13.1681
  10   2.0000      -0.416585       -11.3359
  11   0.0000       0.022914         0.6235
  12   0.0000       0.031305         0.8518
  13   0.0000       0.034827         0.9477
  14   0.0000       0.035510         0.9663
  15   0.0000       0.049352         1.3429

MULLIKEN ATOMIC CHARGES
-----------------------
   0 B :    0.829700
   1 B :    0.342064
   2 O :   -0.940481
   3 H :    0.359936
   4 H :   -0.237569
   5 H :   -0.176826
   6 H :   -0.176825
Sum of atomic charges:    0.0000000

LOEWDIN ATOMIC CHARGES
----------------------
   0 B :   -0.325511
   1 B :    0.486380
   2 O :    1.292596
   3 H :   -0.798906
   4 H :   -0.198455
   5 H :   -0.228051
   6 H :   -0.228052

  Mayer bond orders larger than 0.100000
B(  0-B ,  1-B ) :   1.0252 B(  0-B ,  2-O ) :   0.6495 B(  0-B ,  4-H ) :   0.9122
B(  1-B ,  2-O ) :  -0.1228 B(  1-B ,  5-H ) :   0.9594 B(  1-B ,  6-H ) :   0.9594
B(  2-O ,  3-H ) :   0.8979

MP2 TOTAL ENERGY:     -127.098400894 Eh
FINAL SINGLE POINT ENERGY      -127.098400893512

DIPOLE MOMENT
-------------
                                X             Y             Z
Electronic contribution:      1.21868      -0.46628      -0.00000
Nuclear contribution   :     -0.79917       0.84836       0.00001
                        -----------------------------------------
Total Dipole Moment    :      0.41951       0.38208       0.00001
                        -----------------------------------------
Magnitude (a.u.)       :      0.56743
Magnitude (Debye)      :      1.44228

Rotational constants in cm-1:     1.786578     0.279057     0.256548
Rotational constants in MHz : 53560.253448  8365.915286  7691.126942

                             ****ORCA TERMINATED NORMALLY****
TOTAL RUN TIME: 0 days 0 hours 5 minutes 49 seconds 683 msec
