                         Program Version 5.0.4 -  RELEASE  -
|  1> ! ri-mp2 aug-cc-pvdz aug-cc-pvdz/c tightscf
|  2> %pal nprocs 16 end
|  3> %maxcore 3800
|  4> %base "DZ_Si-S_9_AB"
|  5> %scf
|  6> STABPerform true
|  7> STABRestartUHFifUnstable true
|  8> end
|  9>
| 10> *xyz 0 1
| 11> S         1.668963    0.040110   -0.156972
| 12> Si        -0.403767   -0.009974    0.412138
| 13> C        -1.134003    1.576310   -0.232600
| 14> H         1.993227   -1.122726    0.424592
| 15> H        -1.045358    1.633519   -1.318289
| 16> H        -0.633397    2.444730    0.195530
| 17> C        -1.258743   -1.507022   -0.293390
| 18> H        -2.310073   -1.521306    0.001544
| 19> H        -0.799481   -2.429260    0.064058
| 20> H        -1.207333   -1.505724   -1.382616
| 21> H        -2.193166    1.637664    0.022630
| 22> H        -0.498621   -0.054753    1.890116
| 23> *
| 24>
| 25> $new_job
| 26> ! ri-mp2 aug-cc-pvtz aug-cc-pvtz/c tightscf
| 27> %pal nprocs 16 end
| 28> %maxcore 3800
| 29> %base "TZ_Si-S_9_AB"
| 30>
| 31> *xyz 0 1
| 32> S         1.668963    0.040110   -0.156972
| 33> Si        -0.403767   -0.009974    0.412138
| 34> C        -1.134003    1.576310   -0.232600
| 35> H         1.993227   -1.122726    0.424592
| 36> H        -1.045358    1.633519   -1.318289
| 37> H        -0.633397    2.444730    0.195530
| 38> C        -1.258743   -1.507022   -0.293390
| 39> H        -2.310073   -1.521306    0.001544
| 40> H        -0.799481   -2.429260    0.064058
| 41> H        -1.207333   -1.505724   -1.382616
| 42> H        -2.193166    1.637664    0.022630
| 43> H        -0.498621   -0.054753    1.890116
| 44> *
| 45>
| 46> $new_job
| 47> ! ri-mp2 aug-cc-pvqz aug-cc-pvqz/c tightscf
| 48> %pal nprocs 16 end
| 49> %maxcore 3800
| 50> %base "QZ_Si-S_9_AB"
| 51>
| 52> *xyz 0 1
| 53> S         1.668963    0.040110   -0.156972
| 54> Si        -0.403767   -0.009974    0.412138
| 55> C        -1.134003    1.576310   -0.232600
| 56> H         1.993227   -1.122726    0.424592
| 57> H        -1.045358    1.633519   -1.318289
| 58> H        -0.633397    2.444730    0.195530
| 59> C        -1.258743   -1.507022   -0.293390
| 60> H        -2.310073   -1.521306    0.001544
| 61> H        -0.799481   -2.429260    0.064058
| 62> H        -1.207333   -1.505724   -1.382616
| 63> H        -2.193166    1.637664    0.022630
| 64> H        -0.498621   -0.054753    1.890116
| 65> *
| 66>
| 67>
| 68>
| 69>
| 70>                          ****END OF INPUT****
 Total Charge           Charge          ....    0
 Multiplicity           Mult            ....    1
 Number of Electrons    NEL             ....   50
MP2 TOTAL ENERGY:     -767.476053188 Eh
FINAL SINGLE POINT ENERGY      -767.476053187605
MP2 TOTAL ENERGY:     -767.651266274 Eh
FINAL SINGLE POINT ENERGY      -767.651266274253

CARTESIAN COORDINATES (ANGSTROEM)
---------------------------------
  S      1.668963    0.040110   -0.156972
  Si    -0.403767   -0.009974    0.412138
  C     -1.134003    1.576310   -0.232600
  H      1.993227   -1.122726    0.424592
  H     -1.045358    1.633519   -1.318289
  H     -0.633397    2.444730    0.195530
  C     -1.258743   -1.507022   -0.293390
  H     -2.310073   -1.521306    0.001544
  H     -0.799481   -2.429260    0.064058
  H     -1.207333   -1.505724   -1.382616
  H     -2.193166    1.637664    0.022630
  H     -0.498621   -0.054753    1.890116

 Multiplicity           Mult            ....    1
 Number of Electrons    NEL             ....   50
 Basis Dimension        Dim             ....  696

ORBITAL ENERGIES
----------------

  NO   OCC          E(Eh)            E(eV)
   0   2.0000     -91.937390     -2501.7436
   1   2.0000     -68.781507     -1871.6399
   2   2.0000     -11.207629      -304.9751
   3   2.0000     -11.207271      -304.9653
   4   2.0000      -8.942221      -243.3302
   5   2.0000      -6.623794      -180.2426
   6   2.0000      -6.622957      -180.2198
   7   2.0000      -6.622184      -180.1988
   8   2.0000      -6.128724      -166.7711
   9   2.0000      -4.235654      -115.2580
  10   2.0000      -4.234866      -115.2366
  11   2.0000      -4.234552      -115.2280
  12   2.0000      -0.983671       -26.7670
  13   2.0000      -0.940593       -25.5948
  14   2.0000      -0.936788       -25.4913
  15   2.0000      -0.660507       -17.9733
  16   2.0000      -0.583654       -15.8820
  17   2.0000      -0.574445       -15.6314
  18   2.0000      -0.558946       -15.2097
  19   2.0000      -0.553769       -15.0688
  20   2.0000      -0.527028       -14.3412
  21   2.0000      -0.466019       -12.6810
  22   2.0000      -0.450378       -12.2554
  23   2.0000      -0.430173       -11.7056
  24   2.0000      -0.367990       -10.0135
  25   0.0000       0.022180         0.6036
  26   0.0000       0.033570         0.9135
  27   0.0000       0.037068         1.0087
  28   0.0000       0.037530         1.0213
  29   0.0000       0.051140         1.3916

MULLIKEN ATOMIC CHARGES
-----------------------
   0 S :   -0.487185
   1 Si:    1.292974
   2 C :   -1.076971
   3 H :    0.046795
   4 H :    0.240083
   5 H :    0.289851
   6 C :   -1.033776
   7 H :    0.251919
   8 H :    0.272681
   9 H :    0.243653
  10 H :    0.267684
  11 H :   -0.307708
Sum of atomic charges:    0.0000000

LOEWDIN ATOMIC CHARGES
----------------------
   0 S :    1.477970
   1 Si:   -0.018386
   2 C :    0.884158
   3 H :   -0.879723
   4 H :   -0.355902
   5 H :   -0.360523
   6 C :    0.898883
   7 H :   -0.352214
   8 H :   -0.362073
   9 H :   -0.357231
  10 H :   -0.351706
  11 H :   -0.223253

  Mayer bond orders larger than 0.100000
B(  0-S ,  1-Si) :   0.6583 B(  0-S ,  3-H ) :   1.0640 B(  1-Si,  2-C ) :   0.8837
B(  1-Si,  6-C ) :   0.8524 B(  1-Si, 11-H ) :   0.7997 B(  2-C ,  4-H ) :   0.9611
B(  2-C ,  5-H ) :   0.9341 B(  2-C , 10-H ) :   0.9520 B(  6-C ,  7-H ) :   0.9446
B(  6-C ,  8-H ) :   0.9507 B(  6-C ,  9-H ) :   0.9582

MP2 TOTAL ENERGY:     -767.705135729 Eh
FINAL SINGLE POINT ENERGY      -767.705135728631

DIPOLE MOMENT
-------------
                                X             Y             Z
Electronic contribution:      6.23908       0.67832       0.19057
Nuclear contribution   :     -6.84300      -0.93513      -0.12483
                        -----------------------------------------
Total Dipole Moment    :     -0.60392      -0.25681       0.06574
                        -----------------------------------------
Magnitude (a.u.)       :      0.65954
Magnitude (Debye)      :      1.67642

Rotational constants in cm-1:     0.177311     0.104858     0.074440
Rotational constants in MHz :  5315.648703  3143.564923  2231.654498

                             ****ORCA TERMINATED NORMALLY****
TOTAL RUN TIME: 0 days 0 hours 37 minutes 44 seconds 180 msec
