                         Program Version 5.0.4 -  RELEASE  -
|  1> ! ri-mp2 aug-cc-pvdz aug-cc-pvdz/c tightscf
|  2> %pal nprocs 16 end
|  3> %maxcore 3800
|  4> %base "DZ_Si-Si_11_AB"
|  5> %scf
|  6> STABPerform true
|  7> STABRestartUHFifUnstable true
|  8> end
|  9>
| 10> *xyz 0 1
| 11> Si         1.504940    0.585915    0.000000
| 12> Si        -0.752037   -0.013353    0.000000
| 13> F        -1.656108    1.283602   -0.000001
| 14> F         2.377476   -0.753938    0.000001
| 15> F        -1.148837   -0.861455    1.270989
| 16> H         1.823058    1.361685    1.212468
| 17> F        -1.148837   -0.861457   -1.270988
| 18> H         1.823058    1.361684   -1.212469
| 19> *
| 20>
| 21> $new_job
| 22> ! ri-mp2 aug-cc-pvtz aug-cc-pvtz/c tightscf
| 23> %pal nprocs 16 end
| 24> %maxcore 3800
| 25> %base "TZ_Si-Si_11_AB"
| 26>
| 27> *xyz 0 1
| 28> Si         1.504940    0.585915    0.000000
| 29> Si        -0.752037   -0.013353    0.000000
| 30> F        -1.656108    1.283602   -0.000001
| 31> F         2.377476   -0.753938    0.000001
| 32> F        -1.148837   -0.861455    1.270989
| 33> H         1.823058    1.361685    1.212468
| 34> F        -1.148837   -0.861457   -1.270988
| 35> H         1.823058    1.361684   -1.212469
| 36> *
| 37>
| 38> $new_job
| 39> ! ri-mp2 aug-cc-pvqz aug-cc-pvqz/c tightscf
| 40> %pal nprocs 16 end
| 41> %maxcore 3800
| 42> %base "QZ_Si-Si_11_AB"
| 43>
| 44> *xyz 0 1
| 45> Si         1.504940    0.585915    0.000000
| 46> Si        -0.752037   -0.013353    0.000000
| 47> F        -1.656108    1.283602   -0.000001
| 48> F         2.377476   -0.753938    0.000001
| 49> F        -1.148837   -0.861455    1.270989
| 50> H         1.823058    1.361685    1.212468
| 51> F        -1.148837   -0.861457   -1.270988
| 52> H         1.823058    1.361684   -1.212469
| 53> *
| 54>
| 55>
| 56>
| 57>
| 58>                          ****END OF INPUT****
 Total Charge           Charge          ....    0
 Multiplicity           Mult            ....    1
 Number of Electrons    NEL             ....   66
MP2 TOTAL ENERGY:     -978.088010308 Eh
FINAL SINGLE POINT ENERGY      -978.088010307839
MP2 TOTAL ENERGY:     -978.513280049 Eh
FINAL SINGLE POINT ENERGY      -978.513280048572

CARTESIAN COORDINATES (ANGSTROEM)
---------------------------------
  Si     1.504940    0.585915    0.000000
  Si    -0.752037   -0.013353    0.000000
  F     -1.656108    1.283602   -0.000001
  F      2.377476   -0.753938    0.000001
  F     -1.148837   -0.861455    1.270989
  H      1.823058    1.361685    1.212468
  F     -1.148837   -0.861457   -1.270988
  H      1.823058    1.361684   -1.212469

 Multiplicity           Mult            ....    1
 Number of Electrons    NEL             ....   66
 Basis Dimension        Dim             ....  580

ORBITAL ENERGIES
----------------

  NO   OCC          E(Eh)            E(eV)
   0   2.0000     -68.890704     -1874.6114
   1   2.0000     -68.839525     -1873.2187
   2   2.0000     -26.317666      -716.1401
   3   2.0000     -26.316441      -716.1068
   4   2.0000     -26.316432      -716.1065
   5   2.0000     -26.304046      -715.7695
   6   2.0000      -6.226018      -169.4186
   7   2.0000      -6.184019      -168.2757
   8   2.0000      -4.334443      -117.9462
   9   2.0000      -4.334393      -117.9448
  10   2.0000      -4.332852      -117.9029
  11   2.0000      -4.291113      -116.7671
  12   2.0000      -4.290456      -116.7493
  13   2.0000      -4.290271      -116.7442
  14   2.0000      -1.641796       -44.6755
  15   2.0000      -1.613928       -43.9172
  16   2.0000      -1.613170       -43.8966
  17   2.0000      -1.606657       -43.7194
  18   2.0000      -0.836951       -22.7746
  19   2.0000      -0.791798       -21.5459
  20   2.0000      -0.752966       -20.4892
  21   2.0000      -0.752433       -20.4747
  22   2.0000      -0.729889       -19.8613
  23   2.0000      -0.702108       -19.1053
  24   2.0000      -0.702017       -19.1029
  25   2.0000      -0.689231       -18.7549
  26   2.0000      -0.688543       -18.7362
  27   2.0000      -0.674823       -18.3629
  28   2.0000      -0.674397       -18.3513
  29   2.0000      -0.658577       -17.9208
  30   2.0000      -0.648739       -17.6531
  31   2.0000      -0.514954       -14.0126
  32   2.0000      -0.466112       -12.6836
  33   0.0000       0.025070         0.6822
  34   0.0000       0.032055         0.8723
  35   0.0000       0.034650         0.9429
  36   0.0000       0.040398         1.0993
  37   0.0000       0.052988         1.4419

MULLIKEN ATOMIC CHARGES
-----------------------
   0 Si:    0.933482
   1 Si:    2.162202
   2 F :   -0.702742
   3 F :   -0.669306
   4 F :   -0.702828
   5 H :   -0.158990
   6 F :   -0.702828
   7 H :   -0.158990
Sum of atomic charges:    0.0000000

LOEWDIN ATOMIC CHARGES
----------------------
   0 Si:    0.341843
   1 Si:   -1.288520
   2 F :    0.396511
   3 F :    0.359290
   4 F :    0.399365
   5 H :   -0.303927
   6 F :    0.399365
   7 H :   -0.303927

  Mayer bond orders larger than 0.100000
B(  0-Si,  1-Si) :   0.9565 B(  0-Si,  3-F ) :   0.3444 B(  0-Si,  5-H ) :   0.8889
B(  0-Si,  7-H ) :   0.8889 B(  1-Si,  2-F ) :   0.4290 B(  1-Si,  4-F ) :   0.4305
B(  1-Si,  6-F ) :   0.4305

MP2 TOTAL ENERGY:     -978.656352097 Eh
FINAL SINGLE POINT ENERGY      -978.656352096834

DIPOLE MOMENT
-------------
                                X             Y             Z
Electronic contribution:     -4.27856      -2.93556       0.00000
Nuclear contribution   :      4.76408       3.57230      -0.00000
                        -----------------------------------------
Total Dipole Moment    :      0.48551       0.63674      -0.00000
                        -----------------------------------------
Magnitude (a.u.)       :      0.80073
Magnitude (Debye)      :      2.03528

Rotational constants in cm-1:     0.114143     0.046800     0.044455
Rotational constants in MHz :  3421.913690  1403.027944  1332.717750

                             ****ORCA TERMINATED NORMALLY****
TOTAL RUN TIME: 0 days 0 hours 14 minutes 57 seconds 430 msec
