                         Program Version 5.0.4 -  RELEASE  -
|  1> ! ri-mp2 aug-cc-pvdz aug-cc-pvdz/c tightscf
|  2> %pal nprocs 16 end
|  3> %maxcore 3800
|  4> %base "DZ_B-F_56_AB"
|  5>
|  6> *xyz 0 1
|  7> F         1.194745   -0.539752    0.000000
|  8> B         0.000000    0.000000    0.000000
|  9> F        -0.129933    1.304557    0.000000
| 10> F        -1.064812   -0.764805    0.000000
| 11> *
| 12>
| 13> $new_job
| 14> ! ri-mp2 aug-cc-pvtz aug-cc-pvtz/c tightscf
| 15> %pal nprocs 16 end
| 16> %maxcore 3800
| 17> %base "TZ_B-F_56_AB"
| 18>
| 19> *xyz 0 1
| 20> F         1.194745   -0.539752    0.000000
| 21> B         0.000000    0.000000    0.000000
| 22> F        -0.129933    1.304557    0.000000
| 23> F        -1.064812   -0.764805    0.000000
| 24> *
| 25>
| 26> $new_job
| 27> ! ri-mp2 aug-cc-pvqz aug-cc-pvqz/c tightscf
| 28> %pal nprocs 16 end
| 29> %maxcore 3800
| 30> %base "QZ_B-F_56_AB"
| 31>
| 32> *xyz 0 1
| 33> F         1.194745   -0.539752    0.000000
| 34> B         0.000000    0.000000    0.000000
| 35> F        -0.129933    1.304557    0.000000
| 36> F        -1.064812   -0.764805    0.000000
| 37> *
| 38>
| 39>
| 40>
| 41>
| 42>                          ****END OF INPUT****
 Total Charge           Charge          ....    0
 Multiplicity           Mult            ....    1
 Number of Electrons    NEL             ....   32
MP2 TOTAL ENERGY:     -323.904753819 Eh
FINAL SINGLE POINT ENERGY      -323.904753818672
MP2 TOTAL ENERGY:     -324.188784323 Eh
FINAL SINGLE POINT ENERGY      -324.188784323170

CARTESIAN COORDINATES (ANGSTROEM)
---------------------------------
  F      1.194745   -0.539752    0.000000
  B      0.000000    0.000000    0.000000
  F     -0.129933    1.304557    0.000000
  F     -1.064812   -0.764805    0.000000

 Multiplicity           Mult            ....    1
 Number of Electrons    NEL             ....   32
 Basis Dimension        Dim             ....  320

ORBITAL ENERGIES
----------------

  NO   OCC          E(Eh)            E(eV)
   0   2.0000     -26.337608      -716.6827
   1   2.0000     -26.337607      -716.6827
   2   2.0000     -26.337582      -716.6820
   3   2.0000      -7.776996      -211.6228
   4   2.0000      -1.686327       -45.8873
   5   2.0000      -1.643496       -44.7218
   6   2.0000      -1.643495       -44.7218
   7   2.0000      -0.858317       -23.3560
   8   2.0000      -0.813072       -22.1248
   9   2.0000      -0.813072       -22.1248
  10   2.0000      -0.763238       -20.7688
  11   2.0000      -0.700658       -19.0659
  12   2.0000      -0.700658       -19.0659
  13   2.0000      -0.687298       -18.7023
  14   2.0000      -0.687298       -18.7023
  15   2.0000      -0.663199       -18.0466
  16   0.0000       0.040232         1.0948
  17   0.0000       0.041104         1.1185
  18   0.0000       0.042458         1.1553
  19   0.0000       0.042458         1.1553
  20   0.0000       0.119486         3.2514

MULLIKEN ATOMIC CHARGES
-----------------------
   0 F :   -0.672984
   1 B :    2.018951
   2 F :   -0.672984
   3 F :   -0.672984
Sum of atomic charges:    0.0000000

LOEWDIN ATOMIC CHARGES
----------------------
   0 F :    0.765260
   1 B :   -2.295779
   2 F :    0.765259
   3 F :    0.765259

  Mayer bond orders larger than 0.100000
B(  0-F ,  1-B ) :   0.5329 B(  1-B ,  2-F ) :   0.5329 B(  1-B ,  3-F ) :   0.5329

MP2 TOTAL ENERGY:     -324.279760568 Eh
FINAL SINGLE POINT ENERGY      -324.279760568351

DIPOLE MOMENT
-------------
                                X             Y             Z
Electronic contribution:      0.00000      -0.00000       0.00000
Nuclear contribution   :     -0.00000       0.00000       0.00000
                        -----------------------------------------
Total Dipole Moment    :      0.00000      -0.00000       0.00000
                        -----------------------------------------
Magnitude (a.u.)       :      0.00000
Magnitude (Debye)      :      0.00000

Rotational constants in cm-1:     0.344180     0.344179     0.172090
Rotational constants in MHz : 10318.255991 10318.227271  5159.120815

                             ****ORCA TERMINATED NORMALLY****
TOTAL RUN TIME: 0 days 0 hours 1 minutes 3 seconds 452 msec
