                         Program Version 5.0.4 -  RELEASE  -
|  1> ! ri-mp2 aug-cc-pvdz aug-cc-pvdz/c tightscf
|  2> %pal nprocs 16 end
|  3> %maxcore 3800
|  4> %base "DZ_S-F_10_AB"
|  5> %scf
|  6> STABPerform true
|  7> STABRestartUHFifUnstable true
|  8> end
|  9>
| 10> *xyz 0 1
| 11> F        -2.097329   -0.718818    0.000073
| 12> S        -1.336722    0.720508   -0.000001
| 13> Si         0.641637   -0.019449   -0.000012
| 14> F         0.964009   -0.896936    1.257759
| 15> F         0.963950   -0.897050   -1.257720
| 16> F         1.547663    1.262155   -0.000090
| 17> *
| 18>
| 19> $new_job
| 20> ! ri-mp2 aug-cc-pvtz aug-cc-pvtz/c tightscf
| 21> %pal nprocs 16 end
| 22> %maxcore 3800
| 23> %base "TZ_S-F_10_AB"
| 24>
| 25> *xyz 0 1
| 26> F        -2.097329   -0.718818    0.000073
| 27> S        -1.336722    0.720508   -0.000001
| 28> Si         0.641637   -0.019449   -0.000012
| 29> F         0.964009   -0.896936    1.257759
| 30> F         0.963950   -0.897050   -1.257720
| 31> F         1.547663    1.262155   -0.000090
| 32> *
| 33>
| 34> $new_job
| 35> ! ri-mp2 aug-cc-pvqz aug-cc-pvqz/c tightscf
| 36> %pal nprocs 16 end
| 37> %maxcore 3800
| 38> %base "QZ_S-F_10_AB"
| 39>
| 40> *xyz 0 1
| 41> F        -2.097329   -0.718818    0.000073
| 42> S        -1.336722    0.720508   -0.000001
| 43> Si         0.641637   -0.019449   -0.000012
| 44> F         0.964009   -0.896936    1.257759
| 45> F         0.963950   -0.897050   -1.257720
| 46> F         1.547663    1.262155   -0.000090
| 47> *
| 48>
| 49>
| 50>
| 51>
| 52>                          ****END OF INPUT****
 Total Charge           Charge          ....    0
 Multiplicity           Mult            ....    1
 Number of Electrons    NEL             ....   66
MP2 TOTAL ENERGY:    -1085.485456142 Eh
FINAL SINGLE POINT ENERGY     -1085.485456142499
MP2 TOTAL ENERGY:    -1085.924734005 Eh
FINAL SINGLE POINT ENERGY     -1085.924734004897

CARTESIAN COORDINATES (ANGSTROEM)
---------------------------------
  F     -2.097329   -0.718818    0.000073
  S     -1.336722    0.720508   -0.000001
  Si     0.641637   -0.019449   -0.000012
  F      0.964009   -0.896936    1.257759
  F      0.963950   -0.897050   -1.257720
  F      1.547663    1.262155   -0.000090

 Multiplicity           Mult            ....    1
 Number of Electrons    NEL             ....   66
 Basis Dimension        Dim             ....  488

ORBITAL ENERGIES
----------------

  NO   OCC          E(Eh)            E(eV)
   0   2.0000     -92.058463     -2505.0381
   1   2.0000     -68.926691     -1875.5906
   2   2.0000     -26.340019      -716.7484
   3   2.0000     -26.339756      -716.7412
   4   2.0000     -26.333499      -716.5709
   5   2.0000     -26.333489      -716.5707
   6   2.0000      -9.054742      -246.3920
   7   2.0000      -6.736307      -183.3042
   8   2.0000      -6.734317      -183.2501
   9   2.0000      -6.733345      -183.2236
  10   2.0000      -6.259655      -170.3339
  11   2.0000      -4.368896      -118.8837
  12   2.0000      -4.368317      -118.8680
  13   2.0000      -4.367925      -118.8573
  14   2.0000      -1.662304       -45.2336
  15   2.0000      -1.636660       -44.5358
  16   2.0000      -1.635204       -44.4962
  17   2.0000      -1.630748       -44.3749
  18   2.0000      -1.003672       -27.3113
  19   2.0000      -0.843599       -22.9555
  20   2.0000      -0.774779       -21.0828
  21   2.0000      -0.770538       -20.9674
  22   2.0000      -0.757932       -20.6244
  23   2.0000      -0.722609       -19.6632
  24   2.0000      -0.722116       -19.6498
  25   2.0000      -0.716035       -19.4843
  26   2.0000      -0.716018       -19.4838
  27   2.0000      -0.697860       -18.9897
  28   2.0000      -0.691663       -18.8211
  29   2.0000      -0.679535       -18.4911
  30   2.0000      -0.676781       -18.4161
  31   2.0000      -0.505614       -13.7585
  32   2.0000      -0.426353       -11.6016
  33   0.0000       0.031634         0.8608
  34   0.0000       0.034135         0.9289
  35   0.0000       0.042583         1.1587
  36   0.0000       0.043466         1.1828
  37   0.0000       0.057415         1.5623

MULLIKEN ATOMIC CHARGES
-----------------------
   0 F :   -0.590458
   1 S :    0.211686
   2 Si:    2.405072
   3 F :   -0.673359
   4 F :   -0.673359
   5 F :   -0.679582
Sum of atomic charges:    0.0000000

LOEWDIN ATOMIC CHARGES
----------------------
   0 F :    0.020418
   1 S :    0.538341
   2 Si:   -1.800629
   3 F :    0.416854
   4 F :    0.416854
   5 F :    0.408162

  Mayer bond orders larger than 0.100000
B(  0-F ,  1-S ) :   0.6335 B(  1-S ,  2-Si) :   0.8970 B(  2-Si,  3-F ) :   0.5225
B(  2-Si,  4-F ) :   0.5225 B(  2-Si,  5-F ) :   0.5022

MP2 TOTAL ENERGY:    -1086.072195215 Eh
FINAL SINGLE POINT ENERGY     -1086.072195214911

DIPOLE MOMENT
-------------
                                X             Y             Z
Electronic contribution:      1.21076      -0.68021       0.00000
Nuclear contribution   :     -1.23726       1.10541      -0.00002
                        -----------------------------------------
Total Dipole Moment    :     -0.02651       0.42520      -0.00001
                        -----------------------------------------
Magnitude (a.u.)       :      0.42602
Magnitude (Debye)      :      1.08286

Rotational constants in cm-1:     0.114380     0.057468     0.052596
Rotational constants in MHz :  3429.037547  1722.832862  1576.787769

                             ****ORCA TERMINATED NORMALLY****
TOTAL RUN TIME: 0 days 0 hours 7 minutes 17 seconds 348 msec
