                         Program Version 5.0.4 -  RELEASE  -
|  1> ! ri-mp2 aug-cc-pvdz aug-cc-pvdz/c tightscf
|  2> %pal nprocs 16 end
|  3> %maxcore 3800
|  4> %base "DZ_Si-Si_122_AB"
|  5> %scf
|  6> STABPerform true
|  7> STABRestartUHFifUnstable true
|  8> end
|  9>
| 10> *xyz 0 1
| 11> Si         2.030348    0.708091   -0.232284
| 12> Si         0.608107   -1.005643    0.471144
| 13> H         3.369583    0.459974    0.345517
| 14> H         1.514604    2.009612    0.230995
| 15> H         2.110858    0.679306   -1.706986
| 16> S        -1.359328   -0.810791   -0.459496
| 17> H         0.423443   -1.047323    1.935175
| 18> H         1.023836   -2.336689   -0.017003
| 19> C        -1.691701    0.759909    0.061695
| 20> N        -1.925893    1.830576    0.407147
| 21> *
| 22>
| 23> $new_job
| 24> ! ri-mp2 aug-cc-pvtz aug-cc-pvtz/c tightscf
| 25> %pal nprocs 16 end
| 26> %maxcore 3800
| 27> %base "TZ_Si-Si_122_AB"
| 28>
| 29> *xyz 0 1
| 30> Si         2.030348    0.708091   -0.232284
| 31> Si         0.608107   -1.005643    0.471144
| 32> H         3.369583    0.459974    0.345517
| 33> H         1.514604    2.009612    0.230995
| 34> H         2.110858    0.679306   -1.706986
| 35> S        -1.359328   -0.810791   -0.459496
| 36> H         0.423443   -1.047323    1.935175
| 37> H         1.023836   -2.336689   -0.017003
| 38> C        -1.691701    0.759909    0.061695
| 39> N        -1.925893    1.830576    0.407147
| 40> *
| 41>
| 42> $new_job
| 43> ! ri-mp2 aug-cc-pvqz aug-cc-pvqz/c tightscf
| 44> %pal nprocs 16 end
| 45> %maxcore 3800
| 46> %base "QZ_Si-Si_122_AB"
| 47>
| 48> *xyz 0 1
| 49> Si         2.030348    0.708091   -0.232284
| 50> Si         0.608107   -1.005643    0.471144
| 51> H         3.369583    0.459974    0.345517
| 52> H         1.514604    2.009612    0.230995
| 53> H         2.110858    0.679306   -1.706986
| 54> S        -1.359328   -0.810791   -0.459496
| 55> H         0.423443   -1.047323    1.935175
| 56> H         1.023836   -2.336689   -0.017003
| 57> C        -1.691701    0.759909    0.061695
| 58> N        -1.925893    1.830576    0.407147
| 59> *
| 60>
| 61>
| 62>
| 63>
| 64>                          ****END OF INPUT****
 Total Charge           Charge          ....    0
 Multiplicity           Mult            ....    1
 Number of Electrons    NEL             ....   62
MP2 TOTAL ENERGY:    -1071.276217023 Eh
FINAL SINGLE POINT ENERGY     -1071.276217023288
MP2 TOTAL ENERGY:    -1071.476020849 Eh
FINAL SINGLE POINT ENERGY     -1071.476020848974

CARTESIAN COORDINATES (ANGSTROEM)
---------------------------------
  Si     2.030348    0.708091   -0.232284
  Si     0.608107   -1.005643    0.471144
  H      3.369583    0.459974    0.345517
  H      1.514604    2.009612    0.230995
  H      2.110858    0.679306   -1.706986
  S     -1.359328   -0.810791   -0.459496
  H      0.423443   -1.047323    1.935175
  H      1.023836   -2.336689   -0.017003
  C     -1.691701    0.759909    0.061695
  N     -1.925893    1.830576    0.407147

 Multiplicity           Mult            ....    1
 Number of Electrons    NEL             ....   62
 Basis Dimension        Dim             ....  642

ORBITAL ENERGIES
----------------

  NO   OCC          E(Eh)            E(eV)
   0   2.0000     -92.005566     -2503.5987
   1   2.0000     -68.821384     -1872.7251
   2   2.0000     -68.787932     -1871.8148
   3   2.0000     -15.578524      -423.9132
   4   2.0000     -11.297855      -307.4303
   5   2.0000      -9.008711      -245.1395
   6   2.0000      -6.690482      -182.0573
   7   2.0000      -6.688967      -182.0160
   8   2.0000      -6.688287      -181.9975
   9   2.0000      -6.169423      -167.8785
  10   2.0000      -6.138917      -167.0484
  11   2.0000      -4.275983      -116.3554
  12   2.0000      -4.275065      -116.3304
  13   2.0000      -4.274719      -116.3210
  14   2.0000      -4.245202      -115.5178
  15   2.0000      -4.244930      -115.5104
  16   2.0000      -4.244820      -115.5074
  17   2.0000      -1.235146       -33.6100
  18   2.0000      -1.047821       -28.5127
  19   2.0000      -0.780152       -21.2290
  20   2.0000      -0.713697       -19.4207
  21   2.0000      -0.645409       -17.5625
  22   2.0000      -0.562458       -15.3053
  23   2.0000      -0.552198       -15.0261
  24   2.0000      -0.541887       -14.7455
  25   2.0000      -0.518140       -14.0993
  26   2.0000      -0.502751       -13.6805
  27   2.0000      -0.496154       -13.5010
  28   2.0000      -0.451651       -12.2900
  29   2.0000      -0.431281       -11.7358
  30   2.0000      -0.386335       -10.5127
  31   0.0000       0.022378         0.6089
  32   0.0000       0.026522         0.7217
  33   0.0000       0.033385         0.9085
  34   0.0000       0.038229         1.0403
  35   0.0000       0.047112         1.2820

MULLIKEN ATOMIC CHARGES
-----------------------
   0 Si:    0.343738
   1 Si:    0.922132
   2 H :   -0.145441
   3 H :   -0.101471
   4 H :   -0.113370
   5 S :    0.164095
   6 H :   -0.192451
   7 H :   -0.244079
   8 C :   -0.105949
   9 N :   -0.527203
Sum of atomic charges:   -0.0000000

LOEWDIN ATOMIC CHARGES
----------------------
   0 Si:    1.006304
   1 Si:    0.266711
   2 H :   -0.316427
   3 H :   -0.306172
   4 H :   -0.308812
   5 S :    1.022527
   6 H :   -0.299561
   7 H :   -0.319059
   8 C :   -1.022596
   9 N :    0.277085

  Mayer bond orders larger than 0.100000
B(  0-Si,  1-Si) :   0.7203 B(  0-Si,  2-H ) :   0.7717 B(  0-Si,  3-H ) :   0.7818
B(  0-Si,  4-H ) :   0.7688 B(  1-Si,  5-S ) :   0.6171 B(  1-Si,  6-H ) :   0.8509
B(  1-Si,  7-H ) :   0.8306 B(  5-S ,  8-C ) :   0.9006 B(  8-C ,  9-N ) :   2.5855

MP2 TOTAL ENERGY:    -1071.542335909 Eh
FINAL SINGLE POINT ENERGY     -1071.542335908857

DIPOLE MOMENT
-------------
                                X             Y             Z
Electronic contribution:     -6.99334      -0.96071      -0.89906
Nuclear contribution   :      8.11422      -0.17696       0.77090
                        -----------------------------------------
Total Dipole Moment    :      1.12089      -1.13767      -0.12816
                        -----------------------------------------
Magnitude (a.u.)       :      1.60222
Magnitude (Debye)      :      4.07252

Rotational constants in cm-1:     0.110543     0.053617     0.040185
Rotational constants in MHz :  3313.999547  1607.383753  1204.707859

                             ****ORCA TERMINATED NORMALLY****
TOTAL RUN TIME: 0 days 0 hours 26 minutes 58 seconds 669 msec
