                         Program Version 5.0.4 -  RELEASE  -
|  1> ! ri-mp2 aug-cc-pvdz aug-cc-pvdz/c tightscf
|  2> %pal nprocs 16 end
|  3> %maxcore 3800
|  4> %base "DZ_S-Cl_12_A"
|  5> %scf
|  6> STABPerform true
|  7> STABRestartUHFifUnstable true
|  8> end
|  9>
| 10> *xyz 0 2
| 11> S         1.138605   -0.006110    0.000003
| 12> Si        -0.986016   -0.001721    0.000001
| 13> H        -1.534974   -0.655839    1.204731
| 14> H        -1.343543    1.434514   -0.000588
| 15> H        -1.534948   -0.656826   -1.204205
| 16> *
| 17>
| 18> $new_job
| 19> ! ri-mp2 aug-cc-pvtz aug-cc-pvtz/c tightscf
| 20> %pal nprocs 16 end
| 21> %maxcore 3800
| 22> %base "TZ_S-Cl_12_A"
| 23>
| 24> *xyz 0 2
| 25> S         1.138605   -0.006110    0.000003
| 26> Si        -0.986016   -0.001721    0.000001
| 27> H        -1.534974   -0.655839    1.204731
| 28> H        -1.343543    1.434514   -0.000588
| 29> H        -1.534948   -0.656826   -1.204205
| 30> *
| 31>
| 32> $new_job
| 33> ! ri-mp2 aug-cc-pvqz aug-cc-pvqz/c tightscf
| 34> %pal nprocs 16 end
| 35> %maxcore 3800
| 36> %base "QZ_S-Cl_12_A"
| 37>
| 38> *xyz 0 2
| 39> S         1.138605   -0.006110    0.000003
| 40> Si        -0.986016   -0.001721    0.000001
| 41> H        -1.534974   -0.655839    1.204731
| 42> H        -1.343543    1.434514   -0.000588
| 43> H        -1.534948   -0.656826   -1.204205
| 44> *
| 45>
| 46>
| 47>
| 48>
| 49>                          ****END OF INPUT****
 Total Charge           Charge          ....    0
 Multiplicity           Mult            ....    2
 Number of Electrons    NEL             ....   33
MP2 TOTAL ENERGY:     -688.430650580 Eh
FINAL SINGLE POINT ENERGY      -688.430650579608
MP2 TOTAL ENERGY:     -688.516928857 Eh
FINAL SINGLE POINT ENERGY      -688.516928857174

CARTESIAN COORDINATES (ANGSTROEM)
---------------------------------
  S      1.138605   -0.006110    0.000003
  Si    -0.986016   -0.001721    0.000001
  H     -1.534974   -0.655839    1.204731
  H     -1.343543    1.434514   -0.000588
  H     -1.534948   -0.656826   -1.204205

 Multiplicity           Mult            ....    2
 Number of Electrons    NEL             ....   33
 Basis Dimension        Dim             ....  306

ORBITAL ENERGIES
----------------
                 SPIN UP ORBITALS
  NO   OCC          E(Eh)            E(eV)
   0   1.0000     -91.974139     -2502.7436
   1   1.0000     -68.802322     -1872.2064
   2   1.0000      -8.977480      -244.2896
   3   1.0000      -6.673077      -181.5837
   4   1.0000      -6.654774      -181.0856
   5   1.0000      -6.653769      -181.0583
   6   1.0000      -6.149694      -167.3417
   7   1.0000      -4.256316      -115.8202
   8   1.0000      -4.255760      -115.8051
   9   1.0000      -4.255645      -115.8020
  10   1.0000      -0.978946       -26.6385
  11   1.0000      -0.714516       -19.4430
  12   1.0000      -0.528471       -14.3804
  13   1.0000      -0.510998       -13.9050
  14   1.0000      -0.470854       -12.8126
  15   1.0000      -0.448474       -12.2036
  16   1.0000      -0.394304       -10.7296
  17   0.0000       0.027840         0.7576
  18   0.0000       0.036793         1.0012
  19   0.0000       0.040137         1.0922
  20   0.0000       0.042223         1.1489
  21   0.0000       0.063526         1.7286

                 SPIN DOWN ORBITALS
  NO   OCC          E(Eh)            E(eV)
   0   1.0000     -91.965385     -2502.5054
   1   1.0000     -68.802710     -1872.2169
   2   1.0000      -8.967895      -244.0288
   3   1.0000      -6.649892      -180.9528
   4   1.0000      -6.648672      -180.9196
   5   1.0000      -6.633313      -180.5016
   6   1.0000      -6.150255      -167.3569
   7   1.0000      -4.257193      -115.8441
   8   1.0000      -4.256414      -115.8229
   9   1.0000      -4.255972      -115.8109
  10   1.0000      -0.890446       -24.2303
  11   1.0000      -0.700014       -19.0484
  12   1.0000      -0.508381       -13.8338
  13   1.0000      -0.501714       -13.6523
  14   1.0000      -0.454865       -12.3775
  15   1.0000      -0.375519       -10.2184
  16   0.0000      -0.008609        -0.2343
  17   0.0000       0.028053         0.7634
  18   0.0000       0.037728         1.0266
  19   0.0000       0.041901         1.1402
  20   0.0000       0.042281         1.1505

MULLIKEN ATOMIC CHARGES AND SPIN POPULATIONS
--------------------------------------------
   0 S :   -0.394895    1.045210
   1 Si:    0.972080   -0.088156
   2 H :   -0.193958    0.006257
   3 H :   -0.189270    0.030429
   4 H :   -0.193957    0.006260
Sum of atomic charges         :   -0.0000000

LOEWDIN ATOMIC CHARGES AND SPIN POPULATIONS
-------------------------------------------
   0 S :    0.687091    0.764090
   1 Si:    0.353053    0.208901
   2 H :   -0.346629    0.001655
   3 H :   -0.346886    0.023697
   4 H :   -0.346629    0.001657

  Mayer bond orders larger than 0.100000
B(  0-S ,  1-Si) :   0.7454 B(  1-Si,  2-H ) :   0.8752 B(  1-Si,  3-H ) :   0.8789
B(  1-Si,  4-H ) :   0.8752

MP2 TOTAL ENERGY:     -688.545489817 Eh
FINAL SINGLE POINT ENERGY      -688.545489816636

DIPOLE MOMENT
-------------
                                X             Y             Z
Electronic contribution:      3.88317      -0.15773       0.00008
Nuclear contribution   :     -4.30581       0.11983      -0.00006
                        -----------------------------------------
Total Dipole Moment    :     -0.42264      -0.03789       0.00002
                        -----------------------------------------
Magnitude (a.u.)       :      0.42434
Magnitude (Debye)      :      1.07859

Rotational constants in cm-1:     2.872618     0.215951     0.215899
Rotational constants in MHz : 86118.929213  6474.050150  6472.475379

                             ****ORCA TERMINATED NORMALLY****
TOTAL RUN TIME: 0 days 0 hours 3 minutes 48 seconds 685 msec
