                         Program Version 5.0.4 -  RELEASE  -
|  1> ! ri-mp2 aug-cc-pvdz aug-cc-pvdz/c tightscf
|  2> %pal nprocs 16 end
|  3> %maxcore 3800
|  4> %base "DZ_Si-S_5_AB"
|  5> %scf
|  6> STABPerform true
|  7> STABRestartUHFifUnstable true
|  8> end
|  9>
| 10> *xyz 0 1
| 11> S         1.074696   -1.465320   -0.165580
| 12> Si         0.246439    0.439052    0.395972
| 13> C         1.471974    1.713113   -0.187890
| 14> H         0.167077   -2.202282    0.488581
| 15> H         1.119761    2.717640    0.051921
| 16> H         1.610380    1.654712   -1.268342
| 17> C        -1.440898    0.706501   -0.361502
| 18> C        -2.485242   -0.340622    0.019542
| 19> H        -1.325769    0.746937   -1.447920
| 20> H        -1.777350    1.701785   -0.052609
| 21> H        -2.198761   -1.330458   -0.338136
| 22> H        -3.460553   -0.109461   -0.409883
| 23> H        -2.611274   -0.403746    1.102073
| 24> H         2.443040    1.573102    0.286588
| 25> H         0.113168    0.476207    1.872500
| 26> *
| 27>
| 28> $new_job
| 29> ! ri-mp2 aug-cc-pvtz aug-cc-pvtz/c tightscf
| 30> %pal nprocs 16 end
| 31> %maxcore 3800
| 32> %base "TZ_Si-S_5_AB"
| 33>
| 34> *xyz 0 1
| 35> S         1.074696   -1.465320   -0.165580
| 36> Si         0.246439    0.439052    0.395972
| 37> C         1.471974    1.713113   -0.187890
| 38> H         0.167077   -2.202282    0.488581
| 39> H         1.119761    2.717640    0.051921
| 40> H         1.610380    1.654712   -1.268342
| 41> C        -1.440898    0.706501   -0.361502
| 42> C        -2.485242   -0.340622    0.019542
| 43> H        -1.325769    0.746937   -1.447920
| 44> H        -1.777350    1.701785   -0.052609
| 45> H        -2.198761   -1.330458   -0.338136
| 46> H        -3.460553   -0.109461   -0.409883
| 47> H        -2.611274   -0.403746    1.102073
| 48> H         2.443040    1.573102    0.286588
| 49> H         0.113168    0.476207    1.872500
| 50> *
| 51>
| 52> $new_job
| 53> ! ri-mp2 aug-cc-pvqz aug-cc-pvqz/c tightscf
| 54> %pal nprocs 16 end
| 55> %maxcore 3800
| 56> %base "QZ_Si-S_5_AB"
| 57>
| 58> *xyz 0 1
| 59> S         1.074696   -1.465320   -0.165580
| 60> Si         0.246439    0.439052    0.395972
| 61> C         1.471974    1.713113   -0.187890
| 62> H         0.167077   -2.202282    0.488581
| 63> H         1.119761    2.717640    0.051921
| 64> H         1.610380    1.654712   -1.268342
| 65> C        -1.440898    0.706501   -0.361502
| 66> C        -2.485242   -0.340622    0.019542
| 67> H        -1.325769    0.746937   -1.447920
| 68> H        -1.777350    1.701785   -0.052609
| 69> H        -2.198761   -1.330458   -0.338136
| 70> H        -3.460553   -0.109461   -0.409883
| 71> H        -2.611274   -0.403746    1.102073
| 72> H         2.443040    1.573102    0.286588
| 73> H         0.113168    0.476207    1.872500
| 74> *
| 75>
| 76>
| 77>
| 78>
| 79>                          ****END OF INPUT****
 Total Charge           Charge          ....    0
 Multiplicity           Mult            ....    1
 Number of Electrons    NEL             ....   58
MP2 TOTAL ENERGY:     -806.660430641 Eh
FINAL SINGLE POINT ENERGY      -806.660430640750
MP2 TOTAL ENERGY:     -806.872831792 Eh
FINAL SINGLE POINT ENERGY      -806.872831791621

CARTESIAN COORDINATES (ANGSTROEM)
---------------------------------
  S      1.074696   -1.465320   -0.165580
  Si     0.246439    0.439052    0.395972
  C      1.471974    1.713113   -0.187890
  H      0.167077   -2.202282    0.488581
  H      1.119761    2.717640    0.051921
  H      1.610380    1.654712   -1.268342
  C     -1.440898    0.706501   -0.361502
  C     -2.485242   -0.340622    0.019542
  H     -1.325769    0.746937   -1.447920
  H     -1.777350    1.701785   -0.052609
  H     -2.198761   -1.330458   -0.338136
  H     -3.460553   -0.109461   -0.409883
  H     -2.611274   -0.403746    1.102073
  H      2.443040    1.573102    0.286588
  H      0.113168    0.476207    1.872500

 Multiplicity           Mult            ....    1
 Number of Electrons    NEL             ....   58
 Basis Dimension        Dim             ....  868

ORBITAL ENERGIES
----------------

  NO   OCC          E(Eh)            E(eV)
   0   2.0000     -91.936586     -2501.7217
   1   2.0000     -68.778467     -1871.5572
   2   2.0000     -11.220937      -305.3372
   3   2.0000     -11.210659      -305.0575
   4   2.0000     -11.207489      -304.9713
   5   2.0000      -8.941433      -243.3088
   6   2.0000      -6.623009      -180.2212
   7   2.0000      -6.622182      -180.1987
   8   2.0000      -6.621409      -180.1777
   9   2.0000      -6.126105      -166.6998
  10   2.0000      -4.232976      -115.1851
  11   2.0000      -4.232226      -115.1647
  12   2.0000      -4.231748      -115.1517
  13   2.0000      -1.029759       -28.0212
  14   2.0000      -0.968684       -26.3592
  15   2.0000      -0.939375       -25.5617
  16   2.0000      -0.847690       -23.0668
  17   2.0000      -0.663735       -18.0611
  18   2.0000      -0.612882       -16.6774
  19   2.0000      -0.583717       -15.8837
  20   2.0000      -0.570167       -15.5150
  21   2.0000      -0.564978       -15.3738
  22   2.0000      -0.526747       -14.3335
  23   2.0000      -0.518257       -14.1025
  24   2.0000      -0.497189       -13.5292
  25   2.0000      -0.456441       -12.4204
  26   2.0000      -0.440537       -11.9876
  27   2.0000      -0.424016       -11.5381
  28   2.0000      -0.366084        -9.9616
  29   0.0000       0.022518         0.6127
  30   0.0000       0.031377         0.8538
  31   0.0000       0.034233         0.9315
  32   0.0000       0.036208         0.9853
  33   0.0000       0.048162         1.3105

MULLIKEN ATOMIC CHARGES
-----------------------
   0 S :   -0.502503
   1 Si:    1.378302
   2 C :   -1.132232
   3 H :    0.030908
   4 H :    0.264884
   5 H :    0.232946
   6 C :   -0.574893
   7 C :   -0.879989
   8 H :    0.225345
   9 H :    0.209060
  10 H :    0.236619
  11 H :    0.309807
  12 H :    0.238060
  13 H :    0.294026
  14 H :   -0.330340
Sum of atomic charges:    0.0000000

LOEWDIN ATOMIC CHARGES
----------------------
   0 S :    1.503278
   1 Si:   -0.017207
   2 C :    0.894858
   3 H :   -0.875019
   4 H :   -0.349202
   5 H :   -0.353396
   6 C :    0.491775
   7 C :    0.840750
   8 H :   -0.338454
   9 H :   -0.335386
  10 H :   -0.315749
  11 H :   -0.283830
  12 H :   -0.296795
  13 H :   -0.359049
  14 H :   -0.206574

  Mayer bond orders larger than 0.100000
B(  0-S ,  1-Si) :   0.6103 B(  0-S ,  3-H ) :   1.0846 B(  1-Si,  2-C ) :   0.9099
B(  1-Si,  6-C ) :   0.7916 B(  1-Si, 14-H ) :   0.7969 B(  2-C ,  4-H ) :   0.9474
B(  2-C ,  5-H ) :   0.9591 B(  2-C , 13-H ) :   0.9370 B(  6-C ,  7-C ) :   0.9533
B(  6-C ,  8-H ) :   0.9118 B(  6-C ,  9-H ) :   0.9169 B(  7-C , 10-H ) :   0.9327
B(  7-C , 11-H ) :   0.9436 B(  7-C , 12-H ) :   0.9499

MP2 TOTAL ENERGY:     -806.937778568 Eh
FINAL SINGLE POINT ENERGY      -806.937778567999

DIPOLE MOMENT
-------------
                                X             Y             Z
Electronic contribution:      5.64388      -4.48168      -0.21381
Nuclear contribution   :     -6.11833       4.96465       0.27252
                        -----------------------------------------
Total Dipole Moment    :     -0.47445       0.48297       0.05871
                        -----------------------------------------
Magnitude (a.u.)       :      0.67957
Magnitude (Debye)      :      1.72732

Rotational constants in cm-1:     0.108788     0.076646     0.049255
Rotational constants in MHz :  3261.372621  2297.794163  1476.625833

                             ****ORCA TERMINATED NORMALLY****
TOTAL RUN TIME: 0 days 1 hours 26 minutes 12 seconds 258 msec
