                         Program Version 5.0.4 -  RELEASE  -
|  1> ! ri-mp2 aug-cc-pvdz aug-cc-pvdz/c tightscf
|  2> %pal nprocs 16 end
|  3> %maxcore 3800
|  4> %base "DZ_Si-Si_2_AB"
|  5> %scf
|  6> STABPerform true
|  7> STABRestartUHFifUnstable true
|  8> end
|  9>
| 10> *xyz 0 1
| 11> Si        -0.983247    0.632353   -0.000001
| 12> Si         0.983246   -0.632353   -0.000002
| 13> C        -2.516541   -0.446187    0.000003
| 14> H        -0.990861    1.517226   -1.192765
| 15> H        -0.990855    1.517226    1.192763
| 16> H        -2.540502   -1.087431   -0.881565
| 17> H        -3.421960    0.161012    0.000006
| 18> H        -2.540497   -1.087432    0.881569
| 19> C         2.516541    0.446186    0.000002
| 20> H         0.990860   -1.517225   -1.192767
| 21> H         0.990854   -1.517226    1.192762
| 22> H         2.540502    1.087432   -0.881564
| 23> H         3.421960   -0.161014    0.000003
| 24> H         2.540499    1.087429    0.881570
| 25> *
| 26>
| 27> $new_job
| 28> ! ri-mp2 aug-cc-pvtz aug-cc-pvtz/c tightscf
| 29> %pal nprocs 16 end
| 30> %maxcore 3800
| 31> %base "TZ_Si-Si_2_AB"
| 32>
| 33> *xyz 0 1
| 34> Si        -0.983247    0.632353   -0.000001
| 35> Si         0.983246   -0.632353   -0.000002
| 36> C        -2.516541   -0.446187    0.000003
| 37> H        -0.990861    1.517226   -1.192765
| 38> H        -0.990855    1.517226    1.192763
| 39> H        -2.540502   -1.087431   -0.881565
| 40> H        -3.421960    0.161012    0.000006
| 41> H        -2.540497   -1.087432    0.881569
| 42> C         2.516541    0.446186    0.000002
| 43> H         0.990860   -1.517225   -1.192767
| 44> H         0.990854   -1.517226    1.192762
| 45> H         2.540502    1.087432   -0.881564
| 46> H         3.421960   -0.161014    0.000003
| 47> H         2.540499    1.087429    0.881570
| 48> *
| 49>
| 50> $new_job
| 51> ! ri-mp2 aug-cc-pvqz aug-cc-pvqz/c tightscf
| 52> %pal nprocs 16 end
| 53> %maxcore 3800
| 54> %base "QZ_Si-Si_2_AB"
| 55>
| 56> *xyz 0 1
| 57> Si        -0.983247    0.632353   -0.000001
| 58> Si         0.983246   -0.632353   -0.000002
| 59> C        -2.516541   -0.446187    0.000003
| 60> H        -0.990861    1.517226   -1.192765
| 61> H        -0.990855    1.517226    1.192763
| 62> H        -2.540502   -1.087431   -0.881565
| 63> H        -3.421960    0.161012    0.000006
| 64> H        -2.540497   -1.087432    0.881569
| 65> C         2.516541    0.446186    0.000002
| 66> H         0.990860   -1.517225   -1.192767
| 67> H         0.990854   -1.517226    1.192762
| 68> H         2.540502    1.087432   -0.881564
| 69> H         3.421960   -0.161014    0.000003
| 70> H         2.540499    1.087429    0.881570
| 71> *
| 72>
| 73>
| 74>
| 75>
| 76>                          ****END OF INPUT****
 Total Charge           Charge          ....    0
 Multiplicity           Mult            ....    1
 Number of Electrons    NEL             ....   50
MP2 TOTAL ENERGY:     -659.961337675 Eh
FINAL SINGLE POINT ENERGY      -659.961337675298
MP2 TOTAL ENERGY:     -660.120529702 Eh
FINAL SINGLE POINT ENERGY      -660.120529702307

CARTESIAN COORDINATES (ANGSTROEM)
---------------------------------
  Si    -0.983247    0.632353   -0.000001
  Si     0.983246   -0.632353   -0.000002
  C     -2.516541   -0.446187    0.000003
  H     -0.990861    1.517226   -1.192765
  H     -0.990855    1.517226    1.192763
  H     -2.540502   -1.087431   -0.881565
  H     -3.421960    0.161012    0.000006
  H     -2.540497   -1.087432    0.881569
  C      2.516541    0.446186    0.000002
  H      0.990860   -1.517225   -1.192767
  H      0.990854   -1.517226    1.192762
  H      2.540502    1.087432   -0.881564
  H      3.421960   -0.161014    0.000003
  H      2.540499    1.087429    0.881570

 Multiplicity           Mult            ....    1
 Number of Electrons    NEL             ....   50
 Basis Dimension        Dim             ....  788

ORBITAL ENERGIES
----------------

  NO   OCC          E(Eh)            E(eV)
   0   2.0000     -68.754620     -1870.9083
   1   2.0000     -68.754619     -1870.9083
   2   2.0000     -11.206287      -304.9386
   3   2.0000     -11.206286      -304.9385
   4   2.0000      -6.105357      -166.1352
   5   2.0000      -6.105205      -166.1311
   6   2.0000      -4.211807      -114.6091
   7   2.0000      -4.211583      -114.6030
   8   2.0000      -4.211500      -114.6007
   9   2.0000      -4.211319      -114.5958
  10   2.0000      -4.211124      -114.5905
  11   2.0000      -4.210954      -114.5859
  12   2.0000      -0.949733       -25.8435
  13   2.0000      -0.945721       -25.7344
  14   2.0000      -0.718611       -19.5544
  15   2.0000      -0.646658       -17.5965
  16   2.0000      -0.566236       -15.4081
  17   2.0000      -0.562028       -15.2936
  18   2.0000      -0.560933       -15.2638
  19   2.0000      -0.556444       -15.1416
  20   2.0000      -0.474989       -12.9251
  21   2.0000      -0.463746       -12.6192
  22   2.0000      -0.454980       -12.3806
  23   2.0000      -0.445649       -12.1267
  24   2.0000      -0.380957       -10.3664
  25   0.0000       0.025495         0.6938
  26   0.0000       0.030365         0.8263
  27   0.0000       0.033698         0.9170
  28   0.0000       0.037426         1.0184
  29   0.0000       0.046299         1.2599

MULLIKEN ATOMIC CHARGES
-----------------------
   0 Si:    0.715846
   1 Si:    0.715846
   2 C :   -1.010667
   3 H :   -0.238203
   4 H :   -0.238203
   5 H :    0.234609
   6 H :    0.302007
   7 H :    0.234610
   8 C :   -1.010667
   9 H :   -0.238203
  10 H :   -0.238202
  11 H :    0.234610
  12 H :    0.302006
  13 H :    0.234610
Sum of atomic charges:    0.0000000

LOEWDIN ATOMIC CHARGES
----------------------
   0 Si:    0.759875
   1 Si:    0.759875
   2 C :    0.855188
   3 H :   -0.262980
   4 H :   -0.262980
   5 H :   -0.363529
   6 H :   -0.362044
   7 H :   -0.363531
   8 C :    0.855188
   9 H :   -0.262979
  10 H :   -0.262980
  11 H :   -0.363530
  12 H :   -0.362044
  13 H :   -0.363530

  Mayer bond orders larger than 0.100000
B(  0-Si,  1-Si) :   0.8323 B(  0-Si,  2-C ) :   0.8590 B(  0-Si,  3-H ) :   0.8020
B(  0-Si,  4-H ) :   0.8020 B(  1-Si,  8-C ) :   0.8590 B(  1-Si,  9-H ) :   0.8020
B(  1-Si, 10-H ) :   0.8020 B(  2-C ,  5-H ) :   0.9548 B(  2-C ,  6-H ) :   0.9245
B(  2-C ,  7-H ) :   0.9548 B(  8-C , 11-H ) :   0.9548 B(  8-C , 12-H ) :   0.9246
B(  8-C , 13-H ) :   0.9548

MP2 TOTAL ENERGY:     -660.168799685 Eh
FINAL SINGLE POINT ENERGY      -660.168799685055

DIPOLE MOMENT
-------------
                                X             Y             Z
Electronic contribution:     -0.00000       0.00000      -0.00001
Nuclear contribution   :      0.00000      -0.00000       0.00001
                        -----------------------------------------
Total Dipole Moment    :     -0.00000      -0.00000       0.00000
                        -----------------------------------------
Magnitude (a.u.)       :      0.00000
Magnitude (Debye)      :      0.00000

Rotational constants in cm-1:     0.336193     0.062675     0.055937
Rotational constants in MHz : 10078.820729  1878.961039  1676.936522

                             ****ORCA TERMINATED NORMALLY****
TOTAL RUN TIME: 0 days 0 hours 41 minutes 18 seconds 287 msec
