                         Program Version 5.0.4 -  RELEASE  -
|  1> ! ri-mp2 aug-cc-pvdz aug-cc-pvdz/c tightscf
|  2> %pal nprocs 16 end
|  3> %maxcore 3800
|  4> %base "DZ_S-F_45_AB"
|  5> %scf
|  6> STABPerform true
|  7> STABRestartUHFifUnstable true
|  8> end
|  9>
| 10> *xyz 0 1
| 11> F         2.613855    0.031301   -0.149360
| 12> S         1.231919   -0.746275    0.246307
| 13> C        -0.022465    0.285945   -0.533473
| 14> O         0.143489    1.655050   -0.346649
| 15> N        -1.186338   -0.332374    0.041146
| 16> C        -2.279789   -0.557796   -0.884502
| 17> H        -1.911524   -1.050362   -1.782509
| 18> H        -2.782787    0.374492   -1.172955
| 19> H        -3.015253   -1.214253   -0.420477
| 20> C        -1.624993    0.213291    1.311986
| 21> H        -0.781300    0.314574    1.991592
| 22> H        -2.334028   -0.476583    1.767433
| 23> H        -2.112301    1.189413    1.200518
| 24> H        -0.030053    0.134344   -1.610099
| 25> H         0.451785    1.824634    0.550932
| 26> *
| 27>
| 28> $new_job
| 29> ! ri-mp2 aug-cc-pvtz aug-cc-pvtz/c tightscf
| 30> %pal nprocs 16 end
| 31> %maxcore 3800
| 32> %base "TZ_S-F_45_AB"
| 33>
| 34> *xyz 0 1
| 35> F         2.613855    0.031301   -0.149360
| 36> S         1.231919   -0.746275    0.246307
| 37> C        -0.022465    0.285945   -0.533473
| 38> O         0.143489    1.655050   -0.346649
| 39> N        -1.186338   -0.332374    0.041146
| 40> C        -2.279789   -0.557796   -0.884502
| 41> H        -1.911524   -1.050362   -1.782509
| 42> H        -2.782787    0.374492   -1.172955
| 43> H        -3.015253   -1.214253   -0.420477
| 44> C        -1.624993    0.213291    1.311986
| 45> H        -0.781300    0.314574    1.991592
| 46> H        -2.334028   -0.476583    1.767433
| 47> H        -2.112301    1.189413    1.200518
| 48> H        -0.030053    0.134344   -1.610099
| 49> H         0.451785    1.824634    0.550932
| 50> *
| 51>
| 52> $new_job
| 53> ! ri-mp2 aug-cc-pvqz aug-cc-pvqz/c tightscf
| 54> %pal nprocs 16 end
| 55> %maxcore 3800
| 56> %base "QZ_S-F_45_AB"
| 57>
| 58> *xyz 0 1
| 59> F         2.613855    0.031301   -0.149360
| 60> S         1.231919   -0.746275    0.246307
| 61> C        -0.022465    0.285945   -0.533473
| 62> O         0.143489    1.655050   -0.346649
| 63> N        -1.186338   -0.332374    0.041146
| 64> C        -2.279789   -0.557796   -0.884502
| 65> H        -1.911524   -1.050362   -1.782509
| 66> H        -2.782787    0.374492   -1.172955
| 67> H        -3.015253   -1.214253   -0.420477
| 68> C        -1.624993    0.213291    1.311986
| 69> H        -0.781300    0.314574    1.991592
| 70> H        -2.334028   -0.476583    1.767433
| 71> H        -2.112301    1.189413    1.200518
| 72> H        -0.030053    0.134344   -1.610099
| 73> H         0.451785    1.824634    0.550932
| 74> *
| 75>
| 76>
| 77>
| 78>
| 79>                          ****END OF INPUT****
 Total Charge           Charge          ....    0
 Multiplicity           Mult            ....    1
 Number of Electrons    NEL             ....   66
MP2 TOTAL ENERGY:     -745.708453111 Eh
FINAL SINGLE POINT ENERGY      -745.708453110830
MP2 TOTAL ENERGY:     -746.069555768 Eh
FINAL SINGLE POINT ENERGY      -746.069555768101

CARTESIAN COORDINATES (ANGSTROEM)
---------------------------------
  F      2.613855    0.031301   -0.149360
  S      1.231919   -0.746275    0.246307
  C     -0.022465    0.285945   -0.533473
  O      0.143489    1.655050   -0.346649
  N     -1.186338   -0.332374    0.041146
  C     -2.279789   -0.557796   -0.884502
  H     -1.911524   -1.050362   -1.782509
  H     -2.782787    0.374492   -1.172955
  H     -3.015253   -1.214253   -0.420477
  C     -1.624993    0.213291    1.311986
  H     -0.781300    0.314574    1.991592
  H     -2.334028   -0.476583    1.767433
  H     -2.112301    1.189413    1.200518
  H     -0.030053    0.134344   -1.610099
  H      0.451785    1.824634    0.550932

 Multiplicity           Mult            ....    1
 Number of Electrons    NEL             ....   66
 Basis Dimension        Dim             ....  932

ORBITAL ENERGIES
----------------

  NO   OCC          E(Eh)            E(eV)
   0   2.0000     -92.020194     -2503.9968
   1   2.0000     -26.292733      -715.4616
   2   2.0000     -20.583197      -560.0973
   3   2.0000     -15.576301      -423.8527
   4   2.0000     -11.355028      -308.9860
   5   2.0000     -11.261818      -306.4496
   6   2.0000     -11.260377      -306.4104
   7   2.0000      -9.015318      -245.3193
   8   2.0000      -6.696824      -182.2298
   9   2.0000      -6.694424      -182.1645
  10   2.0000      -6.693322      -182.1346
  11   2.0000      -1.590344       -43.2755
  12   2.0000      -1.406010       -38.2595
  13   2.0000      -1.253345       -34.1053
  14   2.0000      -1.025909       -27.9164
  15   2.0000      -0.978427       -26.6244
  16   2.0000      -0.905421       -24.6378
  17   2.0000      -0.829772       -22.5792
  18   2.0000      -0.731934       -19.9169
  19   2.0000      -0.693999       -18.8847
  20   2.0000      -0.688948       -18.7472
  21   2.0000      -0.668781       -18.1985
  22   2.0000      -0.662929       -18.0392
  23   2.0000      -0.625578       -17.0229
  24   2.0000      -0.607728       -16.5371
  25   2.0000      -0.586074       -15.9479
  26   2.0000      -0.566813       -15.4238
  27   2.0000      -0.557482       -15.1699
  28   2.0000      -0.536921       -14.6104
  29   2.0000      -0.517754       -14.0888
  30   2.0000      -0.452790       -12.3210
  31   2.0000      -0.387818       -10.5531
  32   2.0000      -0.368261       -10.0209
  33   0.0000       0.023156         0.6301
  34   0.0000       0.030837         0.8391
  35   0.0000       0.034967         0.9515
  36   0.0000       0.040001         1.0885
  37   0.0000       0.048680         1.3247

MULLIKEN ATOMIC CHARGES
-----------------------
   0 F :   -0.688702
   1 S :    0.424816
   2 C :    0.634340
   3 O :   -1.002787
   4 N :   -0.290888
   5 C :   -0.871622
   6 H :    0.312235
   7 H :    0.300355
   8 H :    0.313320
   9 C :   -0.885974
  10 H :    0.271879
  11 H :    0.345665
  12 H :    0.322725
  13 H :    0.421008
  14 H :    0.393632
Sum of atomic charges:    0.0000000

LOEWDIN ATOMIC CHARGES
----------------------
   0 F :    0.065571
   1 S :    0.763261
   2 C :   -0.830350
   3 O :    1.257423
   4 N :    0.305911
   5 C :    0.748016
   6 H :   -0.297213
   7 H :   -0.262906
   8 H :   -0.291639
   9 C :    0.700391
  10 H :   -0.333566
  11 H :   -0.290149
  12 H :   -0.273169
  13 H :   -0.433238
  14 H :   -0.828344

  Mayer bond orders larger than 0.100000
B(  0-F ,  1-S ) :   0.5718 B(  0-F ,  2-C ) :  -0.1297 B(  1-S ,  2-C ) :   0.9025
B(  2-C ,  3-O ) :   0.3928 B(  2-C ,  4-N ) :   0.7518 B(  2-C , 13-H ) :   0.7653
B(  3-O ,  4-N ) :   0.1127 B(  3-O , 14-H ) :   0.8181 B(  4-N ,  5-C ) :   0.8080
B(  4-N ,  9-C ) :   0.8990 B(  5-C ,  6-H ) :   0.9397 B(  5-C ,  7-H ) :   0.9454
B(  5-C ,  8-H ) :   0.9377 B(  9-C , 10-H ) :   0.9697 B(  9-C , 11-H ) :   0.9223
B(  9-C , 12-H ) :   0.8874

MP2 TOTAL ENERGY:     -746.186149618 Eh
FINAL SINGLE POINT ENERGY      -746.186149618384

DIPOLE MOMENT
-------------
                                X             Y             Z
Electronic contribution:     13.77175      -1.15220      -0.37008
Nuclear contribution   :    -14.99345       1.10178       0.65276
                        -----------------------------------------
Total Dipole Moment    :     -1.22170      -0.05043       0.28268
                        -----------------------------------------
Magnitude (a.u.)       :      1.25499
Magnitude (Debye)      :      3.18993

Rotational constants in cm-1:     0.129272     0.044862     0.042213
Rotational constants in MHz :  3875.471779  1344.928921  1265.518991

                             ****ORCA TERMINATED NORMALLY****
TOTAL RUN TIME: 0 days 1 hours 42 minutes 59 seconds 438 msec
