                         Program Version 5.0.4 -  RELEASE  -
|  1> ! ri-mp2 aug-cc-pvdz aug-cc-pvdz/c tightscf
|  2> %pal nprocs 16 end
|  3> %maxcore 3800
|  4> %base "DZ_B-B_64_A"
|  5> %scf
|  6> STABPerform true
|  7> STABRestartUHFifUnstable true
|  8> end
|  9>
| 10> *xyz 0 2
| 11> B         1.721123   -0.110650   -0.094721
| 12> B         0.080551   -0.013853   -0.003273
| 13> O        -0.633713    1.160075    0.012582
| 14> H        -0.119954    1.969144   -0.014461
| 15> O        -0.631546   -1.177659    0.007100
| 16> H        -1.583563   -1.027707    0.014341
| 17> H         2.817214   -0.178249    0.332630
| 18> *
| 19>
| 20> $new_job
| 21> ! ri-mp2 aug-cc-pvtz aug-cc-pvtz/c tightscf
| 22> %pal nprocs 16 end
| 23> %maxcore 3800
| 24> %base "TZ_B-B_64_A"
| 25>
| 26> *xyz 0 2
| 27> B         1.721123   -0.110650   -0.094721
| 28> B         0.080551   -0.013853   -0.003273
| 29> O        -0.633713    1.160075    0.012582
| 30> H        -0.119954    1.969144   -0.014461
| 31> O        -0.631546   -1.177659    0.007100
| 32> H        -1.583563   -1.027707    0.014341
| 33> H         2.817214   -0.178249    0.332630
| 34> *
| 35>
| 36> $new_job
| 37> ! ri-mp2 aug-cc-pvqz aug-cc-pvqz/c tightscf
| 38> %pal nprocs 16 end
| 39> %maxcore 3800
| 40> %base "QZ_B-B_64_A"
| 41>
| 42> *xyz 0 2
| 43> B         1.721123   -0.110650   -0.094721
| 44> B         0.080551   -0.013853   -0.003273
| 45> O        -0.633713    1.160075    0.012582
| 46> H        -0.119954    1.969144   -0.014461
| 47> O        -0.631546   -1.177659    0.007100
| 48> H        -1.583563   -1.027707    0.014341
| 49> H         2.817214   -0.178249    0.332630
| 50> *
| 51>
| 52>
| 53>
| 54>
| 55>                          ****END OF INPUT****
 Total Charge           Charge          ....    0
 Multiplicity           Mult            ....    2
 Number of Electrons    NEL             ....   29
MP2 TOTAL ENERGY:     -201.433325498 Eh
FINAL SINGLE POINT ENERGY      -201.433325498072
MP2 TOTAL ENERGY:     -201.606513636 Eh
FINAL SINGLE POINT ENERGY      -201.606513636209

CARTESIAN COORDINATES (ANGSTROEM)
---------------------------------
  B      1.721123   -0.110650   -0.094721
  B      0.080551   -0.013853   -0.003273
  O     -0.633713    1.160075    0.012582
  H     -0.119954    1.969144   -0.014461
  O     -0.631546   -1.177659    0.007100
  H     -1.583563   -1.027707    0.014341
  H      2.817214   -0.178249    0.332630

 Multiplicity           Mult            ....    2
 Number of Electrons    NEL             ....   29
 Basis Dimension        Dim             ....  458

ORBITAL ENERGIES
----------------
                 SPIN UP ORBITALS
  NO   OCC          E(Eh)            E(eV)
   0   1.0000     -20.571404      -559.7764
   1   1.0000     -20.561073      -559.4952
   2   1.0000      -7.633798      -207.7262
   3   1.0000      -7.625084      -207.4891
   4   1.0000      -1.384686       -37.6792
   5   1.0000      -1.343848       -36.5680
   6   1.0000      -0.782058       -21.2809
   7   1.0000      -0.743270       -20.2254
   8   1.0000      -0.679662       -18.4945
   9   1.0000      -0.603953       -16.4344
  10   1.0000      -0.579477       -15.7684
  11   1.0000      -0.561428       -15.2772
  12   1.0000      -0.508308       -13.8318
  13   1.0000      -0.487153       -13.2561
  14   1.0000      -0.315885        -8.5957
  15   0.0000       0.019964         0.5433
  16   0.0000       0.029785         0.8105
  17   0.0000       0.030461         0.8289
  18   0.0000       0.044083         1.1996
  19   0.0000       0.049114         1.3365

                 SPIN DOWN ORBITALS
  NO   OCC          E(Eh)            E(eV)
   0   1.0000     -20.570438      -559.7501
   1   1.0000     -20.559914      -559.4637
   2   1.0000      -7.634568      -207.7472
   3   1.0000      -7.611157      -207.1101
   4   1.0000      -1.382234       -37.6125
   5   1.0000      -1.341054       -36.4919
   6   1.0000      -0.774350       -21.0711
   7   1.0000      -0.737100       -20.0575
   8   1.0000      -0.645619       -17.5682
   9   1.0000      -0.593692       -16.1552
  10   1.0000      -0.567399       -15.4397
  11   1.0000      -0.560265       -15.2456
  12   1.0000      -0.497557       -13.5392
  13   1.0000      -0.475177       -12.9302
  14   0.0000       0.022068         0.6005
  15   0.0000       0.029992         0.8161
  16   0.0000       0.032702         0.8899
  17   0.0000       0.037176         1.0116
  18   0.0000       0.049696         1.3523

MULLIKEN ATOMIC CHARGES AND SPIN POPULATIONS
--------------------------------------------
   0 B :    0.193177    1.023751
   1 B :    1.246335   -0.006367
   2 O :   -0.963635    0.010498
   3 H :    0.352136   -0.000245
   4 O :   -0.935673    0.015678
   5 H :    0.345282   -0.002564
   6 H :   -0.237622   -0.040751
Sum of atomic charges         :    0.0000000

LOEWDIN ATOMIC CHARGES AND SPIN POPULATIONS
-------------------------------------------
   0 B :    0.503456    0.504821
   1 B :   -1.171258    0.243380
   2 O :    1.303897    0.027582
   3 H :   -0.805947    0.006998
   4 O :    1.277059    0.034469
   5 H :   -0.804505    0.001035
   6 H :   -0.302701    0.181715

  Mayer bond orders larger than 0.100000
B(  0-B ,  1-B ) :   1.0726 B(  0-B ,  4-O ) :  -0.1103 B(  0-B ,  6-H ) :   0.9323
B(  1-B ,  2-O ) :   0.5461 B(  1-B ,  4-O ) :   0.5074 B(  2-O ,  3-H ) :   0.9241
B(  4-O ,  5-H ) :   0.9250

MP2 TOTAL ENERGY:     -201.663432889 Eh
FINAL SINGLE POINT ENERGY      -201.663432888520

DIPOLE MOMENT
-------------
                                X             Y             Z
Electronic contribution:      0.47439      -0.21962      -0.27463
Nuclear contribution   :     -0.34427       0.83004       0.39595
                        -----------------------------------------
Total Dipole Moment    :      0.13012       0.61043       0.12132
                        -----------------------------------------
Magnitude (a.u.)       :      0.63582
Magnitude (Debye)      :      1.61613

Rotational constants in cm-1:     0.344889     0.302077     0.161619
Rotational constants in MHz : 10339.502466  9056.045568  4845.220857

                             ****ORCA TERMINATED NORMALLY****
TOTAL RUN TIME: 0 days 0 hours 13 minutes 6 seconds 56 msec
