                         Program Version 5.0.4 -  RELEASE  -
|  1> ! ri-mp2 aug-cc-pvdz aug-cc-pvdz/c tightscf
|  2> %pal nprocs 16 end
|  3> %maxcore 3800
|  4> %base "DZ_P-Cl_20_A"
|  5> %scf
|  6> STABPerform true
|  7> STABRestartUHFifUnstable true
|  8> end
|  9>
| 10> *xyz 0 2
| 11> S         1.006213   -0.015921    0.147524
| 12> O         1.992482   -1.008283   -0.193536
| 13> P        -0.861560   -1.070104   -0.273710
| 14> C         1.118746    1.312222   -1.021448
| 15> H         2.077449    1.791159   -0.824975
| 16> H         1.096907    0.904873   -2.028781
| 17> Cl        -2.179784    0.430813    0.083799
| 18> O         0.968536    0.558451    1.462657
| 19> H         0.305344    2.011763   -0.849841
| 20> *
| 21>
| 22> $new_job
| 23> ! ri-mp2 aug-cc-pvtz aug-cc-pvtz/c tightscf
| 24> %pal nprocs 16 end
| 25> %maxcore 3800
| 26> %base "TZ_P-Cl_20_A"
| 27>
| 28> *xyz 0 2
| 29> S         1.006213   -0.015921    0.147524
| 30> O         1.992482   -1.008283   -0.193536
| 31> P        -0.861560   -1.070104   -0.273710
| 32> C         1.118746    1.312222   -1.021448
| 33> H         2.077449    1.791159   -0.824975
| 34> H         1.096907    0.904873   -2.028781
| 35> Cl        -2.179784    0.430813    0.083799
| 36> O         0.968536    0.558451    1.462657
| 37> H         0.305344    2.011763   -0.849841
| 38> *
| 39>
| 40> $new_job
| 41> ! ri-mp2 aug-cc-pvqz aug-cc-pvqz/c tightscf
| 42> %pal nprocs 16 end
| 43> %maxcore 3800
| 44> %base "QZ_P-Cl_20_A"
| 45>
| 46> *xyz 0 2
| 47> S         1.006213   -0.015921    0.147524
| 48> O         1.992482   -1.008283   -0.193536
| 49> P        -0.861560   -1.070104   -0.273710
| 50> C         1.118746    1.312222   -1.021448
| 51> H         2.077449    1.791159   -0.824975
| 52> H         1.096907    0.904873   -2.028781
| 53> Cl        -2.179784    0.430813    0.083799
| 54> O         0.968536    0.558451    1.462657
| 55> H         0.305344    2.011763   -0.849841
| 56> *
| 57>
| 58>
| 59>
| 60>
| 61>                          ****END OF INPUT****
 Total Charge           Charge          ....    0
 Multiplicity           Mult            ....    2
 Number of Electrons    NEL             ....   73
MP2 TOTAL ENERGY:    -1388.004743007 Eh
FINAL SINGLE POINT ENERGY     -1388.004743007086
MP2 TOTAL ENERGY:    -1388.361591905 Eh
FINAL SINGLE POINT ENERGY     -1388.361591905186

CARTESIAN COORDINATES (ANGSTROEM)
---------------------------------
  S      1.006213   -0.015921    0.147524
  O      1.992482   -1.008283   -0.193536
  P     -0.861560   -1.070104   -0.273710
  C      1.118746    1.312222   -1.021448
  H      2.077449    1.791159   -0.824975
  H      1.096907    0.904873   -2.028781
  Cl    -2.179784    0.430813    0.083799
  O      0.968536    0.558451    1.462657
  H      0.305344    2.011763   -0.849841

 Multiplicity           Mult            ....    2
 Number of Electrons    NEL             ....   73
 Basis Dimension        Dim             ....  630

ORBITAL ENERGIES
----------------
                 SPIN UP ORBITALS
  NO   OCC          E(Eh)            E(eV)
   0   1.0000    -104.875784     -2853.8152
   1   1.0000     -92.179440     -2508.3301
   2   1.0000     -80.051615     -2178.3152
   3   1.0000     -20.557288      -559.3923
   4   1.0000     -20.556949      -559.3830
   5   1.0000     -11.285134      -307.0841
   6   1.0000     -10.601888      -288.4920
   7   1.0000      -9.151371      -249.0215
   8   1.0000      -8.069076      -219.5707
   9   1.0000      -8.068099      -219.5441
  10   1.0000      -8.066859      -219.5104
  11   1.0000      -7.589511      -206.5211
  12   1.0000      -6.836319      -186.0257
  13   1.0000      -6.835764      -186.0106
  14   1.0000      -6.835554      -186.0049
  15   1.0000      -5.492757      -149.4655
  16   1.0000      -5.479041      -149.0923
  17   1.0000      -5.476934      -149.0350
  18   1.0000      -1.468509       -39.9602
  19   1.0000      -1.357049       -36.9272
  20   1.0000      -1.160199       -31.5706
  21   1.0000      -1.059763       -28.8376
  22   1.0000      -0.914205       -24.8768
  23   1.0000      -0.793024       -21.5793
  24   1.0000      -0.686909       -18.6918
  25   1.0000      -0.679293       -18.4845
  26   1.0000      -0.669089       -18.2068
  27   1.0000      -0.617181       -16.7944
  28   1.0000      -0.610502       -16.6126
  29   1.0000      -0.555634       -15.1196
  30   1.0000      -0.542473       -14.7614
  31   1.0000      -0.524247       -14.2655
  32   1.0000      -0.510266       -13.8850
  33   1.0000      -0.498875       -13.5751
  34   1.0000      -0.486236       -13.2312
  35   1.0000      -0.407935       -11.1005
  36   1.0000      -0.399122       -10.8607
  37   0.0000       0.021188         0.5766
  38   0.0000       0.035634         0.9696
  39   0.0000       0.037986         1.0336
  40   0.0000       0.042500         1.1565
  41   0.0000       0.054139         1.4732

                 SPIN DOWN ORBITALS
  NO   OCC          E(Eh)            E(eV)
   0   1.0000    -104.874739     -2853.7867
   1   1.0000     -92.179679     -2508.3366
   2   1.0000     -80.044404     -2178.1190
   3   1.0000     -20.557131      -559.3880
   4   1.0000     -20.556790      -559.3787
   5   1.0000     -11.285090      -307.0829
   6   1.0000     -10.600788      -288.4621
   7   1.0000      -9.151662      -249.0294
   8   1.0000      -8.068126      -219.5449
   9   1.0000      -8.066304      -219.4953
  10   1.0000      -8.064198      -219.4380
  11   1.0000      -7.580639      -206.2797
  12   1.0000      -6.837040      -186.0453
  13   1.0000      -6.836029      -186.0178
  14   1.0000      -6.835717      -186.0093
  15   1.0000      -5.474648      -148.9728
  16   1.0000      -5.473660      -148.9459
  17   1.0000      -5.458314      -148.5283
  18   1.0000      -1.467922       -39.9442
  19   1.0000      -1.356503       -36.9123
  20   1.0000      -1.148377       -31.2489
  21   1.0000      -1.058557       -28.8048
  22   1.0000      -0.886905       -24.1339
  23   1.0000      -0.766057       -20.8455
  24   1.0000      -0.679820       -18.4988
  25   1.0000      -0.671223       -18.2649
  26   1.0000      -0.668332       -18.1862
  27   1.0000      -0.616603       -16.7786
  28   1.0000      -0.606745       -16.5104
  29   1.0000      -0.540224       -14.7002
  30   1.0000      -0.520591       -14.1660
  31   1.0000      -0.509008       -13.8508
  32   1.0000      -0.505880       -13.7657
  33   1.0000      -0.491954       -13.3868
  34   1.0000      -0.482426       -13.1275
  35   1.0000      -0.402722       -10.9586
  36   0.0000      -0.007253        -0.1974
  37   0.0000       0.022079         0.6008
  38   0.0000       0.036753         1.0001
  39   0.0000       0.038443         1.0461
  40   0.0000       0.043955         1.1961

MULLIKEN ATOMIC CHARGES AND SPIN POPULATIONS
--------------------------------------------
   0 S :    2.178000   -0.053059
   1 O :   -1.219577   -0.005812
   2 P :    0.620564    1.036235
   3 C :   -1.030128   -0.000331
   4 H :    0.339687    0.003517
   5 H :    0.349390   -0.001062
   6 Cl:   -0.425089    0.016444
   7 O :   -1.178901    0.005327
   8 H :    0.366054   -0.001259
Sum of atomic charges         :    0.0000000

LOEWDIN ATOMIC CHARGES AND SPIN POPULATIONS
-------------------------------------------
   0 S :   -0.630506    0.141962
   1 O :    0.204265    0.001788
   2 P :   -0.003274    0.645294
   3 C :    0.710824    0.014866
   4 H :   -0.338230    0.001312
   5 H :   -0.347020    0.006510
   6 Cl:    0.562392    0.175386
   7 O :    0.211109    0.012277
   8 H :   -0.369560    0.000604

  Mayer bond orders larger than 0.100000
B(  0-S ,  1-O ) :   1.0774 B(  0-S ,  2-P ) :   0.8284 B(  0-S ,  3-C ) :   0.9241
B(  0-S ,  7-O ) :   1.0683 B(  2-P ,  6-Cl) :   0.8765 B(  3-C ,  4-H ) :   0.8464
B(  3-C ,  5-H ) :   0.8853 B(  3-C ,  8-H ) :   0.8767

MP2 TOTAL ENERGY:    -1388.478677902 Eh
FINAL SINGLE POINT ENERGY     -1388.478677902073

DIPOLE MOMENT
-------------
                                X             Y             Z
Electronic contribution:     -7.83604      -4.21072       2.04666
Nuclear contribution   :      7.00418       4.80864      -3.34208
                        -----------------------------------------
Total Dipole Moment    :     -0.83186       0.59792      -1.29543
                        -----------------------------------------
Magnitude (a.u.)       :      1.65155
Magnitude (Debye)      :      4.19792

Rotational constants in cm-1:     0.114027     0.044578     0.040562
Rotational constants in MHz :  3418.445486  1336.400614  1216.018416

                             ****ORCA TERMINATED NORMALLY****
TOTAL RUN TIME: 0 days 0 hours 42 minutes 47 seconds 479 msec
