                         Program Version 5.0.4 -  RELEASE  -
|  1> ! ri-mp2 aug-cc-pvdz aug-cc-pvdz/c tightscf
|  2> %pal nprocs 16 end
|  3> %maxcore 3800
|  4> %base "DZ_P-N_74_AB"
|  5>
|  6> *xyz 0 1
|  7> C        -2.146292   -0.003311    0.153328
|  8> C        -1.473894    1.199174    0.037955
|  9> C        -0.128108    1.191927   -0.264754
| 10> C        -1.467325   -1.191466   -0.031422
| 11> C        -0.117151   -1.167257   -0.327460
| 12> C         0.589094    0.019053   -0.450943
| 13> F        -3.438960   -0.014948    0.439320
| 14> F        -2.126789    2.341967    0.213908
| 15> F         0.487989    2.367578   -0.374279
| 16> F        -2.114820   -2.345491    0.081865
| 17> F         0.485164   -2.343227   -0.492055
| 18> N         3.014150    0.454515    0.666281
| 19> O         2.906996   -0.589513    1.620455
| 20> H         2.394436   -0.201032    2.338316
| 21> P         2.368786    0.127666   -0.876719
| 22> H         2.564766   -1.267451   -0.970541
| 23> H         3.982781    0.746373    0.636349
| 24> *
| 25>
| 26> $new_job
| 27> ! ri-mp2 aug-cc-pvtz aug-cc-pvtz/c tightscf
| 28> %pal nprocs 16 end
| 29> %maxcore 3800
| 30> %base "TZ_P-N_74_AB"
| 31>
| 32> *xyz 0 1
| 33> C        -2.146292   -0.003311    0.153328
| 34> C        -1.473894    1.199174    0.037955
| 35> C        -0.128108    1.191927   -0.264754
| 36> C        -1.467325   -1.191466   -0.031422
| 37> C        -0.117151   -1.167257   -0.327460
| 38> C         0.589094    0.019053   -0.450943
| 39> F        -3.438960   -0.014948    0.439320
| 40> F        -2.126789    2.341967    0.213908
| 41> F         0.487989    2.367578   -0.374279
| 42> F        -2.114820   -2.345491    0.081865
| 43> F         0.485164   -2.343227   -0.492055
| 44> N         3.014150    0.454515    0.666281
| 45> O         2.906996   -0.589513    1.620455
| 46> H         2.394436   -0.201032    2.338316
| 47> P         2.368786    0.127666   -0.876719
| 48> H         2.564766   -1.267451   -0.970541
| 49> H         3.982781    0.746373    0.636349
| 50> *
| 51>
| 52> $new_job
| 53> ! ri-mp2 aug-cc-pvqz aug-cc-pvqz/c tightscf
| 54> %pal nprocs 16 end
| 55> %maxcore 3800
| 56> %base "QZ_P-N_74_AB"
| 57>
| 58> *xyz 0 1
| 59> C        -2.146292   -0.003311    0.153328
| 60> C        -1.473894    1.199174    0.037955
| 61> C        -0.128108    1.191927   -0.264754
| 62> C        -1.467325   -1.191466   -0.031422
| 63> C        -0.117151   -1.167257   -0.327460
| 64> C         0.589094    0.019053   -0.450943
| 65> F        -3.438960   -0.014948    0.439320
| 66> F        -2.126789    2.341967    0.213908
| 67> F         0.487989    2.367578   -0.374279
| 68> F        -2.114820   -2.345491    0.081865
| 69> F         0.485164   -2.343227   -0.492055
| 70> N         3.014150    0.454515    0.666281
| 71> O         2.906996   -0.589513    1.620455
| 72> H         2.394436   -0.201032    2.338316
| 73> P         2.368786    0.127666   -0.876719
| 74> H         2.564766   -1.267451   -0.970541
| 75> H         3.982781    0.746373    0.636349
| 76> *
| 77>
| 78>
| 79>
| 80>
| 81>                          ****END OF INPUT****
 Total Charge           Charge          ....    0
 Multiplicity           Mult            ....    1
 Number of Electrons    NEL             ....  114
MP2 TOTAL ENERGY:    -1198.470365471 Eh
FINAL SINGLE POINT ENERGY     -1198.470365470730
MP2 TOTAL ENERGY:    -1199.227440855 Eh
FINAL SINGLE POINT ENERGY     -1199.227440854959

CARTESIAN COORDINATES (ANGSTROEM)
---------------------------------
  C     -2.146292   -0.003311    0.153328
  C     -1.473894    1.199174    0.037955
  C     -0.128108    1.191927   -0.264754
  C     -1.467325   -1.191466   -0.031422
  C     -0.117151   -1.167257   -0.327460
  C      0.589094    0.019053   -0.450943
  F     -3.438960   -0.014948    0.439320
  F     -2.126789    2.341967    0.213908
  F      0.487989    2.367578   -0.374279
  F     -2.114820   -2.345491    0.081865
  F      0.485164   -2.343227   -0.492055
  N      3.014150    0.454515    0.666281
  O      2.906996   -0.589513    1.620455
  H      2.394436   -0.201032    2.338316
  P      2.368786    0.127666   -0.876719
  H      2.564766   -1.267451   -0.970541
  H      3.982781    0.746373    0.636349

 Multiplicity           Mult            ....    1
 Number of Electrons    NEL             ....  114
 Basis Dimension        Dim             .... 1262

ORBITAL ENERGIES
----------------

  NO   OCC          E(Eh)            E(eV)
   0   2.0000     -79.986738     -2176.5498
   1   2.0000     -26.354309      -717.1372
   2   2.0000     -26.346513      -716.9251
   3   2.0000     -26.345874      -716.9077
   4   2.0000     -26.344210      -716.8624
   5   2.0000     -26.343883      -716.8535
   6   2.0000     -20.612846      -560.9041
   7   2.0000     -15.625216      -425.1837
   8   2.0000     -11.380498      -309.6791
   9   2.0000     -11.375839      -309.5523
  10   2.0000     -11.374242      -309.5089
  11   2.0000     -11.367093      -309.3143
  12   2.0000     -11.366822      -309.3069
  13   2.0000     -11.284085      -307.0556
  14   2.0000      -7.525913      -204.7905
  15   2.0000      -5.419948      -147.4843
  16   2.0000      -5.419715      -147.4779
  17   2.0000      -5.418931      -147.4566
  18   2.0000      -1.686160       -45.8827
  19   2.0000      -1.676165       -45.6108
  20   2.0000      -1.671804       -45.4921
  21   2.0000      -1.661134       -45.2018
  22   2.0000      -1.658470       -45.1293
  23   2.0000      -1.426538       -38.8181
  24   2.0000      -1.221899       -33.2496
  25   2.0000      -1.123872       -30.5821
  26   2.0000      -1.080719       -29.4079
  27   2.0000      -1.072778       -29.1918
  28   2.0000      -0.940852       -25.6019
  29   2.0000      -0.920119       -25.0377
  30   2.0000      -0.847070       -23.0499
  31   2.0000      -0.838473       -22.8160
  32   2.0000      -0.824681       -22.4407
  33   2.0000      -0.792718       -21.5709
  34   2.0000      -0.768247       -20.9051
  35   2.0000      -0.766899       -20.8684
  36   2.0000      -0.764544       -20.8043
  37   2.0000      -0.748366       -20.3641
  38   2.0000      -0.742694       -20.2097
  39   2.0000      -0.734357       -19.9829
  40   2.0000      -0.720161       -19.5966
  41   2.0000      -0.717010       -19.5108
  42   2.0000      -0.714782       -19.4502
  43   2.0000      -0.696664       -18.9572
  44   2.0000      -0.693654       -18.8753
  45   2.0000      -0.679666       -18.4946
  46   2.0000      -0.660896       -17.9839
  47   2.0000      -0.636469       -17.3192
  48   2.0000      -0.619315       -16.8524
  49   2.0000      -0.599417       -16.3110
  50   2.0000      -0.549770       -14.9600
  51   2.0000      -0.539643       -14.6844
  52   2.0000      -0.506567       -13.7844
  53   2.0000      -0.429033       -11.6746
  54   2.0000      -0.415420       -11.3042
  55   2.0000      -0.374985       -10.2039
  56   2.0000      -0.368387       -10.0243
  57   0.0000       0.021751         0.5919
  58   0.0000       0.032784         0.8921
  59   0.0000       0.035544         0.9672
  60   0.0000       0.044378         1.2076
  61   0.0000       0.052342         1.4243

MULLIKEN ATOMIC CHARGES
-----------------------
   0 C :    0.855560
   1 C :    0.843473
   2 C :    0.972371
   3 C :    0.855669
   4 C :    0.930504
   5 C :   -0.999168
   6 F :   -0.748070
   7 F :   -0.762239
   8 F :   -0.748452
   9 F :   -0.766129
  10 F :   -0.754503
  11 N :   -0.427844
  12 O :   -0.623407
  13 H :    0.371892
  14 P :    0.774619
  15 H :   -0.045407
  16 H :    0.271132
Sum of atomic charges:   -0.0000000

LOEWDIN ATOMIC CHARGES
----------------------
   0 C :   -0.806134
   1 C :   -0.800457
   2 C :   -0.866289
   3 C :   -0.803084
   4 C :   -0.842268
   5 C :   -0.385963
   6 F :    0.812918
   7 F :    0.800312
   8 F :    0.810329
   9 F :    0.800313
  10 F :    0.816020
  11 N :    0.303162
  12 O :    1.049936
  13 H :   -0.838333
  14 P :    1.065595
  15 H :   -0.448518
  16 H :   -0.667538

  Mayer bond orders larger than 0.100000
B(  0-C ,  1-C ) :   1.5050 B(  0-C ,  3-C ) :   1.5203 B(  1-C ,  2-C ) :   1.5813
B(  1-C ,  4-C ) :   0.1146 B(  1-C ,  5-C ) :  -0.1870 B(  2-C ,  3-C ) :   0.1200
B(  2-C ,  5-C ) :   1.0178 B(  2-C , 14-P ) :  -0.1807 B(  3-C ,  4-C ) :   1.5896
B(  3-C ,  5-C ) :  -0.1460 B(  4-C ,  5-C ) :   1.0738 B(  4-C , 14-P ) :  -0.1256
B(  5-C ,  8-F ) :   0.1210 B(  5-C , 10-F ) :   0.1820 B(  5-C , 14-P ) :   0.9196
B( 11-N , 12-O ) :   0.7702 B( 11-N , 14-P ) :   0.8274 B( 11-N , 16-H ) :   0.9335
B( 12-O , 13-H ) :   0.8877 B( 14-P , 15-H ) :   0.8896

MP2 TOTAL ENERGY:    -1199.477913527 Eh
FINAL SINGLE POINT ENERGY     -1199.477913527258

DIPOLE MOMENT
-------------
                                X             Y             Z
Electronic contribution:    -11.73657       0.90650      -2.54857
Nuclear contribution   :     12.39209      -0.79329       2.77809
                        -----------------------------------------
Total Dipole Moment    :      0.65552       0.11321       0.22953
                        -----------------------------------------
Magnitude (a.u.)       :      0.70371
Magnitude (Debye)      :      1.78868

Rotational constants in cm-1:     0.028379     0.015668     0.011399
Rotational constants in MHz :   850.794919   469.702924   341.736645

                             ****ORCA TERMINATED NORMALLY****
TOTAL RUN TIME: 0 days 0 hours 50 minutes 8 seconds 244 msec
