                         Program Version 5.0.4 -  RELEASE  -
|  1> ! ri-mp2 aug-cc-pvdz aug-cc-pvdz/c tightscf
|  2> %pal nprocs 16 end
|  3> %maxcore 3800
|  4> %base "DZ_Si-S_38_AB"
|  5> %scf
|  6> STABPerform true
|  7> STABRestartUHFifUnstable true
|  8> end
|  9>
| 10> *xyz 0 1
| 11> S        -1.406934   -0.081213    0.000000
| 12> Si         0.625844    0.395233    0.000000
| 13> H        -1.175532   -1.403984    0.000000
| 14> O         1.773060   -0.586581    0.000000
| 15> H         0.740179    1.862775    0.000001
| 16> *
| 17>
| 18> $new_job
| 19> ! ri-mp2 aug-cc-pvtz aug-cc-pvtz/c tightscf
| 20> %pal nprocs 16 end
| 21> %maxcore 3800
| 22> %base "TZ_Si-S_38_AB"
| 23>
| 24> *xyz 0 1
| 25> S        -1.406934   -0.081213    0.000000
| 26> Si         0.625844    0.395233    0.000000
| 27> H        -1.175532   -1.403984    0.000000
| 28> O         1.773060   -0.586581    0.000000
| 29> H         0.740179    1.862775    0.000001
| 30> *
| 31>
| 32> $new_job
| 33> ! ri-mp2 aug-cc-pvqz aug-cc-pvqz/c tightscf
| 34> %pal nprocs 16 end
| 35> %maxcore 3800
| 36> %base "QZ_Si-S_38_AB"
| 37>
| 38> *xyz 0 1
| 39> S        -1.406934   -0.081213    0.000000
| 40> Si         0.625844    0.395233    0.000000
| 41> H        -1.175532   -1.403984    0.000000
| 42> O         1.773060   -0.586581    0.000000
| 43> H         0.740179    1.862775    0.000001
| 44> *
| 45>
| 46>
| 47>
| 48>
| 49>                          ****END OF INPUT****
 Total Charge           Charge          ....    0
 Multiplicity           Mult            ....    1
 Number of Electrons    NEL             ....   40
MP2 TOTAL ENERGY:     -762.965887885 Eh
FINAL SINGLE POINT ENERGY      -762.965887885413
MP2 TOTAL ENERGY:     -763.124693862 Eh
FINAL SINGLE POINT ENERGY      -763.124693861902

CARTESIAN COORDINATES (ANGSTROEM)
---------------------------------
  S     -1.406934   -0.081213    0.000000
  Si     0.625844    0.395233    0.000000
  H     -1.175532   -1.403984    0.000000
  O      1.773060   -0.586581    0.000000
  H      0.740179    1.862775    0.000001

 Multiplicity           Mult            ....    1
 Number of Electrons    NEL             ....   40
 Basis Dimension        Dim             ....  340

ORBITAL ENERGIES
----------------

  NO   OCC          E(Eh)            E(eV)
   0   2.0000     -91.994735     -2503.3040
   1   2.0000     -68.835933     -1873.1210
   2   2.0000     -20.506758      -558.0172
   3   2.0000      -8.999440      -244.8872
   4   2.0000      -6.680703      -181.7912
   5   2.0000      -6.680051      -181.7734
   6   2.0000      -6.679313      -181.7534
   7   2.0000      -6.182975      -168.2473
   8   2.0000      -4.291396      -116.7748
   9   2.0000      -4.288285      -116.6902
  10   2.0000      -4.287132      -116.6588
  11   2.0000      -1.248763       -33.9806
  12   2.0000      -1.014065       -27.5941
  13   2.0000      -0.689608       -18.7652
  14   2.0000      -0.575416       -15.6579
  15   2.0000      -0.539049       -14.6683
  16   2.0000      -0.508585       -13.8393
  17   2.0000      -0.474541       -12.9129
  18   2.0000      -0.440252       -11.9799
  19   2.0000      -0.422453       -11.4955
  20   0.0000       0.024262         0.6602
  21   0.0000       0.033672         0.9163
  22   0.0000       0.034891         0.9494
  23   0.0000       0.042470         1.1557
  24   0.0000       0.063216         1.7202

MULLIKEN ATOMIC CHARGES
-----------------------
   0 S :   -0.360904
   1 Si:    1.478227
   2 H :    0.143289
   3 O :   -1.063699
   4 H :   -0.196914
Sum of atomic charges:    0.0000000

LOEWDIN ATOMIC CHARGES
----------------------
   0 S :    1.413058
   1 Si:   -0.276143
   2 H :   -0.889686
   3 O :    0.077092
   4 H :   -0.324321

  Mayer bond orders larger than 0.100000
B(  0-S ,  1-Si) :   0.9419 B(  0-S ,  2-H ) :   0.9983 B(  1-Si,  3-O ) :   1.5502
B(  1-Si,  4-H ) :   0.9311

MP2 TOTAL ENERGY:     -763.176990861 Eh
FINAL SINGLE POINT ENERGY      -763.176990860925

DIPOLE MOMENT
-------------
                                X             Y             Z
Electronic contribution:     -0.85385       0.34131      -0.00000
Nuclear contribution   :     -0.38636       0.41142       0.00000
                        -----------------------------------------
Total Dipole Moment    :     -1.24020       0.75272      -0.00000
                        -----------------------------------------
Magnitude (a.u.)       :      1.45076
Magnitude (Debye)      :      3.68753

Rotational constants in cm-1:     1.087139     0.132966     0.118475
Rotational constants in MHz : 32591.609760  3986.217274  3551.803055

                             ****ORCA TERMINATED NORMALLY****
TOTAL RUN TIME: 0 days 0 hours 4 minutes 31 seconds 925 msec
