                         Program Version 5.0.4 -  RELEASE  -
|  1> ! ri-mp2 aug-cc-pvdz aug-cc-pvdz/c tightscf
|  2> %pal nprocs 16 end
|  3> %maxcore 3800
|  4> %base "DZ_Si-Si_61_A"
|  5> %scf
|  6> STABPerform true
|  7> STABRestartUHFifUnstable true
|  8> end
|  9>
| 10> *xyz 0 2
| 11> Si         1.039694   -0.029714   -0.020763
| 12> O        -0.465456    0.696148   -0.007360
| 13> H         1.313738   -0.723678    1.258192
| 14> H         1.157733   -0.957842   -1.170969
| 15> O        -1.422514   -0.397552    0.120315
| 16> H        -1.923422   -0.291243   -0.700184
| 17> *
| 18>
| 19> $new_job
| 20> ! ri-mp2 aug-cc-pvtz aug-cc-pvtz/c tightscf
| 21> %pal nprocs 16 end
| 22> %maxcore 3800
| 23> %base "TZ_Si-Si_61_A"
| 24>
| 25> *xyz 0 2
| 26> Si         1.039694   -0.029714   -0.020763
| 27> O        -0.465456    0.696148   -0.007360
| 28> H         1.313738   -0.723678    1.258192
| 29> H         1.157733   -0.957842   -1.170969
| 30> O        -1.422514   -0.397552    0.120315
| 31> H        -1.923422   -0.291243   -0.700184
| 32> *
| 33>
| 34> $new_job
| 35> ! ri-mp2 aug-cc-pvqz aug-cc-pvqz/c tightscf
| 36> %pal nprocs 16 end
| 37> %maxcore 3800
| 38> %base "QZ_Si-Si_61_A"
| 39>
| 40> *xyz 0 2
| 41> Si         1.039694   -0.029714   -0.020763
| 42> O        -0.465456    0.696148   -0.007360
| 43> H         1.313738   -0.723678    1.258192
| 44> H         1.157733   -0.957842   -1.170969
| 45> O        -1.422514   -0.397552    0.120315
| 46> H        -1.923422   -0.291243   -0.700184
| 47> *
| 48>
| 49>
| 50>
| 51>
| 52>                          ****END OF INPUT****
 Total Charge           Charge          ....    0
 Multiplicity           Mult            ....    2
 Number of Electrons    NEL             ....   33
MP2 TOTAL ENERGY:     -440.793545517 Eh
FINAL SINGLE POINT ENERGY      -440.793545516738
MP2 TOTAL ENERGY:     -440.959693143 Eh
FINAL SINGLE POINT ENERGY      -440.959693143234

CARTESIAN COORDINATES (ANGSTROEM)
---------------------------------
  Si     1.039694   -0.029714   -0.020763
  O     -0.465456    0.696148   -0.007360
  H      1.313738   -0.723678    1.258192
  H      1.157733   -0.957842   -1.170969
  O     -1.422514   -0.397552    0.120315
  H     -1.923422   -0.291243   -0.700184

 Multiplicity           Mult            ....    2
 Number of Electrons    NEL             ....   33
 Basis Dimension        Dim             ....  382

ORBITAL ENERGIES
----------------
                 SPIN UP ORBITALS
  NO   OCC          E(Eh)            E(eV)
   0   1.0000     -68.813020     -1872.4975
   1   1.0000     -20.642509      -561.7112
   2   1.0000     -20.614949      -560.9613
   3   1.0000      -6.159249      -167.6017
   4   1.0000      -4.272046      -116.2483
   5   1.0000      -4.262382      -115.9853
   6   1.0000      -4.261662      -115.9657
   7   1.0000      -1.474800       -40.1313
   8   1.0000      -1.211878       -32.9769
   9   1.0000      -0.745200       -20.2779
  10   1.0000      -0.725497       -19.7418
  11   1.0000      -0.635741       -17.2994
  12   1.0000      -0.613873       -16.7043
  13   1.0000      -0.536981       -14.6120
  14   1.0000      -0.498502       -13.5649
  15   1.0000      -0.468108       -12.7379
  16   1.0000      -0.347713        -9.4617
  17   0.0000       0.024976         0.6796
  18   0.0000       0.036943         1.0053
  19   0.0000       0.044104         1.2001
  20   0.0000       0.044497         1.2108
  21   0.0000       0.056187         1.5289

                 SPIN DOWN ORBITALS
  NO   OCC          E(Eh)            E(eV)
   0   1.0000     -68.807265     -1872.3409
   1   1.0000     -20.637131      -561.5649
   2   1.0000     -20.617523      -561.0313
   3   1.0000      -6.150194      -167.3553
   4   1.0000      -4.258683      -115.8846
   5   1.0000      -4.258014      -115.8665
   6   1.0000      -4.250066      -115.6502
   7   1.0000      -1.468385       -39.9568
   8   1.0000      -1.207163       -32.8486
   9   1.0000      -0.727358       -19.7924
  10   1.0000      -0.717462       -19.5231
  11   1.0000      -0.620802       -16.8929
  12   1.0000      -0.597070       -16.2471
  13   1.0000      -0.531519       -14.4634
  14   1.0000      -0.492957       -13.4141
  15   1.0000      -0.461902       -12.5690
  16   0.0000       0.022976         0.6252
  17   0.0000       0.025606         0.6968
  18   0.0000       0.038752         1.0545
  19   0.0000       0.044665         1.2154
  20   0.0000       0.054349         1.4789

MULLIKEN ATOMIC CHARGES AND SPIN POPULATIONS
--------------------------------------------
   0 Si:    0.974511    0.953827
   1 O :   -0.597972   -0.135374
   2 H :   -0.181365    0.032593
   3 H :   -0.193510    0.029004
   4 O :   -0.356841    0.126891
   5 H :    0.355176   -0.006943
Sum of atomic charges         :   -0.0000000

LOEWDIN ATOMIC CHARGES AND SPIN POPULATIONS
-------------------------------------------
   0 Si:    0.652154    0.572377
   1 O :    0.167488    0.057088
   2 H :   -0.366400    0.134453
   3 H :   -0.366920    0.131914
   4 O :    0.823164    0.087003
   5 H :   -0.909486    0.017166

  Mayer bond orders larger than 0.100000
B(  0-Si,  1-O ) :   0.4668 B(  0-Si,  2-H ) :   0.9052 B(  0-Si,  3-H ) :   0.9021
B(  1-O ,  4-O ) :   0.8108 B(  4-O ,  5-H ) :   0.9110

MP2 TOTAL ENERGY:     -441.013947302 Eh
FINAL SINGLE POINT ENERGY      -441.013947301657

DIPOLE MOMENT
-------------
                                X             Y             Z
Electronic contribution:     -0.39944       1.69578       0.06460
Nuclear contribution   :      0.44701      -1.93100      -0.59898
                        -----------------------------------------
Total Dipole Moment    :      0.04757      -0.23521      -0.53438
                        -----------------------------------------
Magnitude (a.u.)       :      0.58579
Magnitude (Debye)      :      1.48896

Rotational constants in cm-1:     1.093232     0.219655     0.198653
Rotational constants in MHz : 32774.281447  6585.080697  5955.479345

                             ****ORCA TERMINATED NORMALLY****
TOTAL RUN TIME: 0 days 0 hours 10 minutes 21 seconds 715 msec
