                         Program Version 5.0.4 -  RELEASE  -
|  1> ! ri-mp2 aug-cc-pvdz aug-cc-pvdz/c tightscf
|  2> %pal nprocs 16 end
|  3> %maxcore 3800
|  4> %base "DZ_P-Cl_18_AB"
|  5>
|  6> *xyz 0 1
|  7> C         0.265498   -0.047512   -0.257576
|  8> C        -1.223931   -0.196295   -0.116953
|  9> C        -1.987328   -0.601502   -1.203138
| 10> H        -1.511227   -0.758804   -2.162667
| 11> C        -3.349044   -0.796125   -1.065735
| 12> H        -3.936595   -1.106233   -1.919387
| 13> C        -3.960324   -0.586871    0.160273
| 14> H        -5.026447   -0.735615    0.266662
| 15> C        -3.204087   -0.180330    1.245732
| 16> H        -3.677292   -0.009809    2.203348
| 17> C        -1.840039    0.013343    1.110652
| 18> H        -1.251084    0.350010    1.953121
| 19> N         0.680301    1.223642    0.362563
| 20> P         1.028523   -1.476687    0.698875
| 21> Cl         0.013869    2.550498   -0.553073
| 22> Cl         2.410326    1.374920    0.356125
| 23> Cl         2.651517   -2.000055   -0.474229
| 24> H         0.153668   -2.413684    0.113968
| 25> H         0.567432   -0.100462   -1.305627
| 26> *
| 27>
| 28> $new_job
| 29> ! ri-mp2 aug-cc-pvtz aug-cc-pvtz/c tightscf
| 30> %pal nprocs 16 end
| 31> %maxcore 3800
| 32> %base "TZ_P-Cl_18_AB"
| 33>
| 34> *xyz 0 1
| 35> C         0.265498   -0.047512   -0.257576
| 36> C        -1.223931   -0.196295   -0.116953
| 37> C        -1.987328   -0.601502   -1.203138
| 38> H        -1.511227   -0.758804   -2.162667
| 39> C        -3.349044   -0.796125   -1.065735
| 40> H        -3.936595   -1.106233   -1.919387
| 41> C        -3.960324   -0.586871    0.160273
| 42> H        -5.026447   -0.735615    0.266662
| 43> C        -3.204087   -0.180330    1.245732
| 44> H        -3.677292   -0.009809    2.203348
| 45> C        -1.840039    0.013343    1.110652
| 46> H        -1.251084    0.350010    1.953121
| 47> N         0.680301    1.223642    0.362563
| 48> P         1.028523   -1.476687    0.698875
| 49> Cl         0.013869    2.550498   -0.553073
| 50> Cl         2.410326    1.374920    0.356125
| 51> Cl         2.651517   -2.000055   -0.474229
| 52> H         0.153668   -2.413684    0.113968
| 53> H         0.567432   -0.100462   -1.305627
| 54> *
| 55>
| 56> $new_job
| 57> ! ri-mp2 aug-cc-pvqz aug-cc-pvqz/c tightscf
| 58> %pal nprocs 16 end
| 59> %maxcore 3800
| 60> %base "QZ_P-Cl_18_AB"
| 61>
| 62> *xyz 0 1
| 63> C         0.265498   -0.047512   -0.257576
| 64> C        -1.223931   -0.196295   -0.116953
| 65> C        -1.987328   -0.601502   -1.203138
| 66> H        -1.511227   -0.758804   -2.162667
| 67> C        -3.349044   -0.796125   -1.065735
| 68> H        -3.936595   -1.106233   -1.919387
| 69> C        -3.960324   -0.586871    0.160273
| 70> H        -5.026447   -0.735615    0.266662
| 71> C        -3.204087   -0.180330    1.245732
| 72> H        -3.677292   -0.009809    2.203348
| 73> C        -1.840039    0.013343    1.110652
| 74> H        -1.251084    0.350010    1.953121
| 75> N         0.680301    1.223642    0.362563
| 76> P         1.028523   -1.476687    0.698875
| 77> Cl         0.013869    2.550498   -0.553073
| 78> Cl         2.410326    1.374920    0.356125
| 79> Cl         2.651517   -2.000055   -0.474229
| 80> H         0.153668   -2.413684    0.113968
| 81> H         0.567432   -0.100462   -1.305627
| 82> *
| 83>
| 84>
| 85>
| 86>
| 87>                          ****END OF INPUT****
 Total Charge           Charge          ....    0
 Multiplicity           Mult            ....    1
 Number of Electrons    NEL             ....  122
MP2 TOTAL ENERGY:    -2044.521960361 Eh
FINAL SINGLE POINT ENERGY     -2044.521960360757
MP2 TOTAL ENERGY:    -2045.028798563 Eh
FINAL SINGLE POINT ENERGY     -2045.028798563096

CARTESIAN COORDINATES (ANGSTROEM)
---------------------------------
  C      0.265498   -0.047512   -0.257576
  C     -1.223931   -0.196295   -0.116953
  C     -1.987328   -0.601502   -1.203138
  H     -1.511227   -0.758804   -2.162667
  C     -3.349044   -0.796125   -1.065735
  H     -3.936595   -1.106233   -1.919387
  C     -3.960324   -0.586871    0.160273
  H     -5.026447   -0.735615    0.266662
  C     -3.204087   -0.180330    1.245732
  H     -3.677292   -0.009809    2.203348
  C     -1.840039    0.013343    1.110652
  H     -1.251084    0.350010    1.953121
  N      0.680301    1.223642    0.362563
  P      1.028523   -1.476687    0.698875
  Cl     0.013869    2.550498   -0.553073
  Cl     2.410326    1.374920    0.356125
  Cl     2.651517   -2.000055   -0.474229
  H      0.153668   -2.413684    0.113968
  H      0.567432   -0.100462   -1.305627

 Multiplicity           Mult            ....    1
 Number of Electrons    NEL             ....  122
 Basis Dimension        Dim             .... 1298

ORBITAL ENERGIES
----------------

  NO   OCC          E(Eh)            E(eV)
   0   2.0000    -104.874040     -2853.7677
   1   2.0000    -104.871521     -2853.6992
   2   2.0000    -104.833319     -2852.6596
   3   2.0000     -80.005067     -2177.0485
   4   2.0000     -15.694015      -427.0559
   5   2.0000     -11.309126      -307.7370
   6   2.0000     -11.262106      -306.4575
   7   2.0000     -11.249838      -306.1237
   8   2.0000     -11.248361      -306.0835
   9   2.0000     -11.247986      -306.0733
  10   2.0000     -11.247088      -306.0488
  11   2.0000     -11.246170      -306.0238
  12   2.0000     -10.597402      -288.3700
  13   2.0000     -10.594723      -288.2971
  14   2.0000     -10.559715      -287.3445
  15   2.0000      -8.064496      -219.4461
  16   2.0000      -8.062194      -219.3834
  17   2.0000      -8.061949      -219.3768
  18   2.0000      -8.061814      -219.3731
  19   2.0000      -8.059491      -219.3099
  20   2.0000      -8.059302      -219.3048
  21   2.0000      -8.026580      -218.4143
  22   2.0000      -8.025152      -218.3755
  23   2.0000      -8.025046      -218.3726
  24   2.0000      -7.542899      -205.2527
  25   2.0000      -5.436305      -147.9294
  26   2.0000      -5.435332      -147.9029
  27   2.0000      -5.434526      -147.8810
  28   2.0000      -1.316927       -35.8354
  29   2.0000      -1.181303       -32.1449
  30   2.0000      -1.117283       -30.4028
  31   2.0000      -1.110138       -30.2084
  32   2.0000      -1.083684       -29.4885
  33   2.0000      -1.036145       -28.1949
  34   2.0000      -1.007793       -27.4234
  35   2.0000      -0.908175       -24.7127
  36   2.0000      -0.850484       -23.1428
  37   2.0000      -0.833733       -22.6870
  38   2.0000      -0.785438       -21.3728
  39   2.0000      -0.722843       -19.6695
  40   2.0000      -0.683414       -18.5966
  41   2.0000      -0.664912       -18.0932
  42   2.0000      -0.637352       -17.3432
  43   2.0000      -0.627413       -17.0728
  44   2.0000      -0.624584       -16.9958
  45   2.0000      -0.604212       -16.4415
  46   2.0000      -0.572240       -15.5714
  47   2.0000      -0.556197       -15.1349
  48   2.0000      -0.545007       -14.8304
  49   2.0000      -0.518431       -14.1072
  50   2.0000      -0.512986       -13.9591
  51   2.0000      -0.508774       -13.8445
  52   2.0000      -0.492436       -13.3999
  53   2.0000      -0.484024       -13.1710
  54   2.0000      -0.477765       -13.0006
  55   2.0000      -0.452686       -12.3182
  56   2.0000      -0.445217       -12.1150
  57   2.0000      -0.406576       -11.0635
  58   2.0000      -0.388869       -10.5817
  59   2.0000      -0.355345        -9.6694
  60   2.0000      -0.343286        -9.3413
  61   0.0000       0.019997         0.5442
  62   0.0000       0.026635         0.7248
  63   0.0000       0.032868         0.8944
  64   0.0000       0.039478         1.0743
  65   0.0000       0.042294         1.1509

MULLIKEN ATOMIC CHARGES
-----------------------
   0 C :    0.792605
   1 C :    0.482203
   2 C :   -0.636253
   3 H :    0.262311
   4 C :   -0.220456
   5 H :    0.260403
   6 C :   -0.353067
   7 H :    0.327741
   8 C :   -0.283481
   9 H :    0.245256
  10 C :   -0.583028
  11 H :    0.302801
  12 N :   -0.429319
  13 P :    0.668954
  14 Cl:   -0.135350
  15 Cl:   -0.125983
  16 Cl:   -0.533160
  17 H :   -0.096283
  18 H :    0.054107
Sum of atomic charges:   -0.0000000

LOEWDIN ATOMIC CHARGES
----------------------
   0 C :   -0.688627
   1 C :   -0.331103
   2 C :    0.323664
   3 H :   -0.310172
   4 C :    0.353876
   5 H :   -0.316550
   6 C :    0.346049
   7 H :   -0.318421
   8 C :    0.357310
   9 H :   -0.315275
  10 C :    0.283939
  11 H :   -0.327314
  12 N :   -0.978855
  13 P :    0.392453
  14 Cl:    0.919112
  15 Cl:    0.879747
  16 Cl:    0.692619
  17 H :   -0.507619
  18 H :   -0.454833

  Mayer bond orders larger than 0.100000
B(  0-C ,  1-C ) :   0.7408 B(  0-C ,  2-C ) :  -0.2438 B(  0-C , 10-C ) :  -0.2233
B(  0-C , 12-N ) :   0.7008 B(  0-C , 13-P ) :   0.5384 B(  0-C , 14-Cl) :  -0.2684
B(  0-C , 15-Cl) :  -0.3575 B(  0-C , 16-Cl) :  -0.1593 B(  0-C , 18-H ) :   1.0818
B(  1-C ,  2-C ) :   0.7849 B(  1-C ,  4-C ) :  -0.5006 B(  1-C ,  8-C ) :  -0.3438
B(  1-C , 10-C ) :   1.0473 B(  1-C , 13-P ) :   0.1344 B(  2-C ,  3-H ) :   1.0116
B(  2-C ,  4-C ) :   1.4809 B(  2-C ,  5-H ) :  -0.1350 B(  2-C ,  6-C ) :   0.1743
B(  2-C ,  8-C ) :   0.1561 B(  4-C ,  5-H ) :   1.1036 B(  4-C ,  6-C ) :   1.1004
B(  4-C , 10-C ) :   0.2032 B(  5-H ,  6-C ) :  -0.1099 B(  6-C ,  7-H ) :   1.0290
B(  6-C ,  8-C ) :   1.0865 B(  6-C , 10-C ) :   0.1020 B(  8-C ,  9-H ) :   1.1129
B(  8-C , 10-C ) :   1.4262 B(  9-H , 10-C ) :  -0.1112 B( 10-C , 11-H ) :   0.9657
B( 12-N , 14-Cl) :   0.9459 B( 12-N , 15-Cl) :   0.9885 B( 13-P , 16-Cl) :   0.7108
B( 13-P , 17-H ) :   0.9730

MP2 TOTAL ENERGY:    -2045.193133409 Eh
FINAL SINGLE POINT ENERGY     -2045.193133408949

DIPOLE MOMENT
-------------
                                X             Y             Z
Electronic contribution:     20.50333       5.47997       0.29333
Nuclear contribution   :    -21.65701      -5.77893      -0.52333
                        -----------------------------------------
Total Dipole Moment    :     -1.15369      -0.29896      -0.23000
                        -----------------------------------------
Magnitude (a.u.)       :      1.21379
Magnitude (Debye)      :      3.08520

Rotational constants in cm-1:     0.024869     0.013707     0.010168
Rotational constants in MHz :   745.551265   410.912637   304.837292

                             ****ORCA TERMINATED NORMALLY****
TOTAL RUN TIME: 0 days 1 hours 17 minutes 2 seconds 341 msec
