                         Program Version 5.0.4 -  RELEASE  -
|  1> ! ri-mp2 aug-cc-pvdz aug-cc-pvdz/c tightscf
|  2> %pal nprocs 16 end
|  3> %maxcore 3800
|  4> %base "DZ_S-S_37_A"
|  5> %scf
|  6> STABPerform true
|  7> STABRestartUHFifUnstable true
|  8> end
|  9>
| 10> *xyz 0 2
| 11> S         2.050723   -0.006462   -0.177622
| 12> C         0.376233   -0.004010    0.469620
| 13> C        -0.449058    1.206167    0.122397
| 14> C        -1.690657    0.876512   -0.190196
| 15> C        -1.930742   -0.604799   -0.093323
| 16> C        -0.510524   -1.184571    0.022268
| 17> H        -2.475115   -1.002346   -0.950973
| 18> H        -2.533727   -0.831261    0.791237
| 19> H        -0.440329   -2.030681    0.702841
| 20> H        -0.171315   -1.525219   -0.955259
| 21> H         0.549247   -0.030527    1.555198
| 22> H        -0.042037    2.206279    0.161700
| 23> H        -2.469794    1.581359   -0.447385
| 24> *
| 25>
| 26> $new_job
| 27> ! ri-mp2 aug-cc-pvtz aug-cc-pvtz/c tightscf
| 28> %pal nprocs 16 end
| 29> %maxcore 3800
| 30> %base "TZ_S-S_37_A"
| 31>
| 32> *xyz 0 2
| 33> S         2.050723   -0.006462   -0.177622
| 34> C         0.376233   -0.004010    0.469620
| 35> C        -0.449058    1.206167    0.122397
| 36> C        -1.690657    0.876512   -0.190196
| 37> C        -1.930742   -0.604799   -0.093323
| 38> C        -0.510524   -1.184571    0.022268
| 39> H        -2.475115   -1.002346   -0.950973
| 40> H        -2.533727   -0.831261    0.791237
| 41> H        -0.440329   -2.030681    0.702841
| 42> H        -0.171315   -1.525219   -0.955259
| 43> H         0.549247   -0.030527    1.555198
| 44> H        -0.042037    2.206279    0.161700
| 45> H        -2.469794    1.581359   -0.447385
| 46> *
| 47>
| 48> $new_job
| 49> ! ri-mp2 aug-cc-pvqz aug-cc-pvqz/c tightscf
| 50> %pal nprocs 16 end
| 51> %maxcore 3800
| 52> %base "QZ_S-S_37_A"
| 53>
| 54> *xyz 0 2
| 55> S         2.050723   -0.006462   -0.177622
| 56> C         0.376233   -0.004010    0.469620
| 57> C        -0.449058    1.206167    0.122397
| 58> C        -1.690657    0.876512   -0.190196
| 59> C        -1.930742   -0.604799   -0.093323
| 60> C        -0.510524   -1.184571    0.022268
| 61> H        -2.475115   -1.002346   -0.950973
| 62> H        -2.533727   -0.831261    0.791237
| 63> H        -0.440329   -2.030681    0.702841
| 64> H        -0.171315   -1.525219   -0.955259
| 65> H         0.549247   -0.030527    1.555198
| 66> H        -0.042037    2.206279    0.161700
| 67> H        -2.469794    1.581359   -0.447385
| 68> *
| 69>
| 70>
| 71>
| 72>
| 73>                          ****END OF INPUT****
 Total Charge           Charge          ....    0
 Multiplicity           Mult            ....    2
 Number of Electrons    NEL             ....   53
MP2 TOTAL ENERGY:     -591.746254967 Eh
FINAL SINGLE POINT ENERGY      -591.746254967184
MP2 TOTAL ENERGY:     -591.969703528 Eh
FINAL SINGLE POINT ENERGY      -591.969703527854

CARTESIAN COORDINATES (ANGSTROEM)
---------------------------------
  S      2.050723   -0.006462   -0.177622
  C      0.376233   -0.004010    0.469620
  C     -0.449058    1.206167    0.122397
  C     -1.690657    0.876512   -0.190196
  C     -1.930742   -0.604799   -0.093323
  C     -0.510524   -1.184571    0.022268
  H     -2.475115   -1.002346   -0.950973
  H     -2.533727   -0.831261    0.791237
  H     -0.440329   -2.030681    0.702841
  H     -0.171315   -1.525219   -0.955259
  H      0.549247   -0.030527    1.555198
  H     -0.042037    2.206279    0.161700
  H     -2.469794    1.581359   -0.447385

 Multiplicity           Mult            ....    2
 Number of Electrons    NEL             ....   53
 Basis Dimension        Dim             ....  806

ORBITAL ENERGIES
----------------
                 SPIN UP ORBITALS
  NO   OCC          E(Eh)            E(eV)
   0   1.0000     -91.963992     -2502.4675
   1   1.0000     -11.268617      -306.6347
   2   1.0000     -11.231395      -305.6218
   3   1.0000     -11.230918      -305.6088
   4   1.0000     -11.230320      -305.5926
   5   1.0000     -11.229348      -305.5661
   6   1.0000      -8.966331      -243.9863
   7   1.0000      -6.662196      -181.2876
   8   1.0000      -6.643765      -180.7860
   9   1.0000      -6.642318      -180.7467
  10   1.0000      -1.156469       -31.4691
  11   1.0000      -1.029866       -28.0241
  12   1.0000      -0.980059       -26.6688
  13   1.0000      -0.898462       -24.4484
  14   1.0000      -0.787130       -21.4189
  15   1.0000      -0.734927       -19.9984
  16   1.0000      -0.685126       -18.6432
  17   1.0000      -0.638759       -17.3815
  18   1.0000      -0.574169       -15.6239
  19   1.0000      -0.539270       -14.6743
  20   1.0000      -0.515864       -14.0374
  21   1.0000      -0.507815       -13.8183
  22   1.0000      -0.497068       -13.5259
  23   1.0000      -0.480102       -13.0642
  24   1.0000      -0.425344       -11.5742
  25   1.0000      -0.369902       -10.0655
  26   1.0000      -0.351480        -9.5642
  27   0.0000       0.025184         0.6853
  28   0.0000       0.032092         0.8733
  29   0.0000       0.033622         0.9149
  30   0.0000       0.037832         1.0295
  31   0.0000       0.048522         1.3203

                 SPIN DOWN ORBITALS
  NO   OCC          E(Eh)            E(eV)
   0   1.0000     -91.954882     -2502.2196
   1   1.0000     -11.269727      -306.6649
   2   1.0000     -11.232062      -305.6399
   3   1.0000     -11.230757      -305.6044
   4   1.0000     -11.229972      -305.5831
   5   1.0000     -11.228321      -305.5382
   6   1.0000      -8.956297      -243.7132
   7   1.0000      -6.638622      -180.6461
   8   1.0000      -6.637046      -180.6032
   9   1.0000      -6.621164      -180.1710
  10   1.0000      -1.152908       -31.3722
  11   1.0000      -1.004407       -27.3313
  12   1.0000      -0.978449       -26.6249
  13   1.0000      -0.852481       -23.1972
  14   1.0000      -0.773161       -21.0388
  15   1.0000      -0.728043       -19.8111
  16   1.0000      -0.678952       -18.4752
  17   1.0000      -0.632992       -17.2246
  18   1.0000      -0.561946       -15.2913
  19   1.0000      -0.535304       -14.5664
  20   1.0000      -0.513106       -13.9623
  21   1.0000      -0.504432       -13.7263
  22   1.0000      -0.496646       -13.5144
  23   1.0000      -0.469660       -12.7801
  24   1.0000      -0.359101        -9.7716
  25   1.0000      -0.342185        -9.3113
  26   0.0000       0.020726         0.5640
  27   0.0000       0.025385         0.6908
  28   0.0000       0.032772         0.8918
  29   0.0000       0.034265         0.9324
  30   0.0000       0.038570         1.0496

MULLIKEN ATOMIC CHARGES AND SPIN POPULATIONS
--------------------------------------------
   0 S :   -0.228665    1.143414
   1 C :   -0.037684   -0.214338
   2 C :   -0.493586    0.078442
   3 C :   -0.435937   -0.064303
   4 C :   -0.460387    0.009560
   5 C :   -0.502506    0.014481
   6 H :    0.244624   -0.001813
   7 H :    0.233762   -0.003023
   8 H :    0.295191   -0.003031
   9 H :    0.283948   -0.003392
  10 H :    0.246232    0.047355
  11 H :    0.447384   -0.007969
  12 H :    0.407623    0.004618
Sum of atomic charges         :   -0.0000000

LOEWDIN ATOMIC CHARGES AND SPIN POPULATIONS
-------------------------------------------
   0 S :    1.115847    0.740467
   1 C :   -0.506562    0.190926
   2 C :    0.272015    0.028080
   3 C :    0.384496   -0.012659
   4 C :    0.491579   -0.004358
   5 C :    0.399282    0.013296
   6 H :   -0.274037   -0.000774
   7 H :   -0.272145   -0.001216
   8 H :   -0.266834    0.000356
   9 H :   -0.316625    0.008838
  10 H :   -0.402034    0.036999
  11 H :   -0.324294    0.006595
  12 H :   -0.300687   -0.006552

  Mayer bond orders larger than 0.100000
B(  0-S ,  1-C ) :   0.8653 B(  0-S ,  2-C ) :  -0.1223 B(  1-C ,  2-C ) :   0.8655
B(  1-C ,  3-C ) :  -0.1185 B(  1-C ,  5-C ) :   0.9404 B(  1-C , 10-H ) :   0.8537
B(  2-C ,  3-C ) :   1.5840 B(  2-C , 11-H ) :   0.8427 B(  3-C ,  4-C ) :   0.8884
B(  3-C , 12-H ) :   0.8779 B(  4-C ,  5-C ) :   0.9672 B(  4-C ,  6-H ) :   0.9794
B(  4-C ,  7-H ) :   0.9037 B(  5-C ,  8-H ) :   0.9286 B(  5-C ,  9-H ) :   0.8766

MP2 TOTAL ENERGY:     -592.039695096 Eh
FINAL SINGLE POINT ENERGY      -592.039695095892

DIPOLE MOMENT
-------------
                                X             Y             Z
Electronic contribution:      6.91287       1.55571      -0.61412
Nuclear contribution   :     -7.67464      -1.63824       0.86603
                        -----------------------------------------
Total Dipole Moment    :     -0.76176      -0.08252       0.25191
                        -----------------------------------------
Magnitude (a.u.)       :      0.80657
Magnitude (Debye)      :      2.05013

Rotational constants in cm-1:     0.229264     0.067443     0.055542
Rotational constants in MHz :  6873.151024  2021.900953  1665.109602

                             ****ORCA TERMINATED NORMALLY****
TOTAL RUN TIME: 0 days 2 hours 9 minutes 52 seconds 307 msec
