                         Program Version 5.0.4 -  RELEASE  -
|  1> ! ri-mp2 aug-cc-pvdz aug-cc-pvdz/c tightscf
|  2> %pal nprocs 16 end
|  3> %maxcore 3800
|  4> %base "DZ_P-C_3_AB"
|  5> %scf
|  6> STABPerform true
|  7> STABRestartUHFifUnstable true
|  8> end
|  9>
| 10> *xyz 0 1
| 11> C        -0.180220    0.776024   -0.103781
| 12> P         1.387307   -0.053441    0.096834
| 13> O         1.641077   -0.763925    1.352892
| 14> O         2.431143    1.116258   -0.203682
| 15> C        -1.375274   -0.160155    0.040763
| 16> H        -0.210244    1.564597    0.651173
| 17> C        -2.703888    0.573201   -0.068915
| 18> H        -1.317535   -0.672656    1.003850
| 19> H        -1.323413   -0.935284   -0.727530
| 20> C        -3.898311   -0.356809    0.069181
| 21> H        -2.750572    1.093010   -1.030168
| 22> H        -2.750631    1.349194    0.700350
| 23> H        -3.891039   -1.122827   -0.708386
| 24> H        -4.839110    0.188211   -0.009990
| 25> H        -3.888677   -0.866431    1.034276
| 26> H        -0.177588    1.266090   -1.079944
| 27> H         3.220478    1.042136    0.344962
| 28> O         1.459213   -1.005398   -1.185813
| 29> H         1.813424   -1.873470   -0.961770
| 30> *
| 31>
| 32> $new_job
| 33> ! ri-mp2 aug-cc-pvtz aug-cc-pvtz/c tightscf
| 34> %pal nprocs 16 end
| 35> %maxcore 3800
| 36> %base "TZ_P-C_3_AB"
| 37>
| 38> *xyz 0 1
| 39> C        -0.180220    0.776024   -0.103781
| 40> P         1.387307   -0.053441    0.096834
| 41> O         1.641077   -0.763925    1.352892
| 42> O         2.431143    1.116258   -0.203682
| 43> C        -1.375274   -0.160155    0.040763
| 44> H        -0.210244    1.564597    0.651173
| 45> C        -2.703888    0.573201   -0.068915
| 46> H        -1.317535   -0.672656    1.003850
| 47> H        -1.323413   -0.935284   -0.727530
| 48> C        -3.898311   -0.356809    0.069181
| 49> H        -2.750572    1.093010   -1.030168
| 50> H        -2.750631    1.349194    0.700350
| 51> H        -3.891039   -1.122827   -0.708386
| 52> H        -4.839110    0.188211   -0.009990
| 53> H        -3.888677   -0.866431    1.034276
| 54> H        -0.177588    1.266090   -1.079944
| 55> H         3.220478    1.042136    0.344962
| 56> O         1.459213   -1.005398   -1.185813
| 57> H         1.813424   -1.873470   -0.961770
| 58> *
| 59>
| 60> $new_job
| 61> ! ri-mp2 aug-cc-pvqz aug-cc-pvqz/c tightscf
| 62> %pal nprocs 16 end
| 63> %maxcore 3800
| 64> %base "QZ_P-C_3_AB"
| 65>
| 66> *xyz 0 1
| 67> C        -0.180220    0.776024   -0.103781
| 68> P         1.387307   -0.053441    0.096834
| 69> O         1.641077   -0.763925    1.352892
| 70> O         2.431143    1.116258   -0.203682
| 71> C        -1.375274   -0.160155    0.040763
| 72> H        -0.210244    1.564597    0.651173
| 73> C        -2.703888    0.573201   -0.068915
| 74> H        -1.317535   -0.672656    1.003850
| 75> H        -1.323413   -0.935284   -0.727530
| 76> C        -3.898311   -0.356809    0.069181
| 77> H        -2.750572    1.093010   -1.030168
| 78> H        -2.750631    1.349194    0.700350
| 79> H        -3.891039   -1.122827   -0.708386
| 80> H        -4.839110    0.188211   -0.009990
| 81> H        -3.888677   -0.866431    1.034276
| 82> H        -0.177588    1.266090   -1.079944
| 83> H         3.220478    1.042136    0.344962
| 84> O         1.459213   -1.005398   -1.185813
| 85> H         1.813424   -1.873470   -0.961770
| 86> *
| 87>
| 88>
| 89>
| 90>
| 91>                          ****END OF INPUT****
 Total Charge           Charge          ....    0
 Multiplicity           Mult            ....    1
 Number of Electrons    NEL             ....   74
MP2 TOTAL ENERGY:     -724.671172927 Eh
FINAL SINGLE POINT ENERGY      -724.671172927062
MP2 TOTAL ENERGY:     -725.093355168 Eh
FINAL SINGLE POINT ENERGY      -725.093355167532

CARTESIAN COORDINATES (ANGSTROEM)
---------------------------------
  C     -0.180220    0.776024   -0.103781
  P      1.387307   -0.053441    0.096834
  O      1.641077   -0.763925    1.352892
  O      2.431143    1.116258   -0.203682
  C     -1.375274   -0.160155    0.040763
  H     -0.210244    1.564597    0.651173
  C     -2.703888    0.573201   -0.068915
  H     -1.317535   -0.672656    1.003850
  H     -1.323413   -0.935284   -0.727530
  C     -3.898311   -0.356809    0.069181
  H     -2.750572    1.093010   -1.030168
  H     -2.750631    1.349194    0.700350
  H     -3.891039   -1.122827   -0.708386
  H     -4.839110    0.188211   -0.009990
  H     -3.888677   -0.866431    1.034276
  H     -0.177588    1.266090   -1.079944
  H      3.220478    1.042136    0.344962
  O      1.459213   -1.005398   -1.185813
  H      1.813424   -1.873470   -0.961770

 Multiplicity           Mult            ....    1
 Number of Electrons    NEL             ....   74
 Basis Dimension        Dim             .... 1150

ORBITAL ENERGIES
----------------

  NO   OCC          E(Eh)            E(eV)
   0   2.0000     -80.061421     -2178.5820
   1   2.0000     -20.594353      -560.4008
   2   2.0000     -20.593324      -560.3728
   3   2.0000     -20.501139      -557.8643
   4   2.0000     -11.237103      -305.7771
   5   2.0000     -11.230363      -305.5937
   6   2.0000     -11.224197      -305.4259
   7   2.0000     -11.214379      -305.1588
   8   2.0000      -7.584754      -206.3917
   9   2.0000      -5.482886      -149.1969
  10   2.0000      -5.482404      -149.1838
  11   2.0000      -5.481307      -149.1540
  12   2.0000      -1.431681       -38.9580
  13   2.0000      -1.381821       -37.6013
  14   2.0000      -1.293547       -35.1992
  15   2.0000      -1.092693       -29.7337
  16   2.0000      -1.010820       -27.5058
  17   2.0000      -0.902100       -24.5474
  18   2.0000      -0.824188       -22.4273
  19   2.0000      -0.801147       -21.8003
  20   2.0000      -0.738093       -20.0845
  21   2.0000      -0.677482       -18.4352
  22   2.0000      -0.655394       -17.8342
  23   2.0000      -0.647838       -17.6286
  24   2.0000      -0.630235       -17.1496
  25   2.0000      -0.597217       -16.2511
  26   2.0000      -0.590683       -16.0733
  27   2.0000      -0.560995       -15.2655
  28   2.0000      -0.553234       -15.0543
  29   2.0000      -0.539860       -14.6903
  30   2.0000      -0.522867       -14.2279
  31   2.0000      -0.513867       -13.9830
  32   2.0000      -0.486153       -13.2289
  33   2.0000      -0.479823       -13.0567
  34   2.0000      -0.475471       -12.9382
  35   2.0000      -0.461656       -12.5623
  36   2.0000      -0.443959       -12.0807
  37   0.0000       0.023558         0.6410
  38   0.0000       0.028323         0.7707
  39   0.0000       0.031764         0.8643
  40   0.0000       0.036590         0.9957
  41   0.0000       0.042364         1.1528

MULLIKEN ATOMIC CHARGES
-----------------------
   0 C :   -0.807536
   1 P :    2.484468
   2 O :   -1.235661
   3 O :   -1.013784
   4 C :   -0.112651
   5 H :    0.280824
   6 C :   -0.466089
   7 H :    0.261169
   8 H :    0.236905
   9 C :   -0.891219
  10 H :    0.221736
  11 H :    0.226817
  12 H :    0.226530
  13 H :    0.270016
  14 H :    0.224615
  15 H :    0.284948
  16 H :    0.377210
  17 O :   -0.958137
  18 H :    0.389838
Sum of atomic charges:   -0.0000000

LOEWDIN ATOMIC CHARGES
----------------------
   0 C :    0.474106
   1 P :   -0.616118
   2 O :    0.327697
   3 O :    1.110417
   4 C :    0.458634
   5 H :   -0.318742
   6 C :    0.504716
   7 H :   -0.277593
   8 H :   -0.279154
   9 C :    0.929226
  10 H :   -0.270610
  11 H :   -0.271003
  12 H :   -0.282686
  13 H :   -0.281733
  14 H :   -0.282195
  15 H :   -0.313190
  16 H :   -0.864148
  17 O :    1.116501
  18 H :   -0.864126

  Mayer bond orders larger than 0.100000
B(  0-C ,  1-P ) :   1.0853 B(  0-C ,  3-O ) :  -0.1476 B(  0-C ,  4-C ) :   0.8743
B(  0-C ,  5-H ) :   0.8830 B(  0-C , 15-H ) :   0.8706 B(  1-P ,  2-O ) :   1.2500
B(  1-P ,  3-O ) :   0.5424 B(  1-P ,  5-H ) :   0.1012 B(  1-P , 17-O ) :   0.6092
B(  2-O , 18-H ) :  -0.1064 B(  3-O , 16-H ) :   0.9276 B(  4-C ,  6-C ) :   0.9143
B(  4-C ,  7-H ) :   0.8535 B(  4-C ,  8-H ) :   0.8660 B(  4-C ,  9-C ) :  -0.1044
B(  6-C ,  9-C ) :   1.0169 B(  6-C , 10-H ) :   0.8926 B(  6-C , 11-H ) :   0.8832
B(  6-C , 13-H ) :  -0.1008 B(  9-C , 12-H ) :   0.9529 B(  9-C , 13-H ) :   1.0198
B(  9-C , 14-H ) :   0.9531 B( 17-O , 18-H ) :   0.9240

MP2 TOTAL ENERGY:     -725.227115805 Eh
FINAL SINGLE POINT ENERGY      -725.227115805063

DIPOLE MOMENT
-------------
                                X             Y             Z
Electronic contribution:     17.25201      -0.81996       0.31065
Nuclear contribution   :    -17.45879       1.07997      -0.88152
                        -----------------------------------------
Total Dipole Moment    :     -0.20678       0.26001      -0.57087
                        -----------------------------------------
Magnitude (a.u.)       :      0.66050
Magnitude (Debye)      :      1.67885

Rotational constants in cm-1:     0.125770     0.025178     0.024674
Rotational constants in MHz :  3770.482040   754.830541   739.704632

                             ****ORCA TERMINATED NORMALLY****
TOTAL RUN TIME: 0 days 3 hours 24 minutes 3 seconds 677 msec
