                         Program Version 5.0.4 -  RELEASE  -
|  1> ! ri-mp2 aug-cc-pvdz aug-cc-pvdz/c tightscf
|  2> %pal nprocs 16 end
|  3> %maxcore 3800
|  4> %base "DZ_S-S_11_AB"
|  5>
|  6> *xyz 0 1
|  7> C         3.587272   -0.726025    0.569617
|  8> O         2.897861   -0.894542    1.524448
|  9> S         3.260148    0.540918   -0.681230
| 10> S         1.544834    1.365735    0.007460
| 11> C         0.345845    0.096751   -0.471406
| 12> O         0.681401   -0.939705   -0.960693
| 13> C         4.794426   -1.548471    0.222622
| 14> H         5.505132   -0.997698   -0.391360
| 15> H         4.456450   -2.420112   -0.339933
| 16> H         5.268396   -1.887450    1.140968
| 17> C        -1.069564    0.439694   -0.164277
| 18> C        -1.478505    1.721247    0.178528
| 19> C        -2.812696    1.967600    0.446524
| 20> C        -3.741142    0.944914    0.378484
| 21> C        -3.322338   -0.329713    0.034569
| 22> C        -1.997233   -0.592155   -0.239657
| 23> H        -3.135328    2.965377    0.709658
| 24> H        -0.766648    2.533097    0.225867
| 25> H        -4.785137    1.128311    0.588475
| 26> H        -1.668697   -1.584504   -0.510563
| 27> Cl        -4.483785   -1.612503   -0.051932
| 28> *
| 29>
| 30> $new_job
| 31> ! ri-mp2 aug-cc-pvtz aug-cc-pvtz/c tightscf
| 32> %pal nprocs 16 end
| 33> %maxcore 3800
| 34> %base "TZ_S-S_11_AB"
| 35>
| 36> *xyz 0 1
| 37> C         3.587272   -0.726025    0.569617
| 38> O         2.897861   -0.894542    1.524448
| 39> S         3.260148    0.540918   -0.681230
| 40> S         1.544834    1.365735    0.007460
| 41> C         0.345845    0.096751   -0.471406
| 42> O         0.681401   -0.939705   -0.960693
| 43> C         4.794426   -1.548471    0.222622
| 44> H         5.505132   -0.997698   -0.391360
| 45> H         4.456450   -2.420112   -0.339933
| 46> H         5.268396   -1.887450    1.140968
| 47> C        -1.069564    0.439694   -0.164277
| 48> C        -1.478505    1.721247    0.178528
| 49> C        -2.812696    1.967600    0.446524
| 50> C        -3.741142    0.944914    0.378484
| 51> C        -3.322338   -0.329713    0.034569
| 52> C        -1.997233   -0.592155   -0.239657
| 53> H        -3.135328    2.965377    0.709658
| 54> H        -0.766648    2.533097    0.225867
| 55> H        -4.785137    1.128311    0.588475
| 56> H        -1.668697   -1.584504   -0.510563
| 57> Cl        -4.483785   -1.612503   -0.051932
| 58> *
| 59>
| 60> $new_job
| 61> ! ri-mp2 aug-cc-pvqz aug-cc-pvqz/c tightscf
| 62> %pal nprocs 16 end
| 63> %maxcore 3800
| 64> %base "QZ_S-S_11_AB"
| 65>
| 66> *xyz 0 1
| 67> C         3.587272   -0.726025    0.569617
| 68> O         2.897861   -0.894542    1.524448
| 69> S         3.260148    0.540918   -0.681230
| 70> S         1.544834    1.365735    0.007460
| 71> C         0.345845    0.096751   -0.471406
| 72> O         0.681401   -0.939705   -0.960693
| 73> C         4.794426   -1.548471    0.222622
| 74> H         5.505132   -0.997698   -0.391360
| 75> H         4.456450   -2.420112   -0.339933
| 76> H         5.268396   -1.887450    1.140968
| 77> C        -1.069564    0.439694   -0.164277
| 78> C        -1.478505    1.721247    0.178528
| 79> C        -2.812696    1.967600    0.446524
| 80> C        -3.741142    0.944914    0.378484
| 81> C        -3.322338   -0.329713    0.034569
| 82> C        -1.997233   -0.592155   -0.239657
| 83> H        -3.135328    2.965377    0.709658
| 84> H        -0.766648    2.533097    0.225867
| 85> H        -4.785137    1.128311    0.588475
| 86> H        -1.668697   -1.584504   -0.510563
| 87> Cl        -4.483785   -1.612503   -0.051932
| 88> *
| 89>
| 90>
| 91>
| 92>
| 93>                          ****END OF INPUT****
 Total Charge           Charge          ....    0
 Multiplicity           Mult            ....    1
 Number of Electrons    NEL             ....  126
MP2 TOTAL ENERGY:    -1751.287123063 Eh
FINAL SINGLE POINT ENERGY     -1751.287123063405
MP2 TOTAL ENERGY:    -1751.872737916 Eh
FINAL SINGLE POINT ENERGY     -1751.872737915838

CARTESIAN COORDINATES (ANGSTROEM)
---------------------------------
  C      3.587272   -0.726025    0.569617
  O      2.897861   -0.894542    1.524448
  S      3.260148    0.540918   -0.681230
  S      1.544834    1.365735    0.007460
  C      0.345845    0.096751   -0.471406
  O      0.681401   -0.939705   -0.960693
  C      4.794426   -1.548471    0.222622
  H      5.505132   -0.997698   -0.391360
  H      4.456450   -2.420112   -0.339933
  H      5.268396   -1.887450    1.140968
  C     -1.069564    0.439694   -0.164277
  C     -1.478505    1.721247    0.178528
  C     -2.812696    1.967600    0.446524
  C     -3.741142    0.944914    0.378484
  C     -3.322338   -0.329713    0.034569
  C     -1.997233   -0.592155   -0.239657
  H     -3.135328    2.965377    0.709658
  H     -0.766648    2.533097    0.225867
  H     -4.785137    1.128311    0.588475
  H     -1.668697   -1.584504   -0.510563
  Cl    -4.483785   -1.612503   -0.051932

 Multiplicity           Mult            ....    1
 Number of Electrons    NEL             ....  126
 Basis Dimension        Dim             .... 1454

ORBITAL ENERGIES
----------------

  NO   OCC          E(Eh)            E(eV)
   0   2.0000    -104.848116     -2853.0623
   1   2.0000     -91.999853     -2503.4433
   2   2.0000     -91.997963     -2503.3919
   3   2.0000     -20.569097      -559.7136
   4   2.0000     -20.566632      -559.6465
   5   2.0000     -11.377607      -309.6004
   6   2.0000     -11.371923      -309.4457
   7   2.0000     -11.314067      -307.8714
   8   2.0000     -11.272400      -306.7376
   9   2.0000     -11.268348      -306.6273
  10   2.0000     -11.267549      -306.6056
  11   2.0000     -11.265479      -306.5493
  12   2.0000     -11.261311      -306.4359
  13   2.0000     -11.252236      -306.1889
  14   2.0000     -10.573708      -287.7252
  15   2.0000      -9.001476      -244.9426
  16   2.0000      -8.999557      -244.8904
  17   2.0000      -8.040872      -218.8032
  18   2.0000      -8.039077      -218.7544
  19   2.0000      -8.039027      -218.7530
  20   2.0000      -6.682743      -181.8467
  21   2.0000      -6.681447      -181.8114
  22   2.0000      -6.680793      -181.7936
  23   2.0000      -6.680726      -181.7918
  24   2.0000      -6.679422      -181.7563
  25   2.0000      -6.678782      -181.7389
  26   2.0000      -1.426975       -38.8300
  27   2.0000      -1.422209       -38.7003
  28   2.0000      -1.213464       -33.0200
  29   2.0000      -1.143332       -31.1117
  30   2.0000      -1.098588       -29.8941
  31   2.0000      -1.066759       -29.0280
  32   2.0000      -1.037746       -28.2385
  33   2.0000      -1.018722       -27.7208
  34   2.0000      -0.943978       -25.6869
  35   2.0000      -0.880092       -23.9485
  36   2.0000      -0.850650       -23.1474
  37   2.0000      -0.777475       -21.1562
  38   2.0000      -0.739214       -20.1150
  39   2.0000      -0.724341       -19.7103
  40   2.0000      -0.687889       -18.7184
  41   2.0000      -0.671213       -18.2646
  42   2.0000      -0.660423       -17.9710
  43   2.0000      -0.650119       -17.6906
  44   2.0000      -0.638323       -17.3696
  45   2.0000      -0.628204       -17.0943
  46   2.0000      -0.612740       -16.6735
  47   2.0000      -0.607338       -16.5265
  48   2.0000      -0.594507       -16.1774
  49   2.0000      -0.570549       -15.5254
  50   2.0000      -0.552805       -15.0426
  51   2.0000      -0.551023       -14.9941
  52   2.0000      -0.531752       -14.4697
  53   2.0000      -0.528092       -14.3701
  54   2.0000      -0.491387       -13.3713
  55   2.0000      -0.482243       -13.1225
  56   2.0000      -0.465823       -12.6757
  57   2.0000      -0.438209       -11.9243
  58   2.0000      -0.433321       -11.7913
  59   2.0000      -0.396065       -10.7775
  60   2.0000      -0.381158       -10.3718
  61   2.0000      -0.369326       -10.0499
  62   2.0000      -0.353053        -9.6071
  63   0.0000       0.021718         0.5910
  64   0.0000       0.024774         0.6741
  65   0.0000       0.032166         0.8753
  66   0.0000       0.038478         1.0470
  67   0.0000       0.041541         1.1304

MULLIKEN ATOMIC CHARGES
-----------------------
   0 C :    0.583091
   1 O :   -0.755621
   2 S :    0.047367
   3 S :    0.037318
   4 C :    0.824748
   5 O :   -0.825101
   6 C :   -0.807969
   7 H :    0.268837
   8 H :    0.318712
   9 H :    0.299938
  10 C :   -0.184933
  11 C :   -0.039225
  12 C :   -0.337991
  13 C :   -0.094608
  14 C :   -0.443307
  15 C :   -0.020682
  16 H :    0.233051
  17 H :    0.291582
  18 H :    0.448588
  19 H :    0.492183
  20 Cl:   -0.335977
Sum of atomic charges:   -0.0000000

LOEWDIN ATOMIC CHARGES
----------------------
   0 C :   -1.164736
   1 O :    0.629481
   2 S :    0.752412
   3 S :    0.763016
   4 C :   -1.152806
   5 O :    0.645848
   6 C :    0.775654
   7 H :   -0.344926
   8 H :   -0.302774
   9 H :   -0.314687
  10 C :   -0.242235
  11 C :    0.277394
  12 C :    0.351623
  13 C :    0.212234
  14 C :   -0.844791
  15 C :    0.169769
  16 H :   -0.314382
  17 H :   -0.393284
  18 H :   -0.348855
  19 H :   -0.369214
  20 Cl:    1.215258

  Mayer bond orders larger than 0.100000
B(  0-C ,  1-O ) :   1.4473 B(  0-C ,  2-S ) :   0.9631 B(  0-C ,  6-C ) :   0.8613
B(  2-S ,  3-S ) :   1.0726 B(  2-S ,  4-C ) :  -0.1145 B(  3-S ,  4-C ) :   0.9829
B(  3-S , 10-C ) :  -0.1185 B(  4-C ,  5-O ) :   1.1076 B(  4-C , 10-C ) :   0.9167
B(  4-C , 11-C ) :  -0.4473 B(  4-C , 15-C ) :  -0.3870 B(  5-O , 10-C ) :   0.3764
B(  6-C ,  7-H ) :   0.9757 B(  6-C ,  8-H ) :   0.8618 B(  6-C ,  9-H ) :   0.9683
B( 10-C , 11-C ) :   1.0548 B( 10-C , 12-C ) :  -0.2723 B( 10-C , 14-C ) :  -0.2605
B( 10-C , 15-C ) :   1.1039 B( 10-C , 17-H ) :  -0.1341 B( 10-C , 19-H ) :  -0.1512
B( 11-C , 12-C ) :   1.1462 B( 11-C , 14-C ) :   0.1231 B( 11-C , 16-H ) :  -0.1269
B( 11-C , 17-H ) :   0.9805 B( 12-C , 13-C ) :   1.2349 B( 12-C , 14-C ) :  -0.1039
B( 12-C , 15-C ) :   0.1113 B( 12-C , 16-H ) :   1.1447 B( 13-C , 14-C ) :   1.1730
B( 13-C , 16-H ) :  -0.1134 B( 13-C , 18-H ) :   0.8137 B( 13-C , 20-Cl) :  -0.2360
B( 14-C , 15-C ) :   1.3068 B( 14-C , 20-Cl) :   1.2129 B( 15-C , 19-H ) :   0.7161
B( 15-C , 20-Cl) :  -0.2487

MP2 TOTAL ENERGY:    -1752.064713497 Eh
FINAL SINGLE POINT ENERGY     -1752.064713497027

DIPOLE MOMENT
-------------
                                X             Y             Z
Electronic contribution:    -10.46795      -1.06288      -1.59552
Nuclear contribution   :     10.73922       1.87622       1.46464
                        -----------------------------------------
Total Dipole Moment    :      0.27127       0.81334      -0.13088
                        -----------------------------------------
Magnitude (a.u.)       :      0.86731
Magnitude (Debye)      :      2.20453

Rotational constants in cm-1:     0.038765     0.007067     0.006347
Rotational constants in MHz :  1162.145236   211.849452   190.293179

                             ****ORCA TERMINATED NORMALLY****
TOTAL RUN TIME: 0 days 1 hours 17 minutes 20 seconds 977 msec
