                         Program Version 5.0.4 -  RELEASE  -
|  1> ! ri-mp2 aug-cc-pvdz aug-cc-pvdz/c tightscf
|  2> %pal nprocs 16 end
|  3> %maxcore 3800
|  4> %base "DZ_S-Cl_79_AB"
|  5>
|  6> *xyz 0 1
|  7> Cl         3.231814   -0.233489    0.999610
|  8> S         2.381406   -0.014081   -0.862811
|  9> C         0.675760    0.095162   -0.478173
| 10> C         0.086850    1.331407   -0.208740
| 11> C        -1.258683    1.420622    0.051650
| 12> C        -2.048505    0.271165    0.046131
| 13> C        -0.116732   -1.042985   -0.481701
| 14> H         0.337502   -2.002347   -0.687946
| 15> C        -1.473806   -0.965753   -0.223385
| 16> H        -2.067947   -1.866254   -0.234149
| 17> H         0.702067    2.220575   -0.204861
| 18> O        -3.356391    0.456399    0.310498
| 19> C        -4.212505   -0.667127    0.325838
| 20> H        -4.235296   -1.161086   -0.648170
| 21> H        -5.202614   -0.287358    0.560095
| 22> H        -3.909625   -1.385274    1.091106
| 23> H        -1.730555    2.370205    0.261824
| 24> *
| 25>
| 26> $new_job
| 27> ! ri-mp2 aug-cc-pvtz aug-cc-pvtz/c tightscf
| 28> %pal nprocs 16 end
| 29> %maxcore 3800
| 30> %base "TZ_S-Cl_79_AB"
| 31>
| 32> *xyz 0 1
| 33> Cl         3.231814   -0.233489    0.999610
| 34> S         2.381406   -0.014081   -0.862811
| 35> C         0.675760    0.095162   -0.478173
| 36> C         0.086850    1.331407   -0.208740
| 37> C        -1.258683    1.420622    0.051650
| 38> C        -2.048505    0.271165    0.046131
| 39> C        -0.116732   -1.042985   -0.481701
| 40> H         0.337502   -2.002347   -0.687946
| 41> C        -1.473806   -0.965753   -0.223385
| 42> H        -2.067947   -1.866254   -0.234149
| 43> H         0.702067    2.220575   -0.204861
| 44> O        -3.356391    0.456399    0.310498
| 45> C        -4.212505   -0.667127    0.325838
| 46> H        -4.235296   -1.161086   -0.648170
| 47> H        -5.202614   -0.287358    0.560095
| 48> H        -3.909625   -1.385274    1.091106
| 49> H        -1.730555    2.370205    0.261824
| 50> *
| 51>
| 52> $new_job
| 53> ! ri-mp2 aug-cc-pvqz aug-cc-pvqz/c tightscf
| 54> %pal nprocs 16 end
| 55> %maxcore 3800
| 56> %base "QZ_S-Cl_79_AB"
| 57>
| 58> *xyz 0 1
| 59> Cl         3.231814   -0.233489    0.999610
| 60> S         2.381406   -0.014081   -0.862811
| 61> C         0.675760    0.095162   -0.478173
| 62> C         0.086850    1.331407   -0.208740
| 63> C        -1.258683    1.420622    0.051650
| 64> C        -2.048505    0.271165    0.046131
| 65> C        -0.116732   -1.042985   -0.481701
| 66> H         0.337502   -2.002347   -0.687946
| 67> C        -1.473806   -0.965753   -0.223385
| 68> H        -2.067947   -1.866254   -0.234149
| 69> H         0.702067    2.220575   -0.204861
| 70> O        -3.356391    0.456399    0.310498
| 71> C        -4.212505   -0.667127    0.325838
| 72> H        -4.235296   -1.161086   -0.648170
| 73> H        -5.202614   -0.287358    0.560095
| 74> H        -3.909625   -1.385274    1.091106
| 75> H        -1.730555    2.370205    0.261824
| 76> *
| 77>
| 78>
| 79>
| 80>
| 81>                          ****END OF INPUT****
 Total Charge           Charge          ....    0
 Multiplicity           Mult            ....    1
 Number of Electrons    NEL             ....   90
MP2 TOTAL ENERGY:    -1202.505200761 Eh
FINAL SINGLE POINT ENERGY     -1202.505200761259
MP2 TOTAL ENERGY:    -1202.922595050 Eh
FINAL SINGLE POINT ENERGY     -1202.922595050175

CARTESIAN COORDINATES (ANGSTROEM)
---------------------------------
  Cl     3.231814   -0.233489    0.999610
  S      2.381406   -0.014081   -0.862811
  C      0.675760    0.095162   -0.478173
  C      0.086850    1.331407   -0.208740
  C     -1.258683    1.420622    0.051650
  C     -2.048505    0.271165    0.046131
  C     -0.116732   -1.042985   -0.481701
  H      0.337502   -2.002347   -0.687946
  C     -1.473806   -0.965753   -0.223385
  H     -2.067947   -1.866254   -0.234149
  H      0.702067    2.220575   -0.204861
  O     -3.356391    0.456399    0.310498
  C     -4.212505   -0.667127    0.325838
  H     -4.235296   -1.161086   -0.648170
  H     -5.202614   -0.287358    0.560095
  H     -3.909625   -1.385274    1.091106
  H     -1.730555    2.370205    0.261824

 Multiplicity           Mult            ....    1
 Number of Electrons    NEL             ....   90
 Basis Dimension        Dim             .... 1130

ORBITAL ENERGIES
----------------

  NO   OCC          E(Eh)            E(eV)
   0   2.0000    -104.837018     -2852.7603
   1   2.0000     -92.002633     -2503.5189
   2   2.0000     -20.600995      -560.5816
   3   2.0000     -11.322076      -308.0893
   4   2.0000     -11.296274      -307.3873
   5   2.0000     -11.264179      -306.5139
   6   2.0000     -11.260800      -306.4220
   7   2.0000     -11.257791      -306.3401
   8   2.0000     -11.243238      -305.9441
   9   2.0000     -11.238836      -305.8243
  10   2.0000     -10.561418      -287.3908
  11   2.0000      -9.000447      -244.9146
  12   2.0000      -8.028366      -218.4630
  13   2.0000      -8.026511      -218.4125
  14   2.0000      -8.026329      -218.4075
  15   2.0000      -6.681751      -181.8197
  16   2.0000      -6.680221      -181.7781
  17   2.0000      -6.679132      -181.7484
  18   2.0000      -1.435260       -39.0554
  19   2.0000      -1.181679       -32.1551
  20   2.0000      -1.125125       -30.6162
  21   2.0000      -1.049713       -28.5641
  22   2.0000      -1.041790       -28.3486
  23   2.0000      -0.972280       -26.4571
  24   2.0000      -0.902469       -24.5574
  25   2.0000      -0.856099       -23.2956
  26   2.0000      -0.805352       -21.9147
  27   2.0000      -0.738614       -20.0987
  28   2.0000      -0.691520       -18.8172
  29   2.0000      -0.674530       -18.3549
  30   2.0000      -0.653253       -17.7759
  31   2.0000      -0.632796       -17.2192
  32   2.0000      -0.610162       -16.6034
  33   2.0000      -0.600410       -16.3380
  34   2.0000      -0.558466       -15.1966
  35   2.0000      -0.543935       -14.8012
  36   2.0000      -0.537325       -14.6214
  37   2.0000      -0.522925       -14.2295
  38   2.0000      -0.501947       -13.6587
  39   2.0000      -0.493297       -13.4233
  40   2.0000      -0.475760       -12.9461
  41   2.0000      -0.434396       -11.8205
  42   2.0000      -0.363249        -9.8845
  43   2.0000      -0.355655        -9.6779
  44   2.0000      -0.332299        -9.0423
  45   0.0000       0.019851         0.5402
  46   0.0000       0.027717         0.7542
  47   0.0000       0.031910         0.8683
  48   0.0000       0.036847         1.0027
  49   0.0000       0.043602         1.1865

MULLIKEN ATOMIC CHARGES
-----------------------
   0 Cl:   -0.342166
   1 S :    0.068725
   2 C :   -0.411956
   3 C :   -0.220009
   4 C :   -0.442592
   5 C :    1.134096
   6 C :   -0.153555
   7 H :    0.350344
   8 C :   -0.401113
   9 H :    0.223524
  10 H :    0.361943
  11 O :   -0.781996
  12 C :   -0.656678
  13 H :    0.244984
  14 H :    0.498427
  15 H :    0.248693
  16 H :    0.279329
Sum of atomic charges:   -0.0000000

LOEWDIN ATOMIC CHARGES
----------------------
   0 Cl:    0.456568
   1 S :    0.461003
   2 C :   -0.695517
   3 C :    0.203239
   4 C :    0.324940
   5 C :   -0.464158
   6 C :    0.209009
   7 H :   -0.345923
   8 C :    0.331560
   9 H :   -0.358859
  10 H :   -0.346151
  11 O :    0.889118
  12 C :    0.583600
  13 H :   -0.304621
  14 H :   -0.314443
  15 H :   -0.304401
  16 H :   -0.324962

  Mayer bond orders larger than 0.100000
B(  0-Cl,  1-S ) :   0.9733 B(  0-Cl,  2-C ) :  -0.1786 B(  1-S ,  2-C ) :   1.3940
B(  1-S ,  3-C ) :  -0.3606 B(  1-S ,  6-C ) :  -0.3610 B(  2-C ,  3-C ) :   1.0678
B(  2-C ,  6-C ) :   1.1624 B(  2-C ,  8-C ) :  -0.1708 B(  3-C ,  4-C ) :   1.4485
B(  3-C ,  5-C ) :  -0.2766 B(  3-C , 10-H ) :   0.9426 B(  4-C ,  5-C ) :   0.9849
B(  4-C ,  6-C ) :   0.1381 B(  4-C ,  8-C ) :  -0.1179 B(  4-C , 10-H ) :  -0.1170
B(  4-C , 11-O ) :   0.2301 B(  4-C , 16-H ) :   0.9863 B(  5-C ,  6-C ) :  -0.1864
B(  5-C ,  8-C ) :   1.2404 B(  5-C ,  9-H ) :  -0.1174 B(  5-C , 11-O ) :   0.1732
B(  5-C , 12-C ) :  -0.1330 B(  5-C , 16-H ) :  -0.1368 B(  6-C ,  7-H ) :   0.9426
B(  6-C ,  8-C ) :   1.0875 B(  7-H ,  8-C ) :  -0.1280 B(  8-C ,  9-H ) :   1.0952
B(  8-C , 11-O ) :   0.1527 B(  8-C , 12-C ) :   0.1323 B( 11-O , 12-C ) :   0.9080
B( 12-C , 13-H ) :   0.9297 B( 12-C , 14-H ) :   0.7414 B( 12-C , 15-H ) :   0.9260

MP2 TOTAL ENERGY:    -1203.056945049 Eh
FINAL SINGLE POINT ENERGY     -1203.056945048857

DIPOLE MOMENT
-------------
                                X             Y             Z
Electronic contribution:     18.61753       1.31930       1.05041
Nuclear contribution   :    -20.18551      -1.71293      -1.22012
                        -----------------------------------------
Total Dipole Moment    :     -1.56798      -0.39363      -0.16971
                        -----------------------------------------
Magnitude (a.u.)       :      1.62552
Magnitude (Debye)      :      4.13174

Rotational constants in cm-1:     0.096835     0.014232     0.013862
Rotational constants in MHz :  2903.045983   426.651849   415.581098

                             ****ORCA TERMINATED NORMALLY****
TOTAL RUN TIME: 0 days 0 hours 44 minutes 48 seconds 971 msec
