                         Program Version 5.0.4 -  RELEASE  -
|  1> ! ri-mp2 aug-cc-pvdz aug-cc-pvdz/c tightscf
|  2> %pal nprocs 16 end
|  3> %maxcore 3800
|  4> %base "DZ_B-Si_3_AB"
|  5> %scf
|  6> STABPerform true
|  7> STABRestartUHFifUnstable true
|  8> end
|  9>
| 10> *xyz 0 1
| 11> Si         0.435839    1.241875   -0.147916
| 12> B         1.738896   -0.310140   -0.029929
| 13> O         2.832254   -0.352130    0.788786
| 14> O         1.518576   -1.391287   -0.823538
| 15> C        -1.310524    0.659873   -0.508801
| 16> C        -1.870037   -0.304569    0.536007
| 17> H        -1.305879    0.176559   -1.490290
| 18> H        -1.964478    1.531686   -0.601178
| 19> C        -3.284843   -0.766404    0.220252
| 20> H        -1.856769    0.172568    1.520207
| 21> H        -1.215121   -1.176765    0.611416
| 22> H        -3.970336    0.081611    0.168773
| 23> H        -3.660375   -1.454415    0.978985
| 24> H        -3.320406   -1.278528   -0.742978
| 25> H         2.943652    0.417631    1.350783
| 26> H         2.187599   -2.078709   -0.714380
| 27> H         0.886940    2.186884   -1.201927
| 28> H         0.464740    1.999860    1.134333
| 29> *
| 30>
| 31> $new_job
| 32> ! ri-mp2 aug-cc-pvtz aug-cc-pvtz/c tightscf
| 33> %pal nprocs 16 end
| 34> %maxcore 3800
| 35> %base "TZ_B-Si_3_AB"
| 36>
| 37> *xyz 0 1
| 38> Si         0.435839    1.241875   -0.147916
| 39> B         1.738896   -0.310140   -0.029929
| 40> O         2.832254   -0.352130    0.788786
| 41> O         1.518576   -1.391287   -0.823538
| 42> C        -1.310524    0.659873   -0.508801
| 43> C        -1.870037   -0.304569    0.536007
| 44> H        -1.305879    0.176559   -1.490290
| 45> H        -1.964478    1.531686   -0.601178
| 46> C        -3.284843   -0.766404    0.220252
| 47> H        -1.856769    0.172568    1.520207
| 48> H        -1.215121   -1.176765    0.611416
| 49> H        -3.970336    0.081611    0.168773
| 50> H        -3.660375   -1.454415    0.978985
| 51> H        -3.320406   -1.278528   -0.742978
| 52> H         2.943652    0.417631    1.350783
| 53> H         2.187599   -2.078709   -0.714380
| 54> H         0.886940    2.186884   -1.201927
| 55> H         0.464740    1.999860    1.134333
| 56> *
| 57>
| 58> $new_job
| 59> ! ri-mp2 aug-cc-pvqz aug-cc-pvqz/c tightscf
| 60> %pal nprocs 16 end
| 61> %maxcore 3800
| 62> %base "QZ_B-Si_3_AB"
| 63>
| 64> *xyz 0 1
| 65> Si         0.435839    1.241875   -0.147916
| 66> B         1.738896   -0.310140   -0.029929
| 67> O         2.832254   -0.352130    0.788786
| 68> O         1.518576   -1.391287   -0.823538
| 69> C        -1.310524    0.659873   -0.508801
| 70> C        -1.870037   -0.304569    0.536007
| 71> H        -1.305879    0.176559   -1.490290
| 72> H        -1.964478    1.531686   -0.601178
| 73> C        -3.284843   -0.766404    0.220252
| 74> H        -1.856769    0.172568    1.520207
| 75> H        -1.215121   -1.176765    0.611416
| 76> H        -3.970336    0.081611    0.168773
| 77> H        -3.660375   -1.454415    0.978985
| 78> H        -3.320406   -1.278528   -0.742978
| 79> H         2.943652    0.417631    1.350783
| 80> H         2.187599   -2.078709   -0.714380
| 81> H         0.886940    2.186884   -1.201927
| 82> H         0.464740    1.999860    1.134333
| 83> *
| 84>
| 85>
| 86>
| 87>
| 88>                          ****END OF INPUT****
 Total Charge           Charge          ....    0
 Multiplicity           Mult            ....    1
 Number of Electrons    NEL             ....   64
MP2 TOTAL ENERGY:     -584.540684059 Eh
FINAL SINGLE POINT ENERGY      -584.540684059297
MP2 TOTAL ENERGY:     -584.848657223 Eh
FINAL SINGLE POINT ENERGY      -584.848657222998

CARTESIAN COORDINATES (ANGSTROEM)
---------------------------------
  Si     0.435839    1.241875   -0.147916
  B      1.738896   -0.310140   -0.029929
  O      2.832254   -0.352130    0.788786
  O      1.518576   -1.391287   -0.823538
  C     -1.310524    0.659873   -0.508801
  C     -1.870037   -0.304569    0.536007
  H     -1.305879    0.176559   -1.490290
  H     -1.964478    1.531686   -0.601178
  C     -3.284843   -0.766404    0.220252
  H     -1.856769    0.172568    1.520207
  H     -1.215121   -1.176765    0.611416
  H     -3.970336    0.081611    0.168773
  H     -3.660375   -1.454415    0.978985
  H     -3.320406   -1.278528   -0.742978
  H      2.943652    0.417631    1.350783
  H      2.187599   -2.078709   -0.714380
  H      0.886940    2.186884   -1.201927
  H      0.464740    1.999860    1.134333

 Multiplicity           Mult            ....    1
 Number of Electrons    NEL             ....   64
 Basis Dimension        Dim             .... 1070

ORBITAL ENERGIES
----------------

  NO   OCC          E(Eh)            E(eV)
   0   2.0000     -68.744344     -1870.6287
   1   2.0000     -20.573848      -559.8429
   2   2.0000     -20.566739      -559.6494
   3   2.0000     -11.219936      -305.3100
   4   2.0000     -11.207617      -304.9748
   5   2.0000     -11.202458      -304.8344
   6   2.0000      -7.635928      -207.7842
   7   2.0000      -6.096274      -165.8881
   8   2.0000      -4.202666      -114.3604
   9   2.0000      -4.202377      -114.3525
  10   2.0000      -4.201969      -114.3414
  11   2.0000      -1.389074       -37.7986
  12   2.0000      -1.347299       -36.6619
  13   2.0000      -1.055399       -28.7189
  14   2.0000      -0.925386       -25.1810
  15   2.0000      -0.803789       -21.8722
  16   2.0000      -0.776562       -21.1313
  17   2.0000      -0.741462       -20.1762
  18   2.0000      -0.686761       -18.6877
  19   2.0000      -0.629565       -17.1313
  20   2.0000      -0.607757       -16.5379
  21   2.0000      -0.577604       -15.7174
  22   2.0000      -0.571473       -15.5506
  23   2.0000      -0.565502       -15.3881
  24   2.0000      -0.539837       -14.6897
  25   2.0000      -0.536066       -14.5871
  26   2.0000      -0.504923       -13.7397
  27   2.0000      -0.482769       -13.1368
  28   2.0000      -0.471409       -12.8277
  29   2.0000      -0.457634       -12.4529
  30   2.0000      -0.425170       -11.5695
  31   2.0000      -0.403325       -10.9750
  32   0.0000       0.022211         0.6044
  33   0.0000       0.029702         0.8082
  34   0.0000       0.030554         0.8314
  35   0.0000       0.033855         0.9212
  36   0.0000       0.043742         1.1903

MULLIKEN ATOMIC CHARGES
-----------------------
   0 Si:    0.566153
   1 B :    1.369931
   2 O :   -1.149532
   3 O :   -0.993457
   4 C :   -0.448813
   5 C :   -0.367860
   6 H :    0.222724
   7 H :    0.304194
   8 C :   -0.860329
   9 H :    0.255651
  10 H :    0.255661
  11 H :    0.225038
  12 H :    0.256161
  13 H :    0.228028
  14 H :    0.347323
  15 H :    0.329463
  16 H :   -0.284465
  17 H :   -0.255871
Sum of atomic charges:   -0.0000000

LOEWDIN ATOMIC CHARGES
----------------------
   0 Si:    0.923749
   1 B :   -1.191058
   2 O :    1.307343
   3 O :    1.286672
   4 C :    0.484816
   5 C :    0.429133
   6 H :   -0.331928
   7 H :   -0.333119
   8 C :    0.924303
   9 H :   -0.283211
  10 H :   -0.291669
  11 H :   -0.285280
  12 H :   -0.281661
  13 H :   -0.284002
  14 H :   -0.818211
  15 H :   -0.800968
  16 H :   -0.231411
  17 H :   -0.223499

  Mayer bond orders larger than 0.100000
B(  0-Si,  1-B ) :   0.7635 B(  0-Si,  2-O ) :  -0.1139 B(  0-Si,  4-C ) :   0.8144
B(  0-Si, 16-H ) :   0.7336 B(  0-Si, 17-H ) :   0.7535 B(  1-B ,  2-O ) :   0.4585
B(  1-B ,  3-O ) :   0.4229 B(  2-O ,  3-O ) :  -0.1247 B(  2-O , 14-H ) :   0.9181
B(  3-O , 15-H ) :   0.9541 B(  4-C ,  5-C ) :   0.8545 B(  4-C ,  6-H ) :   0.9218
B(  4-C ,  7-H ) :   0.9060 B(  5-C ,  8-C ) :   0.9241 B(  5-C ,  9-H ) :   0.8774
B(  5-C , 10-H ) :   0.8620 B(  8-C , 11-H ) :   0.9670 B(  8-C , 12-H ) :   1.0066
B(  8-C , 13-H ) :   0.9556

MP2 TOTAL ENERGY:     -584.946040920 Eh
FINAL SINGLE POINT ENERGY      -584.946040920070

DIPOLE MOMENT
-------------
                                X             Y             Z
Electronic contribution:     12.53654      -0.73950      -0.73076
Nuclear contribution   :    -12.39448       0.73883       1.06563
                        -----------------------------------------
Total Dipole Moment    :      0.14206      -0.00067       0.33487
                        -----------------------------------------
Magnitude (a.u.)       :      0.36376
Magnitude (Debye)      :      0.92460

Rotational constants in cm-1:     0.110841     0.033677     0.029492
Rotational constants in MHz :  3322.928109  1009.621513   884.154663

                             ****ORCA TERMINATED NORMALLY****
TOTAL RUN TIME: 0 days 2 hours 18 minutes 32 seconds 902 msec
