                         Program Version 5.0.4 -  RELEASE  -
|  1> ! ri-mp2 aug-cc-pvdz aug-cc-pvdz/c tightscf
|  2> %pal nprocs 16 end
|  3> %maxcore 3800
|  4> %base "DZ_S-Cl_2_AB"
|  5> %scf
|  6> STABPerform true
|  7> STABRestartUHFifUnstable true
|  8> end
|  9>
| 10> *xyz 0 1
| 11> Cl        -1.634259   -0.389355   -0.003951
| 12> S         1.610371   -0.383612   -0.088402
| 13> S         0.015359    0.837501    0.016217
| 14> H         1.770708   -0.643191    1.222118
| 15> *
| 16>
| 17> $new_job
| 18> ! ri-mp2 aug-cc-pvtz aug-cc-pvtz/c tightscf
| 19> %pal nprocs 16 end
| 20> %maxcore 3800
| 21> %base "TZ_S-Cl_2_AB"
| 22>
| 23> *xyz 0 1
| 24> Cl        -1.634259   -0.389355   -0.003951
| 25> S         1.610371   -0.383612   -0.088402
| 26> S         0.015359    0.837501    0.016217
| 27> H         1.770708   -0.643191    1.222118
| 28> *
| 29>
| 30> $new_job
| 31> ! ri-mp2 aug-cc-pvqz aug-cc-pvqz/c tightscf
| 32> %pal nprocs 16 end
| 33> %maxcore 3800
| 34> %base "QZ_S-Cl_2_AB"
| 35>
| 36> *xyz 0 1
| 37> Cl        -1.634259   -0.389355   -0.003951
| 38> S         1.610371   -0.383612   -0.088402
| 39> S         0.015359    0.837501    0.016217
| 40> H         1.770708   -0.643191    1.222118
| 41> *
| 42>
| 43>
| 44>
| 45>
| 46>                          ****END OF INPUT****
 Total Charge           Charge          ....    0
 Multiplicity           Mult            ....    1
 Number of Electrons    NEL             ....   50
MP2 TOTAL ENERGY:    -1255.571051367 Eh
FINAL SINGLE POINT ENERGY     -1255.571051366917
MP2 TOTAL ENERGY:    -1255.743612748 Eh
FINAL SINGLE POINT ENERGY     -1255.743612748243

CARTESIAN COORDINATES (ANGSTROEM)
---------------------------------
  Cl    -1.634259   -0.389355   -0.003951
  S      1.610371   -0.383612   -0.088402
  S      0.015359    0.837501    0.016217
  H      1.770708   -0.643191    1.222118

 Multiplicity           Mult            ....    1
 Number of Electrons    NEL             ....   50
 Basis Dimension        Dim             ....  298

ORBITAL ENERGIES
----------------

  NO   OCC          E(Eh)            E(eV)
   0   2.0000    -104.856685     -2853.2955
   1   2.0000     -92.042837     -2504.6129
   2   2.0000     -92.009559     -2503.7074
   3   2.0000     -10.581003      -287.9237
   4   2.0000      -9.038663      -245.9545
   5   2.0000      -9.010414      -245.1858
   6   2.0000      -8.047921      -218.9951
   7   2.0000      -8.046021      -218.9434
   8   2.0000      -8.045819      -218.9379
   9   2.0000      -6.719473      -182.8462
  10   2.0000      -6.718147      -182.8101
  11   2.0000      -6.716749      -182.7720
  12   2.0000      -6.691657      -182.0892
  13   2.0000      -6.690536      -182.0587
  14   2.0000      -6.689759      -182.0376
  15   2.0000      -1.154162       -31.4063
  16   2.0000      -1.045478       -28.4489
  17   2.0000      -0.861131       -23.4326
  18   2.0000      -0.614872       -16.7315
  19   2.0000      -0.559407       -15.2222
  20   2.0000      -0.539995       -14.6940
  21   2.0000      -0.504222       -13.7206
  22   2.0000      -0.449459       -12.2304
  23   2.0000      -0.406274       -11.0553
  24   2.0000      -0.378033       -10.2868
  25   0.0000       0.026842         0.7304
  26   0.0000       0.040802         1.1103
  27   0.0000       0.049148         1.3374
  28   0.0000       0.069794         1.8992
  29   0.0000       0.071977         1.9586

MULLIKEN ATOMIC CHARGES
-----------------------
   0 Cl:   -0.237315
   1 S :   -0.089905
   2 S :    0.205338
   3 H :    0.121882
Sum of atomic charges:   -0.0000000

LOEWDIN ATOMIC CHARGES
----------------------
   0 Cl:    0.328984
   1 S :    0.847828
   2 S :   -0.269176
   3 H :   -0.907636

  Mayer bond orders larger than 0.100000
B(  0-Cl,  2-S ) :   0.9329 B(  1-S ,  2-S ) :   1.1685 B(  1-S ,  3-H ) :   0.9594

MP2 TOTAL ENERGY:    -1255.800318226 Eh
FINAL SINGLE POINT ENERGY     -1255.800318225828

DIPOLE MOMENT
-------------
                                X             Y             Z
Electronic contribution:     -3.27784       0.05590      -0.80637
Nuclear contribution   :      3.78916      -0.09351       1.14834
                        -----------------------------------------
Total Dipole Moment    :      0.51133      -0.03762       0.34197
                        -----------------------------------------
Magnitude (a.u.)       :      0.61629
Magnitude (Debye)      :      1.56648

Rotational constants in cm-1:     0.485917     0.092324     0.078818
Rotational constants in MHz : 14567.426740  2767.809815  2362.914508

                             ****ORCA TERMINATED NORMALLY****
TOTAL RUN TIME: 0 days 0 hours 3 minutes 43 seconds 148 msec
