                         Program Version 5.0.4 -  RELEASE  -
|  1> ! ri-mp2 aug-cc-pvdz aug-cc-pvdz/c tightscf
|  2> %pal nprocs 16 end
|  3> %maxcore 3800
|  4> %base "DZ_S-F_85_AB"
|  5>
|  6> *xyz 0 1
|  7> F        -3.562916   -0.142243    1.123769
|  8> S        -3.112224   -0.135921   -0.449858
|  9> C        -1.380313    0.011981   -0.272276
| 10> C        -0.784198    1.269950   -0.189838
| 11> H        -1.406372    2.153388   -0.224233
| 12> C        -0.577948   -1.122981   -0.235456
| 13> H        -1.040656   -2.097952   -0.301917
| 14> F         3.599247   -1.046963    0.115368
| 15> S         3.090255    0.482650    0.129702
| 16> C         1.371579    0.241374   -0.026803
| 17> C         0.794120   -1.017849   -0.113522
| 18> H         1.411679   -1.902592   -0.086057
| 19> C         0.581060    1.389405   -0.064808
| 20> H         1.034059    2.371063   -0.001308
| 21> *
| 22>
| 23> $new_job
| 24> ! ri-mp2 aug-cc-pvtz aug-cc-pvtz/c tightscf
| 25> %pal nprocs 16 end
| 26> %maxcore 3800
| 27> %base "TZ_S-F_85_AB"
| 28>
| 29> *xyz 0 1
| 30> F        -3.562916   -0.142243    1.123769
| 31> S        -3.112224   -0.135921   -0.449858
| 32> C        -1.380313    0.011981   -0.272276
| 33> C        -0.784198    1.269950   -0.189838
| 34> H        -1.406372    2.153388   -0.224233
| 35> C        -0.577948   -1.122981   -0.235456
| 36> H        -1.040656   -2.097952   -0.301917
| 37> F         3.599247   -1.046963    0.115368
| 38> S         3.090255    0.482650    0.129702
| 39> C         1.371579    0.241374   -0.026803
| 40> C         0.794120   -1.017849   -0.113522
| 41> H         1.411679   -1.902592   -0.086057
| 42> C         0.581060    1.389405   -0.064808
| 43> H         1.034059    2.371063   -0.001308
| 44> *
| 45>
| 46> $new_job
| 47> ! ri-mp2 aug-cc-pvqz aug-cc-pvqz/c tightscf
| 48> %pal nprocs 16 end
| 49> %maxcore 3800
| 50> %base "QZ_S-F_85_AB"
| 51>
| 52> *xyz 0 1
| 53> F        -3.562916   -0.142243    1.123769
| 54> S        -3.112224   -0.135921   -0.449858
| 55> C        -1.380313    0.011981   -0.272276
| 56> C        -0.784198    1.269950   -0.189838
| 57> H        -1.406372    2.153388   -0.224233
| 58> C        -0.577948   -1.122981   -0.235456
| 59> H        -1.040656   -2.097952   -0.301917
| 60> F         3.599247   -1.046963    0.115368
| 61> S         3.090255    0.482650    0.129702
| 62> C         1.371579    0.241374   -0.026803
| 63> C         0.794120   -1.017849   -0.113522
| 64> H         1.411679   -1.902592   -0.086057
| 65> C         0.581060    1.389405   -0.064808
| 66> H         1.034059    2.371063   -0.001308
| 67> *
| 68>
| 69>
| 70>
| 71>
| 72>                          ****END OF INPUT****
 Total Charge           Charge          ....    0
 Multiplicity           Mult            ....    1
 Number of Electrons    NEL             ....   90
MP2 TOTAL ENERGY:    -1224.946804057 Eh
FINAL SINGLE POINT ENERGY     -1224.946804057354
MP2 TOTAL ENERGY:    -1225.416011037 Eh
FINAL SINGLE POINT ENERGY     -1225.416011036539

CARTESIAN COORDINATES (ANGSTROEM)
---------------------------------
  F     -3.562916   -0.142243    1.123769
  S     -3.112224   -0.135921   -0.449858
  C     -1.380313    0.011981   -0.272276
  C     -0.784198    1.269950   -0.189838
  H     -1.406372    2.153388   -0.224233
  C     -0.577948   -1.122981   -0.235456
  H     -1.040656   -2.097952   -0.301917
  F      3.599247   -1.046963    0.115368
  S      3.090255    0.482650    0.129702
  C      1.371579    0.241374   -0.026803
  C      0.794120   -1.017849   -0.113522
  H      1.411679   -1.902592   -0.086057
  C      0.581060    1.389405   -0.064808
  H      1.034059    2.371063   -0.001308

 Multiplicity           Mult            ....    1
 Number of Electrons    NEL             ....   90
 Basis Dimension        Dim             ....  992

ORBITAL ENERGIES
----------------

  NO   OCC          E(Eh)            E(eV)
   0   2.0000     -92.057610     -2505.0149
   1   2.0000     -92.028897     -2504.2336
   2   2.0000     -26.332358      -716.5399
   3   2.0000     -26.296127      -715.5540
   4   2.0000     -11.309666      -307.7517
   5   2.0000     -11.277639      -306.8802
   6   2.0000     -11.273297      -306.7620
   7   2.0000     -11.272514      -306.7407
   8   2.0000     -11.265834      -306.5589
   9   2.0000     -11.260748      -306.4205
  10   2.0000      -9.052226      -246.3236
  11   2.0000      -9.023191      -245.5335
  12   2.0000      -6.733917      -183.2392
  13   2.0000      -6.731891      -183.1841
  14   2.0000      -6.730630      -183.1498
  15   2.0000      -6.704816      -182.4473
  16   2.0000      -6.702972      -182.3971
  17   2.0000      -6.701734      -182.3635
  18   2.0000      -1.634301       -44.4716
  19   2.0000      -1.592657       -43.3384
  20   2.0000      -1.204401       -32.7734
  21   2.0000      -1.105765       -30.0894
  22   2.0000      -1.056629       -28.7523
  23   2.0000      -1.007008       -27.4021
  24   2.0000      -0.926182       -25.2027
  25   2.0000      -0.870980       -23.7006
  26   2.0000      -0.825309       -22.4578
  27   2.0000      -0.750672       -20.4268
  28   2.0000      -0.714917       -19.4539
  29   2.0000      -0.710700       -19.3391
  30   2.0000      -0.701734       -19.0952
  31   2.0000      -0.679391       -18.4872
  32   2.0000      -0.669440       -18.2164
  33   2.0000      -0.661341       -17.9960
  34   2.0000      -0.648968       -17.6593
  35   2.0000      -0.624108       -16.9828
  36   2.0000      -0.618908       -16.8414
  37   2.0000      -0.555021       -15.1029
  38   2.0000      -0.534033       -14.5318
  39   2.0000      -0.518738       -14.1156
  40   2.0000      -0.485182       -13.2025
  41   2.0000      -0.445424       -12.1206
  42   2.0000      -0.376925       -10.2566
  43   2.0000      -0.373358       -10.1596
  44   2.0000      -0.337627        -9.1873
  45   0.0000       0.023834         0.6486
  46   0.0000       0.027828         0.7572
  47   0.0000       0.035807         0.9743
  48   0.0000       0.042608         1.1594
  49   0.0000       0.047748         1.2993

MULLIKEN ATOMIC CHARGES
-----------------------
   0 F :   -0.652390
   1 S :    0.450844
   2 C :   -0.500167
   3 C :   -0.104458
   4 H :    0.390663
   5 C :   -0.081783
   6 H :    0.384281
   7 F :   -0.672339
   8 S :    0.558984
   9 C :   -0.199453
  10 C :   -0.184118
  11 H :    0.345099
  12 C :   -0.080498
  13 H :    0.345333
Sum of atomic charges:   -0.0000000

LOEWDIN ATOMIC CHARGES
----------------------
   0 F :    0.076330
   1 S :    0.732981
   2 C :   -0.597293
   3 C :    0.215553
   4 H :   -0.345135
   5 C :    0.218746
   6 H :   -0.346033
   7 F :    0.134670
   8 S :    0.770114
   9 C :   -0.584119
  10 C :    0.238010
  11 H :   -0.377221
  12 C :    0.205482
  13 H :   -0.342087

  Mayer bond orders larger than 0.100000
B(  0-F ,  1-S ) :   0.5854 B(  0-F ,  2-C ) :  -0.1304 B(  1-S ,  2-C ) :   1.4069
B(  1-S ,  3-C ) :  -0.3022 B(  1-S ,  5-C ) :  -0.3096 B(  2-C ,  3-C ) :   1.0181
B(  2-C ,  5-C ) :   0.9733 B(  3-C ,  4-H ) :   0.9087 B(  3-C ,  5-C ) :  -0.1059
B(  3-C , 10-C ) :   0.1096 B(  3-C , 12-C ) :   1.2932 B(  3-C , 13-H ) :  -0.1179
B(  4-H , 12-C ) :  -0.1128 B(  5-C ,  6-H ) :   0.9261 B(  5-C , 10-C ) :   1.3251
B(  5-C , 12-C ) :   0.1188 B(  6-H , 10-C ) :  -0.1261 B(  7-F ,  8-S ) :   0.5707
B(  7-F ,  9-C ) :  -0.2625 B(  8-S ,  9-C ) :   0.9139 B(  8-S , 10-C ) :  -0.1380
B(  8-S , 12-C ) :  -0.1801 B(  9-C , 10-C ) :   0.9184 B(  9-C , 11-H ) :  -0.1192
B(  9-C , 12-C ) :   0.9559 B(  9-C , 13-H ) :  -0.1031 B( 10-C , 11-H ) :   0.9015
B( 12-C , 13-H ) :   0.9161

MP2 TOTAL ENERGY:    -1225.570509290 Eh
FINAL SINGLE POINT ENERGY     -1225.570509289727

DIPOLE MOMENT
-------------
                                X             Y             Z
Electronic contribution:      0.64693      -1.20089       1.31606
Nuclear contribution   :     -0.03461       1.60065      -1.73319
                        -----------------------------------------
Total Dipole Moment    :      0.61232       0.39977      -0.41713
                        -----------------------------------------
Magnitude (a.u.)       :      0.84187
Magnitude (Debye)      :      2.13986

Rotational constants in cm-1:     0.110819     0.013906     0.012995
Rotational constants in MHz :  3322.275004   416.890733   389.592733

                             ****ORCA TERMINATED NORMALLY****
TOTAL RUN TIME: 0 days 0 hours 30 minutes 12 seconds 272 msec
