                         Program Version 5.0.4 -  RELEASE  -
|  1> ! ri-mp2 aug-cc-pvdz aug-cc-pvdz/c tightscf
|  2> %pal nprocs 16 end
|  3> %maxcore 3800
|  4> %base "DZ_B-S_18_AB"
|  5>
|  6> *xyz 0 1
|  7> B         0.174252   -0.093732    0.000001
|  8> C        -0.952408   -1.190568    0.000010
|  9> C        -2.409134   -0.743292   -0.000007
| 10> H        -2.645481   -0.145855   -0.881894
| 11> H        -2.645497   -0.145839    0.881865
| 12> H        -3.083250   -1.600059   -0.000006
| 13> S        -0.110525    1.682701    0.000010
| 14> S         1.918553   -0.565438   -0.000012
| 15> H        -0.767582   -1.835184    0.866149
| 16> H        -0.767568   -1.835207   -0.866108
| 17> H        -1.448225    1.649268    0.000016
| 18> H         1.727139   -1.891504   -0.000021
| 19> *
| 20>
| 21> $new_job
| 22> ! ri-mp2 aug-cc-pvtz aug-cc-pvtz/c tightscf
| 23> %pal nprocs 16 end
| 24> %maxcore 3800
| 25> %base "TZ_B-S_18_AB"
| 26>
| 27> *xyz 0 1
| 28> B         0.174252   -0.093732    0.000001
| 29> C        -0.952408   -1.190568    0.000010
| 30> C        -2.409134   -0.743292   -0.000007
| 31> H        -2.645481   -0.145855   -0.881894
| 32> H        -2.645497   -0.145839    0.881865
| 33> H        -3.083250   -1.600059   -0.000006
| 34> S        -0.110525    1.682701    0.000010
| 35> S         1.918553   -0.565438   -0.000012
| 36> H        -0.767582   -1.835184    0.866149
| 37> H        -0.767568   -1.835207   -0.866108
| 38> H        -1.448225    1.649268    0.000016
| 39> H         1.727139   -1.891504   -0.000021
| 40> *
| 41>
| 42> $new_job
| 43> ! ri-mp2 aug-cc-pvqz aug-cc-pvqz/c tightscf
| 44> %pal nprocs 16 end
| 45> %maxcore 3800
| 46> %base "QZ_B-S_18_AB"
| 47>
| 48> *xyz 0 1
| 49> B         0.174252   -0.093732    0.000001
| 50> C        -0.952408   -1.190568    0.000010
| 51> C        -2.409134   -0.743292   -0.000007
| 52> H        -2.645481   -0.145855   -0.881894
| 53> H        -2.645497   -0.145839    0.881865
| 54> H        -3.083250   -1.600059   -0.000006
| 55> S        -0.110525    1.682701    0.000010
| 56> S         1.918553   -0.565438   -0.000012
| 57> H        -0.767582   -1.835184    0.866149
| 58> H        -0.767568   -1.835207   -0.866108
| 59> H        -1.448225    1.649268    0.000016
| 60> H         1.727139   -1.891504   -0.000021
| 61> *
| 62>
| 63>
| 64>
| 65>
| 66>                          ****END OF INPUT****
 Total Charge           Charge          ....    0
 Multiplicity           Mult            ....    1
 Number of Electrons    NEL             ....   56
MP2 TOTAL ENERGY:     -900.321147075 Eh
FINAL SINGLE POINT ENERGY      -900.321147075376
MP2 TOTAL ENERGY:     -900.523676860 Eh
FINAL SINGLE POINT ENERGY      -900.523676860310

CARTESIAN COORDINATES (ANGSTROEM)
---------------------------------
  B      0.174252   -0.093732    0.000001
  C     -0.952408   -1.190568    0.000010
  C     -2.409134   -0.743292   -0.000007
  H     -2.645481   -0.145855   -0.881894
  H     -2.645497   -0.145839    0.881865
  H     -3.083250   -1.600059   -0.000006
  S     -0.110525    1.682701    0.000010
  S      1.918553   -0.565438   -0.000012
  H     -0.767582   -1.835184    0.866149
  H     -0.767568   -1.835207   -0.866108
  H     -1.448225    1.649268    0.000016
  H      1.727139   -1.891504   -0.000021

 Multiplicity           Mult            ....    1
 Number of Electrons    NEL             ....   56
 Basis Dimension        Dim             ....  730

ORBITAL ENERGIES
----------------

  NO   OCC          E(Eh)            E(eV)
   0   2.0000     -91.953180     -2502.1732
   1   2.0000     -91.951026     -2502.1146
   2   2.0000     -11.225246      -305.4545
   3   2.0000     -11.218932      -305.2827
   4   2.0000      -8.958493      -243.7730
   5   2.0000      -8.956239      -243.7117
   6   2.0000      -7.647684      -208.1040
   7   2.0000      -6.640073      -180.6856
   8   2.0000      -6.639092      -180.6589
   9   2.0000      -6.638688      -180.6479
  10   2.0000      -6.637837      -180.6247
  11   2.0000      -6.636836      -180.5975
  12   2.0000      -6.636386      -180.5853
  13   2.0000      -1.049756       -28.5653
  14   2.0000      -0.996857       -27.1259
  15   2.0000      -0.961990       -26.1771
  16   2.0000      -0.859550       -23.3895
  17   2.0000      -0.652831       -17.7644
  18   2.0000      -0.617675       -16.8078
  19   2.0000      -0.614838       -16.7306
  20   2.0000      -0.551002       -14.9935
  21   2.0000      -0.527615       -14.3571
  22   2.0000      -0.507642       -13.8136
  23   2.0000      -0.506681       -13.7875
  24   2.0000      -0.454241       -12.3605
  25   2.0000      -0.434310       -11.8182
  26   2.0000      -0.422408       -11.4943
  27   2.0000      -0.366025        -9.9600
  28   0.0000       0.022161         0.6030
  29   0.0000       0.031352         0.8531
  30   0.0000       0.034676         0.9436
  31   0.0000       0.034830         0.9478
  32   0.0000       0.046467         1.2644

MULLIKEN ATOMIC CHARGES
-----------------------
   0 B :    0.257723
   1 C :   -0.475543
   2 C :   -0.805204
   3 H :    0.184427
   4 H :    0.184425
   5 H :    0.284328
   6 S :   -0.092572
   7 S :   -0.083545
   8 H :    0.268025
   9 H :    0.268025
  10 H :    0.003916
  11 H :    0.005996
Sum of atomic charges:    0.0000000

LOEWDIN ATOMIC CHARGES
----------------------
   0 B :   -1.615142
   1 C :    0.486647
   2 C :    0.868508
   3 H :   -0.295998
   4 H :   -0.295999
   5 H :   -0.275930
   6 S :    1.692107
   7 S :    1.656495
   8 H :   -0.311759
   9 H :   -0.311763
  10 H :   -0.813279
  11 H :   -0.783886

  Mayer bond orders larger than 0.100000
B(  0-B ,  1-C ) :   0.9748 B(  0-B ,  6-S ) :   1.0897 B(  0-B ,  7-S ) :   1.1284
B(  0-B , 10-H ) :  -0.1050 B(  1-C ,  2-C ) :   0.9231 B(  1-C ,  8-H ) :   0.8730
B(  1-C ,  9-H ) :   0.8730 B(  2-C ,  3-H ) :   0.9696 B(  2-C ,  4-H ) :   0.9696
B(  2-C ,  5-H ) :   0.9617 B(  6-S , 10-H ) :   1.0941 B(  7-S , 11-H ) :   1.0896

MP2 TOTAL ENERGY:     -900.587700573 Eh
FINAL SINGLE POINT ENERGY      -900.587700572652

DIPOLE MOMENT
-------------
                                X             Y             Z
Electronic contribution:      8.98759       5.06479      -0.00000
Nuclear contribution   :     -9.74918      -5.71788       0.00000
                        -----------------------------------------
Total Dipole Moment    :     -0.76159      -0.65309       0.00000
                        -----------------------------------------
Magnitude (a.u.)       :      1.00327
Magnitude (Debye)      :      2.55010

Rotational constants in cm-1:     0.117735     0.072773     0.045726
Rotational constants in MHz :  3529.614204  2181.671958  1370.818119

                             ****ORCA TERMINATED NORMALLY****
TOTAL RUN TIME: 0 days 0 hours 8 minutes 43 seconds 199 msec
