                         Program Version 5.0.4 -  RELEASE  -
|  1> ! ri-mp2 aug-cc-pvdz aug-cc-pvdz/c tightscf
|  2> %pal nprocs 16 end
|  3> %maxcore 3800
|  4> %base "DZ_P-N_59_AB"
|  5> %scf
|  6> STABPerform true
|  7> STABRestartUHFifUnstable true
|  8> end
|  9>
| 10> *xyz 0 1
| 11> C        -0.949886    0.053452   -0.114844
| 12> N         1.839473   -0.120721    0.171491
| 13> C         1.884004    0.955137    1.141753
| 14> H         1.422607    1.872650    0.764131
| 15> H         2.923626    1.169622    1.400125
| 16> H         1.366041    0.658004    2.052715
| 17> O        -0.800971    1.146260   -0.603895
| 18> C        -2.295970   -0.456489    0.347148
| 19> C         2.690948    0.089148   -0.983981
| 20> H         2.632606   -0.769861   -1.650046
| 21> H         3.729677    0.203862   -0.663503
| 22> H         2.405866    0.983289   -1.549092
| 23> C        -3.465364    0.358840   -0.172454
| 24> H        -2.272639   -0.450945    1.441901
| 25> H        -2.381541   -1.509964    0.063829
| 26> H        -3.368148    1.402602    0.119891
| 27> H        -4.406943   -0.025806    0.218143
| 28> H        -3.507926    0.328837   -1.260779
| 29> P         0.502623   -1.115568    0.002066
| 30> H         0.266502   -1.454342    1.356684
| 31> *
| 32>
| 33> $new_job
| 34> ! ri-mp2 aug-cc-pvtz aug-cc-pvtz/c tightscf
| 35> %pal nprocs 16 end
| 36> %maxcore 3800
| 37> %base "TZ_P-N_59_AB"
| 38>
| 39> *xyz 0 1
| 40> C        -0.949886    0.053452   -0.114844
| 41> N         1.839473   -0.120721    0.171491
| 42> C         1.884004    0.955137    1.141753
| 43> H         1.422607    1.872650    0.764131
| 44> H         2.923626    1.169622    1.400125
| 45> H         1.366041    0.658004    2.052715
| 46> O        -0.800971    1.146260   -0.603895
| 47> C        -2.295970   -0.456489    0.347148
| 48> C         2.690948    0.089148   -0.983981
| 49> H         2.632606   -0.769861   -1.650046
| 50> H         3.729677    0.203862   -0.663503
| 51> H         2.405866    0.983289   -1.549092
| 52> C        -3.465364    0.358840   -0.172454
| 53> H        -2.272639   -0.450945    1.441901
| 54> H        -2.381541   -1.509964    0.063829
| 55> H        -3.368148    1.402602    0.119891
| 56> H        -4.406943   -0.025806    0.218143
| 57> H        -3.507926    0.328837   -1.260779
| 58> P         0.502623   -1.115568    0.002066
| 59> H         0.266502   -1.454342    1.356684
| 60> *
| 61>
| 62> $new_job
| 63> ! ri-mp2 aug-cc-pvqz aug-cc-pvqz/c tightscf
| 64> %pal nprocs 16 end
| 65> %maxcore 3800
| 66> %base "QZ_P-N_59_AB"
| 67>
| 68> *xyz 0 1
| 69> C        -0.949886    0.053452   -0.114844
| 70> N         1.839473   -0.120721    0.171491
| 71> C         1.884004    0.955137    1.141753
| 72> H         1.422607    1.872650    0.764131
| 73> H         2.923626    1.169622    1.400125
| 74> H         1.366041    0.658004    2.052715
| 75> O        -0.800971    1.146260   -0.603895
| 76> C        -2.295970   -0.456489    0.347148
| 77> C         2.690948    0.089148   -0.983981
| 78> H         2.632606   -0.769861   -1.650046
| 79> H         3.729677    0.203862   -0.663503
| 80> H         2.405866    0.983289   -1.549092
| 81> C        -3.465364    0.358840   -0.172454
| 82> H        -2.272639   -0.450945    1.441901
| 83> H        -2.381541   -1.509964    0.063829
| 84> H        -3.368148    1.402602    0.119891
| 85> H        -4.406943   -0.025806    0.218143
| 86> H        -3.507926    0.328837   -1.260779
| 87> P         0.502623   -1.115568    0.002066
| 88> H         0.266502   -1.454342    1.356684
| 89> *
| 90>
| 91>
| 92>
| 93>
| 94>                          ****END OF INPUT****
 Total Charge           Charge          ....    0
 Multiplicity           Mult            ....    1
 Number of Electrons    NEL             ....   72
MP2 TOTAL ENERGY:     -667.629204729 Eh
FINAL SINGLE POINT ENERGY      -667.629204728983
MP2 TOTAL ENERGY:     -667.975135811 Eh
FINAL SINGLE POINT ENERGY      -667.975135811034

CARTESIAN COORDINATES (ANGSTROEM)
---------------------------------
  C     -0.949886    0.053452   -0.114844
  N      1.839473   -0.120721    0.171491
  C      1.884004    0.955137    1.141753
  H      1.422607    1.872650    0.764131
  H      2.923626    1.169622    1.400125
  H      1.366041    0.658004    2.052715
  O     -0.800971    1.146260   -0.603895
  C     -2.295970   -0.456489    0.347148
  C      2.690948    0.089148   -0.983981
  H      2.632606   -0.769861   -1.650046
  H      3.729677    0.203862   -0.663503
  H      2.405866    0.983289   -1.549092
  C     -3.465364    0.358840   -0.172454
  H     -2.272639   -0.450945    1.441901
  H     -2.381541   -1.509964    0.063829
  H     -3.368148    1.402602    0.119891
  H     -4.406943   -0.025806    0.218143
  H     -3.507926    0.328837   -1.260779
  P      0.502623   -1.115568    0.002066
  H      0.266502   -1.454342    1.356684

 Multiplicity           Mult            ....    1
 Number of Electrons    NEL             ....   72
 Basis Dimension        Dim             .... 1196

ORBITAL ENERGIES
----------------

  NO   OCC          E(Eh)            E(eV)
   0   2.0000     -79.959524     -2175.8093
   1   2.0000     -20.547769      -559.1332
   2   2.0000     -15.556172      -423.3050
   3   2.0000     -11.321318      -308.0687
   4   2.0000     -11.249503      -306.1145
   5   2.0000     -11.248693      -306.0925
   6   2.0000     -11.238629      -305.8186
   7   2.0000     -11.217093      -305.2326
   8   2.0000      -7.499349      -204.0677
   9   2.0000      -5.393485      -146.7642
  10   2.0000      -5.393163      -146.7554
  11   2.0000      -5.392693      -146.7426
  12   2.0000      -1.391851       -37.8742
  13   2.0000      -1.222051       -33.2537
  14   2.0000      -1.058686       -28.8083
  15   2.0000      -0.961745       -26.1704
  16   2.0000      -0.933905       -25.4128
  17   2.0000      -0.887316       -24.1451
  18   2.0000      -0.797773       -21.7085
  19   2.0000      -0.722342       -19.6559
  20   2.0000      -0.662974       -18.0404
  21   2.0000      -0.642868       -17.4933
  22   2.0000      -0.634067       -17.2538
  23   2.0000      -0.628231       -17.0950
  24   2.0000      -0.615583       -16.7509
  25   2.0000      -0.576799       -15.6955
  26   2.0000      -0.551116       -14.9966
  27   2.0000      -0.545072       -14.8322
  28   2.0000      -0.528545       -14.3825
  29   2.0000      -0.522052       -14.2058
  30   2.0000      -0.513865       -13.9830
  31   2.0000      -0.511375       -13.9152
  32   2.0000      -0.490423       -13.3451
  33   2.0000      -0.426226       -11.5982
  34   2.0000      -0.375776       -10.2254
  35   2.0000      -0.340173        -9.2566
  36   0.0000       0.023402         0.6368
  37   0.0000       0.028834         0.7846
  38   0.0000       0.033842         0.9209
  39   0.0000       0.036434         0.9914
  40   0.0000       0.043976         1.1967

MULLIKEN ATOMIC CHARGES
-----------------------
   0 C :    0.481274
   1 N :   -0.444172
   2 C :   -0.927424
   3 H :    0.334815
   4 H :    0.349884
   5 H :    0.290653
   6 O :   -0.880748
   7 C :   -0.333798
   8 C :   -0.908078
   9 H :    0.330307
  10 H :    0.329968
  11 H :    0.324081
  12 C :   -0.831166
  13 H :    0.277125
  14 H :    0.231012
  15 H :    0.249471
  16 H :    0.324045
  17 H :    0.222013
  18 P :    0.760423
  19 H :   -0.179685
Sum of atomic charges:   -0.0000000

LOEWDIN ATOMIC CHARGES
----------------------
   0 C :   -0.816104
   1 N :    0.172307
   2 C :    0.665572
   3 H :   -0.298767
   4 H :   -0.295046
   5 H :   -0.317125
   6 O :    0.675501
   7 C :    0.381237
   8 C :    0.655240
   9 H :   -0.337200
  10 H :   -0.296770
  11 H :   -0.281120
  12 C :    0.893065
  13 H :   -0.297814
  14 H :   -0.311385
  15 H :   -0.298064
  16 H :   -0.283844
  17 H :   -0.285727
  18 P :    1.083900
  19 H :   -0.407856

  Mayer bond orders larger than 0.100000
B(  0-C ,  6-O ) :   1.1819 B(  0-C ,  7-C ) :   0.7886 B(  0-C , 12-C ) :  -0.1092
B(  0-C , 18-P ) :   0.7482 B(  1-N ,  2-C ) :   0.8046 B(  1-N ,  8-C ) :   0.9181
B(  1-N , 18-P ) :   0.6572 B(  2-C ,  3-H ) :   0.8987 B(  2-C ,  4-H ) :   0.9192
B(  2-C ,  5-H ) :   0.9579 B(  7-C , 12-C ) :   0.9564 B(  7-C , 13-H ) :   0.8287
B(  7-C , 14-H ) :   0.9439 B(  8-C ,  9-H ) :   0.9237 B(  8-C , 10-H ) :   0.9147
B(  8-C , 11-H ) :   0.9033 B( 12-C , 15-H ) :   0.9508 B( 12-C , 16-H ) :   0.9565
B( 12-C , 17-H ) :   0.9763 B( 18-P , 19-H ) :   0.9911

MP2 TOTAL ENERGY:     -668.083456830 Eh
FINAL SINGLE POINT ENERGY      -668.083456829918

DIPOLE MOMENT
-------------
                                X             Y             Z
Electronic contribution:      1.67865      -3.91411      -1.71255
Nuclear contribution   :     -1.69702       3.54251       2.31937
                        -----------------------------------------
Total Dipole Moment    :     -0.01837      -0.37160       0.60682
                        -----------------------------------------
Magnitude (a.u.)       :      0.71180
Magnitude (Debye)      :      1.80925

Rotational constants in cm-1:     0.118819     0.030058     0.028294
Rotational constants in MHz :  3562.107406   901.125710   848.225309

                             ****ORCA TERMINATED NORMALLY****
TOTAL RUN TIME: 0 days 3 hours 6 minutes 46 seconds 195 msec
