                         Program Version 5.0.4 -  RELEASE  -
|  1> ! ri-mp2 aug-cc-pvdz aug-cc-pvdz/c tightscf
|  2> %pal nprocs 16 end
|  3> %maxcore 3800
|  4> %base "DZ_B-B_2_AB"
|  5> %scf
|  6> STABPerform true
|  7> STABRestartUHFifUnstable true
|  8> end
|  9>
| 10> *xyz 0 1
| 11> B         0.606126    1.047092   -0.560632
| 12> B        -0.606126    1.047091    0.560634
| 13> C        -1.880441    0.142644    0.543653
| 14> C         1.880443    0.142647   -0.543652
| 15> C         2.047763   -0.838761    0.612587
| 16> H         1.886058   -0.390903   -1.504453
| 17> H         2.754584    0.801658   -0.622332
| 18> H         1.206875   -1.533215    0.664193
| 19> H         2.094777   -0.315238    1.569119
| 20> H         2.957186   -1.434496    0.520800
| 21> C        -2.047765   -0.838757   -0.612590
| 22> H        -2.754585    0.801651    0.622344
| 23> H        -1.886048   -0.390913    1.504452
| 24> H        -2.094787   -0.315228   -1.569119
| 25> H        -2.957185   -1.434496   -0.520802
| 26> H        -1.206875   -1.533208   -0.664205
| 27> H        -0.519465    1.813420    1.483489
| 28> H         0.519464    1.813422   -1.483486
| 29> *
| 30>
| 31> $new_job
| 32> ! ri-mp2 aug-cc-pvtz aug-cc-pvtz/c tightscf
| 33> %pal nprocs 16 end
| 34> %maxcore 3800
| 35> %base "TZ_B-B_2_AB"
| 36>
| 37> *xyz 0 1
| 38> B         0.606126    1.047092   -0.560632
| 39> B        -0.606126    1.047091    0.560634
| 40> C        -1.880441    0.142644    0.543653
| 41> C         1.880443    0.142647   -0.543652
| 42> C         2.047763   -0.838761    0.612587
| 43> H         1.886058   -0.390903   -1.504453
| 44> H         2.754584    0.801658   -0.622332
| 45> H         1.206875   -1.533215    0.664193
| 46> H         2.094777   -0.315238    1.569119
| 47> H         2.957186   -1.434496    0.520800
| 48> C        -2.047765   -0.838757   -0.612590
| 49> H        -2.754585    0.801651    0.622344
| 50> H        -1.886048   -0.390913    1.504452
| 51> H        -2.094787   -0.315228   -1.569119
| 52> H        -2.957185   -1.434496   -0.520802
| 53> H        -1.206875   -1.533208   -0.664205
| 54> H        -0.519465    1.813420    1.483489
| 55> H         0.519464    1.813422   -1.483486
| 56> *
| 57>
| 58> $new_job
| 59> ! ri-mp2 aug-cc-pvqz aug-cc-pvqz/c tightscf
| 60> %pal nprocs 16 end
| 61> %maxcore 3800
| 62> %base "QZ_B-B_2_AB"
| 63>
| 64> *xyz 0 1
| 65> B         0.606126    1.047092   -0.560632
| 66> B        -0.606126    1.047091    0.560634
| 67> C        -1.880441    0.142644    0.543653
| 68> C         1.880443    0.142647   -0.543652
| 69> C         2.047763   -0.838761    0.612587
| 70> H         1.886058   -0.390903   -1.504453
| 71> H         2.754584    0.801658   -0.622332
| 72> H         1.206875   -1.533215    0.664193
| 73> H         2.094777   -0.315238    1.569119
| 74> H         2.957186   -1.434496    0.520800
| 75> C        -2.047765   -0.838757   -0.612590
| 76> H        -2.754585    0.801651    0.622344
| 77> H        -1.886048   -0.390913    1.504452
| 78> H        -2.094787   -0.315228   -1.569119
| 79> H        -2.957185   -1.434496   -0.520802
| 80> H        -1.206875   -1.533208   -0.664205
| 81> H        -0.519465    1.813420    1.483489
| 82> H         0.519464    1.813422   -1.483486
| 83> *
| 84>
| 85>
| 86>
| 87>
| 88>                          ****END OF INPUT****
 Total Charge           Charge          ....    0
 Multiplicity           Mult            ....    1
 Number of Electrons    NEL             ....   46
MP2 TOTAL ENERGY:     -208.582217676 Eh
FINAL SINGLE POINT ENERGY      -208.582217676158
MP2 TOTAL ENERGY:     -208.785184753 Eh
FINAL SINGLE POINT ENERGY      -208.785184752656

CARTESIAN COORDINATES (ANGSTROEM)
---------------------------------
  B      0.606126    1.047092   -0.560632
  B     -0.606126    1.047091    0.560634
  C     -1.880441    0.142644    0.543653
  C      1.880443    0.142647   -0.543652
  C      2.047763   -0.838761    0.612587
  H      1.886058   -0.390903   -1.504453
  H      2.754584    0.801658   -0.622332
  H      1.206875   -1.533215    0.664193
  H      2.094777   -0.315238    1.569119
  H      2.957186   -1.434496    0.520800
  C     -2.047765   -0.838757   -0.612590
  H     -2.754585    0.801651    0.622344
  H     -1.886048   -0.390913    1.504452
  H     -2.094787   -0.315228   -1.569119
  H     -2.957185   -1.434496   -0.520802
  H     -1.206875   -1.533208   -0.664205
  H     -0.519465    1.813420    1.483489
  H      0.519464    1.813422   -1.483486

 Multiplicity           Mult            ....    1
 Number of Electrons    NEL             ....   46
 Basis Dimension        Dim             .... 1032

ORBITAL ENERGIES
----------------

  NO   OCC          E(Eh)            E(eV)
   0   2.0000     -11.211502      -305.0805
   1   2.0000     -11.211502      -305.0805
   2   2.0000     -11.199227      -304.7465
   3   2.0000     -11.199227      -304.7465
   4   2.0000      -7.567561      -205.9238
   5   2.0000      -7.566624      -205.8983
   6   2.0000      -1.023538       -27.8519
   7   2.0000      -1.017666       -27.6921
   8   2.0000      -0.852888       -23.2083
   9   2.0000      -0.848862       -23.0987
  10   2.0000      -0.696385       -18.9496
  11   2.0000      -0.602244       -16.3879
  12   2.0000      -0.597706       -16.2644
  13   2.0000      -0.594811       -16.1856
  14   2.0000      -0.572817       -15.5871
  15   2.0000      -0.570806       -15.5324
  16   2.0000      -0.522443       -14.2164
  17   2.0000      -0.494460       -13.4549
  18   2.0000      -0.487997       -13.2791
  19   2.0000      -0.486403       -13.2357
  20   2.0000      -0.445400       -12.1199
  21   2.0000      -0.444375       -12.0921
  22   2.0000      -0.391410       -10.6508
  23   0.0000       0.021713         0.5908
  24   0.0000       0.029072         0.7911
  25   0.0000       0.031245         0.8502
  26   0.0000       0.031852         0.8667
  27   0.0000       0.044041         1.1984

MULLIKEN ATOMIC CHARGES
-----------------------
   0 B :    0.623899
   1 B :    0.623903
   2 C :   -0.584083
   3 C :   -0.584084
   4 C :   -0.872813
   5 H :    0.250034
   6 H :    0.303363
   7 H :    0.251087
   8 H :    0.217112
   9 H :    0.295024
  10 C :   -0.872813
  11 H :    0.303364
  12 H :    0.250032
  13 H :    0.217112
  14 H :    0.295024
  15 H :    0.251087
  16 H :   -0.483625
  17 H :   -0.483624
Sum of atomic charges:    0.0000000

LOEWDIN ATOMIC CHARGES
----------------------
   0 B :    0.053046
   1 B :    0.053045
   2 C :    0.605560
   3 C :    0.605562
   4 C :    0.905976
   5 H :   -0.290313
   6 H :   -0.290736
   7 H :   -0.287447
   8 H :   -0.278999
   9 H :   -0.275638
  10 C :    0.905975
  11 H :   -0.290735
  12 H :   -0.290312
  13 H :   -0.278998
  14 H :   -0.275638
  15 H :   -0.287447
  16 H :   -0.141451
  17 H :   -0.141451

  Mayer bond orders larger than 0.100000
B(  0-B ,  1-B ) :   1.0717 B(  0-B ,  3-C ) :   1.0049 B(  0-B , 17-H ) :   0.7905
B(  1-B ,  2-C ) :   1.0049 B(  1-B , 16-H ) :   0.7905 B(  2-C , 10-C ) :   0.9491
B(  2-C , 11-H ) :   0.8347 B(  2-C , 12-H ) :   0.8468 B(  3-C ,  4-C ) :   0.9491
B(  3-C ,  5-H ) :   0.8468 B(  3-C ,  6-H ) :   0.8347 B(  4-C ,  7-H ) :   0.9238
B(  4-C ,  8-H ) :   0.9596 B(  4-C ,  9-H ) :   0.9682 B( 10-C , 13-H ) :   0.9596
B( 10-C , 14-H ) :   0.9682 B( 10-C , 15-H ) :   0.9238

MP2 TOTAL ENERGY:     -208.845723004 Eh
FINAL SINGLE POINT ENERGY      -208.845723003607

DIPOLE MOMENT
-------------
                                X             Y             Z
Electronic contribution:      0.00000       3.84546       0.00000
Nuclear contribution   :     -0.00000      -4.02058      -0.00000
                        -----------------------------------------
Total Dipole Moment    :      0.00000      -0.17513       0.00000
                        -----------------------------------------
Magnitude (a.u.)       :      0.17513
Magnitude (Debye)      :      0.44514

Rotational constants in cm-1:     0.173214     0.059122     0.055400
Rotational constants in MHz :  5192.814083  1772.430546  1660.853960

                             ****ORCA TERMINATED NORMALLY****
TOTAL RUN TIME: 0 days 2 hours 3 minutes 45 seconds 103 msec
