                         Program Version 5.0.4 -  RELEASE  -
|  1> ! ri-mp2 aug-cc-pvdz aug-cc-pvdz/c tightscf
|  2> %pal nprocs 16 end
|  3> %maxcore 3800
|  4> %base "DZ_Si-Si_26_AB"
|  5> %scf
|  6> STABPerform true
|  7> STABRestartUHFifUnstable true
|  8> end
|  9>
| 10> *xyz 0 1
| 11> Si         1.519716    0.000000   -0.356154
| 12> Si        -0.645978    0.000000    0.524574
| 13> Cl        -1.598961   -1.675187   -0.169596
| 14> Cl        -1.598962    1.675187   -0.169596
| 15> H        -0.726564    0.000000    1.992582
| 16> F         2.293289    1.279788    0.180062
| 17> H         1.579733   -0.000001   -1.825342
| 18> F         2.293289   -1.279787    0.180065
| 19> *
| 20>
| 21> $new_job
| 22> ! ri-mp2 aug-cc-pvtz aug-cc-pvtz/c tightscf
| 23> %pal nprocs 16 end
| 24> %maxcore 3800
| 25> %base "TZ_Si-Si_26_AB"
| 26>
| 27> *xyz 0 1
| 28> Si         1.519716    0.000000   -0.356154
| 29> Si        -0.645978    0.000000    0.524574
| 30> Cl        -1.598961   -1.675187   -0.169596
| 31> Cl        -1.598962    1.675187   -0.169596
| 32> H        -0.726564    0.000000    1.992582
| 33> F         2.293289    1.279788    0.180062
| 34> H         1.579733   -0.000001   -1.825342
| 35> F         2.293289   -1.279787    0.180065
| 36> *
| 37>
| 38> $new_job
| 39> ! ri-mp2 aug-cc-pvqz aug-cc-pvqz/c tightscf
| 40> %pal nprocs 16 end
| 41> %maxcore 3800
| 42> %base "QZ_Si-Si_26_AB"
| 43>
| 44> *xyz 0 1
| 45> Si         1.519716    0.000000   -0.356154
| 46> Si        -0.645978    0.000000    0.524574
| 47> Cl        -1.598961   -1.675187   -0.169596
| 48> Cl        -1.598962    1.675187   -0.169596
| 49> H        -0.726564    0.000000    1.992582
| 50> F         2.293289    1.279788    0.180062
| 51> H         1.579733   -0.000001   -1.825342
| 52> F         2.293289   -1.279787    0.180065
| 53> *
| 54>
| 55>
| 56>
| 57>
| 58>                          ****END OF INPUT****
 Total Charge           Charge          ....    0
 Multiplicity           Mult            ....    1
 Number of Electrons    NEL             ....   82
MP2 TOTAL ENERGY:    -1698.059801482 Eh
FINAL SINGLE POINT ENERGY     -1698.059801481719
MP2 TOTAL ENERGY:    -1698.432636116 Eh
FINAL SINGLE POINT ENERGY     -1698.432636116249

CARTESIAN COORDINATES (ANGSTROEM)
---------------------------------
  Si     1.519716    0.000000   -0.356154
  Si    -0.645978    0.000000    0.524574
  Cl    -1.598961   -1.675187   -0.169596
  Cl    -1.598962    1.675187   -0.169596
  H     -0.726564    0.000000    1.992582
  F      2.293289    1.279788    0.180062
  H      1.579733   -0.000001   -1.825342
  F      2.293289   -1.279787    0.180065

 Multiplicity           Mult            ....    1
 Number of Electrons    NEL             ....   82
 Basis Dimension        Dim             ....  588

ORBITAL ENERGIES
----------------

  NO   OCC          E(Eh)            E(eV)
   0   2.0000    -104.850809     -2853.1356
   1   2.0000    -104.850809     -2853.1356
   2   2.0000     -68.870280     -1874.0556
   3   2.0000     -68.866207     -1873.9448
   4   2.0000     -26.309680      -715.9228
   5   2.0000     -26.309672      -715.9226
   6   2.0000     -10.578219      -287.8480
   7   2.0000     -10.578214      -287.8479
   8   2.0000      -8.044976      -218.9149
   9   2.0000      -8.044975      -218.9149
  10   2.0000      -8.043825      -218.8836
  11   2.0000      -8.043825      -218.8836
  12   2.0000      -8.043786      -218.8825
  13   2.0000      -8.043785      -218.8825
  14   2.0000      -6.211740      -169.0300
  15   2.0000      -6.205496      -168.8601
  16   2.0000      -4.318780      -117.5200
  17   2.0000      -4.318071      -117.5007
  18   2.0000      -4.317187      -117.4766
  19   2.0000      -4.313362      -117.3726
  20   2.0000      -4.312626      -117.3525
  21   2.0000      -4.311729      -117.3281
  22   2.0000      -1.623411       -44.1752
  23   2.0000      -1.604976       -43.6736
  24   2.0000      -1.135134       -30.8886
  25   2.0000      -1.107390       -30.1336
  26   2.0000      -0.818330       -22.2679
  27   2.0000      -0.737305       -20.0631
  28   2.0000      -0.733965       -19.9722
  29   2.0000      -0.713260       -19.4088
  30   2.0000      -0.696894       -18.9634
  31   2.0000      -0.679433       -18.4883
  32   2.0000      -0.661861       -18.0102
  33   2.0000      -0.593792       -16.1579
  34   2.0000      -0.566514       -15.4156
  35   2.0000      -0.565505       -15.3882
  36   2.0000      -0.527141       -14.3442
  37   2.0000      -0.493068       -13.4171
  38   2.0000      -0.486397       -13.2355
  39   2.0000      -0.476114       -12.9557
  40   2.0000      -0.426218       -11.5980
  41   0.0000       0.029804         0.8110
  42   0.0000       0.030289         0.8242
  43   0.0000       0.037623         1.0238
  44   0.0000       0.037640         1.0242
  45   0.0000       0.051516         1.4018

MULLIKEN ATOMIC CHARGES
-----------------------
   0 Si:    1.643627
   1 Si:    1.278285
   2 Cl:   -0.572157
   3 Cl:   -0.572157
   4 H :   -0.201581
   5 F :   -0.701876
   6 H :   -0.172265
   7 F :   -0.701876
Sum of atomic charges:    0.0000000

LOEWDIN ATOMIC CHARGES
----------------------
   0 Si:   -0.632654
   1 Si:   -1.164429
   2 Cl:    0.847057
   3 Cl:    0.847056
   4 H :   -0.369191
   5 F :    0.381645
   6 H :   -0.291130
   7 F :    0.381645

  Mayer bond orders larger than 0.100000
B(  0-Si,  1-Si) :   0.9125 B(  0-Si,  5-F ) :   0.3798 B(  0-Si,  6-H ) :   0.9222
B(  0-Si,  7-F ) :   0.3798 B(  1-Si,  2-Cl) :   0.5628 B(  1-Si,  3-Cl) :   0.5628
B(  1-Si,  4-H ) :   0.9180

MP2 TOTAL ENERGY:    -1698.558874509 Eh
FINAL SINGLE POINT ENERGY     -1698.558874509358

DIPOLE MOMENT
-------------
                                X             Y             Z
Electronic contribution:     -0.90570       0.00000      -0.28991
Nuclear contribution   :      0.77936      -0.00000       0.26417
                        -----------------------------------------
Total Dipole Moment    :     -0.12634      -0.00000      -0.02574
                        -----------------------------------------
Magnitude (a.u.)       :      0.12894
Magnitude (Debye)      :      0.32773

Rotational constants in cm-1:     0.059556     0.034926     0.023348
Rotational constants in MHz :  1785.431246  1047.064431   699.942564

                             ****ORCA TERMINATED NORMALLY****
TOTAL RUN TIME: 0 days 0 hours 18 minutes 20 seconds 522 msec
