                         Program Version 5.0.4 -  RELEASE  -
|  1> ! ri-mp2 aug-cc-pvdz aug-cc-pvdz/c tightscf
|  2> %pal nprocs 16 end
|  3> %maxcore 3800
|  4> %base "DZ_S-F_82_AB"
|  5>
|  6> *xyz 0 1
|  7> F         2.446448   -0.022187    0.880658
|  8> S         1.763151   -0.715689   -0.432751
|  9> C         0.073249   -0.373798   -0.138544
| 10> C        -0.418266    0.939772   -0.098505
| 11> C        -1.784384    1.110019    0.066457
| 12> C        -2.644586    0.027844    0.159184
| 13> C        -0.788546   -1.459661   -0.021870
| 14> H        -0.375633   -2.458984   -0.029963
| 15> C        -2.150745   -1.262646    0.107508
| 16> H        -2.816959   -2.110616    0.187034
| 17> H        -2.184716    2.115021    0.108080
| 18> C         0.489791    2.123640   -0.211879
| 19> H         1.081075    2.251005    0.695210
| 20> H        -0.081604    3.034264   -0.380457
| 21> H         1.197242    1.991487   -1.031314
| 22> H        -3.706928    0.197515    0.275390
| 23> *
| 24>
| 25> $new_job
| 26> ! ri-mp2 aug-cc-pvtz aug-cc-pvtz/c tightscf
| 27> %pal nprocs 16 end
| 28> %maxcore 3800
| 29> %base "TZ_S-F_82_AB"
| 30>
| 31> *xyz 0 1
| 32> F         2.446448   -0.022187    0.880658
| 33> S         1.763151   -0.715689   -0.432751
| 34> C         0.073249   -0.373798   -0.138544
| 35> C        -0.418266    0.939772   -0.098505
| 36> C        -1.784384    1.110019    0.066457
| 37> C        -2.644586    0.027844    0.159184
| 38> C        -0.788546   -1.459661   -0.021870
| 39> H        -0.375633   -2.458984   -0.029963
| 40> C        -2.150745   -1.262646    0.107508
| 41> H        -2.816959   -2.110616    0.187034
| 42> H        -2.184716    2.115021    0.108080
| 43> C         0.489791    2.123640   -0.211879
| 44> H         1.081075    2.251005    0.695210
| 45> H        -0.081604    3.034264   -0.380457
| 46> H         1.197242    1.991487   -1.031314
| 47> H        -3.706928    0.197515    0.275390
| 48> *
| 49>
| 50> $new_job
| 51> ! ri-mp2 aug-cc-pvqz aug-cc-pvqz/c tightscf
| 52> %pal nprocs 16 end
| 53> %maxcore 3800
| 54> %base "QZ_S-F_82_AB"
| 55>
| 56> *xyz 0 1
| 57> F         2.446448   -0.022187    0.880658
| 58> S         1.763151   -0.715689   -0.432751
| 59> C         0.073249   -0.373798   -0.138544
| 60> C        -0.418266    0.939772   -0.098505
| 61> C        -1.784384    1.110019    0.066457
| 62> C        -2.644586    0.027844    0.159184
| 63> C        -0.788546   -1.459661   -0.021870
| 64> H        -0.375633   -2.458984   -0.029963
| 65> C        -2.150745   -1.262646    0.107508
| 66> H        -2.816959   -2.110616    0.187034
| 67> H        -2.184716    2.115021    0.108080
| 68> C         0.489791    2.123640   -0.211879
| 69> H         1.081075    2.251005    0.695210
| 70> H        -0.081604    3.034264   -0.380457
| 71> H         1.197242    1.991487   -1.031314
| 72> H        -3.706928    0.197515    0.275390
| 73> *
| 74>
| 75>
| 76>
| 77>
| 78>                          ****END OF INPUT****
 Total Charge           Charge          ....    0
 Multiplicity           Mult            ....    1
 Number of Electrons    NEL             ....   74
MP2 TOTAL ENERGY:     -767.437862217 Eh
FINAL SINGLE POINT ENERGY      -767.437862216541
MP2 TOTAL ENERGY:     -767.813002480 Eh
FINAL SINGLE POINT ENERGY      -767.813002479838

CARTESIAN COORDINATES (ANGSTROEM)
---------------------------------
  F      2.446448   -0.022187    0.880658
  S      1.763151   -0.715689   -0.432751
  C      0.073249   -0.373798   -0.138544
  C     -0.418266    0.939772   -0.098505
  C     -1.784384    1.110019    0.066457
  C     -2.644586    0.027844    0.159184
  C     -0.788546   -1.459661   -0.021870
  H     -0.375633   -2.458984   -0.029963
  C     -2.150745   -1.262646    0.107508
  H     -2.816959   -2.110616    0.187034
  H     -2.184716    2.115021    0.108080
  C      0.489791    2.123640   -0.211879
  H      1.081075    2.251005    0.695210
  H     -0.081604    3.034264   -0.380457
  H      1.197242    1.991487   -1.031314
  H     -3.706928    0.197515    0.275390

 Multiplicity           Mult            ....    1
 Number of Electrons    NEL             ....   74
 Basis Dimension        Dim             .... 1046

ORBITAL ENERGIES
----------------

  NO   OCC          E(Eh)            E(eV)
   0   2.0000     -92.023827     -2504.0956
   1   2.0000     -26.295371      -715.5334
   2   2.0000     -11.268513      -306.6318
   3   2.0000     -11.262343      -306.4639
   4   2.0000     -11.254553      -306.2520
   5   2.0000     -11.251699      -306.1743
   6   2.0000     -11.241363      -305.8930
   7   2.0000     -11.240566      -305.8714
   8   2.0000     -11.226051      -305.4764
   9   2.0000      -9.018430      -245.4040
  10   2.0000      -6.700108      -182.3192
  11   2.0000      -6.698143      -182.2657
  12   2.0000      -6.696962      -182.2336
  13   2.0000      -1.592708       -43.3398
  14   2.0000      -1.182855       -32.1871
  15   2.0000      -1.071267       -29.1507
  16   2.0000      -1.056717       -28.7547
  17   2.0000      -0.964772       -26.2528
  18   2.0000      -0.929597       -25.2956
  19   2.0000      -0.834568       -22.7097
  20   2.0000      -0.808773       -22.0078
  21   2.0000      -0.712031       -19.3754
  22   2.0000      -0.683656       -18.6032
  23   2.0000      -0.675858       -18.3910
  24   2.0000      -0.665399       -18.1064
  25   2.0000      -0.649387       -17.6707
  26   2.0000      -0.623713       -16.9721
  27   2.0000      -0.589466       -16.0402
  28   2.0000      -0.583091       -15.8667
  29   2.0000      -0.558237       -15.1904
  30   2.0000      -0.540471       -14.7070
  31   2.0000      -0.509918       -13.8756
  32   2.0000      -0.508173       -13.8281
  33   2.0000      -0.472347       -12.8532
  34   2.0000      -0.391609       -10.6562
  35   2.0000      -0.347626        -9.4594
  36   2.0000      -0.337487        -9.1835
  37   0.0000       0.022719         0.6182
  38   0.0000       0.027143         0.7386
  39   0.0000       0.032186         0.8758
  40   0.0000       0.041536         1.1303
  41   0.0000       0.043525         1.1844

MULLIKEN ATOMIC CHARGES
-----------------------
   0 F :   -0.665013
   1 S :    0.351047
   2 C :   -0.262479
   3 C :    0.452039
   4 C :   -0.419023
   5 C :   -0.222500
   6 C :   -0.229200
   7 H :    0.421593
   8 C :   -0.255490
   9 H :    0.287729
  10 H :    0.246518
  11 C :   -0.736573
  12 H :    0.269305
  13 H :    0.296332
  14 H :    0.212667
  15 H :    0.253046
Sum of atomic charges:    0.0000000

LOEWDIN ATOMIC CHARGES
----------------------
   0 F :    0.108832
   1 S :    0.762095
   2 C :   -0.562691
   3 C :   -0.178141
   4 C :    0.343759
   5 C :    0.349797
   6 C :    0.210588
   7 H :   -0.359176
   8 C :    0.341168
   9 H :   -0.321953
  10 H :   -0.321364
  11 C :    0.862673
  12 H :   -0.293662
  13 H :   -0.303159
  14 H :   -0.325151
  15 H :   -0.313613

  Mayer bond orders larger than 0.100000
B(  0-F ,  1-S ) :   0.5751 B(  0-F ,  2-C ) :  -0.1335 B(  1-S ,  2-C ) :   1.2014
B(  1-S ,  3-C ) :  -0.1639 B(  1-S ,  6-C ) :  -0.2563 B(  2-C ,  3-C ) :   1.1103
B(  2-C ,  4-C ) :  -0.1045 B(  2-C ,  6-C ) :   1.0563 B(  2-C ,  8-C ) :  -0.1517
B(  3-C ,  4-C ) :   1.0664 B(  3-C ,  5-C ) :  -0.2417 B(  3-C , 11-C ) :   0.5690
B(  3-C , 13-H ) :  -0.1027 B(  3-C , 14-H ) :  -0.1231 B(  4-C ,  5-C ) :   1.1985
B(  4-C ,  6-C ) :   0.1198 B(  4-C , 10-H ) :   1.0377 B(  4-C , 15-H ) :  -0.1485
B(  5-C ,  8-C ) :   1.1188 B(  5-C , 15-H ) :   1.1211 B(  6-C ,  7-H ) :   0.8998
B(  6-C ,  8-C ) :   1.1969 B(  6-C ,  9-H ) :  -0.1357 B(  8-C ,  9-H ) :   1.0624
B(  8-C , 15-H ) :  -0.1059 B( 11-C , 12-H ) :   0.9701 B( 11-C , 13-H ) :   0.9797
B( 11-C , 14-H ) :   1.0455

MP2 TOTAL ENERGY:     -767.933703157 Eh
FINAL SINGLE POINT ENERGY      -767.933703156769

DIPOLE MOMENT
-------------
                                X             Y             Z
Electronic contribution:      8.10605      -4.81018       0.76155
Nuclear contribution   :     -9.14652       4.94924      -1.00906
                        -----------------------------------------
Total Dipole Moment    :     -1.04047       0.13906      -0.24752
                        -----------------------------------------
Magnitude (a.u.)       :      1.07851
Magnitude (Debye)      :      2.74136

Rotational constants in cm-1:     0.084479     0.036922     0.027710
Rotational constants in MHz :  2532.620283  1106.893061   830.732069

                             ****ORCA TERMINATED NORMALLY****
TOTAL RUN TIME: 0 days 0 hours 30 minutes 7 seconds 389 msec
