                         Program Version 5.0.4 -  RELEASE  -
|  1> ! ri-mp2 aug-cc-pvdz aug-cc-pvdz/c tightscf
|  2> %pal nprocs 16 end
|  3> %maxcore 3800
|  4> %base "DZ_B-Si_68_AB"
|  5> %scf
|  6> STABPerform true
|  7> STABRestartUHFifUnstable true
|  8> end
|  9>
| 10> *xyz 0 1
| 11> Si         0.058603   -0.000000   -0.073747
| 12> B        -1.594481   -0.000005   -1.221204
| 13> Cl         1.183915    1.656751   -0.502968
| 14> Cl         1.183905   -1.656765   -0.502942
| 15> Cl        -0.337266    0.000016    1.927967
| 16> O        -2.789536   -0.000000   -0.614371
| 17> H        -3.548197   -0.000004   -1.207940
| 18> H        -1.502982   -0.000014   -2.413587
| 19> *
| 20>
| 21> $new_job
| 22> ! ri-mp2 aug-cc-pvtz aug-cc-pvtz/c tightscf
| 23> %pal nprocs 16 end
| 24> %maxcore 3800
| 25> %base "TZ_B-Si_68_AB"
| 26>
| 27> *xyz 0 1
| 28> Si         0.058603   -0.000000   -0.073747
| 29> B        -1.594481   -0.000005   -1.221204
| 30> Cl         1.183915    1.656751   -0.502968
| 31> Cl         1.183905   -1.656765   -0.502942
| 32> Cl        -0.337266    0.000016    1.927967
| 33> O        -2.789536   -0.000000   -0.614371
| 34> H        -3.548197   -0.000004   -1.207940
| 35> H        -1.502982   -0.000014   -2.413587
| 36> *
| 37>
| 38> $new_job
| 39> ! ri-mp2 aug-cc-pvqz aug-cc-pvqz/c tightscf
| 40> %pal nprocs 16 end
| 41> %maxcore 3800
| 42> %base "QZ_B-Si_68_AB"
| 43>
| 44> *xyz 0 1
| 45> Si         0.058603   -0.000000   -0.073747
| 46> B        -1.594481   -0.000005   -1.221204
| 47> Cl         1.183915    1.656751   -0.502968
| 48> Cl         1.183905   -1.656765   -0.502942
| 49> Cl        -0.337266    0.000016    1.927967
| 50> O        -2.789536   -0.000000   -0.614371
| 51> H        -3.548197   -0.000004   -1.207940
| 52> H        -1.502982   -0.000014   -2.413587
| 53> *
| 54>
| 55>
| 56>
| 57>
| 58>                          ****END OF INPUT****
 Total Charge           Charge          ....    0
 Multiplicity           Mult            ....    1
 Number of Electrons    NEL             ....   80
MP2 TOTAL ENERGY:    -1769.185935183 Eh
FINAL SINGLE POINT ENERGY     -1769.185935182781
MP2 TOTAL ENERGY:    -1769.496812621 Eh
FINAL SINGLE POINT ENERGY     -1769.496812620767

CARTESIAN COORDINATES (ANGSTROEM)
---------------------------------
  Si     0.058603   -0.000000   -0.073747
  B     -1.594481   -0.000005   -1.221204
  Cl     1.183915    1.656751   -0.502968
  Cl     1.183905   -1.656765   -0.502942
  Cl    -0.337266    0.000016    1.927967
  O     -2.789536   -0.000000   -0.614371
  H     -3.548197   -0.000004   -1.207940
  H     -1.502982   -0.000014   -2.413587

 Multiplicity           Mult            ....    1
 Number of Electrons    NEL             ....   80
 Basis Dimension        Dim             ....  588

ORBITAL ENERGIES
----------------

  NO   OCC          E(Eh)            E(eV)
   0   2.0000    -104.840502     -2852.8551
   1   2.0000    -104.840502     -2852.8551
   2   2.0000    -104.838439     -2852.7990
   3   2.0000     -68.881840     -1874.3702
   4   2.0000     -20.610281      -560.8343
   5   2.0000     -10.568070      -287.5718
   6   2.0000     -10.568064      -287.5716
   7   2.0000     -10.565997      -287.5154
   8   2.0000      -8.034811      -218.6383
   9   2.0000      -8.034810      -218.6383
  10   2.0000      -8.033662      -218.6071
  11   2.0000      -8.033662      -218.6070
  12   2.0000      -8.033651      -218.6068
  13   2.0000      -8.033651      -218.6067
  14   2.0000      -8.032760      -218.5825
  15   2.0000      -8.031586      -218.5506
  16   2.0000      -8.031563      -218.5499
  17   2.0000      -7.653597      -208.2650
  18   2.0000      -6.219518      -169.2417
  19   2.0000      -4.326482      -117.7296
  20   2.0000      -4.326447      -117.7286
  21   2.0000      -4.324730      -117.6819
  22   2.0000      -1.406012       -38.2595
  23   2.0000      -1.138854       -30.9898
  24   2.0000      -1.097670       -29.8691
  25   2.0000      -1.096452       -29.8360
  26   2.0000      -0.807010       -21.9599
  27   2.0000      -0.705995       -19.2111
  28   2.0000      -0.674831       -18.3631
  29   2.0000      -0.591317       -16.0906
  30   2.0000      -0.578033       -15.7291
  31   2.0000      -0.563930       -15.3453
  32   2.0000      -0.562883       -15.3168
  33   2.0000      -0.518847       -14.1186
  34   2.0000      -0.496613       -13.5135
  35   2.0000      -0.496244       -13.5035
  36   2.0000      -0.470499       -12.8029
  37   2.0000      -0.468705       -12.7541
  38   2.0000      -0.455512       -12.3951
  39   2.0000      -0.420673       -11.4471
  40   0.0000       0.016507         0.4492
  41   0.0000       0.033580         0.9138
  42   0.0000       0.035600         0.9687
  43   0.0000       0.038126         1.0375
  44   0.0000       0.053441         1.4542

MULLIKEN ATOMIC CHARGES
-----------------------
   0 Si:    1.877108
   1 B :    0.722151
   2 Cl:   -0.599085
   3 Cl:   -0.599085
   4 Cl:   -0.585959
   5 O :   -0.945758
   6 H :    0.372495
   7 H :   -0.241866
Sum of atomic charges:    0.0000000

LOEWDIN ATOMIC CHARGES
----------------------
   0 Si:   -2.200892
   1 B :   -0.626220
   2 Cl:    0.857967
   3 Cl:    0.857966
   4 Cl:    0.870054
   5 O :    1.260493
   6 H :   -0.784967
   7 H :   -0.234401

  Mayer bond orders larger than 0.100000
B(  0-Si,  1-B ) :   1.0302 B(  0-Si,  2-Cl) :   0.4828 B(  0-Si,  3-Cl) :   0.4828
B(  0-Si,  4-Cl) :   0.5142 B(  0-Si,  5-O ) :  -0.1099 B(  1-B ,  5-O ) :   0.6121
B(  1-B ,  7-H ) :   0.8725 B(  5-O ,  6-H ) :   0.8914

MP2 TOTAL ENERGY:    -1769.601650378 Eh
FINAL SINGLE POINT ENERGY     -1769.601650378376

DIPOLE MOMENT
-------------
                                X             Y             Z
Electronic contribution:      5.09900       0.00001       2.82372
Nuclear contribution   :     -6.18293      -0.00002      -3.64579
                        -----------------------------------------
Total Dipole Moment    :     -1.08392      -0.00000      -0.82208
                        -----------------------------------------
Magnitude (a.u.)       :      1.36041
Magnitude (Debye)      :      3.45788

Rotational constants in cm-1:     0.045195     0.037506     0.036197
Rotational constants in MHz :  1354.903927  1124.399524  1085.161704

                             ****ORCA TERMINATED NORMALLY****
TOTAL RUN TIME: 0 days 0 hours 22 minutes 58 seconds 714 msec
