                         Program Version 5.0.4 -  RELEASE  -
|  1> ! ri-mp2 aug-cc-pvdz aug-cc-pvdz/c tightscf
|  2> %pal nprocs 16 end
|  3> %maxcore 3800
|  4> %base "DZ_B-Cl_66_AB"
|  5>
|  6> *xyz 0 1
|  7> Cl        -2.518113    1.495012    0.003307
|  8> Cl        -2.518081   -1.495039    0.003306
|  9> B        -1.596911   -0.000003    0.000880
| 10> C        -0.061386    0.000010   -0.002304
| 11> C         0.664925   -1.194636   -0.005667
| 12> H         0.135416   -2.137559   -0.007412
| 13> C         2.044345   -1.193671   -0.010490
| 14> H         2.581320   -2.134107   -0.017138
| 15> C         2.757527    0.000044   -0.010011
| 16> C         4.255937   -0.000014    0.016733
| 17> C         0.664887    1.194654   -0.005661
| 18> H         0.135363    2.137568   -0.007403
| 19> C         2.044331    1.193721   -0.010483
| 20> H         2.581281    2.134168   -0.017125
| 21> H         4.661715   -0.882821   -0.475628
| 22> H         4.619619   -0.002447    1.046724
| 23> H         4.661746    0.885025   -0.471550
| 24> *
| 25>
| 26> $new_job
| 27> ! ri-mp2 aug-cc-pvtz aug-cc-pvtz/c tightscf
| 28> %pal nprocs 16 end
| 29> %maxcore 3800
| 30> %base "TZ_B-Cl_66_AB"
| 31>
| 32> *xyz 0 1
| 33> Cl        -2.518113    1.495012    0.003307
| 34> Cl        -2.518081   -1.495039    0.003306
| 35> B        -1.596911   -0.000003    0.000880
| 36> C        -0.061386    0.000010   -0.002304
| 37> C         0.664925   -1.194636   -0.005667
| 38> H         0.135416   -2.137559   -0.007412
| 39> C         2.044345   -1.193671   -0.010490
| 40> H         2.581320   -2.134107   -0.017138
| 41> C         2.757527    0.000044   -0.010011
| 42> C         4.255937   -0.000014    0.016733
| 43> C         0.664887    1.194654   -0.005661
| 44> H         0.135363    2.137568   -0.007403
| 45> C         2.044331    1.193721   -0.010483
| 46> H         2.581281    2.134168   -0.017125
| 47> H         4.661715   -0.882821   -0.475628
| 48> H         4.619619   -0.002447    1.046724
| 49> H         4.661746    0.885025   -0.471550
| 50> *
| 51>
| 52> $new_job
| 53> ! ri-mp2 aug-cc-pvqz aug-cc-pvqz/c tightscf
| 54> %pal nprocs 16 end
| 55> %maxcore 3800
| 56> %base "QZ_B-Cl_66_AB"
| 57>
| 58> *xyz 0 1
| 59> Cl        -2.518113    1.495012    0.003307
| 60> Cl        -2.518081   -1.495039    0.003306
| 61> B        -1.596911   -0.000003    0.000880
| 62> C        -0.061386    0.000010   -0.002304
| 63> C         0.664925   -1.194636   -0.005667
| 64> H         0.135416   -2.137559   -0.007412
| 65> C         2.044345   -1.193671   -0.010490
| 66> H         2.581320   -2.134107   -0.017138
| 67> C         2.757527    0.000044   -0.010011
| 68> C         4.255937   -0.000014    0.016733
| 69> C         0.664887    1.194654   -0.005661
| 70> H         0.135363    2.137568   -0.007403
| 71> C         2.044331    1.193721   -0.010483
| 72> H         2.581281    2.134168   -0.017125
| 73> H         4.661715   -0.882821   -0.475628
| 74> H         4.619619   -0.002447    1.046724
| 75> H         4.661746    0.885025   -0.471550
| 76> *
| 77>
| 78>
| 79>
| 80>
| 81>                          ****END OF INPUT****
 Total Charge           Charge          ....    0
 Multiplicity           Mult            ....    1
 Number of Electrons    NEL             ....   88
MP2 TOTAL ENERGY:    -1214.317645069 Eh
FINAL SINGLE POINT ENERGY     -1214.317645069338
MP2 TOTAL ENERGY:    -1214.695448232 Eh
FINAL SINGLE POINT ENERGY     -1214.695448232420

CARTESIAN COORDINATES (ANGSTROEM)
---------------------------------
  Cl    -2.518113    1.495012    0.003307
  Cl    -2.518081   -1.495039    0.003306
  B     -1.596911   -0.000003    0.000880
  C     -0.061386    0.000010   -0.002304
  C      0.664925   -1.194636   -0.005667
  H      0.135416   -2.137559   -0.007412
  C      2.044345   -1.193671   -0.010490
  H      2.581320   -2.134107   -0.017138
  C      2.757527    0.000044   -0.010011
  C      4.255937   -0.000014    0.016733
  C      0.664887    1.194654   -0.005661
  H      0.135363    2.137568   -0.007403
  C      2.044331    1.193721   -0.010483
  H      2.581281    2.134168   -0.017125
  H      4.661715   -0.882821   -0.475628
  H      4.619619   -0.002447    1.046724
  H      4.661746    0.885025   -0.471550

 Multiplicity           Mult            ....    1
 Number of Electrons    NEL             ....   88
 Basis Dimension        Dim             .... 1130

ORBITAL ENERGIES
----------------

  NO   OCC          E(Eh)            E(eV)
   0   2.0000    -104.832967     -2852.6501
   1   2.0000    -104.832966     -2852.6500
   2   2.0000     -11.261374      -306.4376
   3   2.0000     -11.250240      -306.1346
   4   2.0000     -11.250225      -306.1342
   5   2.0000     -11.235711      -305.7392
   6   2.0000     -11.235674      -305.7382
   7   2.0000     -11.234812      -305.7148
   8   2.0000     -11.225159      -305.4521
   9   2.0000     -10.560940      -287.3778
  10   2.0000     -10.560932      -287.3776
  11   2.0000      -8.027772      -218.4468
  12   2.0000      -8.027771      -218.4468
  13   2.0000      -8.026722      -218.4182
  14   2.0000      -8.026720      -218.4181
  15   2.0000      -8.026504      -218.4123
  16   2.0000      -8.026503      -218.4122
  17   2.0000      -7.700133      -209.5313
  18   2.0000      -1.174396       -31.9569
  19   2.0000      -1.137002       -30.9394
  20   2.0000      -1.092678       -29.7333
  21   2.0000      -1.060639       -28.8615
  22   2.0000      -1.029153       -28.0047
  23   2.0000      -0.950295       -25.8588
  24   2.0000      -0.841125       -22.8882
  25   2.0000      -0.818167       -22.2635
  26   2.0000      -0.723726       -19.6936
  27   2.0000      -0.660503       -17.9732
  28   2.0000      -0.657572       -17.8934
  29   2.0000      -0.631788       -17.1918
  30   2.0000      -0.598099       -16.2751
  31   2.0000      -0.591373       -16.0921
  32   2.0000      -0.577949       -15.7268
  33   2.0000      -0.564783       -15.3685
  34   2.0000      -0.544487       -14.8163
  35   2.0000      -0.526323       -14.3220
  36   2.0000      -0.506887       -13.7931
  37   2.0000      -0.497141       -13.5279
  38   2.0000      -0.492663       -13.4060
  39   2.0000      -0.461306       -12.5528
  40   2.0000      -0.459082       -12.4923
  41   2.0000      -0.445307       -12.1174
  42   2.0000      -0.350654        -9.5418
  43   2.0000      -0.344565        -9.3761
  44   0.0000       0.019461         0.5296
  45   0.0000       0.027586         0.7507
  46   0.0000       0.029870         0.8128
  47   0.0000       0.033817         0.9202
  48   0.0000       0.041812         1.1378

MULLIKEN ATOMIC CHARGES
-----------------------
   0 Cl:   -0.260369
   1 Cl:   -0.260371
   2 B :    0.881150
   3 C :   -0.500640
   4 C :   -0.339772
   5 H :    0.270399
   6 C :   -0.273446
   7 H :    0.239119
   8 C :    0.409524
   9 C :   -0.811731
  10 C :   -0.338789
  11 H :    0.270332
  12 C :   -0.274107
  13 H :    0.238515
  14 H :    0.231082
  15 H :    0.287806
  16 H :    0.231297
Sum of atomic charges:   -0.0000000

LOEWDIN ATOMIC CHARGES
----------------------
   0 Cl:    1.293742
   1 Cl:    1.293741
   2 B :   -2.312695
   3 C :   -0.160193
   4 C :    0.273819
   5 H :   -0.372888
   6 C :    0.364970
   7 H :   -0.315363
   8 C :   -0.068342
   9 C :    0.917353
  10 C :    0.273827
  11 H :   -0.372886
  12 C :    0.365007
  13 H :   -0.315413
  14 H :   -0.295549
  15 H :   -0.273438
  16 H :   -0.295693

  Mayer bond orders larger than 0.100000
B(  0-Cl,  2-B ) :   0.8931 B(  0-Cl,  3-C ) :   0.1994 B(  0-Cl, 11-H ) :  -0.1378
B(  1-Cl,  2-B ) :   0.8932 B(  1-Cl,  3-C ) :   0.1991 B(  1-Cl,  5-H ) :  -0.1380
B(  2-B ,  3-C ) :   1.2275 B(  3-C ,  4-C ) :   1.1330 B(  3-C ,  5-H ) :  -0.1229
B(  3-C ,  6-C ) :  -0.2224 B(  3-C , 10-C ) :   1.1334 B(  3-C , 11-H ) :  -0.1228
B(  3-C , 12-C ) :  -0.2223 B(  4-C ,  5-H ) :   1.0914 B(  4-C ,  6-C ) :   1.2538
B(  4-C ,  7-H ) :  -0.1673 B(  4-C ,  8-C ) :  -0.1272 B(  4-C , 12-C ) :   0.1702
B(  5-H ,  6-C ) :  -0.1410 B(  6-C ,  7-H ) :   1.0572 B(  6-C ,  8-C ) :   0.9539
B(  6-C , 10-C ) :   0.1698 B(  6-C , 12-C ) :  -0.1038 B(  8-C ,  9-C ) :   0.7720
B(  8-C , 10-C ) :  -0.1280 B(  8-C , 12-C ) :   0.9543 B(  8-C , 14-H ) :  -0.1112
B(  8-C , 16-H ) :  -0.1113 B(  9-C , 14-H ) :   1.0364 B(  9-C , 15-H ) :   0.9331
B(  9-C , 16-H ) :   1.0364 B( 10-C , 11-H ) :   1.0915 B( 10-C , 12-C ) :   1.2532
B( 10-C , 13-H ) :  -0.1675 B( 11-H , 12-C ) :  -0.1412 B( 12-C , 13-H ) :   1.0579

MP2 TOTAL ENERGY:    -1214.818238555 Eh
FINAL SINGLE POINT ENERGY     -1214.818238555295

DIPOLE MOMENT
-------------
                                X             Y             Z
Electronic contribution:    -25.33026       0.00006      -0.02420
Nuclear contribution   :     26.64642      -0.00013       0.03853
                        -----------------------------------------
Total Dipole Moment    :      1.31616      -0.00007       0.01433
                        -----------------------------------------
Magnitude (a.u.)       :      1.31624
Magnitude (Debye)      :      3.34562

Rotational constants in cm-1:     0.067830     0.017325     0.013836
Rotational constants in MHz :  2033.479327   519.383879   414.777869

                             ****ORCA TERMINATED NORMALLY****
TOTAL RUN TIME: 0 days 0 hours 37 minutes 59 seconds 665 msec
