                         Program Version 5.0.4 -  RELEASE  -
|  1> ! ri-mp2 aug-cc-pvdz aug-cc-pvdz/c tightscf
|  2> %pal nprocs 16 end
|  3> %maxcore 3800
|  4> %base "DZ_P-Si_33_AB"
|  5> %scf
|  6> STABPerform true
|  7> STABRestartUHFifUnstable true
|  8> end
|  9>
| 10> *xyz 0 1
| 11> Si         0.061354    0.967726    0.159393
| 12> C        -1.586740    0.252324   -0.396228
| 13> P         1.678516   -0.570666   -0.182820
| 14> N        -1.861585   -1.005698    0.297961
| 15> H        -1.612168    0.180877   -1.491983
| 16> H        -2.355865    0.976293   -0.116262
| 17> H        -1.217598   -1.732313    0.014936
| 18> H        -2.795315   -1.341547    0.103517
| 19> H         1.411740   -1.292978    1.003819
| 20> H         2.702687    0.208447    0.402267
| 21> H        -0.016907    1.400423    1.571294
| 22> H         0.398263    2.138561   -0.685149
| 23> *
| 24>
| 25> $new_job
| 26> ! ri-mp2 aug-cc-pvtz aug-cc-pvtz/c tightscf
| 27> %pal nprocs 16 end
| 28> %maxcore 3800
| 29> %base "TZ_P-Si_33_AB"
| 30>
| 31> *xyz 0 1
| 32> Si         0.061354    0.967726    0.159393
| 33> C        -1.586740    0.252324   -0.396228
| 34> P         1.678516   -0.570666   -0.182820
| 35> N        -1.861585   -1.005698    0.297961
| 36> H        -1.612168    0.180877   -1.491983
| 37> H        -2.355865    0.976293   -0.116262
| 38> H        -1.217598   -1.732313    0.014936
| 39> H        -2.795315   -1.341547    0.103517
| 40> H         1.411740   -1.292978    1.003819
| 41> H         2.702687    0.208447    0.402267
| 42> H        -0.016907    1.400423    1.571294
| 43> H         0.398263    2.138561   -0.685149
| 44> *
| 45>
| 46> $new_job
| 47> ! ri-mp2 aug-cc-pvqz aug-cc-pvqz/c tightscf
| 48> %pal nprocs 16 end
| 49> %maxcore 3800
| 50> %base "QZ_P-Si_33_AB"
| 51>
| 52> *xyz 0 1
| 53> Si         0.061354    0.967726    0.159393
| 54> C        -1.586740    0.252324   -0.396228
| 55> P         1.678516   -0.570666   -0.182820
| 56> N        -1.861585   -1.005698    0.297961
| 57> H        -1.612168    0.180877   -1.491983
| 58> H        -2.355865    0.976293   -0.116262
| 59> H        -1.217598   -1.732313    0.014936
| 60> H        -2.795315   -1.341547    0.103517
| 61> H         1.411740   -1.292978    1.003819
| 62> H         2.702687    0.208447    0.402267
| 63> H        -0.016907    1.400423    1.571294
| 64> H         0.398263    2.138561   -0.685149
| 65> *
| 66>
| 67>
| 68>
| 69>
| 70>                          ****END OF INPUT****
 Total Charge           Charge          ....    0
 Multiplicity           Mult            ....    1
 Number of Electrons    NEL             ....   50
MP2 TOTAL ENERGY:     -727.225064385 Eh
FINAL SINGLE POINT ENERGY      -727.225064384732
MP2 TOTAL ENERGY:     -727.396511743 Eh
FINAL SINGLE POINT ENERGY      -727.396511743453

CARTESIAN COORDINATES (ANGSTROEM)
---------------------------------
  Si     0.061354    0.967726    0.159393
  C     -1.586740    0.252324   -0.396228
  P      1.678516   -0.570666   -0.182820
  N     -1.861585   -1.005698    0.297961
  H     -1.612168    0.180877   -1.491983
  H     -2.355865    0.976293   -0.116262
  H     -1.217598   -1.732313    0.014936
  H     -2.795315   -1.341547    0.103517
  H      1.411740   -1.292978    1.003819
  H      2.702687    0.208447    0.402267
  H     -0.016907    1.400423    1.571294
  H      0.398263    2.138561   -0.685149

 Multiplicity           Mult            ....    1
 Number of Electrons    NEL             ....   50
 Basis Dimension        Dim             ....  696

ORBITAL ENERGIES
----------------

  NO   OCC          E(Eh)            E(eV)
   0   2.0000     -79.929062     -2174.9803
   1   2.0000     -68.770856     -1871.3501
   2   2.0000     -15.549057      -423.1114
   3   2.0000     -11.241546      -305.8980
   4   2.0000      -7.474139      -203.3817
   5   2.0000      -6.120386      -166.5442
   6   2.0000      -5.368072      -146.0727
   7   2.0000      -5.367744      -146.0637
   8   2.0000      -5.367130      -146.0470
   9   2.0000      -4.226798      -115.0170
  10   2.0000      -4.226420      -115.0067
  11   2.0000      -4.226042      -114.9965
  12   2.0000      -1.179672       -32.1005
  13   2.0000      -0.905410       -24.6375
  14   2.0000      -0.847675       -23.0664
  15   2.0000      -0.687975       -18.7207
  16   2.0000      -0.654932       -17.8216
  17   2.0000      -0.619486       -16.8571
  18   2.0000      -0.557931       -15.1821
  19   2.0000      -0.525736       -14.3060
  20   2.0000      -0.486851       -13.2479
  21   2.0000      -0.462750       -12.5921
  22   2.0000      -0.435626       -11.8540
  23   2.0000      -0.389355       -10.5949
  24   2.0000      -0.363406        -9.8888
  25   0.0000       0.023577         0.6416
  26   0.0000       0.032612         0.8874
  27   0.0000       0.034248         0.9319
  28   0.0000       0.037719         1.0264
  29   0.0000       0.050304         1.3688

MULLIKEN ATOMIC CHARGES
-----------------------
   0 Si:    0.762140
   1 C :   -0.495899
   2 P :   -0.008108
   3 N :   -0.731582
   4 H :    0.262098
   5 H :    0.285676
   6 H :    0.291804
   7 H :    0.215513
   8 H :   -0.052675
   9 H :   -0.086228
  10 H :   -0.187048
  11 H :   -0.255691
Sum of atomic charges:   -0.0000000

LOEWDIN ATOMIC CHARGES
----------------------
   0 Si:    0.508706
   1 C :    0.282003
   2 P :    1.418536
   3 N :    1.199594
   4 H :   -0.344784
   5 H :   -0.368618
   6 H :   -0.555799
   7 H :   -0.510116
   8 H :   -0.553079
   9 H :   -0.563408
  10 H :   -0.248306
  11 H :   -0.264729

  Mayer bond orders larger than 0.100000
B(  0-Si,  1-C ) :   0.8345 B(  0-Si,  2-P ) :   0.8208 B(  0-Si, 10-H ) :   0.8056
B(  0-Si, 11-H ) :   0.7813 B(  1-C ,  3-N ) :   0.8709 B(  1-C ,  4-H ) :   0.9243
B(  1-C ,  5-H ) :   0.9171 B(  2-P ,  8-H ) :   0.9021 B(  2-P ,  9-H ) :   0.9201
B(  3-N ,  6-H ) :   0.8801 B(  3-N ,  7-H ) :   0.9758

MP2 TOTAL ENERGY:     -727.450664853 Eh
FINAL SINGLE POINT ENERGY      -727.450664852788

DIPOLE MOMENT
-------------
                                X             Y             Z
Electronic contribution:      4.74250      -1.03159      -1.20414
Nuclear contribution   :     -5.14008       1.02491       0.97654
                        -----------------------------------------
Total Dipole Moment    :     -0.39758      -0.00667      -0.22759
                        -----------------------------------------
Magnitude (a.u.)       :      0.45816
Magnitude (Debye)      :      1.16456

Rotational constants in cm-1:     0.220353     0.082489     0.065188
Rotational constants in MHz :  6606.007465  2472.972991  1954.292819

                             ****ORCA TERMINATED NORMALLY****
TOTAL RUN TIME: 0 days 0 hours 30 minutes 10 seconds 758 msec
