                         Program Version 5.0.4 -  RELEASE  -
|  1> ! ri-mp2 aug-cc-pvdz aug-cc-pvdz/c tightscf
|  2> %pal nprocs 16 end
|  3> %maxcore 3800
|  4> %base "DZ_Si-Si_120_A"
|  5> %scf
|  6> STABPerform true
|  7> STABRestartUHFifUnstable true
|  8> end
|  9>
| 10> *xyz 0 2
| 11> Si         1.963793   -0.622963   -0.135380
| 12> S         0.003310    0.385142    0.033279
| 13> H         2.938483    0.482721   -0.048358
| 14> H         2.063469   -1.580708    0.984922
| 15> O        -0.225160    0.840618    1.375937
| 16> O        -0.913801   -0.895350   -0.225262
| 17> O        -0.176684    1.313013   -1.043953
| 18> C        -2.332773   -0.720254   -0.059099
| 19> H        -2.770111   -1.690732   -0.269043
| 20> H        -2.702764    0.020127   -0.766222
| 21> H        -2.553347   -0.416917    0.962385
| 22> *
| 23>
| 24> $new_job
| 25> ! ri-mp2 aug-cc-pvtz aug-cc-pvtz/c tightscf
| 26> %pal nprocs 16 end
| 27> %maxcore 3800
| 28> %base "TZ_Si-Si_120_A"
| 29>
| 30> *xyz 0 2
| 31> Si         1.963793   -0.622963   -0.135380
| 32> S         0.003310    0.385142    0.033279
| 33> H         2.938483    0.482721   -0.048358
| 34> H         2.063469   -1.580708    0.984922
| 35> O        -0.225160    0.840618    1.375937
| 36> O        -0.913801   -0.895350   -0.225262
| 37> O        -0.176684    1.313013   -1.043953
| 38> C        -2.332773   -0.720254   -0.059099
| 39> H        -2.770111   -1.690732   -0.269043
| 40> H        -2.702764    0.020127   -0.766222
| 41> H        -2.553347   -0.416917    0.962385
| 42> *
| 43>
| 44> $new_job
| 45> ! ri-mp2 aug-cc-pvqz aug-cc-pvqz/c tightscf
| 46> %pal nprocs 16 end
| 47> %maxcore 3800
| 48> %base "QZ_Si-Si_120_A"
| 49>
| 50> *xyz 0 2
| 51> Si         1.963793   -0.622963   -0.135380
| 52> S         0.003310    0.385142    0.033279
| 53> H         2.938483    0.482721   -0.048358
| 54> H         2.063469   -1.580708    0.984922
| 55> O        -0.225160    0.840618    1.375937
| 56> O        -0.913801   -0.895350   -0.225262
| 57> O        -0.176684    1.313013   -1.043953
| 58> C        -2.332773   -0.720254   -0.059099
| 59> H        -2.770111   -1.690732   -0.269043
| 60> H        -2.702764    0.020127   -0.766222
| 61> H        -2.553347   -0.416917    0.962385
| 62> *
| 63>
| 64>
| 65>
| 66>
| 67>                          ****END OF INPUT****
 Total Charge           Charge          ....    0
 Multiplicity           Mult            ....    2
 Number of Electrons    NEL             ....   65
MP2 TOTAL ENERGY:     -952.711141349 Eh
FINAL SINGLE POINT ENERGY      -952.711141348957
MP2 TOTAL ENERGY:     -953.069698909 Eh
FINAL SINGLE POINT ENERGY      -953.069698908719

CARTESIAN COORDINATES (ANGSTROEM)
---------------------------------
  Si     1.963793   -0.622963   -0.135380
  S      0.003310    0.385142    0.033279
  H      2.938483    0.482721   -0.048358
  H      2.063469   -1.580708    0.984922
  O     -0.225160    0.840618    1.375937
  O     -0.913801   -0.895350   -0.225262
  O     -0.176684    1.313013   -1.043953
  C     -2.332773   -0.720254   -0.059099
  H     -2.770111   -1.690732   -0.269043
  H     -2.702764    0.020127   -0.766222
  H     -2.553347   -0.416917    0.962385

 Multiplicity           Mult            ....    2
 Number of Electrons    NEL             ....   65
 Basis Dimension        Dim             ....  718

ORBITAL ENERGIES
----------------
                 SPIN UP ORBITALS
  NO   OCC          E(Eh)            E(eV)
   0   1.0000     -92.190367     -2508.6274
   1   1.0000     -68.839291     -1873.2123
   2   1.0000     -20.618379      -561.0546
   3   1.0000     -20.552361      -559.2582
   4   1.0000     -20.550735      -559.2139
   5   1.0000     -11.301806      -307.5378
   6   1.0000      -9.157977      -249.2012
   7   1.0000      -6.843935      -186.2329
   8   1.0000      -6.842301      -186.1885
   9   1.0000      -6.842035      -186.1813
  10   1.0000      -6.188763      -168.4048
  11   1.0000      -4.300810      -117.0310
  12   1.0000      -4.291378      -116.7743
  13   1.0000      -4.290499      -116.7504
  14   1.0000      -1.502994       -40.8986
  15   1.0000      -1.392305       -37.8866
  16   1.0000      -1.352754       -36.8103
  17   1.0000      -1.000185       -27.2164
  18   1.0000      -0.866781       -23.5863
  19   1.0000      -0.781153       -21.2563
  20   1.0000      -0.713560       -19.4170
  21   1.0000      -0.692747       -18.8506
  22   1.0000      -0.681198       -18.5364
  23   1.0000      -0.635557       -17.2944
  24   1.0000      -0.616788       -16.7837
  25   1.0000      -0.578044       -15.7294
  26   1.0000      -0.538989       -14.6666
  27   1.0000      -0.526794       -14.3348
  28   1.0000      -0.512687       -13.9509
  29   1.0000      -0.504518       -13.7286
  30   1.0000      -0.469263       -12.7693
  31   1.0000      -0.456108       -12.4113
  32   1.0000      -0.382604       -10.4112
  33   0.0000       0.020071         0.5462
  34   0.0000       0.027730         0.7546
  35   0.0000       0.038384         1.0445
  36   0.0000       0.040053         1.0899
  37   0.0000       0.047343         1.2883

                 SPIN DOWN ORBITALS
  NO   OCC          E(Eh)            E(eV)
   0   1.0000     -92.190245     -2508.6241
   1   1.0000     -68.833078     -1873.0433
   2   1.0000     -20.618407      -561.0554
   3   1.0000     -20.550786      -559.2153
   4   1.0000     -20.550266      -559.2012
   5   1.0000     -11.301862      -307.5393
   6   1.0000      -9.157798      -249.1964
   7   1.0000      -6.843763      -186.2282
   8   1.0000      -6.842184      -186.1853
   9   1.0000      -6.841897      -186.1775
  10   1.0000      -6.179001      -168.1392
  11   1.0000      -4.287184      -116.6602
  12   1.0000      -4.286427      -116.6396
  13   1.0000      -4.277494      -116.3965
  14   1.0000      -1.501986       -40.8711
  15   1.0000      -1.391387       -37.8616
  16   1.0000      -1.349822       -36.7305
  17   1.0000      -0.999444       -27.1962
  18   1.0000      -0.858051       -23.3487
  19   1.0000      -0.765223       -20.8228
  20   1.0000      -0.708410       -19.2768
  21   1.0000      -0.691841       -18.8260
  22   1.0000      -0.664204       -18.0739
  23   1.0000      -0.633364       -17.2347
  24   1.0000      -0.610445       -16.6111
  25   1.0000      -0.577545       -15.7158
  26   1.0000      -0.529324       -14.4036
  27   1.0000      -0.524427       -14.2704
  28   1.0000      -0.509856       -13.8739
  29   1.0000      -0.497654       -13.5419
  30   1.0000      -0.466732       -12.7004
  31   1.0000      -0.443882       -12.0786
  32   0.0000      -0.001625        -0.0442
  33   0.0000       0.022406         0.6097
  34   0.0000       0.028283         0.7696
  35   0.0000       0.038724         1.0537
  36   0.0000       0.044751         1.2177

MULLIKEN ATOMIC CHARGES AND SPIN POPULATIONS
--------------------------------------------
   0 Si:    0.813652    0.951129
   1 S :    2.253622   -0.026512
   2 H :   -0.190148    0.023559
   3 H :   -0.155903    0.031419
   4 O :   -1.152970    0.034052
   5 O :   -0.773948   -0.008104
   6 O :   -1.179777   -0.004788
   7 C :   -0.642087   -0.001070
   8 H :    0.396010    0.000201
   9 H :    0.309853   -0.000182
  10 H :    0.321695    0.000297
Sum of atomic charges         :    0.0000000

LOEWDIN ATOMIC CHARGES AND SPIN POPULATIONS
-------------------------------------------
   0 Si:    0.980754    0.566728
   1 S :   -0.751406    0.121844
   2 H :   -0.368839    0.129118
   3 H :   -0.362849    0.131243
   4 O :    0.222782    0.035779
   5 O :    0.527094    0.010738
   6 O :    0.212171    0.004696
   7 C :    0.528240    0.000201
   8 H :   -0.329835   -0.000174
   9 H :   -0.323686   -0.000102
  10 H :   -0.334428   -0.000070

  Mayer bond orders larger than 0.100000
B(  0-Si,  1-S ) :   0.6047 B(  0-Si,  2-H ) :   0.9246 B(  0-Si,  3-H ) :   0.9161
B(  1-S ,  4-O ) :   1.1290 B(  1-S ,  5-O ) :   0.6344 B(  1-S ,  6-O ) :   1.1350
B(  5-O ,  7-C ) :   0.8643 B(  7-C ,  8-H ) :   0.8637 B(  7-C ,  9-H ) :   0.8920
B(  7-C , 10-H ) :   0.8721

MP2 TOTAL ENERGY:     -953.186503041 Eh
FINAL SINGLE POINT ENERGY      -953.186503041448

DIPOLE MOMENT
-------------
                                X             Y             Z
Electronic contribution:      3.39125       1.65341      -1.01826
Nuclear contribution   :     -3.08549      -3.06151       0.85082
                        -----------------------------------------
Total Dipole Moment    :      0.30576      -1.40810      -0.16744
                        -----------------------------------------
Magnitude (a.u.)       :      1.45061
Magnitude (Debye)      :      3.68715

Rotational constants in cm-1:     0.128788     0.061376     0.055751
Rotational constants in MHz :  3860.981604  1839.992082  1671.360769

                             ****ORCA TERMINATED NORMALLY****
TOTAL RUN TIME: 0 days 2 hours 0 minutes 33 seconds 491 msec
