                         Program Version 5.0.4 -  RELEASE  -
|  1> ! ri-mp2 aug-cc-pvdz aug-cc-pvdz/c tightscf
|  2> %pal nprocs 16 end
|  3> %maxcore 3800
|  4> %base "DZ_B-Cl_64_AB"
|  5>
|  6> *xyz 0 1
|  7> Cl         2.135771   -1.571908    0.406891
|  8> Cl         2.147231    1.256291   -0.494797
|  9> B         1.202481   -0.141620   -0.015408
| 10> C        -0.342255   -0.182083   -0.005179
| 11> C        -1.183920    0.932023    0.194176
| 12> C        -2.558856    0.748291    0.132570
| 13> C        -3.120403   -0.486585   -0.135872
| 14> C        -0.936441   -1.427309   -0.247712
| 15> H        -0.301644   -2.291492   -0.383504
| 16> C        -2.304662   -1.585351   -0.329247
| 17> H        -2.729144   -2.559102   -0.532029
| 18> H        -3.206172    1.599268    0.302205
| 19> C        -0.677255    2.314073    0.498527
| 20> H        -0.257666    2.787327   -0.388818
| 21> H         0.103702    2.309301    1.256556
| 22> H        -1.493029    2.938939    0.857792
| 23> H        -4.196741   -0.588996   -0.184331
| 24> *
| 25>
| 26> $new_job
| 27> ! ri-mp2 aug-cc-pvtz aug-cc-pvtz/c tightscf
| 28> %pal nprocs 16 end
| 29> %maxcore 3800
| 30> %base "TZ_B-Cl_64_AB"
| 31>
| 32> *xyz 0 1
| 33> Cl         2.135771   -1.571908    0.406891
| 34> Cl         2.147231    1.256291   -0.494797
| 35> B         1.202481   -0.141620   -0.015408
| 36> C        -0.342255   -0.182083   -0.005179
| 37> C        -1.183920    0.932023    0.194176
| 38> C        -2.558856    0.748291    0.132570
| 39> C        -3.120403   -0.486585   -0.135872
| 40> C        -0.936441   -1.427309   -0.247712
| 41> H        -0.301644   -2.291492   -0.383504
| 42> C        -2.304662   -1.585351   -0.329247
| 43> H        -2.729144   -2.559102   -0.532029
| 44> H        -3.206172    1.599268    0.302205
| 45> C        -0.677255    2.314073    0.498527
| 46> H        -0.257666    2.787327   -0.388818
| 47> H         0.103702    2.309301    1.256556
| 48> H        -1.493029    2.938939    0.857792
| 49> H        -4.196741   -0.588996   -0.184331
| 50> *
| 51>
| 52> $new_job
| 53> ! ri-mp2 aug-cc-pvqz aug-cc-pvqz/c tightscf
| 54> %pal nprocs 16 end
| 55> %maxcore 3800
| 56> %base "QZ_B-Cl_64_AB"
| 57>
| 58> *xyz 0 1
| 59> Cl         2.135771   -1.571908    0.406891
| 60> Cl         2.147231    1.256291   -0.494797
| 61> B         1.202481   -0.141620   -0.015408
| 62> C        -0.342255   -0.182083   -0.005179
| 63> C        -1.183920    0.932023    0.194176
| 64> C        -2.558856    0.748291    0.132570
| 65> C        -3.120403   -0.486585   -0.135872
| 66> C        -0.936441   -1.427309   -0.247712
| 67> H        -0.301644   -2.291492   -0.383504
| 68> C        -2.304662   -1.585351   -0.329247
| 69> H        -2.729144   -2.559102   -0.532029
| 70> H        -3.206172    1.599268    0.302205
| 71> C        -0.677255    2.314073    0.498527
| 72> H        -0.257666    2.787327   -0.388818
| 73> H         0.103702    2.309301    1.256556
| 74> H        -1.493029    2.938939    0.857792
| 75> H        -4.196741   -0.588996   -0.184331
| 76> *
| 77>
| 78>
| 79>
| 80>
| 81>                          ****END OF INPUT****
 Total Charge           Charge          ....    0
 Multiplicity           Mult            ....    1
 Number of Electrons    NEL             ....   88
MP2 TOTAL ENERGY:    -1214.311799684 Eh
FINAL SINGLE POINT ENERGY     -1214.311799684317
MP2 TOTAL ENERGY:    -1214.689512958 Eh
FINAL SINGLE POINT ENERGY     -1214.689512957510

CARTESIAN COORDINATES (ANGSTROEM)
---------------------------------
  Cl     2.135771   -1.571908    0.406891
  Cl     2.147231    1.256291   -0.494797
  B      1.202481   -0.141620   -0.015408
  C     -0.342255   -0.182083   -0.005179
  C     -1.183920    0.932023    0.194176
  C     -2.558856    0.748291    0.132570
  C     -3.120403   -0.486585   -0.135872
  C     -0.936441   -1.427309   -0.247712
  H     -0.301644   -2.291492   -0.383504
  C     -2.304662   -1.585351   -0.329247
  H     -2.729144   -2.559102   -0.532029
  H     -3.206172    1.599268    0.302205
  C     -0.677255    2.314073    0.498527
  H     -0.257666    2.787327   -0.388818
  H      0.103702    2.309301    1.256556
  H     -1.493029    2.938939    0.857792
  H     -4.196741   -0.588996   -0.184331

 Multiplicity           Mult            ....    1
 Number of Electrons    NEL             ....   88
 Basis Dimension        Dim             .... 1130

ORBITAL ENERGIES
----------------

  NO   OCC          E(Eh)            E(eV)
   0   2.0000    -104.835246     -2852.7121
   1   2.0000    -104.833559     -2852.6662
   2   2.0000     -11.261146      -306.4314
   3   2.0000     -11.249867      -306.1244
   4   2.0000     -11.248584      -306.0895
   5   2.0000     -11.235350      -305.7294
   6   2.0000     -11.234748      -305.7130
   7   2.0000     -11.229767      -305.5775
   8   2.0000     -11.226330      -305.4840
   9   2.0000     -10.563414      -287.4451
  10   2.0000     -10.561583      -287.3953
  11   2.0000      -8.030216      -218.5133
  12   2.0000      -8.029181      -218.4851
  13   2.0000      -8.028937      -218.4785
  14   2.0000      -8.028395      -218.4637
  15   2.0000      -8.027355      -218.4354
  16   2.0000      -8.027126      -218.4292
  17   2.0000      -7.705181      -209.6686
  18   2.0000      -1.173124       -31.9223
  19   2.0000      -1.138540       -30.9813
  20   2.0000      -1.094553       -29.7843
  21   2.0000      -1.059196       -28.8222
  22   2.0000      -1.027973       -27.9726
  23   2.0000      -0.945265       -25.7220
  24   2.0000      -0.842960       -22.9381
  25   2.0000      -0.815127       -22.1807
  26   2.0000      -0.718609       -19.5543
  27   2.0000      -0.670708       -18.2509
  28   2.0000      -0.654944       -17.8219
  29   2.0000      -0.627983       -17.0883
  30   2.0000      -0.597815       -16.2674
  31   2.0000      -0.587501       -15.9867
  32   2.0000      -0.578152       -15.7323
  33   2.0000      -0.559291       -15.2191
  34   2.0000      -0.546672       -14.8757
  35   2.0000      -0.520470       -14.1627
  36   2.0000      -0.510091       -13.8803
  37   2.0000      -0.498697       -13.5702
  38   2.0000      -0.497174       -13.5288
  39   2.0000      -0.461082       -12.5467
  40   2.0000      -0.455254       -12.3881
  41   2.0000      -0.443940       -12.0802
  42   2.0000      -0.352271        -9.5858
  43   2.0000      -0.339686        -9.2433
  44   0.0000       0.020731         0.5641
  45   0.0000       0.026862         0.7310
  46   0.0000       0.029921         0.8142
  47   0.0000       0.036632         0.9968
  48   0.0000       0.041275         1.1232

MULLIKEN ATOMIC CHARGES
-----------------------
   0 Cl:   -0.300493
   1 Cl:   -0.320510
   2 B :    0.804267
   3 C :   -0.126476
   4 C :    0.657374
   5 C :   -0.493561
   6 C :   -0.296291
   7 C :   -0.567831
   8 H :    0.255570
   9 C :   -0.345637
  10 H :    0.271101
  11 H :    0.235831
  12 C :   -0.783743
  13 H :    0.259317
  14 H :    0.180006
  15 H :    0.288505
  16 H :    0.282571
Sum of atomic charges:    0.0000000

LOEWDIN ATOMIC CHARGES
----------------------
   0 Cl:    1.305510
   1 Cl:    1.327827
   2 B :   -2.300846
   3 C :   -0.124170
   4 C :   -0.107678
   5 C :    0.349695
   6 C :    0.358621
   7 C :    0.253178
   8 H :   -0.390711
   9 C :    0.361078
  10 H :   -0.318734
  11 H :   -0.324925
  12 C :    0.859628
  13 H :   -0.313282
  14 H :   -0.316699
  15 H :   -0.308594
  16 H :   -0.309898

  Mayer bond orders larger than 0.100000
B(  0-Cl,  2-B ) :   0.8848 B(  1-Cl,  2-B ) :   0.9366 B(  2-B ,  3-C ) :   1.1056
B(  3-C ,  4-C ) :   0.9517 B(  3-C ,  5-C ) :  -0.2542 B(  3-C ,  7-C ) :   1.0479
B(  3-C ,  8-H ) :  -0.1097 B(  3-C ,  9-C ) :  -0.2947 B(  4-C ,  5-C ) :   1.0161
B(  4-C ,  6-C ) :  -0.2461 B(  4-C ,  7-C ) :  -0.1163 B(  4-C ,  9-C ) :   0.1152
B(  4-C , 12-C ) :   0.6157 B(  4-C , 14-H ) :  -0.1033 B(  4-C , 15-H ) :  -0.1096
B(  5-C ,  6-C ) :   1.2394 B(  5-C ,  7-C ) :   0.1591 B(  5-C , 11-H ) :   1.0294
B(  5-C , 12-C ) :  -0.1411 B(  5-C , 16-H ) :  -0.1688 B(  6-C ,  9-C ) :   1.1951
B(  6-C , 16-H ) :   1.1032 B(  7-C ,  8-H ) :   1.0658 B(  7-C ,  9-C ) :   1.2220
B(  7-C , 10-H ) :  -0.1578 B(  9-C , 10-H ) :   1.0930 B(  9-C , 16-H ) :  -0.1201
B( 12-C , 13-H ) :   0.9892 B( 12-C , 14-H ) :   1.0826 B( 12-C , 15-H ) :   0.9861

MP2 TOTAL ENERGY:    -1214.812132025 Eh
FINAL SINGLE POINT ENERGY     -1214.812132024693

DIPOLE MOMENT
-------------
                                X             Y             Z
Electronic contribution:     17.38324      -4.38909      -0.99134
Nuclear contribution   :    -18.33633       4.55216       1.01931
                        -----------------------------------------
Total Dipole Moment    :     -0.95310       0.16307       0.02797
                        -----------------------------------------
Magnitude (a.u.)       :      0.96735
Magnitude (Debye)      :      2.45881

Rotational constants in cm-1:     0.049111     0.024303     0.017020
Rotational constants in MHz :  1472.324461   728.573864   510.253850

                             ****ORCA TERMINATED NORMALLY****
TOTAL RUN TIME: 0 days 0 hours 46 minutes 26 seconds 678 msec
