                         Program Version 5.0.4 -  RELEASE  -
|  1> ! ri-mp2 aug-cc-pvdz aug-cc-pvdz/c tightscf
|  2> %pal nprocs 16 end
|  3> %maxcore 3800
|  4> %base "DZ_B-Si_39_AB"
|  5>
|  6> *xyz 0 1
|  7> Si        -0.109940   -0.626688    0.000006
|  8> B         1.680979    0.310303    0.000009
|  9> N        -1.453077    0.677131   -0.000016
| 10> O         1.758735    1.651530    0.000027
| 11> O         2.775212   -0.478682   -0.000008
| 12> O        -1.059920    1.845020   -0.000031
| 13> O        -2.614731    0.356195   -0.000019
| 14> F        -0.448080   -1.477881   -1.279587
| 15> F        -0.448096   -1.477861    1.279609
| 16> H         3.608732    0.008580   -0.000008
| 17> H         0.888274    2.082782    0.000028
| 18> *
| 19>
| 20> $new_job
| 21> ! ri-mp2 aug-cc-pvtz aug-cc-pvtz/c tightscf
| 22> %pal nprocs 16 end
| 23> %maxcore 3800
| 24> %base "TZ_B-Si_39_AB"
| 25>
| 26> *xyz 0 1
| 27> Si        -0.109940   -0.626688    0.000006
| 28> B         1.680979    0.310303    0.000009
| 29> N        -1.453077    0.677131   -0.000016
| 30> O         1.758735    1.651530    0.000027
| 31> O         2.775212   -0.478682   -0.000008
| 32> O        -1.059920    1.845020   -0.000031
| 33> O        -2.614731    0.356195   -0.000019
| 34> F        -0.448080   -1.477881   -1.279587
| 35> F        -0.448096   -1.477861    1.279609
| 36> H         3.608732    0.008580   -0.000008
| 37> H         0.888274    2.082782    0.000028
| 38> *
| 39>
| 40> $new_job
| 41> ! ri-mp2 aug-cc-pvqz aug-cc-pvqz/c tightscf
| 42> %pal nprocs 16 end
| 43> %maxcore 3800
| 44> %base "QZ_B-Si_39_AB"
| 45>
| 46> *xyz 0 1
| 47> Si        -0.109940   -0.626688    0.000006
| 48> B         1.680979    0.310303    0.000009
| 49> N        -1.453077    0.677131   -0.000016
| 50> O         1.758735    1.651530    0.000027
| 51> O         2.775212   -0.478682   -0.000008
| 52> O        -1.059920    1.845020   -0.000031
| 53> O        -2.614731    0.356195   -0.000019
| 54> F        -0.448080   -1.477881   -1.279587
| 55> F        -0.448096   -1.477861    1.279609
| 56> H         3.608732    0.008580   -0.000008
| 57> H         0.888274    2.082782    0.000028
| 58> *
| 59>
| 60>
| 61>
| 62>
| 63>                          ****END OF INPUT****
 Total Charge           Charge          ....    0
 Multiplicity           Mult            ....    1
 Number of Electrons    NEL             ....   78
MP2 TOTAL ENERGY:     -869.334195342 Eh
FINAL SINGLE POINT ENERGY      -869.334195342158
MP2 TOTAL ENERGY:     -869.864556719 Eh
FINAL SINGLE POINT ENERGY      -869.864556719416

CARTESIAN COORDINATES (ANGSTROEM)
---------------------------------
  Si    -0.109940   -0.626688    0.000006
  B      1.680979    0.310303    0.000009
  N     -1.453077    0.677131   -0.000016
  O      1.758735    1.651530    0.000027
  O      2.775212   -0.478682   -0.000008
  O     -1.059920    1.845020   -0.000031
  O     -2.614731    0.356195   -0.000019
  F     -0.448080   -1.477881   -1.279587
  F     -0.448096   -1.477861    1.279609
  H      3.608732    0.008580   -0.000008
  H      0.888274    2.082782    0.000028

 Multiplicity           Mult            ....    1
 Number of Electrons    NEL             ....   78
 Basis Dimension        Dim             ....  816

ORBITAL ENERGIES
----------------

  NO   OCC          E(Eh)            E(eV)
   0   2.0000     -68.908534     -1875.0965
   1   2.0000     -26.338509      -716.7073
   2   2.0000     -26.338501      -716.7070
   3   2.0000     -20.633186      -561.4575
   4   2.0000     -20.622497      -561.1667
   5   2.0000     -20.606645      -560.7353
   6   2.0000     -20.598697      -560.5190
   7   2.0000     -15.838721      -430.9935
   8   2.0000      -7.687693      -209.1928
   9   2.0000      -6.246971      -169.9887
  10   2.0000      -4.354693      -118.4972
  11   2.0000      -4.354457      -118.4908
  12   2.0000      -4.352608      -118.4405
  13   2.0000      -1.655187       -45.0399
  14   2.0000      -1.635339       -44.4998
  15   2.0000      -1.622932       -44.1622
  16   2.0000      -1.425613       -38.7929
  17   2.0000      -1.419584       -38.6289
  18   2.0000      -1.385039       -37.6888
  19   2.0000      -0.982902       -26.7461
  20   2.0000      -0.845774       -23.0147
  21   2.0000      -0.815903       -22.2019
  22   2.0000      -0.790015       -21.4974
  23   2.0000      -0.771922       -21.0051
  24   2.0000      -0.767512       -20.8851
  25   2.0000      -0.750107       -20.4115
  26   2.0000      -0.734844       -19.9961
  27   2.0000      -0.731546       -19.9064
  28   2.0000      -0.717145       -19.5145
  29   2.0000      -0.700765       -19.0688
  30   2.0000      -0.688986       -18.7483
  31   2.0000      -0.659996       -17.9594
  32   2.0000      -0.610847       -16.6220
  33   2.0000      -0.606869       -16.5137
  34   2.0000      -0.536759       -14.6060
  35   2.0000      -0.528351       -14.3772
  36   2.0000      -0.522593       -14.2205
  37   2.0000      -0.478397       -13.0179
  38   2.0000      -0.473740       -12.8911
  39   0.0000       0.019593         0.5331
  40   0.0000       0.032118         0.8740
  41   0.0000       0.032804         0.8926
  42   0.0000       0.037642         1.0243
  43   0.0000       0.043686         1.1888

MULLIKEN ATOMIC CHARGES
-----------------------
   0 Si:    2.082551
   1 B :    1.264790
   2 N :    0.623202
   3 O :   -1.143720
   4 O :   -0.993789
   5 O :   -0.621170
   6 O :   -0.535446
   7 F :   -0.705487
   8 F :   -0.705487
   9 H :    0.345866
  10 H :    0.388689
Sum of atomic charges:   -0.0000000

LOEWDIN ATOMIC CHARGES
----------------------
   0 Si:   -0.771430
   1 B :   -1.140500
   2 N :   -0.824407
   3 O :    1.321072
   4 O :    1.289651
   5 O :    0.517797
   6 O :    0.470796
   7 F :    0.468759
   8 F :    0.468758
   9 H :   -0.784193
  10 H :   -1.016304

  Mayer bond orders larger than 0.100000
B(  0-Si,  1-B ) :   0.9927 B(  0-Si,  2-N ) :   0.4277 B(  0-Si,  4-O ) :  -0.1318
B(  0-Si,  7-F ) :   0.4722 B(  0-Si,  8-F ) :   0.4722 B(  1-B ,  3-O ) :   0.5399
B(  1-B ,  4-O ) :   0.4149 B(  2-N ,  5-O ) :   1.2426 B(  2-N ,  6-O ) :   1.4169
B(  3-O ,  4-O ) :  -0.1388 B(  3-O , 10-H ) :   0.8721 B(  4-O ,  9-H ) :   0.9310
B(  5-O ,  6-O ) :   0.1463

MP2 TOTAL ENERGY:     -870.042607233 Eh
FINAL SINGLE POINT ENERGY      -870.042607232683

DIPOLE MOMENT
-------------
                                X             Y             Z
Electronic contribution:     -2.40443      -4.58551       0.00003
Nuclear contribution   :      3.77095       4.53310      -0.00001
                        -----------------------------------------
Total Dipole Moment    :      1.36652      -0.05241       0.00002
                        -----------------------------------------
Magnitude (a.u.)       :      1.36752
Magnitude (Debye)      :      3.47597

Rotational constants in cm-1:     0.062042     0.037952     0.028501
Rotational constants in MHz :  1859.965615  1137.762706   854.440176

                             ****ORCA TERMINATED NORMALLY****
TOTAL RUN TIME: 0 days 0 hours 8 minutes 29 seconds 40 msec
