                         Program Version 5.0.4 -  RELEASE  -
|  1> ! ri-mp2 aug-cc-pvdz aug-cc-pvdz/c tightscf
|  2> %pal nprocs 16 end
|  3> %maxcore 3800
|  4> %base "DZ_Si-F_22_A"
|  5> %scf
|  6> STABPerform true
|  7> STABRestartUHFifUnstable true
|  8> end
|  9>
| 10> *xyz 0 2
| 11> Si         0.058102   -0.496376    0.000000
| 12> O         0.058102    1.021735    0.000000
| 13> H        -1.278245   -1.224612    0.000000
| 14> *
| 15>
| 16> $new_job
| 17> ! ri-mp2 aug-cc-pvtz aug-cc-pvtz/c tightscf
| 18> %pal nprocs 16 end
| 19> %maxcore 3800
| 20> %base "TZ_Si-F_22_A"
| 21>
| 22> *xyz 0 2
| 23> Si         0.058102   -0.496376    0.000000
| 24> O         0.058102    1.021735    0.000000
| 25> H        -1.278245   -1.224612    0.000000
| 26> *
| 27>
| 28> $new_job
| 29> ! ri-mp2 aug-cc-pvqz aug-cc-pvqz/c tightscf
| 30> %pal nprocs 16 end
| 31> %maxcore 3800
| 32> %base "QZ_Si-F_22_A"
| 33>
| 34> *xyz 0 2
| 35> Si         0.058102   -0.496376    0.000000
| 36> O         0.058102    1.021735    0.000000
| 37> H        -1.278245   -1.224612    0.000000
| 38> *
| 39>
| 40>
| 41>
| 42>
| 43>                          ****END OF INPUT****
 Total Charge           Charge          ....    0
 Multiplicity           Mult            ....    2
 Number of Electrons    NEL             ....   23
MP2 TOTAL ENERGY:     -364.618562018 Eh
FINAL SINGLE POINT ENERGY      -364.618562017556
MP2 TOTAL ENERGY:     -364.717768541 Eh
FINAL SINGLE POINT ENERGY      -364.717768540895

CARTESIAN COORDINATES (ANGSTROEM)
---------------------------------
  Si     0.058102   -0.496376    0.000000
  O      0.058102    1.021735    0.000000
  H     -1.278245   -1.224612    0.000000

 Multiplicity           Mult            ....    2
 Number of Electrons    NEL             ....   23
 Basis Dimension        Dim             ....  210

ORBITAL ENERGIES
----------------
                 SPIN UP ORBITALS
  NO   OCC          E(Eh)            E(eV)
   0   1.0000     -68.831052     -1872.9881
   1   1.0000     -20.529330      -558.6315
   2   1.0000      -6.180027      -168.1671
   3   1.0000      -4.287840      -116.6781
   4   1.0000      -4.284108      -116.5765
   5   1.0000      -4.279538      -116.4522
   6   1.0000      -1.271262       -34.5928
   7   1.0000      -0.688510       -18.7353
   8   1.0000      -0.562383       -15.3032
   9   1.0000      -0.503308       -13.6957
  10   1.0000      -0.469443       -12.7742
  11   1.0000      -0.392961       -10.6930
  12   0.0000       0.007050         0.1919
  13   0.0000       0.024687         0.6718
  14   0.0000       0.042499         1.1565
  15   0.0000       0.044088         1.1997
  16   0.0000       0.061250         1.6667

                 SPIN DOWN ORBITALS
  NO   OCC          E(Eh)            E(eV)
   0   1.0000     -68.826954     -1872.8766
   1   1.0000     -20.519583      -558.3662
   2   1.0000      -6.172933      -167.9741
   3   1.0000      -4.280965      -116.4910
   4   1.0000      -4.279344      -116.4469
   5   1.0000      -4.271987      -116.2467
   6   1.0000      -1.240332       -33.7512
   7   1.0000      -0.633666       -17.2429
   8   1.0000      -0.506482       -13.7821
   9   1.0000      -0.466491       -12.6939
  10   1.0000      -0.444005       -12.0820
  11   0.0000      -0.009178        -0.2497
  12   0.0000       0.021378         0.5817
  13   0.0000       0.027589         0.7507
  14   0.0000       0.043706         1.1893
  15   0.0000       0.050223         1.3666

MULLIKEN ATOMIC CHARGES AND SPIN POPULATIONS
--------------------------------------------
   0 Si:    1.146519    0.594336
   1 O :   -0.987472    0.166983
   2 H :   -0.159047    0.238681
Sum of atomic charges         :   -0.0000000

LOEWDIN ATOMIC CHARGES AND SPIN POPULATIONS
-------------------------------------------
   0 Si:    0.479257    0.598514
   1 O :   -0.067923    0.202845
   2 H :   -0.411334    0.198641

  Mayer bond orders larger than 0.100000
B(  0-Si,  1-O ) :   1.5332 B(  0-Si,  2-H ) :   0.8551

MP2 TOTAL ENERGY:     -364.750300395 Eh
FINAL SINGLE POINT ENERGY      -364.750300395256

DIPOLE MOMENT
-------------
                                X             Y             Z
Electronic contribution:      1.16348      -0.50652      -0.00000
Nuclear contribution   :     -1.22696      -1.12879       0.00000
                        -----------------------------------------
Total Dipole Moment    :     -0.06348      -1.63531      -0.00000
                        -----------------------------------------
Magnitude (a.u.)       :      1.63654
Magnitude (Debye)      :      4.15976

Rotational constants in cm-1:    10.285766     0.668309     0.627536
Rotational constants in MHz : 308359.521313 20035.407146 18813.044969

                             ****ORCA TERMINATED NORMALLY****
TOTAL RUN TIME: 0 days 0 hours 2 minutes 46 seconds 879 msec
