                         Program Version 5.0.4 -  RELEASE  -
|  1> ! ri-mp2 aug-cc-pvdz aug-cc-pvdz/c tightscf
|  2> %pal nprocs 16 end
|  3> %maxcore 3800
|  4> %base "DZ_B-S_5_A"
|  5> %scf
|  6> STABPerform true
|  7> STABRestartUHFifUnstable true
|  8> end
|  9>
| 10> *xyz 0 2
| 11> S         2.372544    0.099118   -0.000023
| 12> S         0.728983   -0.933884    0.000017
| 13> C        -0.605698    0.336419    0.000009
| 14> Cl        -2.148272   -0.519173   -0.000007
| 15> F        -0.526081    1.120204   -1.073811
| 16> F        -0.526100    1.120204    1.073829
| 17> *
| 18>
| 19> $new_job
| 20> ! ri-mp2 aug-cc-pvtz aug-cc-pvtz/c tightscf
| 21> %pal nprocs 16 end
| 22> %maxcore 3800
| 23> %base "TZ_B-S_5_A"
| 24>
| 25> *xyz 0 2
| 26> S         2.372544    0.099118   -0.000023
| 27> S         0.728983   -0.933884    0.000017
| 28> C        -0.605698    0.336419    0.000009
| 29> Cl        -2.148272   -0.519173   -0.000007
| 30> F        -0.526081    1.120204   -1.073811
| 31> F        -0.526100    1.120204    1.073829
| 32> *
| 33>
| 34> $new_job
| 35> ! ri-mp2 aug-cc-pvqz aug-cc-pvqz/c tightscf
| 36> %pal nprocs 16 end
| 37> %maxcore 3800
| 38> %base "QZ_B-S_5_A"
| 39>
| 40> *xyz 0 2
| 41> S         2.372544    0.099118   -0.000023
| 42> S         0.728983   -0.933884    0.000017
| 43> C        -0.605698    0.336419    0.000009
| 44> Cl        -2.148272   -0.519173   -0.000007
| 45> F        -0.526081    1.120204   -1.073811
| 46> F        -0.526100    1.120204    1.073829
| 47> *
| 48>
| 49>
| 50>
| 51>
| 52>                          ****END OF INPUT****
 Total Charge           Charge          ....    0
 Multiplicity           Mult            ....    2
 Number of Electrons    NEL             ....   73
MP2 TOTAL ENERGY:    -1492.266400825 Eh
FINAL SINGLE POINT ENERGY     -1492.266400824694
MP2 TOTAL ENERGY:    -1492.626373279 Eh
FINAL SINGLE POINT ENERGY     -1492.626373278531

CARTESIAN COORDINATES (ANGSTROEM)
---------------------------------
  S      2.372544    0.099118   -0.000023
  S      0.728983   -0.933884    0.000017
  C     -0.605698    0.336419    0.000009
  Cl    -2.148272   -0.519173   -0.000007
  F     -0.526081    1.120204   -1.073811
  F     -0.526100    1.120204    1.073829

 Multiplicity           Mult            ....    2
 Number of Electrons    NEL             ....   73
 Basis Dimension        Dim             ....  492

ORBITAL ENERGIES
----------------
                 SPIN UP ORBITALS
  NO   OCC          E(Eh)            E(eV)
   0   1.0000    -104.877625     -2853.8653
   1   1.0000     -92.038703     -2504.5004
   2   1.0000     -92.012628     -2503.7909
   3   1.0000     -26.356804      -717.2051
   4   1.0000     -26.356782      -717.2045
   5   1.0000     -11.520911      -313.4999
   6   1.0000     -10.603768      -288.5432
   7   1.0000      -9.038617      -245.9533
   8   1.0000      -9.014028      -245.2842
   9   1.0000      -8.070737      -219.6159
  10   1.0000      -8.068880      -219.5654
  11   1.0000      -8.068794      -219.5630
  12   1.0000      -6.721759      -182.9084
  13   1.0000      -6.718915      -182.8310
  14   1.0000      -6.717348      -182.7883
  15   1.0000      -6.707571      -182.5223
  16   1.0000      -6.691935      -182.0968
  17   1.0000      -6.690062      -182.0458
  18   1.0000      -1.724389       -46.9230
  19   1.0000      -1.654172       -45.0123
  20   1.0000      -1.188853       -32.3503
  21   1.0000      -1.120738       -30.4968
  22   1.0000      -0.967743       -26.3336
  23   1.0000      -0.888830       -24.1863
  24   1.0000      -0.819770       -22.3071
  25   1.0000      -0.789887       -21.4939
  26   1.0000      -0.769212       -20.9313
  27   1.0000      -0.714189       -19.4341
  28   1.0000      -0.678208       -18.4550
  29   1.0000      -0.647825       -17.6282
  30   1.0000      -0.554217       -15.0810
  31   1.0000      -0.543097       -14.7784
  32   1.0000      -0.529604       -14.4113
  33   1.0000      -0.502633       -13.6773
  34   1.0000      -0.492205       -13.3936
  35   1.0000      -0.405439       -11.0326
  36   1.0000      -0.392902       -10.6914
  37   0.0000       0.043543         1.1849
  38   0.0000       0.044596         1.2135
  39   0.0000       0.055393         1.5073
  40   0.0000       0.071381         1.9424
  41   0.0000       0.071914         1.9569

                 SPIN DOWN ORBITALS
  NO   OCC          E(Eh)            E(eV)
   0   1.0000    -104.877639     -2853.8656
   1   1.0000     -92.036434     -2504.4387
   2   1.0000     -92.004299     -2503.5642
   3   1.0000     -26.356659      -717.2012
   4   1.0000     -26.356638      -717.2006
   5   1.0000     -11.521334      -313.5114
   6   1.0000     -10.603784      -288.5436
   7   1.0000      -9.036066      -245.8839
   8   1.0000      -9.004873      -245.0350
   9   1.0000      -8.070830      -219.6185
  10   1.0000      -8.068869      -219.5651
  11   1.0000      -8.068779      -219.5626
  12   1.0000      -6.717774      -182.7999
  13   1.0000      -6.716708      -182.7709
  14   1.0000      -6.711327      -182.6245
  15   1.0000      -6.687580      -181.9783
  16   1.0000      -6.685083      -181.9104
  17   1.0000      -6.670267      -181.5072
  18   1.0000      -1.724025       -46.9131
  19   1.0000      -1.653707       -44.9997
  20   1.0000      -1.186693       -32.2915
  21   1.0000      -1.096707       -29.8429
  22   1.0000      -0.950378       -25.8611
  23   1.0000      -0.854363       -23.2484
  24   1.0000      -0.818023       -22.2595
  25   1.0000      -0.789692       -21.4886
  26   1.0000      -0.750189       -20.4137
  27   1.0000      -0.713824       -19.4241
  28   1.0000      -0.677840       -18.4450
  29   1.0000      -0.641426       -17.4541
  30   1.0000      -0.550090       -14.9687
  31   1.0000      -0.521600       -14.1935
  32   1.0000      -0.503860       -13.7107
  33   1.0000      -0.486503       -13.2384
  34   1.0000      -0.441909       -12.0250
  35   1.0000      -0.389771       -10.6062
  36   0.0000      -0.006038        -0.1643
  37   0.0000       0.044431         1.2090
  38   0.0000       0.045386         1.2350
  39   0.0000       0.055478         1.5096
  40   0.0000       0.071981         1.9587

MULLIKEN ATOMIC CHARGES AND SPIN POPULATIONS
--------------------------------------------
   0 S :   -0.059929    0.884173
   1 S :    0.106763    0.128043
   2 C :    1.106377   -0.016196
   3 Cl:   -0.116290   -0.000302
   4 F :   -0.518460    0.002141
   5 F :   -0.518460    0.002141
Sum of atomic charges         :   -0.0000000

LOEWDIN ATOMIC CHARGES AND SPIN POPULATIONS
-------------------------------------------
   0 S :    0.368011    0.681143
   1 S :    0.235428    0.281411
   2 C :   -2.853498    0.030449
   3 Cl:    1.012992    0.003097
   4 F :    0.618533    0.001950
   5 F :    0.618535    0.001950

  Mayer bond orders larger than 0.100000
B(  0-S ,  1-S ) :   1.4021 B(  1-S ,  2-C ) :   0.8905 B(  2-C ,  3-Cl) :   0.9675
B(  2-C ,  4-F ) :   0.5732 B(  2-C ,  5-F ) :   0.5732

MP2 TOTAL ENERGY:    -1492.745832876 Eh
FINAL SINGLE POINT ENERGY     -1492.745832876420

DIPOLE MOMENT
-------------
                                X             Y             Z
Electronic contribution:     -3.62361       1.03664       0.00001
Nuclear contribution   :      3.68170      -1.32360      -0.00001
                        -----------------------------------------
Total Dipole Moment    :      0.05809      -0.28696       0.00000
                        -----------------------------------------
Magnitude (a.u.)       :      0.29278
Magnitude (Debye)      :      0.74419

Rotational constants in cm-1:     0.129010     0.040161     0.036426
Rotational constants in MHz :  3867.630833  1204.002237  1092.020446

                             ****ORCA TERMINATED NORMALLY****
TOTAL RUN TIME: 0 days 0 hours 21 minutes 13 seconds 469 msec
