                         Program Version 5.0.4 -  RELEASE  -
|  1> ! ri-mp2 aug-cc-pvdz aug-cc-pvdz/c tightscf
|  2> %pal nprocs 16 end
|  3> %maxcore 3800
|  4> %base "DZ_B-S_30_A"
|  5> %scf
|  6> STABPerform true
|  7> STABRestartUHFifUnstable true
|  8> end
|  9>
| 10> *xyz 0 2
| 11> S         1.038780   -0.886394    0.000000
| 12> S         0.000000    0.761004    0.000000
| 13> C        -1.732923    0.252572    0.000000
| 14> H        -2.337238    1.159076    0.000000
| 15> H        -1.942852   -0.334133    0.890730
| 16> H        -1.942852   -0.334133   -0.890730
| 17> *
| 18>
| 19> $new_job
| 20> ! ri-mp2 aug-cc-pvtz aug-cc-pvtz/c tightscf
| 21> %pal nprocs 16 end
| 22> %maxcore 3800
| 23> %base "TZ_B-S_30_A"
| 24>
| 25> *xyz 0 2
| 26> S         1.038780   -0.886394    0.000000
| 27> S         0.000000    0.761004    0.000000
| 28> C        -1.732923    0.252572    0.000000
| 29> H        -2.337238    1.159076    0.000000
| 30> H        -1.942852   -0.334133    0.890730
| 31> H        -1.942852   -0.334133   -0.890730
| 32> *
| 33>
| 34> $new_job
| 35> ! ri-mp2 aug-cc-pvqz aug-cc-pvqz/c tightscf
| 36> %pal nprocs 16 end
| 37> %maxcore 3800
| 38> %base "QZ_B-S_30_A"
| 39>
| 40> *xyz 0 2
| 41> S         1.038780   -0.886394    0.000000
| 42> S         0.000000    0.761004    0.000000
| 43> C        -1.732923    0.252572    0.000000
| 44> H        -2.337238    1.159076    0.000000
| 45> H        -1.942852   -0.334133    0.890730
| 46> H        -1.942852   -0.334133   -0.890730
| 47> *
| 48>
| 49>
| 50>
| 51>
| 52>                          ****END OF INPUT****
 Total Charge           Charge          ....    0
 Multiplicity           Mult            ....    2
 Number of Electrons    NEL             ....   41
MP2 TOTAL ENERGY:     -835.090695771 Eh
FINAL SINGLE POINT ENERGY      -835.090695770690
MP2 TOTAL ENERGY:     -835.235677300 Eh
FINAL SINGLE POINT ENERGY      -835.235677300467

CARTESIAN COORDINATES (ANGSTROEM)
---------------------------------
  S      1.038780   -0.886394    0.000000
  S      0.000000    0.761004    0.000000
  C     -1.732923    0.252572    0.000000
  H     -2.337238    1.159076    0.000000
  H     -1.942852   -0.334133    0.890730
  H     -1.942852   -0.334133   -0.890730

 Multiplicity           Mult            ....    2
 Number of Electrons    NEL             ....   41
 Basis Dimension        Dim             ....  386

ORBITAL ENERGIES
----------------
                 SPIN UP ORBITALS
  NO   OCC          E(Eh)            E(eV)
   0   1.0000     -92.004439     -2503.5681
   1   1.0000     -91.978530     -2502.8630
   2   1.0000     -11.266895      -306.5878
   3   1.0000      -9.003955      -245.0101
   4   1.0000      -8.979921      -244.3561
   5   1.0000      -6.688965      -182.0160
   6   1.0000      -6.684276      -181.8884
   7   1.0000      -6.682841      -181.8494
   8   1.0000      -6.672617      -181.5711
   9   1.0000      -6.658153      -181.1776
  10   1.0000      -6.656341      -181.1282
  11   1.0000      -1.107285       -30.1308
  12   1.0000      -0.973736       -26.4967
  13   1.0000      -0.814716       -22.1695
  14   1.0000      -0.615631       -16.7522
  15   1.0000      -0.611327       -16.6351
  16   1.0000      -0.547081       -14.8868
  17   1.0000      -0.496495       -13.5103
  18   1.0000      -0.478426       -13.0186
  19   1.0000      -0.372112       -10.1257
  20   1.0000      -0.356054        -9.6887
  21   0.0000       0.025322         0.6891
  22   0.0000       0.039370         1.0713
  23   0.0000       0.041523         1.1299
  24   0.0000       0.051828         1.4103
  25   0.0000       0.060430         1.6444

                 SPIN DOWN ORBITALS
  NO   OCC          E(Eh)            E(eV)
   0   1.0000     -92.001351     -2503.4840
   1   1.0000     -91.970811     -2502.6530
   2   1.0000     -11.267502      -306.6043
   3   1.0000      -9.000487      -244.9157
   4   1.0000      -8.971443      -244.1254
   5   1.0000      -6.682712      -181.8458
   6   1.0000      -6.681621      -181.8162
   7   1.0000      -6.675124      -181.6394
   8   1.0000      -6.654132      -181.0681
   9   1.0000      -6.651734      -181.0029
  10   1.0000      -6.638072      -180.6311
  11   1.0000      -1.086527       -29.5659
  12   1.0000      -0.950520       -25.8650
  13   1.0000      -0.760848       -20.7037
  14   1.0000      -0.608294       -16.5525
  15   1.0000      -0.606013       -16.4904
  16   1.0000      -0.539305       -14.6752
  17   1.0000      -0.465716       -12.6728
  18   1.0000      -0.393304       -10.7023
  19   1.0000      -0.356987        -9.7141
  20   0.0000       0.014942         0.4066
  21   0.0000       0.025387         0.6908
  22   0.0000       0.039612         1.0779
  23   0.0000       0.042760         1.1636
  24   0.0000       0.052214         1.4208

MULLIKEN ATOMIC CHARGES AND SPIN POPULATIONS
--------------------------------------------
   0 S :   -0.158660    0.814600
   1 S :    0.115499    0.201153
   2 C :   -0.800501   -0.041305
   3 H :    0.308014   -0.000645
   4 H :    0.267824    0.013099
   5 H :    0.267824    0.013099
Sum of atomic charges         :    0.0000000

LOEWDIN ATOMIC CHARGES AND SPIN POPULATIONS
-------------------------------------------
   0 S :    0.344706    0.643660
   1 S :    0.426538    0.306795
   2 C :    0.434519    0.038774
   3 H :   -0.401453    0.003272
   4 H :   -0.402155    0.003749
   5 H :   -0.402155    0.003749

  Mayer bond orders larger than 0.100000
B(  0-S ,  1-S ) :   1.4558 B(  1-S ,  2-C ) :   0.9433 B(  2-C ,  3-H ) :   0.8706
B(  2-C ,  4-H ) :   0.9226 B(  2-C ,  5-H ) :   0.9226

MP2 TOTAL ENERGY:     -835.281744129 Eh
FINAL SINGLE POINT ENERGY      -835.281744128639

DIPOLE MOMENT
-------------
                                X             Y             Z
Electronic contribution:      5.18853      -0.34969      -0.00000
Nuclear contribution   :     -6.08478       0.48122       0.00000
                        -----------------------------------------
Total Dipole Moment    :     -0.89625       0.13152      -0.00000
                        -----------------------------------------
Magnitude (a.u.)       :      0.90585
Magnitude (Debye)      :      2.30249

Rotational constants in cm-1:     0.657660     0.157612     0.130285
Rotational constants in MHz : 19716.160060  4725.077911  3905.843194

                             ****ORCA TERMINATED NORMALLY****
TOTAL RUN TIME: 0 days 0 hours 11 minutes 51 seconds 887 msec
