                         Program Version 5.0.4 -  RELEASE  -
|  1> ! ri-mp2 aug-cc-pvdz aug-cc-pvdz/c tightscf
|  2> %pal nprocs 16 end
|  3> %maxcore 3800
|  4> %base "DZ_P-Si_48_AB"
|  5> %scf
|  6> STABPerform true
|  7> STABRestartUHFifUnstable true
|  8> end
|  9>
| 10> *xyz 0 1
| 11> Si         1.804627   -0.026840    0.021356
| 12> P        -0.447778   -0.007317    0.109695
| 13> O        -1.069382   -0.241610    1.418015
| 14> O        -0.916008   -1.078848   -0.990401
| 15> H        -1.460234   -1.770198   -0.593324
| 16> O        -0.790410    1.399012   -0.563497
| 17> H        -1.654272    1.745948   -0.305055
| 18> H         2.231268   -1.365293    0.469812
| 19> H         2.297698    1.019646    0.934511
| 20> H         2.243826    0.226981   -1.363294
| 21> *
| 22>
| 23> $new_job
| 24> ! ri-mp2 aug-cc-pvtz aug-cc-pvtz/c tightscf
| 25> %pal nprocs 16 end
| 26> %maxcore 3800
| 27> %base "TZ_P-Si_48_AB"
| 28>
| 29> *xyz 0 1
| 30> Si         1.804627   -0.026840    0.021356
| 31> P        -0.447778   -0.007317    0.109695
| 32> O        -1.069382   -0.241610    1.418015
| 33> O        -0.916008   -1.078848   -0.990401
| 34> H        -1.460234   -1.770198   -0.593324
| 35> O        -0.790410    1.399012   -0.563497
| 36> H        -1.654272    1.745948   -0.305055
| 37> H         2.231268   -1.365293    0.469812
| 38> H         2.297698    1.019646    0.934511
| 39> H         2.243826    0.226981   -1.363294
| 40> *
| 41>
| 42> $new_job
| 43> ! ri-mp2 aug-cc-pvqz aug-cc-pvqz/c tightscf
| 44> %pal nprocs 16 end
| 45> %maxcore 3800
| 46> %base "QZ_P-Si_48_AB"
| 47>
| 48> *xyz 0 1
| 49> Si         1.804627   -0.026840    0.021356
| 50> P        -0.447778   -0.007317    0.109695
| 51> O        -1.069382   -0.241610    1.418015
| 52> O        -0.916008   -1.078848   -0.990401
| 53> H        -1.460234   -1.770198   -0.593324
| 54> O        -0.790410    1.399012   -0.563497
| 55> H        -1.654272    1.745948   -0.305055
| 56> H         2.231268   -1.365293    0.469812
| 57> H         2.297698    1.019646    0.934511
| 58> H         2.243826    0.226981   -1.363294
| 59> *
| 60>
| 61>
| 62>
| 63>
| 64>                          ****END OF INPUT****
 Total Charge           Charge          ....    0
 Multiplicity           Mult            ....    1
 Number of Electrons    NEL             ....   58
MP2 TOTAL ENERGY:     -858.101662776 Eh
FINAL SINGLE POINT ENERGY      -858.101662775636
MP2 TOTAL ENERGY:     -858.407043013 Eh
FINAL SINGLE POINT ENERGY      -858.407043012936

CARTESIAN COORDINATES (ANGSTROEM)
---------------------------------
  Si     1.804627   -0.026840    0.021356
  P     -0.447778   -0.007317    0.109695
  O     -1.069382   -0.241610    1.418015
  O     -0.916008   -1.078848   -0.990401
  H     -1.460234   -1.770198   -0.593324
  O     -0.790410    1.399012   -0.563497
  H     -1.654272    1.745948   -0.305055
  H      2.231268   -1.365293    0.469812
  H      2.297698    1.019646    0.934511
  H      2.243826    0.226981   -1.363294

 Multiplicity           Mult            ....    1
 Number of Electrons    NEL             ....   58
 Basis Dimension        Dim             ....  638

ORBITAL ENERGIES
----------------

  NO   OCC          E(Eh)            E(eV)
   0   2.0000     -80.064747     -2178.6725
   1   2.0000     -68.794337     -1871.9891
   2   2.0000     -20.602404      -560.6199
   3   2.0000     -20.599208      -560.5330
   4   2.0000     -20.508615      -558.0678
   5   2.0000      -7.588416      -206.4913
   6   2.0000      -6.145007      -167.2141
   7   2.0000      -5.486253      -149.2885
   8   2.0000      -5.485657      -149.2723
   9   2.0000      -5.484669      -149.2454
  10   2.0000      -4.251328      -115.6845
  11   2.0000      -4.250957      -115.6744
  12   2.0000      -4.250930      -115.6737
  13   2.0000      -1.435463       -39.0609
  14   2.0000      -1.386098       -37.7176
  15   2.0000      -1.298466       -35.3331
  16   2.0000      -0.868452       -23.6318
  17   2.0000      -0.749357       -20.3910
  18   2.0000      -0.740403       -20.1474
  19   2.0000      -0.675158       -18.3720
  20   2.0000      -0.639771       -17.4091
  21   2.0000      -0.623068       -16.9546
  22   2.0000      -0.561685       -15.2842
  23   2.0000      -0.551386       -15.0040
  24   2.0000      -0.516476       -14.0540
  25   2.0000      -0.506820       -13.7913
  26   2.0000      -0.498878       -13.5751
  27   2.0000      -0.467549       -12.7227
  28   2.0000      -0.428041       -11.6476
  29   0.0000       0.022153         0.6028
  30   0.0000       0.031635         0.8608
  31   0.0000       0.032786         0.8922
  32   0.0000       0.044312         1.2058
  33   0.0000       0.050640         1.3780

MULLIKEN ATOMIC CHARGES
-----------------------
   0 Si:    0.405038
   1 P :    2.064396
   2 O :   -1.159939
   3 O :   -0.861461
   4 H :    0.371748
   5 O :   -0.851684
   6 H :    0.364727
   7 H :   -0.129083
   8 H :   -0.115414
   9 H :   -0.088327
Sum of atomic charges:    0.0000000

LOEWDIN ATOMIC CHARGES
----------------------
   0 Si:    1.058075
   1 P :   -0.716765
   2 O :    0.234853
   3 O :    1.039366
   4 H :   -0.891311
   5 O :    1.033261
   6 H :   -0.864658
   7 H :   -0.299249
   8 H :   -0.297547
   9 H :   -0.296023

  Mayer bond orders larger than 0.100000
B(  0-Si,  1-P ) :   0.7870 B(  0-Si,  7-H ) :   0.7438 B(  0-Si,  8-H ) :   0.7450
B(  0-Si,  9-H ) :   0.7456 B(  1-P ,  2-O ) :   1.4005 B(  1-P ,  3-O ) :   0.6555
B(  1-P ,  5-O ) :   0.6460 B(  3-O ,  4-H ) :   0.9162 B(  5-O ,  6-H ) :   0.9093

MP2 TOTAL ENERGY:     -858.506922544 Eh
FINAL SINGLE POINT ENERGY      -858.506922543535

DIPOLE MOMENT
-------------
                                X             Y             Z
Electronic contribution:     -3.59657       0.12756       0.28474
Nuclear contribution   :      3.82029      -0.12932      -0.93797
                        -----------------------------------------
Total Dipole Moment    :      0.22372      -0.00176      -0.65323
                        -----------------------------------------
Magnitude (a.u.)       :      0.69048
Magnitude (Debye)      :      1.75507

Rotational constants in cm-1:     0.144301     0.077953     0.076703
Rotational constants in MHz :  4326.046914  2336.982026  2299.493057

                             ****ORCA TERMINATED NORMALLY****
TOTAL RUN TIME: 0 days 0 hours 31 minutes 57 seconds 540 msec
