                         Program Version 5.0.4 -  RELEASE  -
|  1> ! ri-mp2 aug-cc-pvdz aug-cc-pvdz/c tightscf
|  2> %pal nprocs 16 end
|  3> %maxcore 3800
|  4> %base "DZ_B-P_52_A"
|  5> %scf
|  6> STABPerform true
|  7> STABRestartUHFifUnstable true
|  8> end
|  9>
| 10> *xyz 0 2
| 11> C        -1.117060    1.390428   -0.039559
| 12> B        -0.400738    0.001460    0.015979
| 13> H        -2.084645    1.350496   -0.544420
| 14> H        -0.525390    2.205326   -0.455313
| 15> H        -1.329857    1.660866    1.003787
| 16> C        -1.242147   -1.316302    0.040663
| 17> H        -2.218962   -1.187121    0.510700
| 18> H        -0.742497   -2.181388    0.475902
| 19> H        -1.443944   -1.569959   -1.009315
| 20> P         1.515525   -0.121770   -0.046931
| 21> H         1.771357    1.096278    0.636092
| 22> *
| 23>
| 24> $new_job
| 25> ! ri-mp2 aug-cc-pvtz aug-cc-pvtz/c tightscf
| 26> %pal nprocs 16 end
| 27> %maxcore 3800
| 28> %base "TZ_B-P_52_A"
| 29>
| 30> *xyz 0 2
| 31> C        -1.117060    1.390428   -0.039559
| 32> B        -0.400738    0.001460    0.015979
| 33> H        -2.084645    1.350496   -0.544420
| 34> H        -0.525390    2.205326   -0.455313
| 35> H        -1.329857    1.660866    1.003787
| 36> C        -1.242147   -1.316302    0.040663
| 37> H        -2.218962   -1.187121    0.510700
| 38> H        -0.742497   -2.181388    0.475902
| 39> H        -1.443944   -1.569959   -1.009315
| 40> P         1.515525   -0.121770   -0.046931
| 41> H         1.771357    1.096278    0.636092
| 42> *
| 43>
| 44> $new_job
| 45> ! ri-mp2 aug-cc-pvqz aug-cc-pvqz/c tightscf
| 46> %pal nprocs 16 end
| 47> %maxcore 3800
| 48> %base "QZ_B-P_52_A"
| 49>
| 50> *xyz 0 2
| 51> C        -1.117060    1.390428   -0.039559
| 52> B        -0.400738    0.001460    0.015979
| 53> H        -2.084645    1.350496   -0.544420
| 54> H        -0.525390    2.205326   -0.455313
| 55> H        -1.329857    1.660866    1.003787
| 56> C        -1.242147   -1.316302    0.040663
| 57> H        -2.218962   -1.187121    0.510700
| 58> H        -0.742497   -2.181388    0.475902
| 59> H        -1.443944   -1.569959   -1.009315
| 60> P         1.515525   -0.121770   -0.046931
| 61> H         1.771357    1.096278    0.636092
| 62> *
| 63>
| 64>
| 65>
| 66>
| 67>                          ****END OF INPUT****
 Total Charge           Charge          ....    0
 Multiplicity           Mult            ....    2
 Number of Electrons    NEL             ....   39
MP2 TOTAL ENERGY:     -445.727266434 Eh
FINAL SINGLE POINT ENERGY      -445.727266434127
MP2 TOTAL ENERGY:     -445.866834167 Eh
FINAL SINGLE POINT ENERGY      -445.866834166506

CARTESIAN COORDINATES (ANGSTROEM)
---------------------------------
  C     -1.117060    1.390428   -0.039559
  B     -0.400738    0.001460    0.015979
  H     -2.084645    1.350496   -0.544420
  H     -0.525390    2.205326   -0.455313
  H     -1.329857    1.660866    1.003787
  C     -1.242147   -1.316302    0.040663
  H     -2.218962   -1.187121    0.510700
  H     -0.742497   -2.181388    0.475902
  H     -1.443944   -1.569959   -1.009315
  P      1.515525   -0.121770   -0.046931
  H      1.771357    1.096278    0.636092

 Multiplicity           Mult            ....    2
 Number of Electrons    NEL             ....   39
 Basis Dimension        Dim             ....  646

ORBITAL ENERGIES
----------------
                 SPIN UP ORBITALS
  NO   OCC          E(Eh)            E(eV)
   0   1.0000     -79.929448     -2174.9909
   1   1.0000     -11.199139      -304.7441
   2   1.0000     -11.198250      -304.7199
   3   1.0000      -7.604907      -206.9400
   4   1.0000      -7.474925      -203.4030
   5   1.0000      -5.379273      -146.3774
   6   1.0000      -5.365781      -146.0103
   7   1.0000      -5.364480      -145.9749
   8   1.0000      -0.980652       -26.6849
   9   1.0000      -0.931681       -25.3523
  10   1.0000      -0.837784       -22.7973
  11   1.0000      -0.611229       -16.6324
  12   1.0000      -0.576702       -15.6929
  13   1.0000      -0.566662       -15.4197
  14   1.0000      -0.552290       -15.0286
  15   1.0000      -0.536355       -14.5950
  16   1.0000      -0.480067       -13.0633
  17   1.0000      -0.452482       -12.3127
  18   1.0000      -0.374292       -10.1850
  19   1.0000      -0.360601        -9.8124
  20   0.0000       0.022118         0.6019
  21   0.0000       0.033831         0.9206
  22   0.0000       0.034175         0.9300
  23   0.0000       0.036562         0.9949
  24   0.0000       0.052179         1.4199

                 SPIN DOWN ORBITALS
  NO   OCC          E(Eh)            E(eV)
   0   1.0000     -79.923067     -2174.8172
   1   1.0000     -11.198772      -304.7341
   2   1.0000     -11.198025      -304.7138
   3   1.0000      -7.605529      -206.9570
   4   1.0000      -7.467121      -203.1907
   5   1.0000      -5.361778      -145.9014
   6   1.0000      -5.361131      -145.8838
   7   1.0000      -5.348812      -145.5486
   8   1.0000      -0.977579       -26.6013
   9   1.0000      -0.930331       -25.3156
  10   1.0000      -0.775425       -21.1004
  11   1.0000      -0.607088       -16.5197
  12   1.0000      -0.574123       -15.6227
  13   1.0000      -0.563813       -15.3421
  14   1.0000      -0.548365       -14.9218
  15   1.0000      -0.534137       -14.5346
  16   1.0000      -0.473323       -12.8798
  17   1.0000      -0.443186       -12.0597
  18   1.0000      -0.360620        -9.8130
  19   0.0000       0.016162         0.4398
  20   0.0000       0.022483         0.6118
  21   0.0000       0.034085         0.9275
  22   0.0000       0.036687         0.9983
  23   0.0000       0.038325         1.0429

MULLIKEN ATOMIC CHARGES AND SPIN POPULATIONS
--------------------------------------------
   0 C :   -0.982881    0.004753
   1 B :    0.160095   -0.052669
   2 H :    0.322468   -0.003136
   3 H :    0.296359   -0.000717
   4 H :    0.260660    0.006142
   5 C :   -0.969799    0.002723
   6 H :    0.307225   -0.004403
   7 H :    0.305676   -0.002200
   8 H :    0.257868    0.005835
   9 P :    0.150323    1.089172
  10 H :   -0.107994   -0.045501
Sum of atomic charges         :   -0.0000000

LOEWDIN ATOMIC CHARGES AND SPIN POPULATIONS
-------------------------------------------
   0 C :    0.963238    0.028523
   1 B :   -0.853391    0.214150
   2 H :   -0.305369    0.000665
   3 H :   -0.326548    0.008106
   4 H :   -0.303695    0.004223
   5 C :    0.953399    0.026346
   6 H :   -0.308105   -0.000047
   7 H :   -0.328423    0.007676
   8 H :   -0.306607    0.003775
   9 P :    1.422534    0.544115
  10 H :   -0.607032    0.162467

  Mayer bond orders larger than 0.100000
B(  0-C ,  1-B ) :   1.0032 B(  0-C ,  2-H ) :   0.8826 B(  0-C ,  3-H ) :   0.9198
B(  0-C ,  4-H ) :   0.9030 B(  1-B ,  5-C ) :   1.0050 B(  1-B ,  9-P ) :   1.0373
B(  5-C ,  6-H ) :   0.8831 B(  5-C ,  7-H ) :   0.9140 B(  5-C ,  8-H ) :   0.9002
B(  9-P , 10-H ) :   0.9755

MP2 TOTAL ENERGY:     -445.909189066 Eh
FINAL SINGLE POINT ENERGY      -445.909189066030

DIPOLE MOMENT
-------------
                                X             Y             Z
Electronic contribution:      7.19309      -1.30723      -0.51841
Nuclear contribution   :     -7.73480       1.49712       0.65267
                        -----------------------------------------
Total Dipole Moment    :     -0.54171       0.18989       0.13426
                        -----------------------------------------
Magnitude (a.u.)       :      0.58952
Magnitude (Debye)      :      1.49843

Rotational constants in cm-1:     0.250301     0.133309     0.090278
Rotational constants in MHz :  7503.833337  3996.515256  2706.453176

                             ****ORCA TERMINATED NORMALLY****
TOTAL RUN TIME: 0 days 0 hours 58 minutes 49 seconds 460 msec
