                         Program Version 5.0.4 -  RELEASE  -
|  1> ! ri-mp2 aug-cc-pvdz aug-cc-pvdz/c tightscf
|  2> %pal nprocs 16 end
|  3> %maxcore 3800
|  4> %base "DZ_B-Si_30_AB"
|  5>
|  6> *xyz 0 1
|  7> C         1.909074    1.197916    0.107749
|  8> C         0.546737    1.195629   -0.137844
|  9> C        -0.158339    0.000080   -0.269592
| 10> C         2.592590   -0.000090    0.231100
| 11> C         1.908977   -1.198012    0.107466
| 12> C         0.546642   -1.195558   -0.138125
| 13> H         2.439061    2.136810    0.200819
| 14> H         0.027646    2.141496   -0.237136
| 15> H         0.027475   -2.141360   -0.237638
| 16> H         3.657802   -0.000155    0.421230
| 17> H         2.438889   -2.136971    0.200316
| 18> B        -2.755916   -0.000377    1.321961
| 19> Si        -2.016555    0.000182   -0.539754
| 20> H        -2.391742    1.204318   -1.318336
| 21> H        -2.391795   -1.203479   -1.319046
| 22> H        -2.935137    1.016350    1.916289
| 23> H        -2.934927   -1.017469    1.915728
| 24> *
| 25>
| 26> $new_job
| 27> ! ri-mp2 aug-cc-pvtz aug-cc-pvtz/c tightscf
| 28> %pal nprocs 16 end
| 29> %maxcore 3800
| 30> %base "TZ_B-Si_30_AB"
| 31>
| 32> *xyz 0 1
| 33> C         1.909074    1.197916    0.107749
| 34> C         0.546737    1.195629   -0.137844
| 35> C        -0.158339    0.000080   -0.269592
| 36> C         2.592590   -0.000090    0.231100
| 37> C         1.908977   -1.198012    0.107466
| 38> C         0.546642   -1.195558   -0.138125
| 39> H         2.439061    2.136810    0.200819
| 40> H         0.027646    2.141496   -0.237136
| 41> H         0.027475   -2.141360   -0.237638
| 42> H         3.657802   -0.000155    0.421230
| 43> H         2.438889   -2.136971    0.200316
| 44> B        -2.755916   -0.000377    1.321961
| 45> Si        -2.016555    0.000182   -0.539754
| 46> H        -2.391742    1.204318   -1.318336
| 47> H        -2.391795   -1.203479   -1.319046
| 48> H        -2.935137    1.016350    1.916289
| 49> H        -2.934927   -1.017469    1.915728
| 50> *
| 51>
| 52> $new_job
| 53> ! ri-mp2 aug-cc-pvqz aug-cc-pvqz/c tightscf
| 54> %pal nprocs 16 end
| 55> %maxcore 3800
| 56> %base "QZ_B-Si_30_AB"
| 57>
| 58> *xyz 0 1
| 59> C         1.909074    1.197916    0.107749
| 60> C         0.546737    1.195629   -0.137844
| 61> C        -0.158339    0.000080   -0.269592
| 62> C         2.592590   -0.000090    0.231100
| 63> C         1.908977   -1.198012    0.107466
| 64> C         0.546642   -1.195558   -0.138125
| 65> H         2.439061    2.136810    0.200819
| 66> H         0.027646    2.141496   -0.237136
| 67> H         0.027475   -2.141360   -0.237638
| 68> H         3.657802   -0.000155    0.421230
| 69> H         2.438889   -2.136971    0.200316
| 70> B        -2.755916   -0.000377    1.321961
| 71> Si        -2.016555    0.000182   -0.539754
| 72> H        -2.391742    1.204318   -1.318336
| 73> H        -2.391795   -1.203479   -1.319046
| 74> H        -2.935137    1.016350    1.916289
| 75> H        -2.934927   -1.017469    1.915728
| 76> *
| 77>
| 78>
| 79>
| 80>
| 81>                          ****END OF INPUT****
 Total Charge           Charge          ....    0
 Multiplicity           Mult            ....    1
 Number of Electrons    NEL             ....   64
MP2 TOTAL ENERGY:     -547.052135599 Eh
FINAL SINGLE POINT ENERGY      -547.052135598840
MP2 TOTAL ENERGY:     -547.315744121 Eh
FINAL SINGLE POINT ENERGY      -547.315744120865

CARTESIAN COORDINATES (ANGSTROEM)
---------------------------------
  C      1.909074    1.197916    0.107749
  C      0.546737    1.195629   -0.137844
  C     -0.158339    0.000080   -0.269592
  C      2.592590   -0.000090    0.231100
  C      1.908977   -1.198012    0.107466
  C      0.546642   -1.195558   -0.138125
  H      2.439061    2.136810    0.200819
  H      0.027646    2.141496   -0.237136
  H      0.027475   -2.141360   -0.237638
  H      3.657802   -0.000155    0.421230
  H      2.438889   -2.136971    0.200316
  B     -2.755916   -0.000377    1.321961
  Si    -2.016555    0.000182   -0.539754
  H     -2.391742    1.204318   -1.318336
  H     -2.391795   -1.203479   -1.319046
  H     -2.935137    1.016350    1.916289
  H     -2.934927   -1.017469    1.915728

 Multiplicity           Mult            ....    1
 Number of Electrons    NEL             ....   64
 Basis Dimension        Dim             .... 1058

ORBITAL ENERGIES
----------------

  NO   OCC          E(Eh)            E(eV)
   0   2.0000     -68.752356     -1870.8467
   1   2.0000     -11.237701      -305.7934
   2   2.0000     -11.237622      -305.7912
   3   2.0000     -11.237171      -305.7790
   4   2.0000     -11.233993      -305.6925
   5   2.0000     -11.233744      -305.6857
   6   2.0000     -11.223813      -305.4155
   7   2.0000      -7.606092      -206.9723
   8   2.0000      -6.103870      -166.0947
   9   2.0000      -4.210207      -114.5655
  10   2.0000      -4.210090      -114.5624
  11   2.0000      -4.209738      -114.5528
  12   2.0000      -1.157032       -31.4844
  13   2.0000      -1.020345       -27.7650
  14   2.0000      -1.018385       -27.7117
  15   2.0000      -0.829103       -22.5610
  16   2.0000      -0.828696       -22.5500
  17   2.0000      -0.744246       -20.2520
  18   2.0000      -0.698666       -19.0117
  19   2.0000      -0.648521       -17.6472
  20   2.0000      -0.628630       -17.1059
  21   2.0000      -0.624786       -17.0013
  22   2.0000      -0.590934       -16.0801
  23   2.0000      -0.549823       -14.9614
  24   2.0000      -0.512827       -13.9547
  25   2.0000      -0.508300       -13.8316
  26   2.0000      -0.495526       -13.4839
  27   2.0000      -0.462487       -12.5849
  28   2.0000      -0.453198       -12.3322
  29   2.0000      -0.414566       -11.2809
  30   2.0000      -0.342213        -9.3121
  31   2.0000      -0.335211        -9.1215
  32   0.0000       0.022222         0.6047
  33   0.0000       0.025141         0.6841
  34   0.0000       0.028472         0.7748
  35   0.0000       0.032772         0.8918
  36   0.0000       0.033705         0.9172

MULLIKEN ATOMIC CHARGES
-----------------------
   0 C :   -0.306009
   1 C :   -0.429663
   2 C :    0.004080
   3 C :   -0.368967
   4 C :   -0.305980
   5 C :   -0.429601
   6 H :    0.257319
   7 H :    0.352126
   8 H :    0.352138
   9 H :    0.355793
  10 H :    0.257303
  11 B :    0.347932
  12 Si:    0.824203
  13 H :   -0.241712
  14 H :   -0.241687
  15 H :   -0.213646
  16 H :   -0.213628
Sum of atomic charges:    0.0000000

LOEWDIN ATOMIC CHARGES
----------------------
   0 C :    0.338265
   1 C :    0.252748
   2 C :   -0.134379
   3 C :    0.334872
   4 C :    0.338265
   5 C :    0.252746
   6 H :   -0.319761
   7 H :   -0.335569
   8 H :   -0.335561
   9 H :   -0.319742
  10 H :   -0.319760
  11 B :    0.371409
  12 Si:    0.842265
  13 H :   -0.232195
  14 H :   -0.232195
  15 H :   -0.250704
  16 H :   -0.250703

  Mayer bond orders larger than 0.100000
B(  0-C ,  1-C ) :   1.3425 B(  0-C ,  2-C ) :  -0.2885 B(  0-C ,  3-C ) :   1.1598
B(  0-C ,  4-C ) :  -0.1050 B(  0-C ,  5-C ) :   0.1343 B(  0-C ,  6-H ) :   1.0989
B(  1-C ,  2-C ) :   0.9073 B(  1-C ,  3-C ) :   0.1257 B(  1-C ,  4-C ) :   0.1343
B(  1-C ,  6-H ) :  -0.1338 B(  1-C ,  7-H ) :   0.9131 B(  1-C , 12-Si) :  -0.1217
B(  2-C ,  4-C ) :  -0.2884 B(  2-C ,  5-C ) :   0.9073 B(  2-C ,  7-H ) :  -0.1484
B(  2-C ,  8-H ) :  -0.1485 B(  2-C , 12-Si) :   0.9259 B(  3-C ,  4-C ) :   1.1598
B(  3-C ,  5-C ) :   0.1257 B(  3-C ,  9-H ) :   0.9680 B(  4-C ,  5-C ) :   1.3425
B(  4-C , 10-H ) :   1.0989 B(  5-C ,  8-H ) :   0.9131 B(  5-C , 10-H ) :  -0.1338
B(  5-C , 12-Si) :  -0.1217 B( 11-B , 12-Si) :   0.8371 B( 11-B , 15-H ) :   0.9270
B( 11-B , 16-H ) :   0.9270 B( 12-Si, 13-H ) :   0.6686 B( 12-Si, 14-H ) :   0.6686

MP2 TOTAL ENERGY:     -547.399428318 Eh
FINAL SINGLE POINT ENERGY      -547.399428317902

DIPOLE MOMENT
-------------
                                X             Y             Z
Electronic contribution:     -0.07421       0.00013      -0.40861
Nuclear contribution   :      0.28080      -0.00017       0.51044
                        -----------------------------------------
Total Dipole Moment    :      0.20658      -0.00003       0.10183
                        -----------------------------------------
Magnitude (a.u.)       :      0.23032
Magnitude (Debye)      :      0.58542

Rotational constants in cm-1:     0.126872     0.036094     0.032498
Rotational constants in MHz :  3803.536446  1082.059717   974.278871

                             ****ORCA TERMINATED NORMALLY****
TOTAL RUN TIME: 0 days 0 hours 31 minutes 52 seconds 651 msec
