                         Program Version 5.0.4 -  RELEASE  -
|  1> ! ri-mp2 aug-cc-pvdz aug-cc-pvdz/c tightscf
|  2> %pal nprocs 16 end
|  3> %maxcore 3800
|  4> %base "DZ_P-N_60_AB"
|  5>
|  6> *xyz 0 1
|  7> N        -1.232967    0.380605   -0.000005
|  8> C         0.154538    0.154610   -0.000006
|  9> C         1.051849    1.223016   -0.000034
| 10> C         0.666080   -1.142679    0.000017
| 11> C         2.033152   -1.358712    0.000009
| 12> C         2.920026   -0.298505   -0.000021
| 13> C         2.413666    0.990702   -0.000042
| 14> H         3.987161   -0.472403   -0.000027
| 15> H         3.089018    1.836639   -0.000065
| 16> H         0.665464    2.228893   -0.000049
| 17> H         0.002445   -1.992946    0.000043
| 18> H         2.402550   -2.375984    0.000027
| 19> N        -1.640822    1.728094    0.000038
| 20> P        -2.469330   -0.795474    0.000008
| 21> H        -2.189671    1.932880    0.824482
| 22> H        -2.189749    1.932905   -0.824348
| 23> H        -2.023320   -1.664666    1.028592
| 24> H        -2.023292   -1.664693   -1.028538
| 25> *
| 26>
| 27> $new_job
| 28> ! ri-mp2 aug-cc-pvtz aug-cc-pvtz/c tightscf
| 29> %pal nprocs 16 end
| 30> %maxcore 3800
| 31> %base "TZ_P-N_60_AB"
| 32>
| 33> *xyz 0 1
| 34> N        -1.232967    0.380605   -0.000005
| 35> C         0.154538    0.154610   -0.000006
| 36> C         1.051849    1.223016   -0.000034
| 37> C         0.666080   -1.142679    0.000017
| 38> C         2.033152   -1.358712    0.000009
| 39> C         2.920026   -0.298505   -0.000021
| 40> C         2.413666    0.990702   -0.000042
| 41> H         3.987161   -0.472403   -0.000027
| 42> H         3.089018    1.836639   -0.000065
| 43> H         0.665464    2.228893   -0.000049
| 44> H         0.002445   -1.992946    0.000043
| 45> H         2.402550   -2.375984    0.000027
| 46> N        -1.640822    1.728094    0.000038
| 47> P        -2.469330   -0.795474    0.000008
| 48> H        -2.189671    1.932880    0.824482
| 49> H        -2.189749    1.932905   -0.824348
| 50> H        -2.023320   -1.664666    1.028592
| 51> H        -2.023292   -1.664693   -1.028538
| 52> *
| 53>
| 54> $new_job
| 55> ! ri-mp2 aug-cc-pvqz aug-cc-pvqz/c tightscf
| 56> %pal nprocs 16 end
| 57> %maxcore 3800
| 58> %base "QZ_P-N_60_AB"
| 59>
| 60> *xyz 0 1
| 61> N        -1.232967    0.380605   -0.000005
| 62> C         0.154538    0.154610   -0.000006
| 63> C         1.051849    1.223016   -0.000034
| 64> C         0.666080   -1.142679    0.000017
| 65> C         2.033152   -1.358712    0.000009
| 66> C         2.920026   -0.298505   -0.000021
| 67> C         2.413666    0.990702   -0.000042
| 68> H         3.987161   -0.472403   -0.000027
| 69> H         3.089018    1.836639   -0.000065
| 70> H         0.665464    2.228893   -0.000049
| 71> H         0.002445   -1.992946    0.000043
| 72> H         2.402550   -2.375984    0.000027
| 73> N        -1.640822    1.728094    0.000038
| 74> P        -2.469330   -0.795474    0.000008
| 75> H        -2.189671    1.932880    0.824482
| 76> H        -2.189749    1.932905   -0.824348
| 77> H        -2.023320   -1.664666    1.028592
| 78> H        -2.023292   -1.664693   -1.028538
| 79> *
| 80>
| 81>
| 82>
| 83>
| 84>                          ****END OF INPUT****
 Total Charge           Charge          ....    0
 Multiplicity           Mult            ....    1
 Number of Electrons    NEL             ....   74
MP2 TOTAL ENERGY:     -683.373938224 Eh
FINAL SINGLE POINT ENERGY      -683.373938224061
MP2 TOTAL ENERGY:     -683.721932157 Eh
FINAL SINGLE POINT ENERGY      -683.721932157049

CARTESIAN COORDINATES (ANGSTROEM)
---------------------------------
  N     -1.232967    0.380605   -0.000005
  C      0.154538    0.154610   -0.000006
  C      1.051849    1.223016   -0.000034
  C      0.666080   -1.142679    0.000017
  C      2.033152   -1.358712    0.000009
  C      2.920026   -0.298505   -0.000021
  C      2.413666    0.990702   -0.000042
  H      3.987161   -0.472403   -0.000027
  H      3.089018    1.836639   -0.000065
  H      0.665464    2.228893   -0.000049
  H      0.002445   -1.992946    0.000043
  H      2.402550   -2.375984    0.000027
  N     -1.640822    1.728094    0.000038
  P     -2.469330   -0.795474    0.000008
  H     -2.189671    1.932880    0.824482
  H     -2.189749    1.932905   -0.824348
  H     -2.023320   -1.664666    1.028592
  H     -2.023292   -1.664693   -1.028538

 Multiplicity           Mult            ....    1
 Number of Electrons    NEL             ....   74
 Basis Dimension        Dim             .... 1138

ORBITAL ENERGIES
----------------

  NO   OCC          E(Eh)            E(eV)
   0   2.0000     -79.966522     -2175.9997
   1   2.0000     -15.600016      -424.4980
   2   2.0000     -15.588179      -424.1759
   3   2.0000     -11.275703      -306.8275
   4   2.0000     -11.228400      -305.5403
   5   2.0000     -11.226559      -305.4902
   6   2.0000     -11.219616      -305.3013
   7   2.0000     -11.214618      -305.1653
   8   2.0000     -11.213742      -305.1414
   9   2.0000      -7.506123      -204.2520
  10   2.0000      -5.400189      -146.9466
  11   2.0000      -5.399695      -146.9332
  12   2.0000      -5.399306      -146.9226
  13   2.0000      -1.309632       -35.6369
  14   2.0000      -1.153671       -31.3930
  15   2.0000      -1.078104       -29.3367
  16   2.0000      -1.011716       -27.5302
  17   2.0000      -0.979833       -26.6626
  18   2.0000      -0.867433       -23.6041
  19   2.0000      -0.820395       -22.3241
  20   2.0000      -0.783225       -21.3126
  21   2.0000      -0.710124       -19.3235
  22   2.0000      -0.701570       -19.0907
  23   2.0000      -0.662756       -18.0345
  24   2.0000      -0.643174       -17.5017
  25   2.0000      -0.607043       -16.5185
  26   2.0000      -0.591027       -16.0827
  27   2.0000      -0.581060       -15.8115
  28   2.0000      -0.560437       -15.2503
  29   2.0000      -0.507205       -13.8017
  30   2.0000      -0.506719       -13.7885
  31   2.0000      -0.488753       -13.2996
  32   2.0000      -0.430058       -11.7025
  33   2.0000      -0.428512       -11.6604
  34   2.0000      -0.383296       -10.4300
  35   2.0000      -0.334587        -9.1046
  36   2.0000      -0.295186        -8.0324
  37   0.0000       0.022883         0.6227
  38   0.0000       0.029076         0.7912
  39   0.0000       0.031141         0.8474
  40   0.0000       0.039088         1.0636
  41   0.0000       0.040704         1.1076

MULLIKEN ATOMIC CHARGES
-----------------------
   0 N :   -0.416429
   1 C :    0.476121
   2 C :   -0.219428
   3 C :   -0.205150
   4 C :   -0.405539
   5 C :   -0.377224
   6 C :   -0.353574
   7 H :    0.294118
   8 H :    0.246291
   9 H :    0.371622
  10 H :    0.280801
  11 H :    0.241974
  12 N :   -0.624858
  13 P :    0.388251
  14 H :    0.243992
  15 H :    0.243993
  16 H :   -0.092483
  17 H :   -0.092481
Sum of atomic charges:   -0.0000000

LOEWDIN ATOMIC CHARGES
----------------------
   0 N :    0.006073
   1 C :   -0.338913
   2 C :    0.321116
   3 C :    0.284483
   4 C :    0.332204
   5 C :    0.329384
   6 C :    0.331415
   7 H :   -0.329319
   8 H :   -0.320822
   9 H :   -0.368019
  10 H :   -0.404781
  11 H :   -0.319419
  12 N :    1.034952
  13 P :    1.376748
  14 H :   -0.522892
  15 H :   -0.522897
  16 H :   -0.444654
  17 H :   -0.444658

  Mayer bond orders larger than 0.100000
B(  0-N ,  1-C ) :   0.8158 B(  0-N , 12-N ) :   0.5447 B(  0-N , 13-P ) :   0.7211
B(  1-C ,  2-C ) :   1.1640 B(  1-C ,  3-C ) :   1.2121 B(  1-C ,  4-C ) :  -0.3319
B(  1-C ,  6-C ) :  -0.2773 B(  1-C , 12-N ) :   0.1201 B(  2-C ,  4-C ) :   0.1546
B(  2-C ,  6-C ) :   1.2382 B(  2-C ,  8-H ) :  -0.1509 B(  2-C ,  9-H ) :   0.8756
B(  3-C ,  4-C ) :   1.1657 B(  3-C ,  6-C ) :   0.1081 B(  3-C , 10-H ) :   0.9285
B(  3-C , 11-H ) :  -0.1359 B(  4-C ,  5-C ) :   1.2611 B(  4-C , 10-H ) :  -0.1045
B(  4-C , 11-H ) :   1.1319 B(  5-C ,  6-C ) :   1.1283 B(  5-C ,  7-H ) :   1.0520
B(  6-C ,  7-H ) :  -0.1119 B(  6-C ,  8-H ) :   1.1384 B( 12-N , 14-H ) :   0.9833
B( 12-N , 15-H ) :   0.9833 B( 13-P , 16-H ) :   0.9083 B( 13-P , 17-H ) :   0.9083

MP2 TOTAL ENERGY:     -683.832531792 Eh
FINAL SINGLE POINT ENERGY      -683.832531792328

DIPOLE MOMENT
-------------
                                X             Y             Z
Electronic contribution:     -4.47910      -0.50874      -0.00007
Nuclear contribution   :      4.02222       0.52624       0.00011
                        -----------------------------------------
Total Dipole Moment    :     -0.45688       0.01750       0.00004
                        -----------------------------------------
Magnitude (a.u.)       :      0.45721
Magnitude (Debye)      :      1.16214

Rotational constants in cm-1:     0.100745     0.031099     0.024000
Rotational constants in MHz :  3020.263811   932.315637   719.511360

                             ****ORCA TERMINATED NORMALLY****
TOTAL RUN TIME: 0 days 0 hours 45 minutes 6 seconds 134 msec
