                         Program Version 5.0.4 -  RELEASE  -
|  1> ! ri-mp2 aug-cc-pvdz aug-cc-pvdz/c tightscf
|  2> %pal nprocs 16 end
|  3> %maxcore 3800
|  4> %base "DZ_Si-S_48_A"
|  5> %scf
|  6> STABPerform true
|  7> STABRestartUHFifUnstable true
|  8> end
|  9>
| 10> *xyz 0 2
| 11> C        -0.953093    0.112039   -0.000007
| 12> S         0.582835   -0.927898   -0.000006
| 13> S         2.118101    0.266206    0.000021
| 14> C        -2.089161   -0.904071   -0.000014
| 15> H        -2.055536   -1.540987   -0.884491
| 16> H        -3.045153   -0.378361   -0.000015
| 17> H        -2.055541   -1.540993    0.884458
| 18> C        -0.984250    0.970719    1.253745
| 19> H        -0.131480    1.647585    1.282173
| 20> H        -0.968901    0.357834    2.155006
| 21> H        -1.896763    1.570017    1.262321
| 22> C        -0.984243    0.970729   -1.253753
| 23> H        -0.968888    0.357850   -2.155018
| 24> H        -0.131472    1.647595   -1.282171
| 25> H        -1.896756    1.570026   -1.262330
| 26> *
| 27>
| 28> $new_job
| 29> ! ri-mp2 aug-cc-pvtz aug-cc-pvtz/c tightscf
| 30> %pal nprocs 16 end
| 31> %maxcore 3800
| 32> %base "TZ_Si-S_48_A"
| 33>
| 34> *xyz 0 2
| 35> C        -0.953093    0.112039   -0.000007
| 36> S         0.582835   -0.927898   -0.000006
| 37> S         2.118101    0.266206    0.000021
| 38> C        -2.089161   -0.904071   -0.000014
| 39> H        -2.055536   -1.540987   -0.884491
| 40> H        -3.045153   -0.378361   -0.000015
| 41> H        -2.055541   -1.540993    0.884458
| 42> C        -0.984250    0.970719    1.253745
| 43> H        -0.131480    1.647585    1.282173
| 44> H        -0.968901    0.357834    2.155006
| 45> H        -1.896763    1.570017    1.262321
| 46> C        -0.984243    0.970729   -1.253753
| 47> H        -0.968888    0.357850   -2.155018
| 48> H        -0.131472    1.647595   -1.282171
| 49> H        -1.896756    1.570026   -1.262330
| 50> *
| 51>
| 52> $new_job
| 53> ! ri-mp2 aug-cc-pvqz aug-cc-pvqz/c tightscf
| 54> %pal nprocs 16 end
| 55> %maxcore 3800
| 56> %base "QZ_Si-S_48_A"
| 57>
| 58> *xyz 0 2
| 59> C        -0.953093    0.112039   -0.000007
| 60> S         0.582835   -0.927898   -0.000006
| 61> S         2.118101    0.266206    0.000021
| 62> C        -2.089161   -0.904071   -0.000014
| 63> H        -2.055536   -1.540987   -0.884491
| 64> H        -3.045153   -0.378361   -0.000015
| 65> H        -2.055541   -1.540993    0.884458
| 66> C        -0.984250    0.970719    1.253745
| 67> H        -0.131480    1.647585    1.282173
| 68> H        -0.968901    0.357834    2.155006
| 69> H        -1.896763    1.570017    1.262321
| 70> C        -0.984243    0.970729   -1.253753
| 71> H        -0.968888    0.357850   -2.155018
| 72> H        -0.131472    1.647595   -1.282171
| 73> H        -1.896756    1.570026   -1.262330
| 74> *
| 75>
| 76>
| 77>
| 78>
| 79>                          ****END OF INPUT****
 Total Charge           Charge          ....    0
 Multiplicity           Mult            ....    2
 Number of Electrons    NEL             ....   65
MP2 TOTAL ENERGY:     -952.671338336 Eh
FINAL SINGLE POINT ENERGY      -952.671338335708
MP2 TOTAL ENERGY:     -952.925735385 Eh
FINAL SINGLE POINT ENERGY      -952.925735384766

CARTESIAN COORDINATES (ANGSTROEM)
---------------------------------
  C     -0.953093    0.112039   -0.000007
  S      0.582835   -0.927898   -0.000006
  S      2.118101    0.266206    0.000021
  C     -2.089161   -0.904071   -0.000014
  H     -2.055536   -1.540987   -0.884491
  H     -3.045153   -0.378361   -0.000015
  H     -2.055541   -1.540993    0.884458
  C     -0.984250    0.970719    1.253745
  H     -0.131480    1.647585    1.282173
  H     -0.968901    0.357834    2.155006
  H     -1.896763    1.570017    1.262321
  C     -0.984243    0.970729   -1.253753
  H     -0.968888    0.357850   -2.155018
  H     -0.131472    1.647595   -1.282171
  H     -1.896756    1.570026   -1.262330

 Multiplicity           Mult            ....    2
 Number of Electrons    NEL             ....   65
 Basis Dimension        Dim             ....  902

ORBITAL ENERGIES
----------------
                 SPIN UP ORBITALS
  NO   OCC          E(Eh)            E(eV)
   0   1.0000     -91.991661     -2503.2204
   1   1.0000     -91.972343     -2502.6947
   2   1.0000     -11.279879      -306.9411
   3   1.0000     -11.231973      -305.6375
   4   1.0000     -11.224947      -305.4463
   5   1.0000     -11.224932      -305.4459
   6   1.0000      -8.991991      -244.6845
   7   1.0000      -8.973912      -244.1926
   8   1.0000      -6.676967      -181.6895
   9   1.0000      -6.672169      -181.5589
  10   1.0000      -6.670716      -181.5194
  11   1.0000      -6.666591      -181.4072
  12   1.0000      -6.652160      -181.0145
  13   1.0000      -6.650422      -180.9672
  14   1.0000      -1.142216       -31.0813
  15   1.0000      -1.047582       -28.5062
  16   1.0000      -0.955471       -25.9997
  17   1.0000      -0.951243       -25.8846
  18   1.0000      -0.861908       -23.4537
  19   1.0000      -0.736082       -20.0298
  20   1.0000      -0.634343       -17.2613
  21   1.0000      -0.623569       -16.9682
  22   1.0000      -0.619671       -16.8621
  23   1.0000      -0.564301       -15.3554
  24   1.0000      -0.563688       -15.3387
  25   1.0000      -0.531338       -14.4584
  26   1.0000      -0.506155       -13.7732
  27   1.0000      -0.503436       -13.6992
  28   1.0000      -0.482305       -13.1242
  29   1.0000      -0.479878       -13.0581
  30   1.0000      -0.466698       -12.6995
  31   1.0000      -0.359951        -9.7948
  32   1.0000      -0.350297        -9.5321
  33   0.0000       0.023933         0.6512
  34   0.0000       0.032217         0.8767
  35   0.0000       0.032243         0.8774
  36   0.0000       0.040177         1.0933
  37   0.0000       0.051455         1.4002

                 SPIN DOWN ORBITALS
  NO   OCC          E(Eh)            E(eV)
   0   1.0000     -91.988513     -2503.1347
   1   1.0000     -91.964658     -2502.4856
   2   1.0000     -11.280422      -306.9559
   3   1.0000     -11.231942      -305.6367
   4   1.0000     -11.224718      -305.4401
   5   1.0000     -11.224703      -305.4397
   6   1.0000      -8.988465      -244.5886
   7   1.0000      -8.965466      -243.9627
   8   1.0000      -6.670632      -181.5171
   9   1.0000      -6.669268      -181.4800
  10   1.0000      -6.662943      -181.3079
  11   1.0000      -6.648163      -180.9057
  12   1.0000      -6.645820      -180.8420
  13   1.0000      -6.632213      -180.4717
  14   1.0000      -1.135837       -30.9077
  15   1.0000      -1.020815       -27.7778
  16   1.0000      -0.955045       -25.9881
  17   1.0000      -0.950323       -25.8596
  18   1.0000      -0.817347       -22.2411
  19   1.0000      -0.718127       -19.5412
  20   1.0000      -0.629925       -17.1411
  21   1.0000      -0.620248       -16.8778
  22   1.0000      -0.617218       -16.7954
  23   1.0000      -0.563288       -15.3279
  24   1.0000      -0.558256       -15.1909
  25   1.0000      -0.530728       -14.4418
  26   1.0000      -0.500909       -13.6304
  27   1.0000      -0.494382       -13.4528
  28   1.0000      -0.475468       -12.9381
  29   1.0000      -0.456898       -12.4328
  30   1.0000      -0.387402       -10.5418
  31   1.0000      -0.346103        -9.4179
  32   0.0000       0.021162         0.5758
  33   0.0000       0.023969         0.6522
  34   0.0000       0.032333         0.8798
  35   0.0000       0.032454         0.8831
  36   0.0000       0.040274         1.0959

MULLIKEN ATOMIC CHARGES AND SPIN POPULATIONS
--------------------------------------------
   0 C :    1.052006   -0.092459
   1 S :   -0.078174    0.190782
   2 S :   -0.303793    0.842800
   3 C :   -1.055079    0.008836
   4 H :    0.281714   -0.002606
   5 H :    0.278122   -0.002932
   6 H :    0.281763   -0.002605
   7 C :   -1.061826    0.029538
   8 H :    0.291417    0.000339
   9 H :    0.283792   -0.001635
  10 H :    0.258337    0.000850
  11 C :   -1.061850    0.029537
  12 H :    0.283840   -0.001636
  13 H :    0.291407    0.000341
  14 H :    0.258325    0.000849
Sum of atomic charges         :    0.0000000

LOEWDIN ATOMIC CHARGES AND SPIN POPULATIONS
-------------------------------------------
   0 C :   -0.727656    0.033187
   1 S :    0.557578    0.305304
   2 S :    0.446426    0.636980
   3 C :    0.793999    0.005720
   4 H :   -0.293367    0.001531
   5 H :   -0.274190   -0.000464
   6 H :   -0.293368    0.001532
   7 C :    0.793710    0.004580
   8 H :   -0.333408    0.001335
   9 H :   -0.290081    0.001573
  10 H :   -0.274934    0.000617
  11 C :    0.793712    0.004580
  12 H :   -0.290081    0.001573
  13 H :   -0.333405    0.001335
  14 H :   -0.274934    0.000617

  Mayer bond orders larger than 0.100000
B(  0-C ,  1-S ) :   0.5034 B(  0-C ,  2-S ) :  -0.1528 B(  0-C ,  3-C ) :   0.5148
B(  0-C ,  7-C ) :   0.6738 B(  0-C , 11-C ) :   0.6738 B(  1-S ,  2-S ) :   1.5397
B(  3-C ,  4-H ) :   0.9974 B(  3-C ,  5-H ) :   0.9537 B(  3-C ,  6-H ) :   0.9974
B(  7-C ,  8-H ) :   0.9845 B(  7-C ,  9-H ) :   0.9823 B(  7-C , 10-H ) :   0.9485
B( 11-C , 12-H ) :   0.9823 B( 11-C , 13-H ) :   0.9845 B( 11-C , 14-H ) :   0.9485

MP2 TOTAL ENERGY:     -953.005058550 Eh
FINAL SINGLE POINT ENERGY      -953.005058549819

DIPOLE MOMENT
-------------
                                X             Y             Z
Electronic contribution:     12.28348      -3.48327       0.00006
Nuclear contribution   :    -13.32539       3.73666      -0.00007
                        -----------------------------------------
Total Dipole Moment    :     -1.04190       0.25339      -0.00001
                        -----------------------------------------
Magnitude (a.u.)       :      1.07227
Magnitude (Debye)      :      2.72550

Rotational constants in cm-1:     0.126535     0.052325     0.048870
Rotational constants in MHz :  3793.430013  1568.659639  1465.099177

                             ****ORCA TERMINATED NORMALLY****
TOTAL RUN TIME: 0 days 3 hours 38 minutes 4 seconds 816 msec
