                         Program Version 5.0.4 -  RELEASE  -
|  1> ! ri-mp2 aug-cc-pvdz aug-cc-pvdz/c tightscf
|  2> %pal nprocs 16 end
|  3> %maxcore 3800
|  4> %base "DZ_B-F_53_AB"
|  5> %scf
|  6> STABPerform true
|  7> STABRestartUHFifUnstable true
|  8> end
|  9>
| 10> *xyz 0 1
| 11> F        -1.926969    1.020762   -0.643896
| 12> B        -1.275137   -0.011504   -0.156670
| 13> F        -1.923214   -1.158229   -0.080409
| 14> C         0.238283    0.076913    0.321449
| 15> O         0.910694   -0.315110   -0.865037
| 16> O         0.502292   -0.824275    1.375011
| 17> C         2.326652   -0.269156   -0.839813
| 18> H         2.694827    0.757353   -0.900807
| 19> H         2.667845   -0.818011   -1.714131
| 20> H         2.719237   -0.744639    0.060218
| 21> C         0.646607    1.448599    0.816773
| 22> H         0.561226    2.181777    0.016618
| 23> H         1.670856    1.428498    1.185404
| 24> H         0.002462    1.752957    1.640416
| 25> H         0.137732   -1.686259    1.144133
| 26> *
| 27>
| 28> $new_job
| 29> ! ri-mp2 aug-cc-pvtz aug-cc-pvtz/c tightscf
| 30> %pal nprocs 16 end
| 31> %maxcore 3800
| 32> %base "TZ_B-F_53_AB"
| 33>
| 34> *xyz 0 1
| 35> F        -1.926969    1.020762   -0.643896
| 36> B        -1.275137   -0.011504   -0.156670
| 37> F        -1.923214   -1.158229   -0.080409
| 38> C         0.238283    0.076913    0.321449
| 39> O         0.910694   -0.315110   -0.865037
| 40> O         0.502292   -0.824275    1.375011
| 41> C         2.326652   -0.269156   -0.839813
| 42> H         2.694827    0.757353   -0.900807
| 43> H         2.667845   -0.818011   -1.714131
| 44> H         2.719237   -0.744639    0.060218
| 45> C         0.646607    1.448599    0.816773
| 46> H         0.561226    2.181777    0.016618
| 47> H         1.670856    1.428498    1.185404
| 48> H         0.002462    1.752957    1.640416
| 49> H         0.137732   -1.686259    1.144133
| 50> *
| 51>
| 52> $new_job
| 53> ! ri-mp2 aug-cc-pvqz aug-cc-pvqz/c tightscf
| 54> %pal nprocs 16 end
| 55> %maxcore 3800
| 56> %base "QZ_B-F_53_AB"
| 57>
| 58> *xyz 0 1
| 59> F        -1.926969    1.020762   -0.643896
| 60> B        -1.275137   -0.011504   -0.156670
| 61> F        -1.923214   -1.158229   -0.080409
| 62> C         0.238283    0.076913    0.321449
| 63> O         0.910694   -0.315110   -0.865037
| 64> O         0.502292   -0.824275    1.375011
| 65> C         2.326652   -0.269156   -0.839813
| 66> H         2.694827    0.757353   -0.900807
| 67> H         2.667845   -0.818011   -1.714131
| 68> H         2.719237   -0.744639    0.060218
| 69> C         0.646607    1.448599    0.816773
| 70> H         0.561226    2.181777    0.016618
| 71> H         1.670856    1.428498    1.185404
| 72> H         0.002462    1.752957    1.640416
| 73> H         0.137732   -1.686259    1.144133
| 74> *
| 75>
| 76>
| 77>
| 78>
| 79>                          ****END OF INPUT****
 Total Charge           Charge          ....    0
 Multiplicity           Mult            ....    1
 Number of Electrons    NEL             ....   64
MP2 TOTAL ENERGY:     -492.463915898 Eh
FINAL SINGLE POINT ENERGY      -492.463915897655
MP2 TOTAL ENERGY:     -492.898208805 Eh
FINAL SINGLE POINT ENERGY      -492.898208805019

CARTESIAN COORDINATES (ANGSTROEM)
---------------------------------
  F     -1.926969    1.020762   -0.643896
  B     -1.275137   -0.011504   -0.156670
  F     -1.923214   -1.158229   -0.080409
  C      0.238283    0.076913    0.321449
  O      0.910694   -0.315110   -0.865037
  O      0.502292   -0.824275    1.375011
  C      2.326652   -0.269156   -0.839813
  H      2.694827    0.757353   -0.900807
  H      2.667845   -0.818011   -1.714131
  H      2.719237   -0.744639    0.060218
  C      0.646607    1.448599    0.816773
  H      0.561226    2.181777    0.016618
  H      1.670856    1.428498    1.185404
  H      0.002462    1.752957    1.640416
  H      0.137732   -1.686259    1.144133

 Multiplicity           Mult            ....    1
 Number of Electrons    NEL             ....   64
 Basis Dimension        Dim             ....  962

ORBITAL ENERGIES
----------------

  NO   OCC          E(Eh)            E(eV)
   0   2.0000     -26.318939      -716.1747
   1   2.0000     -26.318051      -716.1506
   2   2.0000     -20.571901      -559.7899
   3   2.0000     -20.570600      -559.7545
   4   2.0000     -11.333469      -308.3994
   5   2.0000     -11.275207      -306.8140
   6   2.0000     -11.226269      -305.4823
   7   2.0000      -7.711529      -209.8414
   8   2.0000      -1.652951       -44.9791
   9   2.0000      -1.620981       -44.1091
  10   2.0000      -1.422974       -38.7211
  11   2.0000      -1.349012       -36.7085
  12   2.0000      -1.029774       -28.0216
  13   2.0000      -0.953769       -25.9534
  14   2.0000      -0.843660       -22.9572
  15   2.0000      -0.810601       -22.0576
  16   2.0000      -0.769607       -20.9421
  17   2.0000      -0.763769       -20.7832
  18   2.0000      -0.724096       -19.7036
  19   2.0000      -0.704584       -19.1727
  20   2.0000      -0.668905       -18.2018
  21   2.0000      -0.666117       -18.1260
  22   2.0000      -0.665274       -18.1030
  23   2.0000      -0.654361       -17.8061
  24   2.0000      -0.605048       -16.4642
  25   2.0000      -0.589738       -16.0476
  26   2.0000      -0.566905       -15.4263
  27   2.0000      -0.550148       -14.9703
  28   2.0000      -0.535841       -14.5810
  29   2.0000      -0.483588       -13.1591
  30   2.0000      -0.459743       -12.5102
  31   2.0000      -0.447267       -12.1708
  32   0.0000       0.022809         0.6207
  33   0.0000       0.032031         0.8716
  34   0.0000       0.033201         0.9034
  35   0.0000       0.035710         0.9717
  36   0.0000       0.047237         1.2854

MULLIKEN ATOMIC CHARGES
-----------------------
   0 F :   -0.866607
   1 B :    1.758002
   2 F :   -0.905053
   3 C :    1.628163
   4 O :   -0.891670
   5 O :   -0.946263
   6 C :   -0.721818
   7 H :    0.257604
   8 H :    0.399360
   9 H :    0.301950
  10 C :   -1.149454
  11 H :    0.245556
  12 H :    0.247653
  13 H :    0.307698
  14 H :    0.334879
Sum of atomic charges:    0.0000000

LOEWDIN ATOMIC CHARGES
----------------------
   0 F :    0.854642
   1 B :   -1.808036
   2 F :    0.854282
   3 C :   -0.892603
   4 O :    0.873953
   5 O :    1.276176
   6 C :    0.579274
   7 H :   -0.313539
   8 H :   -0.318693
   9 H :   -0.315271
  10 C :    0.861492
  11 H :   -0.278658
  12 H :   -0.298223
  13 H :   -0.275492
  14 H :   -0.799305

  Mayer bond orders larger than 0.100000
B(  0-F ,  1-B ) :   0.2756 B(  0-F ,  3-C ) :  -0.1753 B(  1-B ,  2-F ) :   0.1680
B(  1-B ,  3-C ) :   0.8125 B(  1-B ,  4-O ) :   0.1139 B(  2-F ,  3-C ) :  -0.1176
B(  3-C ,  4-O ) :   0.3358 B(  3-C ,  5-O ) :   0.3259 B(  3-C , 10-C ) :   0.6693
B(  4-O ,  6-C ) :   0.9558 B(  5-O , 10-C ) :   0.1398 B(  5-O , 14-H ) :   0.8936
B(  6-C ,  7-H ) :   0.9349 B(  6-C ,  8-H ) :   0.8530 B(  6-C ,  9-H ) :   0.8779
B( 10-C , 11-H ) :   0.9739 B( 10-C , 12-H ) :   0.9875 B( 10-C , 13-H ) :   0.9351

MP2 TOTAL ENERGY:     -493.036691275 Eh
FINAL SINGLE POINT ENERGY      -493.036691275227

DIPOLE MOMENT
-------------
                                X             Y             Z
Electronic contribution:    -14.23022      -2.79546      -2.12827
Nuclear contribution   :     14.84971       2.90928       2.21338
                        -----------------------------------------
Total Dipole Moment    :      0.61949       0.11382       0.08511
                        -----------------------------------------
Magnitude (a.u.)       :      0.63558
Magnitude (Debye)      :      1.61552

Rotational constants in cm-1:     0.095971     0.048669     0.045689
Rotational constants in MHz :  2877.147792  1459.060615  1369.728165

                             ****ORCA TERMINATED NORMALLY****
TOTAL RUN TIME: 0 days 1 hours 46 minutes 30 seconds 883 msec
