                         Program Version 5.0.4 -  RELEASE  -
|  1> ! ri-mp2 aug-cc-pvdz aug-cc-pvdz/c tightscf
|  2> %pal nprocs 16 end
|  3> %maxcore 3800
|  4> %base "DZ_Si-Si_54_AB"
|  5> %scf
|  6> STABPerform true
|  7> STABRestartUHFifUnstable true
|  8> end
|  9>
| 10> *xyz 0 1
| 11> Si         0.453630   -1.208326   -0.522322
| 12> Si        -1.655653   -0.716660    0.349208
| 13> C         1.664645    0.151755    0.076712
| 14> O         2.563986    0.662260   -0.478854
| 15> H         0.498417   -1.223866   -1.993890
| 16> H         0.979614   -2.477790    0.021394
| 17> F         1.381924    0.506217    1.375371
| 18> C        -1.920673    1.137653   -0.082135
| 19> H        -1.730126   -0.905909    1.813890
| 20> H        -2.733696   -1.508337   -0.286713
| 21> O        -1.096380    1.724333   -0.738089
| 22> H        -2.827885    1.680569    0.258649
| 23> *
| 24>
| 25> $new_job
| 26> ! ri-mp2 aug-cc-pvtz aug-cc-pvtz/c tightscf
| 27> %pal nprocs 16 end
| 28> %maxcore 3800
| 29> %base "TZ_Si-Si_54_AB"
| 30>
| 31> *xyz 0 1
| 32> Si         0.453630   -1.208326   -0.522322
| 33> Si        -1.655653   -0.716660    0.349208
| 34> C         1.664645    0.151755    0.076712
| 35> O         2.563986    0.662260   -0.478854
| 36> H         0.498417   -1.223866   -1.993890
| 37> H         0.979614   -2.477790    0.021394
| 38> F         1.381924    0.506217    1.375371
| 39> C        -1.920673    1.137653   -0.082135
| 40> H        -1.730126   -0.905909    1.813890
| 41> H        -2.733696   -1.508337   -0.286713
| 42> O        -1.096380    1.724333   -0.738089
| 43> H        -2.827885    1.680569    0.258649
| 44> *
| 45>
| 46> $new_job
| 47> ! ri-mp2 aug-cc-pvqz aug-cc-pvqz/c tightscf
| 48> %pal nprocs 16 end
| 49> %maxcore 3800
| 50> %base "QZ_Si-Si_54_AB"
| 51>
| 52> *xyz 0 1
| 53> Si         0.453630   -1.208326   -0.522322
| 54> Si        -1.655653   -0.716660    0.349208
| 55> C         1.664645    0.151755    0.076712
| 56> O         2.563986    0.662260   -0.478854
| 57> H         0.498417   -1.223866   -1.993890
| 58> H         0.979614   -2.477790    0.021394
| 59> F         1.381924    0.506217    1.375371
| 60> C        -1.920673    1.137653   -0.082135
| 61> H        -1.730126   -0.905909    1.813890
| 62> H        -2.733696   -1.508337   -0.286713
| 63> O        -1.096380    1.724333   -0.738089
| 64> H        -2.827885    1.680569    0.258649
| 65> *
| 66>
| 67>
| 68>
| 69>
| 70>                          ****END OF INPUT****
 Total Charge           Charge          ....    0
 Multiplicity           Mult            ....    1
 Number of Electrons    NEL             ....   70
MP2 TOTAL ENERGY:     -906.750911078 Eh
FINAL SINGLE POINT ENERGY      -906.750911077785
MP2 TOTAL ENERGY:     -907.091170496 Eh
FINAL SINGLE POINT ENERGY      -907.091170496186

CARTESIAN COORDINATES (ANGSTROEM)
---------------------------------
  Si     0.453630   -1.208326   -0.522322
  Si    -1.655653   -0.716660    0.349208
  C      1.664645    0.151755    0.076712
  O      2.563986    0.662260   -0.478854
  H      0.498417   -1.223866   -1.993890
  H      0.979614   -2.477790    0.021394
  F      1.381924    0.506217    1.375371
  C     -1.920673    1.137653   -0.082135
  H     -1.730126   -0.905909    1.813890
  H     -2.733696   -1.508337   -0.286713
  O     -1.096380    1.724333   -0.738089
  H     -2.827885    1.680569    0.258649

 Multiplicity           Mult            ....    1
 Number of Electrons    NEL             ....   70
 Basis Dimension        Dim             ....  798

ORBITAL ENERGIES
----------------

  NO   OCC          E(Eh)            E(eV)
   0   2.0000     -68.807319     -1872.3423
   1   2.0000     -68.801689     -1872.1891
   2   2.0000     -26.315641      -716.0850
   3   2.0000     -20.587373      -560.2109
   4   2.0000     -20.584783      -560.1404
   5   2.0000     -11.402673      -310.2825
   6   2.0000     -11.338714      -308.5421
   7   2.0000      -6.157911      -167.5653
   8   2.0000      -6.152928      -167.4297
   9   2.0000      -4.264174      -116.0341
  10   2.0000      -4.263920      -116.0272
  11   2.0000      -4.263745      -116.0224
  12   2.0000      -4.258925      -115.8912
  13   2.0000      -4.258852      -115.8892
  14   2.0000      -4.258788      -115.8875
  15   2.0000      -1.636809       -44.5398
  16   2.0000      -1.434226       -39.0273
  17   2.0000      -1.419224       -38.6190
  18   2.0000      -0.883028       -24.0284
  19   2.0000      -0.866155       -23.5693
  20   2.0000      -0.789771       -21.4908
  21   2.0000      -0.738354       -20.0916
  22   2.0000      -0.712569       -19.3900
  23   2.0000      -0.705232       -19.1903
  24   2.0000      -0.678164       -18.4538
  25   2.0000      -0.671821       -18.2812
  26   2.0000      -0.611563       -16.6415
  27   2.0000      -0.581233       -15.8162
  28   2.0000      -0.560565       -15.2537
  29   2.0000      -0.549564       -14.9544
  30   2.0000      -0.518523       -14.1097
  31   2.0000      -0.504647       -13.7322
  32   2.0000      -0.471390       -12.8272
  33   2.0000      -0.439304       -11.9541
  34   2.0000      -0.409721       -11.1491
  35   0.0000       0.018011         0.4901
  36   0.0000       0.025073         0.6823
  37   0.0000       0.033133         0.9016
  38   0.0000       0.035996         0.9795
  39   0.0000       0.044876         1.2211

MULLIKEN ATOMIC CHARGES
-----------------------
   0 Si:    0.836797
   1 Si:    0.781069
   2 C :    0.930205
   3 O :   -0.706676
   4 H :   -0.170987
   5 H :   -0.237471
   6 F :   -0.648232
   7 C :   -0.146869
   8 H :   -0.173374
   9 H :   -0.236329
  10 O :   -0.779377
  11 H :    0.551243
Sum of atomic charges:   -0.0000000

LOEWDIN ATOMIC CHARGES
----------------------
   0 Si:    0.675258
   1 Si:    0.732295
   2 C :   -1.344343
   3 O :    0.557827
   4 H :   -0.267351
   5 H :   -0.279239
   6 F :    0.615656
   7 C :   -0.326373
   8 H :   -0.274905
   9 H :   -0.280687
  10 O :    0.618506
  11 H :   -0.426645

  Mayer bond orders larger than 0.100000
B(  0-Si,  1-Si) :   0.8547 B(  0-Si,  2-C ) :   0.6273 B(  0-Si,  4-H ) :   0.8600
B(  0-Si,  5-H ) :   0.7785 B(  1-Si,  7-C ) :   0.8039 B(  1-Si,  8-H ) :   0.8281
B(  1-Si,  9-H ) :   0.8014 B(  2-C ,  3-O ) :   1.6696 B(  2-C ,  6-F ) :   0.5725
B(  7-C , 10-O ) :   1.7001 B(  7-C , 11-H ) :   0.6154

MP2 TOTAL ENERGY:     -907.205147922 Eh
FINAL SINGLE POINT ENERGY      -907.205147921563

DIPOLE MOMENT
-------------
                                X             Y             Z
Electronic contribution:      5.23266       3.28704       1.76803
Nuclear contribution   :     -6.83462      -4.61357      -1.49930
                        -----------------------------------------
Total Dipole Moment    :     -1.60197      -1.32653       0.26873
                        -----------------------------------------
Magnitude (a.u.)       :      2.09719
Magnitude (Debye)      :      5.33062

Rotational constants in cm-1:     0.079867     0.041363     0.034768
Rotational constants in MHz :  2394.337758  1240.030406  1042.322418

                             ****ORCA TERMINATED NORMALLY****
TOTAL RUN TIME: 0 days 1 hours 1 minutes 45 seconds 139 msec
