                         Program Version 5.0.4 -  RELEASE  -
|  1> ! ri-mp2 aug-cc-pvdz aug-cc-pvdz/c tightscf
|  2> %pal nprocs 16 end
|  3> %maxcore 3800
|  4> %base "DZ_B-Si_47_AB"
|  5> %scf
|  6> STABPerform true
|  7> STABRestartUHFifUnstable true
|  8> end
|  9>
| 10> *xyz 0 1
| 11> Si        -1.175852   -0.068920    0.000002
| 12> B         0.718787    0.608872   -0.000004
| 13> N         1.789965   -0.268115   -0.000006
| 14> H         1.689650   -1.269872   -0.000015
| 15> H         2.749942    0.036379    0.000005
| 16> H         0.967763    1.777512    0.000031
| 17> H        -1.230473   -1.554994   -0.000022
| 18> H        -1.919330    0.404164   -1.193682
| 19> H        -1.919314    0.404127    1.193712
| 20> *
| 21>
| 22> $new_job
| 23> ! ri-mp2 aug-cc-pvtz aug-cc-pvtz/c tightscf
| 24> %pal nprocs 16 end
| 25> %maxcore 3800
| 26> %base "TZ_B-Si_47_AB"
| 27>
| 28> *xyz 0 1
| 29> Si        -1.175852   -0.068920    0.000002
| 30> B         0.718787    0.608872   -0.000004
| 31> N         1.789965   -0.268115   -0.000006
| 32> H         1.689650   -1.269872   -0.000015
| 33> H         2.749942    0.036379    0.000005
| 34> H         0.967763    1.777512    0.000031
| 35> H        -1.230473   -1.554994   -0.000022
| 36> H        -1.919330    0.404164   -1.193682
| 37> H        -1.919314    0.404127    1.193712
| 38> *
| 39>
| 40> $new_job
| 41> ! ri-mp2 aug-cc-pvqz aug-cc-pvqz/c tightscf
| 42> %pal nprocs 16 end
| 43> %maxcore 3800
| 44> %base "QZ_B-Si_47_AB"
| 45>
| 46> *xyz 0 1
| 47> Si        -1.175852   -0.068920    0.000002
| 48> B         0.718787    0.608872   -0.000004
| 49> N         1.789965   -0.268115   -0.000006
| 50> H         1.689650   -1.269872   -0.000015
| 51> H         2.749942    0.036379    0.000005
| 52> H         0.967763    1.777512    0.000031
| 53> H        -1.230473   -1.554994   -0.000022
| 54> H        -1.919330    0.404164   -1.193682
| 55> H        -1.919314    0.404127    1.193712
| 56> *
| 57>
| 58>
| 59>
| 60>
| 61>                          ****END OF INPUT****
 Total Charge           Charge          ....    0
 Multiplicity           Mult            ....    1
 Number of Electrons    NEL             ....   32
MP2 TOTAL ENERGY:     -371.975177330 Eh
FINAL SINGLE POINT ENERGY      -371.975177329919
MP2 TOTAL ENERGY:     -372.087888207 Eh
FINAL SINGLE POINT ENERGY      -372.087888206710

CARTESIAN COORDINATES (ANGSTROEM)
---------------------------------
  Si    -1.175852   -0.068920    0.000002
  B      0.718787    0.608872   -0.000004
  N      1.789965   -0.268115   -0.000006
  H      1.689650   -1.269872   -0.000015
  H      2.749942    0.036379    0.000005
  H      0.967763    1.777512    0.000031
  H     -1.230473   -1.554994   -0.000022
  H     -1.919330    0.404164   -1.193682
  H     -1.919314    0.404127    1.193712

 Multiplicity           Mult            ....    1
 Number of Electrons    NEL             ....   32
 Basis Dimension        Dim             ....  520

ORBITAL ENERGIES
----------------

  NO   OCC          E(Eh)            E(eV)
   0   2.0000     -68.744060     -1870.6210
   1   2.0000     -15.566070      -423.5743
   2   2.0000      -7.588635      -206.4973
   3   2.0000      -6.095872      -165.8771
   4   2.0000      -4.202080      -114.3444
   5   2.0000      -4.202067      -114.3441
   6   2.0000      -4.201591      -114.3311
   7   2.0000      -1.171115       -31.8677
   8   2.0000      -0.744551       -20.2602
   9   2.0000      -0.701361       -19.0850
  10   2.0000      -0.673153       -18.3174
  11   2.0000      -0.540322       -14.7029
  12   2.0000      -0.473582       -12.8868
  13   2.0000      -0.466435       -12.6923
  14   2.0000      -0.444551       -12.0968
  15   2.0000      -0.399908       -10.8821
  16   0.0000       0.022035         0.5996
  17   0.0000       0.031946         0.8693
  18   0.0000       0.035270         0.9598
  19   0.0000       0.039735         1.0812
  20   0.0000       0.050218         1.3665

MULLIKEN ATOMIC CHARGES
-----------------------
   0 Si:    0.204694
   1 B :    0.644562
   2 N :   -0.662140
   3 H :    0.260846
   4 H :    0.228193
   5 H :   -0.351057
   6 H :   -0.119116
   7 H :   -0.102991
   8 H :   -0.102991
Sum of atomic charges:   -0.0000000

LOEWDIN ATOMIC CHARGES
----------------------
   0 Si:    1.166563
   1 B :   -0.287998
   2 N :    1.272799
   3 H :   -0.526342
   4 H :   -0.506429
   5 H :   -0.234347
   6 H :   -0.289561
   7 H :   -0.297344
   8 H :   -0.297341

  Mayer bond orders larger than 0.100000
B(  0-Si,  1-B ) :   0.6020 B(  0-Si,  6-H ) :   0.6827 B(  0-Si,  7-H ) :   0.7185
B(  0-Si,  8-H ) :   0.7185 B(  1-B ,  2-N ) :   1.2386 B(  1-B ,  5-H ) :   0.8645
B(  2-N ,  3-H ) :   0.9576 B(  2-N ,  4-H ) :   0.9776

MP2 TOTAL ENERGY:     -372.124252523 Eh
FINAL SINGLE POINT ENERGY      -372.124252522730

DIPOLE MOMENT
-------------
                                X             Y             Z
Electronic contribution:      0.97427       0.40587      -0.00004
Nuclear contribution   :     -0.16217      -0.70415       0.00003
                        -----------------------------------------
Total Dipole Moment    :      0.81210      -0.29828      -0.00000
                        -----------------------------------------
Magnitude (a.u.)       :      0.86514
Magnitude (Debye)      :      2.19902

Rotational constants in cm-1:     1.081333     0.149758     0.137714
Rotational constants in MHz : 32417.546515  4489.625800  4128.563139

                             ****ORCA TERMINATED NORMALLY****
TOTAL RUN TIME: 0 days 0 hours 12 minutes 34 seconds 286 msec
