                         Program Version 5.0.4 -  RELEASE  -
|  1> ! ri-mp2 aug-cc-pvdz aug-cc-pvdz/c tightscf
|  2> %pal nprocs 16 end
|  3> %maxcore 3800
|  4> %base "DZ_B-B_27_AB"
|  5> %scf
|  6> STABPerform true
|  7> STABRestartUHFifUnstable true
|  8> end
|  9>
| 10> *xyz 0 1
| 11> B        -0.802604    0.575406    0.274105
| 12> B         0.802604    0.575407   -0.274104
| 13> O        -1.709116   -0.212451   -0.333801
| 14> C        -3.070464   -0.265140    0.052676
| 15> H        -3.312870   -1.284397    0.352189
| 16> H        -3.690011    0.007027   -0.801449
| 17> H        -3.267329    0.417244    0.881463
| 18> O         1.709116   -0.212452    0.333800
| 19> C         3.070464   -0.265140   -0.052676
| 20> H         3.312871   -1.284396   -0.352190
| 21> H         3.690011    0.007026    0.801450
| 22> H         3.267329    0.417246   -0.881462
| 23> H         1.190414    1.273547   -1.179573
| 24> H        -1.190413    1.273544    1.179575
| 25> *
| 26>
| 27> $new_job
| 28> ! ri-mp2 aug-cc-pvtz aug-cc-pvtz/c tightscf
| 29> %pal nprocs 16 end
| 30> %maxcore 3800
| 31> %base "TZ_B-B_27_AB"
| 32>
| 33> *xyz 0 1
| 34> B        -0.802604    0.575406    0.274105
| 35> B         0.802604    0.575407   -0.274104
| 36> O        -1.709116   -0.212451   -0.333801
| 37> C        -3.070464   -0.265140    0.052676
| 38> H        -3.312870   -1.284397    0.352189
| 39> H        -3.690011    0.007027   -0.801449
| 40> H        -3.267329    0.417244    0.881463
| 41> O         1.709116   -0.212452    0.333800
| 42> C         3.070464   -0.265140   -0.052676
| 43> H         3.312871   -1.284396   -0.352190
| 44> H         3.690011    0.007026    0.801450
| 45> H         3.267329    0.417246   -0.881462
| 46> H         1.190414    1.273547   -1.179573
| 47> H        -1.190413    1.273544    1.179575
| 48> *
| 49>
| 50> $new_job
| 51> ! ri-mp2 aug-cc-pvqz aug-cc-pvqz/c tightscf
| 52> %pal nprocs 16 end
| 53> %maxcore 3800
| 54> %base "QZ_B-B_27_AB"
| 55>
| 56> *xyz 0 1
| 57> B        -0.802604    0.575406    0.274105
| 58> B         0.802604    0.575407   -0.274104
| 59> O        -1.709116   -0.212451   -0.333801
| 60> C        -3.070464   -0.265140    0.052676
| 61> H        -3.312870   -1.284397    0.352189
| 62> H        -3.690011    0.007027   -0.801449
| 63> H        -3.267329    0.417244    0.881463
| 64> O         1.709116   -0.212452    0.333800
| 65> C         3.070464   -0.265140   -0.052676
| 66> H         3.312871   -1.284396   -0.352190
| 67> H         3.690011    0.007026    0.801450
| 68> H         3.267329    0.417246   -0.881462
| 69> H         1.190414    1.273547   -1.179573
| 70> H        -1.190413    1.273544    1.179575
| 71> *
| 72>
| 73>
| 74>
| 75>
| 76>                          ****END OF INPUT****
 Total Charge           Charge          ....    0
 Multiplicity           Mult            ....    1
 Number of Electrons    NEL             ....   46
MP2 TOTAL ENERGY:     -280.420331767 Eh
FINAL SINGLE POINT ENERGY      -280.420331767493
MP2 TOTAL ENERGY:     -280.679162786 Eh
FINAL SINGLE POINT ENERGY      -280.679162786318

CARTESIAN COORDINATES (ANGSTROEM)
---------------------------------
  B     -0.802604    0.575406    0.274105
  B      0.802604    0.575407   -0.274104
  O     -1.709116   -0.212451   -0.333801
  C     -3.070464   -0.265140    0.052676
  H     -3.312870   -1.284397    0.352189
  H     -3.690011    0.007027   -0.801449
  H     -3.267329    0.417244    0.881463
  O      1.709116   -0.212452    0.333800
  C      3.070464   -0.265140   -0.052676
  H      3.312871   -1.284396   -0.352190
  H      3.690011    0.007026    0.801450
  H      3.267329    0.417246   -0.881462
  H      1.190414    1.273547   -1.179573
  H     -1.190413    1.273544    1.179575

 Multiplicity           Mult            ....    1
 Number of Electrons    NEL             ....   46
 Basis Dimension        Dim             ....  848

ORBITAL ENERGIES
----------------

  NO   OCC          E(Eh)            E(eV)
   0   2.0000     -20.563165      -559.5522
   1   2.0000     -20.563165      -559.5522
   2   2.0000     -11.274888      -306.8053
   3   2.0000     -11.274888      -306.8053
   4   2.0000      -7.589928      -206.5324
   5   2.0000      -7.589198      -206.5126
   6   2.0000      -1.372714       -37.3534
   7   2.0000      -1.370424       -37.2911
   8   2.0000      -0.945286       -25.7225
   9   2.0000      -0.938926       -25.5495
  10   2.0000      -0.736799       -20.0493
  11   2.0000      -0.709041       -19.2940
  12   2.0000      -0.645826       -17.5738
  13   2.0000      -0.636108       -17.3094
  14   2.0000      -0.631991       -17.1973
  15   2.0000      -0.628917       -17.1137
  16   2.0000      -0.586107       -15.9488
  17   2.0000      -0.540484       -14.7073
  18   2.0000      -0.504544       -13.7293
  19   2.0000      -0.478734       -13.0270
  20   2.0000      -0.472222       -12.8498
  21   2.0000      -0.468196       -12.7403
  22   2.0000      -0.389111       -10.5883
  23   0.0000       0.025837         0.7031
  24   0.0000       0.029505         0.8029
  25   0.0000       0.034456         0.9376
  26   0.0000       0.035942         0.9780
  27   0.0000       0.045214         1.2303

MULLIKEN ATOMIC CHARGES
-----------------------
   0 B :    0.800000
   1 B :    0.799999
   2 O :   -0.834543
   3 C :   -0.662109
   4 H :    0.365100
   5 H :    0.354983
   6 H :    0.278678
   7 O :   -0.834543
   8 C :   -0.662109
   9 H :    0.365100
  10 H :    0.354982
  11 H :    0.278678
  12 H :   -0.302109
  13 H :   -0.302109
Sum of atomic charges:   -0.0000000

LOEWDIN ATOMIC CHARGES
----------------------
   0 B :   -0.354853
   1 B :   -0.354852
   2 O :    0.912128
   3 C :    0.584580
   4 H :   -0.306601
   5 H :   -0.307212
   6 H :   -0.342352
   7 O :    0.912128
   8 C :    0.584579
   9 H :   -0.306602
  10 H :   -0.307211
  11 H :   -0.342352
  12 H :   -0.185689
  13 H :   -0.185690

  Mayer bond orders larger than 0.100000
B(  0-B ,  1-B ) :   1.1789 B(  0-B ,  2-O ) :   0.5990 B(  0-B ,  7-O ) :  -0.2530
B(  0-B , 13-H ) :   0.9260 B(  1-B ,  2-O ) :  -0.2530 B(  1-B ,  7-O ) :   0.5990
B(  1-B , 12-H ) :   0.9260 B(  2-O ,  3-C ) :   0.9127 B(  3-C ,  4-H ) :   0.8569
B(  3-C ,  5-H ) :   0.8728 B(  3-C ,  6-H ) :   0.9368 B(  7-O ,  8-C ) :   0.9127
B(  8-C ,  9-H ) :   0.8569 B(  8-C , 10-H ) :   0.8728 B(  8-C , 11-H ) :   0.9368

MP2 TOTAL ENERGY:     -280.759755427 Eh
FINAL SINGLE POINT ENERGY      -280.759755427260

DIPOLE MOMENT
-------------
                                X             Y             Z
Electronic contribution:     -0.00000       0.16920      -0.00000
Nuclear contribution   :      0.00000      -0.10804       0.00000
                        -----------------------------------------
Total Dipole Moment    :     -0.00000       0.06115       0.00000
                        -----------------------------------------
Magnitude (a.u.)       :      0.06115
Magnitude (Debye)      :      0.15544

Rotational constants in cm-1:     0.594471     0.040233     0.039654
Rotational constants in MHz : 17821.779470  1206.166691  1188.808425

                             ****ORCA TERMINATED NORMALLY****
TOTAL RUN TIME: 0 days 0 hours 59 minutes 42 seconds 683 msec
