                         Program Version 5.0.4 -  RELEASE  -
|  1> ! ri-mp2 aug-cc-pvdz aug-cc-pvdz/c tightscf
|  2> %pal nprocs 16 end
|  3> %maxcore 3800
|  4> %base "DZ_Si-Si_93_AB"
|  5>
|  6> *xyz 0 1
|  7> Si         0.410223   -1.096547    0.000003
|  8> Si        -0.410223    1.096547    0.000007
|  9> N        -2.205887    0.945448    0.000000
| 10> H        -0.072568    1.882231   -1.205057
| 11> H        -0.072575    1.882225    1.205077
| 12> N        -2.562430   -0.233980    0.000005
| 13> N         2.205887   -0.945448   -0.000002
| 14> H         0.072568   -1.882227   -1.205063
| 15> H         0.072575   -1.882229    1.205071
| 16> N         2.562429    0.233980   -0.000005
| 17> C        -4.004553   -0.437607   -0.000008
| 18> H        -4.258378   -1.031473    0.879109
| 19> H        -4.258361   -1.031482   -0.879124
| 20> H        -4.540305    0.512433   -0.000018
| 21> C         4.004553    0.437607   -0.000009
| 22> H         4.258372    1.031478    0.879107
| 23> H         4.258367    1.031478   -0.879127
| 24> H         4.540305   -0.512433   -0.000010
| 25> *
| 26>
| 27> $new_job
| 28> ! ri-mp2 aug-cc-pvtz aug-cc-pvtz/c tightscf
| 29> %pal nprocs 16 end
| 30> %maxcore 3800
| 31> %base "TZ_Si-Si_93_AB"
| 32>
| 33> *xyz 0 1
| 34> Si         0.410223   -1.096547    0.000003
| 35> Si        -0.410223    1.096547    0.000007
| 36> N        -2.205887    0.945448    0.000000
| 37> H        -0.072568    1.882231   -1.205057
| 38> H        -0.072575    1.882225    1.205077
| 39> N        -2.562430   -0.233980    0.000005
| 40> N         2.205887   -0.945448   -0.000002
| 41> H         0.072568   -1.882227   -1.205063
| 42> H         0.072575   -1.882229    1.205071
| 43> N         2.562429    0.233980   -0.000005
| 44> C        -4.004553   -0.437607   -0.000008
| 45> H        -4.258378   -1.031473    0.879109
| 46> H        -4.258361   -1.031482   -0.879124
| 47> H        -4.540305    0.512433   -0.000018
| 48> C         4.004553    0.437607   -0.000009
| 49> H         4.258372    1.031478    0.879107
| 50> H         4.258367    1.031478   -0.879127
| 51> H         4.540305   -0.512433   -0.000010
| 52> *
| 53>
| 54> $new_job
| 55> ! ri-mp2 aug-cc-pvqz aug-cc-pvqz/c tightscf
| 56> %pal nprocs 16 end
| 57> %maxcore 3800
| 58> %base "QZ_Si-Si_93_AB"
| 59>
| 60> *xyz 0 1
| 61> Si         0.410223   -1.096547    0.000003
| 62> Si        -0.410223    1.096547    0.000007
| 63> N        -2.205887    0.945448    0.000000
| 64> H        -0.072568    1.882231   -1.205057
| 65> H        -0.072575    1.882225    1.205077
| 66> N        -2.562430   -0.233980    0.000005
| 67> N         2.205887   -0.945448   -0.000002
| 68> H         0.072568   -1.882227   -1.205063
| 69> H         0.072575   -1.882229    1.205071
| 70> N         2.562429    0.233980   -0.000005
| 71> C        -4.004553   -0.437607   -0.000008
| 72> H        -4.258378   -1.031473    0.879109
| 73> H        -4.258361   -1.031482   -0.879124
| 74> H        -4.540305    0.512433   -0.000018
| 75> C         4.004553    0.437607   -0.000009
| 76> H         4.258372    1.031478    0.879107
| 77> H         4.258367    1.031478   -0.879127
| 78> H         4.540305   -0.512433   -0.000010
| 79> *
| 80>
| 81>
| 82>
| 83>
| 84>                          ****END OF INPUT****
 Total Charge           Charge          ....    0
 Multiplicity           Mult            ....    1
 Number of Electrons    NEL             ....   78
MP2 TOTAL ENERGY:     -878.343388021 Eh
FINAL SINGLE POINT ENERGY      -878.343388020735
MP2 TOTAL ENERGY:     -878.676420632 Eh
FINAL SINGLE POINT ENERGY      -878.676420632304

CARTESIAN COORDINATES (ANGSTROEM)
---------------------------------
  Si     0.410223   -1.096547    0.000003
  Si    -0.410223    1.096547    0.000007
  N     -2.205887    0.945448    0.000000
  H     -0.072568    1.882231   -1.205057
  H     -0.072575    1.882225    1.205077
  N     -2.562430   -0.233980    0.000005
  N      2.205887   -0.945448   -0.000002
  H      0.072568   -1.882227   -1.205063
  H      0.072575   -1.882229    1.205071
  N      2.562429    0.233980   -0.000005
  C     -4.004553   -0.437607   -0.000008
  H     -4.258378   -1.031473    0.879109
  H     -4.258361   -1.031482   -0.879124
  H     -4.540305    0.512433   -0.000018
  C      4.004553    0.437607   -0.000009
  H      4.258372    1.031478    0.879107
  H      4.258367    1.031478   -0.879127
  H      4.540305   -0.512433   -0.000010

 Multiplicity           Mult            ....    1
 Number of Electrons    NEL             ....   78
 Basis Dimension        Dim             .... 1108

ORBITAL ENERGIES
----------------

  NO   OCC          E(Eh)            E(eV)
   0   2.0000     -68.778532     -1871.5590
   1   2.0000     -68.778530     -1871.5590
   2   2.0000     -15.633675      -425.4139
   3   2.0000     -15.633675      -425.4139
   4   2.0000     -15.593231      -424.3134
   5   2.0000     -15.593230      -424.3134
   6   2.0000     -11.251026      -306.1560
   7   2.0000     -11.251026      -306.1560
   8   2.0000      -6.127376      -166.7344
   9   2.0000      -6.127229      -166.7304
  10   2.0000      -4.233656      -115.2036
  11   2.0000      -4.233442      -115.1978
  12   2.0000      -4.233263      -115.1929
  13   2.0000      -4.233195      -115.1911
  14   2.0000      -4.233178      -115.1906
  15   2.0000      -4.232753      -115.1791
  16   2.0000      -1.356400       -36.9095
  17   2.0000      -1.355974       -36.8979
  18   2.0000      -1.026594       -27.9350
  19   2.0000      -1.025388       -27.9022
  20   2.0000      -0.826483       -22.4898
  21   2.0000      -0.820718       -22.3329
  22   2.0000      -0.740374       -20.1466
  23   2.0000      -0.691188       -18.8082
  24   2.0000      -0.642400       -17.4806
  25   2.0000      -0.631288       -17.1782
  26   2.0000      -0.614797       -16.7295
  27   2.0000      -0.613587       -16.6966
  28   2.0000      -0.613427       -16.6922
  29   2.0000      -0.585190       -15.9238
  30   2.0000      -0.534150       -14.5350
  31   2.0000      -0.522577       -14.2200
  32   2.0000      -0.519522       -14.1369
  33   2.0000      -0.502729       -13.6799
  34   2.0000      -0.457531       -12.4501
  35   2.0000      -0.456007       -12.4086
  36   2.0000      -0.413427       -11.2499
  37   2.0000      -0.359547        -9.7838
  38   2.0000      -0.357432        -9.7262
  39   0.0000       0.025659         0.6982
  40   0.0000       0.029527         0.8035
  41   0.0000       0.032917         0.8957
  42   0.0000       0.037429         1.0185
  43   0.0000       0.042890         1.1671

MULLIKEN ATOMIC CHARGES
-----------------------
   0 Si:    1.109478
   1 Si:    1.109478
   2 N :   -0.750311
   3 H :   -0.219838
   4 H :   -0.219839
   5 N :   -0.138624
   6 N :   -0.750311
   7 H :   -0.219838
   8 H :   -0.219839
   9 N :   -0.138623
  10 C :   -0.725130
  11 H :    0.296529
  12 H :    0.296531
  13 H :    0.351204
  14 C :   -0.725130
  15 H :    0.296530
  16 H :    0.296529
  17 H :    0.351205
Sum of atomic charges:    0.0000000

LOEWDIN ATOMIC CHARGES
----------------------
   0 Si:    0.503040
   1 Si:    0.503040
   2 N :    0.187240
   3 H :   -0.266331
   4 H :   -0.266331
   5 N :    0.180988
   6 N :    0.187239
   7 H :   -0.266331
   8 H :   -0.266330
   9 N :    0.180987
  10 C :    0.665784
  11 H :   -0.326560
  12 H :   -0.326560
  13 H :   -0.351269
  14 C :    0.665784
  15 H :   -0.326560
  16 H :   -0.326559
  17 H :   -0.351270

  Mayer bond orders larger than 0.100000
B(  0-Si,  1-Si) :   0.9678 B(  0-Si,  6-N ) :   0.2645 B(  0-Si,  7-H ) :   0.8472
B(  0-Si,  8-H ) :   0.8472 B(  1-Si,  2-N ) :   0.2645 B(  1-Si,  3-H ) :   0.8472
B(  1-Si,  4-H ) :   0.8472 B(  2-N ,  5-N ) :   1.6369 B(  5-N , 10-C ) :   0.8441
B(  6-N ,  9-N ) :   1.6369 B(  9-N , 14-C ) :   0.8441 B( 10-C , 11-H ) :   0.9168
B( 10-C , 12-H ) :   0.9168 B( 10-C , 13-H ) :   0.8825 B( 14-C , 15-H ) :   0.9168
B( 14-C , 16-H ) :   0.9168 B( 14-C , 17-H ) :   0.8825

MP2 TOTAL ENERGY:     -878.783565223 Eh
FINAL SINGLE POINT ENERGY      -878.783565223099

DIPOLE MOMENT
-------------
                                X             Y             Z
Electronic contribution:     -0.00000      -0.00000       0.00003
Nuclear contribution   :      0.00000       0.00000      -0.00003
                        -----------------------------------------
Total Dipole Moment    :     -0.00000      -0.00000      -0.00000
                        -----------------------------------------
Magnitude (a.u.)       :      0.00000
Magnitude (Debye)      :      0.00001

Rotational constants in cm-1:     0.133179     0.020097     0.017793
Rotational constants in MHz :  3992.620867   602.491738   533.409434

                             ****ORCA TERMINATED NORMALLY****
TOTAL RUN TIME: 0 days 0 hours 25 minutes 57 seconds 658 msec
