                         Program Version 5.0.4 -  RELEASE  -
|  1> ! ri-mp2 aug-cc-pvdz aug-cc-pvdz/c tightscf
|  2> %pal nprocs 16 end
|  3> %maxcore 3800
|  4> %base "DZ_P-O_8_B"
|  5> %scf
|  6> STABPerform true
|  7> STABRestartUHFifUnstable true
|  8> end
|  9>
| 10> *xyz 0 2
| 11> F         0.000000    0.000000    0.628287
| 12> O         0.000000    0.000000   -0.706823
| 13> *
| 14>
| 15> $new_job
| 16> ! ri-mp2 aug-cc-pvtz aug-cc-pvtz/c tightscf
| 17> %pal nprocs 16 end
| 18> %maxcore 3800
| 19> %base "TZ_P-O_8_B"
| 20>
| 21> *xyz 0 2
| 22> F         0.000000    0.000000    0.628287
| 23> O         0.000000    0.000000   -0.706823
| 24> *
| 25>
| 26> $new_job
| 27> ! ri-mp2 aug-cc-pvqz aug-cc-pvqz/c tightscf
| 28> %pal nprocs 16 end
| 29> %maxcore 3800
| 30> %base "QZ_P-O_8_B"
| 31>
| 32> *xyz 0 2
| 33> F         0.000000    0.000000    0.628287
| 34> O         0.000000    0.000000   -0.706823
| 35> *
| 36>
| 37>
| 38>
| 39>
| 40>                          ****END OF INPUT****
 Total Charge           Charge          ....    0
 Multiplicity           Mult            ....    2
 Number of Electrons    NEL             ....   17
MP2 TOTAL ENERGY:     -174.512827625 Eh
FINAL SINGLE POINT ENERGY      -174.512827624560
MP2 TOTAL ENERGY:     -174.653421328 Eh
FINAL SINGLE POINT ENERGY      -174.653421327833

CARTESIAN COORDINATES (ANGSTROEM)
---------------------------------
  F      0.000000    0.000000    0.628287
  O      0.000000    0.000000   -0.706823

 Multiplicity           Mult            ....    2
 Number of Electrons    NEL             ....   17
 Basis Dimension        Dim             ....  160

ORBITAL ENERGIES
----------------
                 SPIN UP ORBITALS
  NO   OCC          E(Eh)            E(eV)
   0   1.0000     -26.389559      -718.0964
   1   1.0000     -20.761769      -564.9564
   2   1.0000      -1.735962       -47.2379
   3   1.0000      -1.325042       -36.0562
   4   1.0000      -0.834724       -22.7140
   5   1.0000      -0.788060       -21.4442
   6   1.0000      -0.743492       -20.2314
   7   1.0000      -0.640512       -17.4292
   8   1.0000      -0.576384       -15.6842
   9   0.0000       0.088474         2.4075
  10   0.0000       0.120897         3.2898
  11   0.0000       0.130973         3.5640
  12   0.0000       0.136946         3.7265
  13   0.0000       0.195495         5.3197

                 SPIN DOWN ORBITALS
  NO   OCC          E(Eh)            E(eV)
   0   1.0000     -26.388039      -718.0550
   1   1.0000     -20.717582      -563.7541
   2   1.0000      -1.706715       -46.4421
   3   1.0000      -1.189515       -32.3683
   4   1.0000      -0.775612       -21.1055
   5   1.0000      -0.729111       -19.8401
   6   1.0000      -0.709843       -19.3158
   7   1.0000      -0.539352       -14.6765
   8   0.0000       0.056692         1.5427
   9   0.0000       0.090591         2.4651
  10   0.0000       0.123984         3.3738
  11   0.0000       0.137944         3.7536
  12   0.0000       0.165984         4.5167

MULLIKEN ATOMIC CHARGES AND SPIN POPULATIONS
--------------------------------------------
   0 F :   -0.162553   -0.044384
   1 O :    0.162553    1.044384
Sum of atomic charges         :    0.0000000

LOEWDIN ATOMIC CHARGES AND SPIN POPULATIONS
-------------------------------------------
   0 F :    0.064771    0.091998
   1 O :   -0.064771    0.908002

  Mayer bond orders larger than 0.100000
B(  0-F ,  1-O ) :   0.9213

MP2 TOTAL ENERGY:     -174.699906331 Eh
FINAL SINGLE POINT ENERGY      -174.699906330622

DIPOLE MOMENT
-------------
                                X             Y             Z
Electronic contribution:      0.00000      -0.00000       0.43390
Nuclear contribution   :      0.00000       0.00000      -0.57623
                        -----------------------------------------
Total Dipole Moment    :      0.00000      -0.00000      -0.14233
                        -----------------------------------------
Magnitude (a.u.)       :      0.14233
Magnitude (Debye)      :      0.36177

Rotational constants in cm-1:     0.000000     1.088912     1.088912
Rotational constants in MHz :     0.000000 32644.769175 32644.769175

                             ****ORCA TERMINATED NORMALLY****
TOTAL RUN TIME: 0 days 0 hours 2 minutes 10 seconds 204 msec
