                         Program Version 5.0.4 -  RELEASE  -
|  1> ! ri-mp2 aug-cc-pvdz aug-cc-pvdz/c tightscf
|  2> %pal nprocs 16 end
|  3> %maxcore 3800
|  4> %base "DZ_P-O_4_AB"
|  5> %scf
|  6> STABPerform true
|  7> STABRestartUHFifUnstable true
|  8> end
|  9>
| 10> *xyz 0 1
| 11> O        -0.673458    0.719802   -0.429653
| 12> P        -2.096633    0.049882    0.007899
| 13> O        -3.017633    1.149580    0.215665
| 14> O        -1.761164   -0.931369    1.184422
| 15> O         0.312354   -0.298232   -0.675405
| 16> C         1.399621   -0.020397    0.117679
| 17> F         1.056556   -0.047924    1.419754
| 18> Cl         2.110764    1.557159   -0.213895
| 19> Cl         2.516762   -1.327829   -0.219309
| 20> H        -1.421917   -0.501589    1.978491
| 21> O        -2.442615   -1.006210   -1.100676
| 22> H        -3.043150   -0.660126   -1.771208
| 23> *
| 24>
| 25> $new_job
| 26> ! ri-mp2 aug-cc-pvtz aug-cc-pvtz/c tightscf
| 27> %pal nprocs 16 end
| 28> %maxcore 3800
| 29> %base "TZ_P-O_4_AB"
| 30>
| 31> *xyz 0 1
| 32> O        -0.673458    0.719802   -0.429653
| 33> P        -2.096633    0.049882    0.007899
| 34> O        -3.017633    1.149580    0.215665
| 35> O        -1.761164   -0.931369    1.184422
| 36> O         0.312354   -0.298232   -0.675405
| 37> C         1.399621   -0.020397    0.117679
| 38> F         1.056556   -0.047924    1.419754
| 39> Cl         2.110764    1.557159   -0.213895
| 40> Cl         2.516762   -1.327829   -0.219309
| 41> H        -1.421917   -0.501589    1.978491
| 42> O        -2.442615   -1.006210   -1.100676
| 43> H        -3.043150   -0.660126   -1.771208
| 44> *
| 45>
| 46> $new_job
| 47> ! ri-mp2 aug-cc-pvqz aug-cc-pvqz/c tightscf
| 48> %pal nprocs 16 end
| 49> %maxcore 3800
| 50> %base "QZ_P-O_4_AB"
| 51>
| 52> *xyz 0 1
| 53> O        -0.673458    0.719802   -0.429653
| 54> P        -2.096633    0.049882    0.007899
| 55> O        -3.017633    1.149580    0.215665
| 56> O        -1.761164   -0.931369    1.184422
| 57> O         0.312354   -0.298232   -0.675405
| 58> C         1.399621   -0.020397    0.117679
| 59> F         1.056556   -0.047924    1.419754
| 60> Cl         2.110764    1.557159   -0.213895
| 61> Cl         2.516762   -1.327829   -0.219309
| 62> H        -1.421917   -0.501589    1.978491
| 63> O        -2.442615   -1.006210   -1.100676
| 64> H        -3.043150   -0.660126   -1.771208
| 65> *
| 66>
| 67>
| 68>
| 69>
| 70>                          ****END OF INPUT****
 Total Charge           Charge          ....    0
 Multiplicity           Mult            ....    1
 Number of Electrons    NEL             ....  106
MP2 TOTAL ENERGY:    -1774.325857453 Eh
FINAL SINGLE POINT ENERGY     -1774.325857452637
MP2 TOTAL ENERGY:    -1774.960661119 Eh
FINAL SINGLE POINT ENERGY     -1774.960661118649

CARTESIAN COORDINATES (ANGSTROEM)
---------------------------------
  O     -0.673458    0.719802   -0.429653
  P     -2.096633    0.049882    0.007899
  O     -3.017633    1.149580    0.215665
  O     -1.761164   -0.931369    1.184422
  O      0.312354   -0.298232   -0.675405
  C      1.399621   -0.020397    0.117679
  F      1.056556   -0.047924    1.419754
  Cl     2.110764    1.557159   -0.213895
  Cl     2.516762   -1.327829   -0.219309
  H     -1.421917   -0.501589    1.978491
  O     -2.442615   -1.006210   -1.100676
  H     -3.043150   -0.660126   -1.771208

 Multiplicity           Mult            ....    1
 Number of Electrons    NEL             ....  106
 Basis Dimension        Dim             ....  904

ORBITAL ENERGIES
----------------

  NO   OCC          E(Eh)            E(eV)
   0   2.0000    -104.883385     -2854.0220
   1   2.0000    -104.875960     -2853.8199
   2   2.0000     -80.121506     -2180.2170
   3   2.0000     -26.364689      -717.4197
   4   2.0000     -20.707241      -563.4727
   5   2.0000     -20.683458      -562.8255
   6   2.0000     -20.628832      -561.3390
   7   2.0000     -20.628600      -561.3327
   8   2.0000     -20.532315      -558.7127
   9   2.0000     -11.534671      -313.8743
  10   2.0000     -10.609430      -288.6973
  11   2.0000     -10.602013      -288.4954
  12   2.0000      -8.076478      -219.7722
  13   2.0000      -8.074389      -219.7153
  14   2.0000      -8.074361      -219.7145
  15   2.0000      -8.069049      -219.5700
  16   2.0000      -8.066999      -219.5142
  17   2.0000      -8.066986      -219.5139
  18   2.0000      -7.640174      -207.8997
  19   2.0000      -5.539032      -150.7247
  20   2.0000      -5.538728      -150.7165
  21   2.0000      -5.537530      -150.6839
  22   2.0000      -1.702229       -46.3200
  23   2.0000      -1.567370       -42.6503
  24   2.0000      -1.472922       -40.0803
  25   2.0000      -1.418049       -38.5871
  26   2.0000      -1.346634       -36.6438
  27   2.0000      -1.310463       -35.6595
  28   2.0000      -1.191205       -32.4143
  29   2.0000      -1.139583       -31.0096
  30   2.0000      -0.921144       -25.0656
  31   2.0000      -0.894278       -24.3345
  32   2.0000      -0.818473       -22.2718
  33   2.0000      -0.799828       -21.7644
  34   2.0000      -0.785423       -21.3725
  35   2.0000      -0.758313       -20.6347
  36   2.0000      -0.753319       -20.4989
  37   2.0000      -0.695641       -18.9294
  38   2.0000      -0.684959       -18.6387
  39   2.0000      -0.670816       -18.2538
  40   2.0000      -0.657264       -17.8851
  41   2.0000      -0.629903       -17.1405
  42   2.0000      -0.600998       -16.3540
  43   2.0000      -0.594868       -16.1872
  44   2.0000      -0.574464       -15.6319
  45   2.0000      -0.559359       -15.2209
  46   2.0000      -0.536933       -14.6107
  47   2.0000      -0.521912       -14.2020
  48   2.0000      -0.513072       -13.9614
  49   2.0000      -0.495605       -13.4861
  50   2.0000      -0.493817       -13.4374
  51   2.0000      -0.491925       -13.3860
  52   2.0000      -0.474821       -12.9205
  53   0.0000       0.024202         0.6586
  54   0.0000       0.032372         0.8809
  55   0.0000       0.044896         1.2217
  56   0.0000       0.051840         1.4106
  57   0.0000       0.064999         1.7687

MULLIKEN ATOMIC CHARGES
-----------------------
   0 O :   -0.538834
   1 P :    2.629514
   2 O :   -1.119741
   3 O :   -0.876669
   4 O :   -0.322461
   5 C :    1.166697
   6 F :   -0.573452
   7 Cl:   -0.155188
   8 Cl:   -0.138166
   9 H :    0.400196
  10 O :   -0.848033
  11 H :    0.376137
Sum of atomic charges:   -0.0000000

LOEWDIN ATOMIC CHARGES
----------------------
   0 O :    0.269274
   1 P :   -1.033448
   2 O :    0.283660
   3 O :    1.095687
   4 O :    0.227260
   5 C :   -2.953200
   6 F :    0.627671
   7 Cl:    1.043468
   8 Cl:    1.053714
   9 H :   -0.862309
  10 O :    1.096199
  11 H :   -0.847977

  Mayer bond orders larger than 0.100000
B(  0-O ,  1-P ) :   0.5652 B(  0-O ,  2-O ) :  -0.1392 B(  0-O ,  4-O ) :   0.7398
B(  1-P ,  2-O ) :   1.3984 B(  1-P ,  3-O ) :   0.7017 B(  1-P , 10-O ) :   0.6995
B(  3-O ,  9-H ) :   0.8625 B(  4-O ,  5-C ) :   0.8668 B(  5-C ,  6-F ) :   0.4527
B(  5-C ,  7-Cl) :   0.8715 B(  5-C ,  8-Cl) :   0.8125 B( 10-O , 11-H ) :   0.9104

MP2 TOTAL ENERGY:    -1775.169349615 Eh
FINAL SINGLE POINT ENERGY     -1775.169349614599

DIPOLE MOMENT
-------------
                                X             Y             Z
Electronic contribution:      9.93233       0.80396       0.40405
Nuclear contribution   :     -9.49677      -1.38562      -0.55147
                        -----------------------------------------
Total Dipole Moment    :      0.43556      -0.58166      -0.14742
                        -----------------------------------------
Magnitude (a.u.)       :      0.74147
Magnitude (Debye)      :      1.88466

Rotational constants in cm-1:     0.054047     0.017279     0.015550
Rotational constants in MHz :  1620.273722   518.009308   466.170118

                             ****ORCA TERMINATED NORMALLY****
TOTAL RUN TIME: 0 days 1 hours 26 minutes 20 seconds 262 msec
