                         Program Version 5.0.4 -  RELEASE  -
|  1> ! ri-mp2 aug-cc-pvdz aug-cc-pvdz/c tightscf
|  2> %pal nprocs 16 end
|  3> %maxcore 3800
|  4> %base "DZ_B-Si_64_AB"
|  5> %scf
|  6> STABPerform true
|  7> STABRestartUHFifUnstable true
|  8> end
|  9>
| 10> *xyz 0 1
| 11> Si         0.699254   -0.664240    0.000001
| 12> B        -1.317515   -0.529865    0.000004
| 13> O        -1.884912    0.697930   -0.000002
| 14> C         1.554928    1.002144   -0.000002
| 15> H         1.271676    1.580680   -0.879871
| 16> H         2.639578    0.893730   -0.000003
| 17> H         1.271679    1.580681    0.879868
| 18> H        -2.847499    0.692099   -0.000003
| 19> H        -2.035647   -1.493198    0.000004
| 20> H         1.123979   -1.450805   -1.188631
| 21> H         1.123981   -1.450803    1.188633
| 22> *
| 23>
| 24> $new_job
| 25> ! ri-mp2 aug-cc-pvtz aug-cc-pvtz/c tightscf
| 26> %pal nprocs 16 end
| 27> %maxcore 3800
| 28> %base "TZ_B-Si_64_AB"
| 29>
| 30> *xyz 0 1
| 31> Si         0.699254   -0.664240    0.000001
| 32> B        -1.317515   -0.529865    0.000004
| 33> O        -1.884912    0.697930   -0.000002
| 34> C         1.554928    1.002144   -0.000002
| 35> H         1.271676    1.580680   -0.879871
| 36> H         2.639578    0.893730   -0.000003
| 37> H         1.271679    1.580681    0.879868
| 38> H        -2.847499    0.692099   -0.000003
| 39> H        -2.035647   -1.493198    0.000004
| 40> H         1.123979   -1.450805   -1.188631
| 41> H         1.123981   -1.450803    1.188633
| 42> *
| 43>
| 44> $new_job
| 45> ! ri-mp2 aug-cc-pvqz aug-cc-pvqz/c tightscf
| 46> %pal nprocs 16 end
| 47> %maxcore 3800
| 48> %base "QZ_B-Si_64_AB"
| 49>
| 50> *xyz 0 1
| 51> Si         0.699254   -0.664240    0.000001
| 52> B        -1.317515   -0.529865    0.000004
| 53> O        -1.884912    0.697930   -0.000002
| 54> C         1.554928    1.002144   -0.000002
| 55> H         1.271676    1.580680   -0.879871
| 56> H         2.639578    0.893730   -0.000003
| 57> H         1.271679    1.580681    0.879868
| 58> H        -2.847499    0.692099   -0.000003
| 59> H        -2.035647   -1.493198    0.000004
| 60> H         1.123979   -1.450805   -1.188631
| 61> H         1.123981   -1.450803    1.188633
| 62> *
| 63>
| 64>
| 65>
| 66>
| 67>                          ****END OF INPUT****
 Total Charge           Charge          ....    0
 Multiplicity           Mult            ....    1
 Number of Electrons    NEL             ....   40
MP2 TOTAL ENERGY:     -431.022482752 Eh
FINAL SINGLE POINT ENERGY      -431.022482752286
MP2 TOTAL ENERGY:     -431.191620171 Eh
FINAL SINGLE POINT ENERGY      -431.191620170958

CARTESIAN COORDINATES (ANGSTROEM)
---------------------------------
  Si     0.699254   -0.664240    0.000001
  B     -1.317515   -0.529865    0.000004
  O     -1.884912    0.697930   -0.000002
  C      1.554928    1.002144   -0.000002
  H      1.271676    1.580680   -0.879871
  H      2.639578    0.893730   -0.000003
  H      1.271679    1.580681    0.879868
  H     -2.847499    0.692099   -0.000003
  H     -2.035647   -1.493198    0.000004
  H      1.123979   -1.450805   -1.188631
  H      1.123981   -1.450803    1.188633

 Multiplicity           Mult            ....    1
 Number of Electrons    NEL             ....   40
 Basis Dimension        Dim             ....  646

ORBITAL ENERGIES
----------------

  NO   OCC          E(Eh)            E(eV)
   0   2.0000     -68.740604     -1870.5269
   1   2.0000     -20.584583      -560.1350
   2   2.0000     -11.196713      -304.6780
   3   2.0000      -7.618845      -207.3193
   4   2.0000      -6.092198      -165.7771
   5   2.0000      -4.198616      -114.2502
   6   2.0000      -4.198361      -114.2432
   7   2.0000      -4.197967      -114.2325
   8   2.0000      -1.378182       -37.5023
   9   2.0000      -0.938870       -25.5480
  10   2.0000      -0.776019       -21.1165
  11   2.0000      -0.681877       -18.5548
  12   2.0000      -0.647626       -17.6228
  13   2.0000      -0.556830       -15.1521
  14   2.0000      -0.555872       -15.1260
  15   2.0000      -0.545516       -14.8443
  16   2.0000      -0.530851       -14.4452
  17   2.0000      -0.456120       -12.4117
  18   2.0000      -0.445113       -12.1121
  19   2.0000      -0.391291       -10.6476
  20   0.0000       0.020306         0.5526
  21   0.0000       0.031681         0.8621
  22   0.0000       0.036219         0.9856
  23   0.0000       0.036999         1.0068
  24   0.0000       0.048929         1.3314

MULLIKEN ATOMIC CHARGES
-----------------------
   0 Si:    0.525871
   1 B :    0.904061
   2 O :   -0.933031
   3 C :   -0.946850
   4 H :    0.223739
   5 H :    0.330327
   6 H :    0.223738
   7 H :    0.356011
   8 H :   -0.339344
   9 H :   -0.172261
  10 H :   -0.172261
Sum of atomic charges:    0.0000000

LOEWDIN ATOMIC CHARGES
----------------------
   0 Si:    0.889690
   1 B :   -0.425155
   2 O :    1.264893
   3 C :    0.877009
   4 H :   -0.358693
   5 H :   -0.361400
   6 H :   -0.358692
   7 H :   -0.798514
   8 H :   -0.230501
   9 H :   -0.249318
  10 H :   -0.249319

  Mayer bond orders larger than 0.100000
B(  0-Si,  1-B ) :   0.8040 B(  0-Si,  2-O ) :  -0.1100 B(  0-Si,  3-C ) :   0.8145
B(  0-Si,  9-H ) :   0.7691 B(  0-Si, 10-H ) :   0.7691 B(  1-B ,  2-O ) :   0.5743
B(  1-B ,  8-H ) :   0.8917 B(  2-O ,  7-H ) :   0.9091 B(  3-C ,  4-H ) :   0.9664
B(  3-C ,  5-H ) :   0.9077 B(  3-C ,  6-H ) :   0.9664

MP2 TOTAL ENERGY:     -431.245063623 Eh
FINAL SINGLE POINT ENERGY      -431.245063623211

DIPOLE MOMENT
-------------
                                X             Y             Z
Electronic contribution:     -4.23250      -0.69276       0.00001
Nuclear contribution   :      3.59276       0.84371      -0.00001
                        -----------------------------------------
Total Dipole Moment    :     -0.63974       0.15096       0.00000
                        -----------------------------------------
Magnitude (a.u.)       :      0.65731
Magnitude (Debye)      :      1.67075

Rotational constants in cm-1:     0.321963     0.113948     0.088037
Rotational constants in MHz :  9652.213327  3416.065190  2639.293552

                             ****ORCA TERMINATED NORMALLY****
TOTAL RUN TIME: 0 days 0 hours 30 minutes 11 seconds 802 msec
