                         Program Version 5.0.4 -  RELEASE  -
|  1> ! ri-mp2 aug-cc-pvdz aug-cc-pvdz/c tightscf
|  2> %pal nprocs 16 end
|  3> %maxcore 3800
|  4> %base "DZ_S-S_33_AB"
|  5> %scf
|  6> STABPerform true
|  7> STABRestartUHFifUnstable true
|  8> end
|  9>
| 10> *xyz 0 1
| 11> S        -1.926672    0.223551   -0.111698
| 12> S        -0.238393   -0.909029    0.048737
| 13> C         1.085283    0.315178    0.011277
| 14> O         0.897591    1.491533    0.024777
| 15> C         2.442571   -0.330707   -0.040045
| 16> H         2.411240   -1.388264    0.215991
| 17> H         3.110841    0.199115    0.636016
| 18> H         2.828721   -0.227209   -1.054826
| 19> H        -2.057603    0.544912    1.184580
| 20> *
| 21>
| 22> $new_job
| 23> ! ri-mp2 aug-cc-pvtz aug-cc-pvtz/c tightscf
| 24> %pal nprocs 16 end
| 25> %maxcore 3800
| 26> %base "TZ_S-S_33_AB"
| 27>
| 28> *xyz 0 1
| 29> S        -1.926672    0.223551   -0.111698
| 30> S        -0.238393   -0.909029    0.048737
| 31> C         1.085283    0.315178    0.011277
| 32> O         0.897591    1.491533    0.024777
| 33> C         2.442571   -0.330707   -0.040045
| 34> H         2.411240   -1.388264    0.215991
| 35> H         3.110841    0.199115    0.636016
| 36> H         2.828721   -0.227209   -1.054826
| 37> H        -2.057603    0.544912    1.184580
| 38> *
| 39>
| 40> $new_job
| 41> ! ri-mp2 aug-cc-pvqz aug-cc-pvqz/c tightscf
| 42> %pal nprocs 16 end
| 43> %maxcore 3800
| 44> %base "QZ_S-S_33_AB"
| 45>
| 46> *xyz 0 1
| 47> S        -1.926672    0.223551   -0.111698
| 48> S        -0.238393   -0.909029    0.048737
| 49> C         1.085283    0.315178    0.011277
| 50> O         0.897591    1.491533    0.024777
| 51> C         2.442571   -0.330707   -0.040045
| 52> H         2.411240   -1.388264    0.215991
| 53> H         3.110841    0.199115    0.636016
| 54> H         2.828721   -0.227209   -1.054826
| 55> H        -2.057603    0.544912    1.184580
| 56> *
| 57>
| 58>
| 59>
| 60>
| 61>                          ****END OF INPUT****
 Total Charge           Charge          ....    0
 Multiplicity           Mult            ....    1
 Number of Electrons    NEL             ....   56
MP2 TOTAL ENERGY:     -948.777238224 Eh
FINAL SINGLE POINT ENERGY      -948.777238223703
MP2 TOTAL ENERGY:     -949.016836007 Eh
FINAL SINGLE POINT ENERGY      -949.016836007124

CARTESIAN COORDINATES (ANGSTROEM)
---------------------------------
  S     -1.926672    0.223551   -0.111698
  S     -0.238393   -0.909029    0.048737
  C      1.085283    0.315178    0.011277
  O      0.897591    1.491533    0.024777
  C      2.442571   -0.330707   -0.040045
  H      2.411240   -1.388264    0.215991
  H      3.110841    0.199115    0.636016
  H      2.828721   -0.227209   -1.054826
  H     -2.057603    0.544912    1.184580

 Multiplicity           Mult            ....    1
 Number of Electrons    NEL             ....   56
 Basis Dimension        Dim             ....  592

ORBITAL ENERGIES
----------------

  NO   OCC          E(Eh)            E(eV)
   0   2.0000     -91.998309     -2503.4013
   1   2.0000     -91.990131     -2503.1787
   2   2.0000     -20.565904      -559.6267
   3   2.0000     -11.370880      -309.4174
   4   2.0000     -11.253763      -306.2305
   5   2.0000      -8.999500      -244.8888
   6   2.0000      -8.991037      -244.6586
   7   2.0000      -6.680774      -181.7931
   8   2.0000      -6.679410      -181.7560
   9   2.0000      -6.678807      -181.7396
  10   2.0000      -6.672346      -181.5638
  11   2.0000      -6.671297      -181.5352
  12   2.0000      -6.670291      -181.5078
  13   2.0000      -1.421546       -38.6822
  14   2.0000      -1.086537       -29.5662
  15   2.0000      -1.029770       -28.0215
  16   2.0000      -0.906310       -24.6620
  17   2.0000      -0.746088       -20.3021
  18   2.0000      -0.661667       -18.0049
  19   2.0000      -0.650429       -17.6991
  20   2.0000      -0.629878       -17.1399
  21   2.0000      -0.575317       -15.6552
  22   2.0000      -0.567881       -15.4528
  23   2.0000      -0.529325       -14.4037
  24   2.0000      -0.482536       -13.1305
  25   2.0000      -0.433457       -11.7950
  26   2.0000      -0.393254       -10.7010
  27   2.0000      -0.377630       -10.2758
  28   0.0000       0.024096         0.6557
  29   0.0000       0.032907         0.8954
  30   0.0000       0.039885         1.0853
  31   0.0000       0.041512         1.1296
  32   0.0000       0.059310         1.6139

MULLIKEN ATOMIC CHARGES
-----------------------
   0 S :   -0.170304
   1 S :    0.120128
   2 C :    0.577557
   3 O :   -0.718102
   4 C :   -0.786977
   5 H :    0.272219
   6 H :    0.273113
   7 H :    0.308853
   8 H :    0.123513
Sum of atomic charges:    0.0000000

LOEWDIN ATOMIC CHARGES
----------------------
   0 S :    1.011455
   1 S :    0.679869
   2 C :   -1.197985
   3 O :    0.604817
   4 C :    0.761133
   5 H :   -0.356762
   6 H :   -0.313427
   7 H :   -0.306367
   8 H :   -0.882732

  Mayer bond orders larger than 0.100000
B(  0-S ,  1-S ) :   1.1087 B(  0-S ,  8-H ) :   0.9732 B(  1-S ,  2-C ) :   0.9268
B(  2-C ,  3-O ) :   1.5161 B(  2-C ,  4-C ) :   0.8780 B(  4-C ,  5-H ) :   0.9602
B(  4-C ,  6-H ) :   0.9567 B(  4-C ,  7-H ) :   0.8899

MP2 TOTAL ENERGY:     -949.095054560 Eh
FINAL SINGLE POINT ENERGY      -949.095054560038

DIPOLE MOMENT
-------------
                                X             Y             Z
Electronic contribution:     -5.66514       0.12926      -0.67176
Nuclear contribution   :      6.19732      -0.80385       0.95679
                        -----------------------------------------
Total Dipole Moment    :      0.53219      -0.67459       0.28503
                        -----------------------------------------
Magnitude (a.u.)       :      0.90528
Magnitude (Debye)      :      2.30105

Rotational constants in cm-1:     0.234575     0.067243     0.053403
Rotational constants in MHz :  7032.376954  2015.898498  1600.981698

                             ****ORCA TERMINATED NORMALLY****
TOTAL RUN TIME: 0 days 0 hours 21 minutes 3 seconds 518 msec
