                         Program Version 5.0.4 -  RELEASE  -
|  1> ! ri-mp2 aug-cc-pvdz aug-cc-pvdz/c tightscf
|  2> %pal nprocs 16 end
|  3> %maxcore 3800
|  4> %base "DZ_B-Si_17_AB"
|  5> %scf
|  6> STABPerform true
|  7> STABRestartUHFifUnstable true
|  8> end
|  9>
| 10> *xyz 0 1
| 11> Si        -0.203276   -1.120517   -0.000000
| 12> B         1.639194   -0.287656   -0.000003
| 13> O         1.801678    1.054519   -0.000001
| 14> C        -1.635652    0.070959    0.000001
| 15> C        -1.516193    1.392569    0.000001
| 16> H        -2.641041   -0.344243    0.000002
| 17> H        -0.548846    1.879826    0.000000
| 18> H        -2.383490    2.044133    0.000003
| 19> H         2.720176    1.342567    0.000004
| 20> H         2.620189   -0.981562    0.000009
| 21> H        -0.309721   -2.016259    1.182566
| 22> H        -0.309724   -2.016261   -1.182565
| 23> *
| 24>
| 25> $new_job
| 26> ! ri-mp2 aug-cc-pvtz aug-cc-pvtz/c tightscf
| 27> %pal nprocs 16 end
| 28> %maxcore 3800
| 29> %base "TZ_B-Si_17_AB"
| 30>
| 31> *xyz 0 1
| 32> Si        -0.203276   -1.120517   -0.000000
| 33> B         1.639194   -0.287656   -0.000003
| 34> O         1.801678    1.054519   -0.000001
| 35> C        -1.635652    0.070959    0.000001
| 36> C        -1.516193    1.392569    0.000001
| 37> H        -2.641041   -0.344243    0.000002
| 38> H        -0.548846    1.879826    0.000000
| 39> H        -2.383490    2.044133    0.000003
| 40> H         2.720176    1.342567    0.000004
| 41> H         2.620189   -0.981562    0.000009
| 42> H        -0.309721   -2.016259    1.182566
| 43> H        -0.309724   -2.016261   -1.182565
| 44> *
| 45>
| 46> $new_job
| 47> ! ri-mp2 aug-cc-pvqz aug-cc-pvqz/c tightscf
| 48> %pal nprocs 16 end
| 49> %maxcore 3800
| 50> %base "QZ_B-Si_17_AB"
| 51>
| 52> *xyz 0 1
| 53> Si        -0.203276   -1.120517   -0.000000
| 54> B         1.639194   -0.287656   -0.000003
| 55> O         1.801678    1.054519   -0.000001
| 56> C        -1.635652    0.070959    0.000001
| 57> C        -1.516193    1.392569    0.000001
| 58> H        -2.641041   -0.344243    0.000002
| 59> H        -0.548846    1.879826    0.000000
| 60> H        -2.383490    2.044133    0.000003
| 61> H         2.720176    1.342567    0.000004
| 62> H         2.620189   -0.981562    0.000009
| 63> H        -0.309721   -2.016259    1.182566
| 64> H        -0.309724   -2.016261   -1.182565
| 65> *
| 66>
| 67>
| 68>
| 69>
| 70>                          ****END OF INPUT****
 Total Charge           Charge          ....    0
 Multiplicity           Mult            ....    1
 Number of Electrons    NEL             ....   46
MP2 TOTAL ENERGY:     -468.986483485 Eh
FINAL SINGLE POINT ENERGY      -468.986483484740
MP2 TOTAL ENERGY:     -469.185145903 Eh
FINAL SINGLE POINT ENERGY      -469.185145903488

CARTESIAN COORDINATES (ANGSTROEM)
---------------------------------
  Si    -0.203276   -1.120517   -0.000000
  B      1.639194   -0.287656   -0.000003
  O      1.801678    1.054519   -0.000001
  C     -1.635652    0.070959    0.000001
  C     -1.516193    1.392569    0.000001
  H     -2.641041   -0.344243    0.000002
  H     -0.548846    1.879826    0.000000
  H     -2.383490    2.044133    0.000003
  H      2.720176    1.342567    0.000004
  H      2.620189   -0.981562    0.000009
  H     -0.309721   -2.016259    1.182566
  H     -0.309724   -2.016261   -1.182565

 Multiplicity           Mult            ....    1
 Number of Electrons    NEL             ....   46
 Basis Dimension        Dim             ....  726

ORBITAL ENERGIES
----------------

  NO   OCC          E(Eh)            E(eV)
   0   2.0000     -68.745295     -1870.6546
   1   2.0000     -20.588256      -560.2349
   2   2.0000     -11.228325      -305.5382
   3   2.0000     -11.210520      -305.0538
   4   2.0000      -7.624140      -207.4634
   5   2.0000      -6.096710      -165.8999
   6   2.0000      -4.203069      -114.3713
   7   2.0000      -4.202903      -114.3668
   8   2.0000      -4.202644      -114.3598
   9   2.0000      -1.382647       -37.6237
  10   2.0000      -1.030057       -28.0293
  11   2.0000      -0.794053       -21.6073
  12   2.0000      -0.773938       -21.0599
  13   2.0000      -0.686489       -18.6803
  14   2.0000      -0.659585       -17.9482
  15   2.0000      -0.615859       -16.7584
  16   2.0000      -0.557049       -15.1581
  17   2.0000      -0.553318       -15.0565
  18   2.0000      -0.535315       -14.5667
  19   2.0000      -0.473613       -12.8877
  20   2.0000      -0.444662       -12.0999
  21   2.0000      -0.395793       -10.7701
  22   2.0000      -0.371039       -10.0965
  23   0.0000       0.019377         0.5273
  24   0.0000       0.030304         0.8246
  25   0.0000       0.033518         0.9121
  26   0.0000       0.038363         1.0439
  27   0.0000       0.042893         1.1672

MULLIKEN ATOMIC CHARGES
-----------------------
   0 Si:    0.560549
   1 B :    1.015925
   2 O :   -0.945588
   3 C :   -0.743478
   4 C :   -0.906658
   5 H :    0.512742
   6 H :    0.538437
   7 H :    0.339715
   8 H :    0.347469
   9 H :   -0.392255
  10 H :   -0.163429
  11 H :   -0.163429
Sum of atomic charges:   -0.0000000

LOEWDIN ATOMIC CHARGES
----------------------
   0 Si:    0.850383
   1 B :   -0.429275
   2 O :    1.276116
   3 C :    0.298791
   4 C :    0.696115
   5 H :   -0.416850
   6 H :   -0.408374
   7 H :   -0.347492
   8 H :   -0.787764
   9 H :   -0.226660
  10 H :   -0.252495
  11 H :   -0.252495

  Mayer bond orders larger than 0.100000
B(  0-Si,  1-B ) :   0.8284 B(  0-Si,  2-O ) :  -0.1164 B(  0-Si,  3-C ) :   0.8915
B(  0-Si, 10-H ) :   0.7726 B(  0-Si, 11-H ) :   0.7726 B(  1-B ,  2-O ) :   0.5449
B(  1-B ,  9-H ) :   0.8385 B(  2-O ,  8-H ) :   0.9473 B(  3-C ,  4-C ) :   1.7542
B(  3-C ,  5-H ) :   0.6754 B(  4-C ,  6-H ) :   0.7095 B(  4-C ,  7-H ) :   0.9386

MP2 TOTAL ENERGY:     -469.248813151 Eh
FINAL SINGLE POINT ENERGY      -469.248813150651

DIPOLE MOMENT
-------------
                                X             Y             Z
Electronic contribution:      2.76095       0.18482      -0.00002
Nuclear contribution   :     -2.14296       0.22573       0.00002
                        -----------------------------------------
Total Dipole Moment    :      0.61799       0.41056       0.00000
                        -----------------------------------------
Magnitude (a.u.)       :      0.74194
Magnitude (Debye)      :      1.88585

Rotational constants in cm-1:     0.170403     0.097808     0.063459
Rotational constants in MHz :  5108.554897  2932.198940  1902.464805

                             ****ORCA TERMINATED NORMALLY****
TOTAL RUN TIME: 0 days 0 hours 39 minutes 11 seconds 430 msec
