                         Program Version 5.0.4 -  RELEASE  -
|  1> ! ri-mp2 aug-cc-pvdz aug-cc-pvdz/c tightscf
|  2> %pal nprocs 16 end
|  3> %maxcore 3800
|  4> %base "DZ_P-O_21_AB"
|  5> %scf
|  6> STABPerform true
|  7> STABRestartUHFifUnstable true
|  8> end
|  9>
| 10> *xyz 0 1
| 11> P         0.461092   -0.612865   -0.101497
| 12> C         1.879555    0.534366   -0.047980
| 13> H         1.825238    1.198161    0.813430
| 14> H         1.903444    1.129356   -0.959795
| 15> H         2.800239   -0.049094    0.005287
| 16> O        -0.724786    0.482269    0.230982
| 17> C        -2.057837    0.137163   -0.094743
| 18> H        -2.641866    1.055672   -0.093916
| 19> H        -2.479698   -0.548665    0.644986
| 20> H        -2.119370   -0.328337   -1.081933
| 21> H         0.663607   -1.151437    1.202876
| 22> *
| 23>
| 24> $new_job
| 25> ! ri-mp2 aug-cc-pvtz aug-cc-pvtz/c tightscf
| 26> %pal nprocs 16 end
| 27> %maxcore 3800
| 28> %base "TZ_P-O_21_AB"
| 29>
| 30> *xyz 0 1
| 31> P         0.461092   -0.612865   -0.101497
| 32> C         1.879555    0.534366   -0.047980
| 33> H         1.825238    1.198161    0.813430
| 34> H         1.903444    1.129356   -0.959795
| 35> H         2.800239   -0.049094    0.005287
| 36> O        -0.724786    0.482269    0.230982
| 37> C        -2.057837    0.137163   -0.094743
| 38> H        -2.641866    1.055672   -0.093916
| 39> H        -2.479698   -0.548665    0.644986
| 40> H        -2.119370   -0.328337   -1.081933
| 41> H         0.663607   -1.151437    1.202876
| 42> *
| 43>
| 44> $new_job
| 45> ! ri-mp2 aug-cc-pvqz aug-cc-pvqz/c tightscf
| 46> %pal nprocs 16 end
| 47> %maxcore 3800
| 48> %base "QZ_P-O_21_AB"
| 49>
| 50> *xyz 0 1
| 51> P         0.461092   -0.612865   -0.101497
| 52> C         1.879555    0.534366   -0.047980
| 53> H         1.825238    1.198161    0.813430
| 54> H         1.903444    1.129356   -0.959795
| 55> H         2.800239   -0.049094    0.005287
| 56> O        -0.724786    0.482269    0.230982
| 57> C        -2.057837    0.137163   -0.094743
| 58> H        -2.641866    1.055672   -0.093916
| 59> H        -2.479698   -0.548665    0.644986
| 60> H        -2.119370   -0.328337   -1.081933
| 61> H         0.663607   -1.151437    1.202876
| 62> *
| 63>
| 64>
| 65>
| 66>
| 67>                          ****END OF INPUT****
 Total Charge           Charge          ....    0
 Multiplicity           Mult            ....    1
 Number of Electrons    NEL             ....   42
MP2 TOTAL ENERGY:     -496.052247200 Eh
FINAL SINGLE POINT ENERGY      -496.052247199682
MP2 TOTAL ENERGY:     -496.248965573 Eh
FINAL SINGLE POINT ENERGY      -496.248965572680

CARTESIAN COORDINATES (ANGSTROEM)
---------------------------------
  P      0.461092   -0.612865   -0.101497
  C      1.879555    0.534366   -0.047980
  H      1.825238    1.198161    0.813430
  H      1.903444    1.129356   -0.959795
  H      2.800239   -0.049094    0.005287
  O     -0.724786    0.482269    0.230982
  C     -2.057837    0.137163   -0.094743
  H     -2.641866    1.055672   -0.093916
  H     -2.479698   -0.548665    0.644986
  H     -2.119370   -0.328337   -1.081933
  H      0.663607   -1.151437    1.202876

 Multiplicity           Mult            ....    1
 Number of Electrons    NEL             ....   42
 Basis Dimension        Dim             ....  646

ORBITAL ENERGIES
----------------

  NO   OCC          E(Eh)            E(eV)
   0   2.0000     -79.965778     -2175.9794
   1   2.0000     -20.559377      -559.4491
   2   2.0000     -11.276470      -306.8483
   3   2.0000     -11.219742      -305.3047
   4   2.0000      -7.502436      -204.1517
   5   2.0000      -5.396747      -146.8529
   6   2.0000      -5.396170      -146.8372
   7   2.0000      -5.395190      -146.8106
   8   2.0000      -1.367417       -37.2093
   9   2.0000      -0.989540       -26.9267
  10   2.0000      -0.925962       -25.1967
  11   2.0000      -0.774875       -21.0854
  12   2.0000      -0.649674       -17.6785
  13   2.0000      -0.631438       -17.1823
  14   2.0000      -0.621460       -16.9108
  15   2.0000      -0.575723       -15.6662
  16   2.0000      -0.551282       -15.0011
  17   2.0000      -0.503613       -13.7040
  18   2.0000      -0.497198       -13.5295
  19   2.0000      -0.439230       -11.9521
  20   2.0000      -0.347943        -9.4680
  21   0.0000       0.027801         0.7565
  22   0.0000       0.032645         0.8883
  23   0.0000       0.037049         1.0081
  24   0.0000       0.041650         1.1334
  25   0.0000       0.050939         1.3861

MULLIKEN ATOMIC CHARGES
-----------------------
   0 P :    0.851327
   1 C :   -1.050062
   2 H :    0.275944
   3 H :    0.280196
   4 H :    0.327028
   5 O :   -0.889231
   6 C :   -0.623428
   7 H :    0.388503
   8 H :    0.276130
   9 H :    0.290161
  10 H :   -0.126568
Sum of atomic charges:    0.0000000

LOEWDIN ATOMIC CHARGES
----------------------
   0 P :    0.881604
   1 C :    0.721783
   2 H :   -0.362711
   3 H :   -0.374312
   4 H :   -0.379129
   5 O :    0.522971
   6 C :    0.431884
   7 H :   -0.338911
   8 H :   -0.326216
   9 H :   -0.355260
  10 H :   -0.421702

  Mayer bond orders larger than 0.100000
B(  0-P ,  1-C ) :   0.8821 B(  0-P ,  5-O ) :   0.7098 B(  0-P , 10-H ) :   0.9252
B(  1-C ,  2-H ) :   0.9062 B(  1-C ,  3-H ) :   0.9141 B(  1-C ,  4-H ) :   0.9086
B(  5-O ,  6-C ) :   0.9269 B(  6-C ,  7-H ) :   0.8586 B(  6-C ,  8-H ) :   0.9116
B(  6-C ,  9-H ) :   0.8962

MP2 TOTAL ENERGY:     -496.309435260 Eh
FINAL SINGLE POINT ENERGY      -496.309435259834

DIPOLE MOMENT
-------------
                                X             Y             Z
Electronic contribution:      0.43742      -1.88311      -0.58620
Nuclear contribution   :     -0.50426       1.91706       0.63794
                        -----------------------------------------
Total Dipole Moment    :     -0.06683       0.03395       0.05174
                        -----------------------------------------
Magnitude (a.u.)       :      0.09108
Magnitude (Debye)      :      0.23151

Rotational constants in cm-1:     0.553661     0.114441     0.101476
Rotational constants in MHz : 16598.335530  3430.849848  3042.187839

                             ****ORCA TERMINATED NORMALLY****
TOTAL RUN TIME: 0 days 0 hours 18 minutes 24 seconds 18 msec
