                         Program Version 5.0.4 -  RELEASE  -
|  1> ! ri-mp2 aug-cc-pvdz aug-cc-pvdz/c tightscf
|  2> %pal nprocs 16 end
|  3> %maxcore 3800
|  4> %base "DZ_Si-Si_17_AB"
|  5> %scf
|  6> STABPerform true
|  7> STABRestartUHFifUnstable true
|  8> end
|  9>
| 10> *xyz 0 1
| 11> Si         0.366342    1.106755   -0.000001
| 12> Si        -0.366342   -1.106755   -0.000001
| 13> Cl         0.366342   -2.027668    1.674359
| 14> Cl        -0.366348    2.027668   -1.674358
| 15> Cl         0.366348   -2.027668   -1.674358
| 16> H        -1.830576   -1.236665   -0.000003
| 17> Cl        -0.366342    2.027668    1.674359
| 18> H         1.830576    1.236665   -0.000003
| 19> *
| 20>
| 21> $new_job
| 22> ! ri-mp2 aug-cc-pvtz aug-cc-pvtz/c tightscf
| 23> %pal nprocs 16 end
| 24> %maxcore 3800
| 25> %base "TZ_Si-Si_17_AB"
| 26>
| 27> *xyz 0 1
| 28> Si         0.366342    1.106755   -0.000001
| 29> Si        -0.366342   -1.106755   -0.000001
| 30> Cl         0.366342   -2.027668    1.674359
| 31> Cl        -0.366348    2.027668   -1.674358
| 32> Cl         0.366348   -2.027668   -1.674358
| 33> H        -1.830576   -1.236665   -0.000003
| 34> Cl        -0.366342    2.027668    1.674359
| 35> H         1.830576    1.236665   -0.000003
| 36> *
| 37>
| 38> $new_job
| 39> ! ri-mp2 aug-cc-pvqz aug-cc-pvqz/c tightscf
| 40> %pal nprocs 16 end
| 41> %maxcore 3800
| 42> %base "QZ_Si-Si_17_AB"
| 43>
| 44> *xyz 0 1
| 45> Si         0.366342    1.106755   -0.000001
| 46> Si        -0.366342   -1.106755   -0.000001
| 47> Cl         0.366342   -2.027668    1.674359
| 48> Cl        -0.366348    2.027668   -1.674358
| 49> Cl         0.366348   -2.027668   -1.674358
| 50> H        -1.830576   -1.236665   -0.000003
| 51> Cl        -0.366342    2.027668    1.674359
| 52> H         1.830576    1.236665   -0.000003
| 53> *
| 54>
| 55>
| 56>
| 57>
| 58>                          ****END OF INPUT****
 Total Charge           Charge          ....    0
 Multiplicity           Mult            ....    1
 Number of Electrons    NEL             ....   98
MP2 TOTAL ENERGY:    -2418.037527181 Eh
FINAL SINGLE POINT ENERGY     -2418.037527181044
MP2 TOTAL ENERGY:    -2418.358612764 Eh
FINAL SINGLE POINT ENERGY     -2418.358612763554

CARTESIAN COORDINATES (ANGSTROEM)
---------------------------------
  Si     0.366342    1.106755   -0.000001
  Si    -0.366342   -1.106755   -0.000001
  Cl     0.366342   -2.027668    1.674359
  Cl    -0.366348    2.027668   -1.674358
  Cl     0.366348   -2.027668   -1.674358
  H     -1.830576   -1.236665   -0.000003
  Cl    -0.366342    2.027668    1.674359
  H      1.830576    1.236665   -0.000003

 Multiplicity           Mult            ....    1
 Number of Electrons    NEL             ....   98
 Basis Dimension        Dim             ....  596

ORBITAL ENERGIES
----------------

  NO   OCC          E(Eh)            E(eV)
   0   2.0000    -104.849682     -2853.1049
   1   2.0000    -104.849682     -2853.1049
   2   2.0000    -104.849681     -2853.1049
   3   2.0000    -104.849681     -2853.1049
   4   2.0000     -68.870395     -1874.0587
   5   2.0000     -68.870393     -1874.0587
   6   2.0000     -10.577103      -287.8176
   7   2.0000     -10.577102      -287.8176
   8   2.0000     -10.577098      -287.8175
   9   2.0000     -10.577097      -287.8175
  10   2.0000      -8.043863      -218.8846
  11   2.0000      -8.043863      -218.8846
  12   2.0000      -8.043862      -218.8846
  13   2.0000      -8.043862      -218.8846
  14   2.0000      -8.042701      -218.8530
  15   2.0000      -8.042701      -218.8530
  16   2.0000      -8.042701      -218.8530
  17   2.0000      -8.042701      -218.8530
  18   2.0000      -8.042669      -218.8521
  19   2.0000      -8.042669      -218.8521
  20   2.0000      -8.042668      -218.8521
  21   2.0000      -8.042668      -218.8521
  22   2.0000      -6.211755      -169.0304
  23   2.0000      -6.211606      -169.0264
  24   2.0000      -4.318718      -117.5183
  25   2.0000      -4.318626      -117.5158
  26   2.0000      -4.318132      -117.5023
  27   2.0000      -4.317896      -117.4959
  28   2.0000      -4.317304      -117.4798
  29   2.0000      -4.316843      -117.4673
  30   2.0000      -1.137376       -30.9496
  31   2.0000      -1.131040       -30.7772
  32   2.0000      -1.107722       -30.1426
  33   2.0000      -1.105017       -30.0690
  34   2.0000      -0.761166       -20.7124
  35   2.0000      -0.693508       -18.8713
  36   2.0000      -0.578493       -15.7416
  37   2.0000      -0.572451       -15.5772
  38   2.0000      -0.559508       -15.2250
  39   2.0000      -0.558062       -15.1856
  40   2.0000      -0.557522       -15.1709
  41   2.0000      -0.505602       -13.7581
  42   2.0000      -0.494046       -13.4437
  43   2.0000      -0.490427       -13.3452
  44   2.0000      -0.489059       -13.3080
  45   2.0000      -0.478246       -13.0137
  46   2.0000      -0.478152       -13.0112
  47   2.0000      -0.469893       -12.7865
  48   2.0000      -0.412290       -11.2190
  49   0.0000       0.030090         0.8188
  50   0.0000       0.030532         0.8308
  51   0.0000       0.037116         1.0100
  52   0.0000       0.038322         1.0428
  53   0.0000       0.052288         1.4228

MULLIKEN ATOMIC CHARGES
-----------------------
   0 Si:    1.373697
   1 Si:    1.373697
   2 Cl:   -0.592205
   3 Cl:   -0.592205
   4 Cl:   -0.592205
   5 H :   -0.189288
   6 Cl:   -0.592205
   7 H :   -0.189288
Sum of atomic charges:    0.0000000

LOEWDIN ATOMIC CHARGES
----------------------
   0 Si:   -1.339933
   1 Si:   -1.339933
   2 Cl:    0.852750
   3 Cl:    0.852750
   4 Cl:    0.852750
   5 H :   -0.365567
   6 Cl:    0.852750
   7 H :   -0.365567

  Mayer bond orders larger than 0.100000
B(  0-Si,  1-Si) :   0.8385 B(  0-Si,  3-Cl) :   0.5288 B(  0-Si,  6-Cl) :   0.5288
B(  0-Si,  7-H ) :   0.9009 B(  1-Si,  2-Cl) :   0.5288 B(  1-Si,  4-Cl) :   0.5288
B(  1-Si,  5-H ) :   0.9009

MP2 TOTAL ENERGY:    -2418.468070477 Eh
FINAL SINGLE POINT ENERGY     -2418.468070476513

DIPOLE MOMENT
-------------
                                X             Y             Z
Electronic contribution:     -0.00000       0.00000       0.00001
Nuclear contribution   :     -0.00000       0.00000      -0.00001
                        -----------------------------------------
Total Dipole Moment    :     -0.00000       0.00000      -0.00000
                        -----------------------------------------
Magnitude (a.u.)       :      0.00000
Magnitude (Debye)      :      0.00001

Rotational constants in cm-1:     0.040018     0.024493     0.015871
Rotational constants in MHz :  1199.700853   734.278814   475.810222

                             ****ORCA TERMINATED NORMALLY****
TOTAL RUN TIME: 0 days 0 hours 31 minutes 23 seconds 743 msec
