                         Program Version 5.0.4 -  RELEASE  -
|  1> ! ri-mp2 aug-cc-pvdz aug-cc-pvdz/c tightscf
|  2> %pal nprocs 16 end
|  3> %maxcore 3800
|  4> %base "DZ_Si-Si_116_AB"
|  5> %scf
|  6> STABPerform true
|  7> STABRestartUHFifUnstable true
|  8> end
|  9>
| 10> *xyz 0 1
| 11> Si        -0.873974    1.422731   -0.781690
| 12> Si         0.873959    1.422698    0.781748
| 13> S         1.708950   -0.550934    0.971307
| 14> H         0.397923    1.762808    2.140743
| 15> H         1.927562    2.379839    0.380404
| 16> S         2.246999   -0.865248   -1.006021
| 17> H         1.086807   -1.401597   -1.418142
| 18> S        -1.708963   -0.550893   -0.971332
| 19> H        -0.397940    1.762901   -2.140671
| 20> H        -1.927578    2.379853   -0.380303
| 21> S        -2.246972   -0.865308    1.005990
| 22> H        -1.086773   -1.401683    1.418059
| 23> *
| 24>
| 25> $new_job
| 26> ! ri-mp2 aug-cc-pvtz aug-cc-pvtz/c tightscf
| 27> %pal nprocs 16 end
| 28> %maxcore 3800
| 29> %base "TZ_Si-Si_116_AB"
| 30>
| 31> *xyz 0 1
| 32> Si        -0.873974    1.422731   -0.781690
| 33> Si         0.873959    1.422698    0.781748
| 34> S         1.708950   -0.550934    0.971307
| 35> H         0.397923    1.762808    2.140743
| 36> H         1.927562    2.379839    0.380404
| 37> S         2.246999   -0.865248   -1.006021
| 38> H         1.086807   -1.401597   -1.418142
| 39> S        -1.708963   -0.550893   -0.971332
| 40> H        -0.397940    1.762901   -2.140671
| 41> H        -1.927578    2.379853   -0.380303
| 42> S        -2.246972   -0.865308    1.005990
| 43> H        -1.086773   -1.401683    1.418059
| 44> *
| 45>
| 46> $new_job
| 47> ! ri-mp2 aug-cc-pvqz aug-cc-pvqz/c tightscf
| 48> %pal nprocs 16 end
| 49> %maxcore 3800
| 50> %base "QZ_Si-Si_116_AB"
| 51>
| 52> *xyz 0 1
| 53> Si        -0.873974    1.422731   -0.781690
| 54> Si         0.873959    1.422698    0.781748
| 55> S         1.708950   -0.550934    0.971307
| 56> H         0.397923    1.762808    2.140743
| 57> H         1.927562    2.379839    0.380404
| 58> S         2.246999   -0.865248   -1.006021
| 59> H         1.086807   -1.401597   -1.418142
| 60> S        -1.708963   -0.550893   -0.971332
| 61> H        -0.397940    1.762901   -2.140671
| 62> H        -1.927578    2.379853   -0.380303
| 63> S        -2.246972   -0.865308    1.005990
| 64> H        -1.086773   -1.401683    1.418059
| 65> *
| 66>
| 67>
| 68>
| 69>
| 70>                          ****END OF INPUT****
 Total Charge           Charge          ....    0
 Multiplicity           Mult            ....    1
 Number of Electrons    NEL             ....   98
MP2 TOTAL ENERGY:    -2172.320717036 Eh
FINAL SINGLE POINT ENERGY     -2172.320717035998
MP2 TOTAL ENERGY:    -2172.606438226 Eh
FINAL SINGLE POINT ENERGY     -2172.606438225997

CARTESIAN COORDINATES (ANGSTROEM)
---------------------------------
  Si    -0.873974    1.422731   -0.781690
  Si     0.873959    1.422698    0.781748
  S      1.708950   -0.550934    0.971307
  H      0.397923    1.762808    2.140743
  H      1.927562    2.379839    0.380404
  S      2.246999   -0.865248   -1.006021
  H      1.086807   -1.401597   -1.418142
  S     -1.708963   -0.550893   -0.971332
  H     -0.397940    1.762901   -2.140671
  H     -1.927578    2.379853   -0.380303
  S     -2.246972   -0.865308    1.005990
  H     -1.086773   -1.401683    1.418059

 Multiplicity           Mult            ....    1
 Number of Electrons    NEL             ....   98
 Basis Dimension        Dim             ....  780

ORBITAL ENERGIES
----------------

  NO   OCC          E(Eh)            E(eV)
   0   2.0000     -91.992444     -2503.2417
   1   2.0000     -91.992444     -2503.2417
   2   2.0000     -91.978431     -2502.8603
   3   2.0000     -91.978431     -2502.8603
   4   2.0000     -68.804581     -1872.2678
   5   2.0000     -68.804579     -1872.2678
   6   2.0000      -8.993060      -244.7136
   7   2.0000      -8.993059      -244.7136
   8   2.0000      -8.980632      -244.3754
   9   2.0000      -8.980631      -244.3754
  10   2.0000      -6.674346      -181.6182
  11   2.0000      -6.674346      -181.6182
  12   2.0000      -6.673353      -181.5912
  13   2.0000      -6.673353      -181.5912
  14   2.0000      -6.672338      -181.5635
  15   2.0000      -6.672338      -181.5635
  16   2.0000      -6.661921      -181.2801
  17   2.0000      -6.661921      -181.2801
  18   2.0000      -6.660786      -181.2492
  19   2.0000      -6.660786      -181.2492
  20   2.0000      -6.660117      -181.2310
  21   2.0000      -6.660117      -181.2310
  22   2.0000      -6.152632      -167.4216
  23   2.0000      -6.152488      -167.4177
  24   2.0000      -4.259009      -115.8935
  25   2.0000      -4.258919      -115.8911
  26   2.0000      -4.258590      -115.8821
  27   2.0000      -4.258348      -115.8755
  28   2.0000      -4.258246      -115.8728
  29   2.0000      -4.257853      -115.8621
  30   2.0000      -1.060433       -28.8559
  31   2.0000      -1.052389       -28.6370
  32   2.0000      -0.886048       -24.1106
  33   2.0000      -0.885138       -24.0858
  34   2.0000      -0.742209       -20.1965
  35   2.0000      -0.670667       -18.2498
  36   2.0000      -0.595354       -16.2004
  37   2.0000      -0.570454       -15.5228
  38   2.0000      -0.528463       -14.3802
  39   2.0000      -0.513269       -13.9668
  40   2.0000      -0.506674       -13.7873
  41   2.0000      -0.496015       -13.4973
  42   2.0000      -0.489165       -13.3109
  43   2.0000      -0.475086       -12.9277
  44   2.0000      -0.430097       -11.7035
  45   2.0000      -0.394206       -10.7269
  46   2.0000      -0.375782       -10.2256
  47   2.0000      -0.371185       -10.1004
  48   2.0000      -0.362698        -9.8695
  49   0.0000       0.025529         0.6947
  50   0.0000       0.028428         0.7736
  51   0.0000       0.033224         0.9041
  52   0.0000       0.035306         0.9607
  53   0.0000       0.045215         1.2304

MULLIKEN ATOMIC CHARGES
-----------------------
   0 Si:    0.925079
   1 Si:    0.925084
   2 S :   -0.338241
   3 H :   -0.255787
   4 H :   -0.276286
   5 S :   -0.204022
   6 H :    0.149252
   7 S :   -0.338240
   8 H :   -0.255787
   9 H :   -0.276284
  10 S :   -0.204020
  11 H :    0.149251
Sum of atomic charges:    0.0000000

LOEWDIN ATOMIC CHARGES
----------------------
   0 Si:    0.067541
   1 Si:    0.067541
   2 S :    0.504171
   3 H :   -0.317780
   4 H :   -0.311259
   5 S :    0.983527
   6 H :   -0.926197
   7 S :    0.504171
   8 H :   -0.317780
   9 H :   -0.311259
  10 S :    0.983526
  11 H :   -0.926201

  Mayer bond orders larger than 0.100000
B(  0-Si,  1-Si) :   0.8180 B(  0-Si,  7-S ) :   0.7018 B(  0-Si,  8-H ) :   0.8164
B(  0-Si,  9-H ) :   0.7847 B(  1-Si,  2-S ) :   0.7018 B(  1-Si,  3-H ) :   0.8164
B(  1-Si,  4-H ) :   0.7847 B(  2-S ,  5-S ) :   1.0699 B(  5-S ,  6-H ) :   0.9592
B(  7-S , 10-S ) :   1.0699 B( 10-S , 11-H ) :   0.9592

MP2 TOTAL ENERGY:    -2172.700411612 Eh
FINAL SINGLE POINT ENERGY     -2172.700411612312

DIPOLE MOMENT
-------------
                                X             Y             Z
Electronic contribution:      0.00000      -4.73458      -0.00008
Nuclear contribution   :      0.00000       5.21518       0.00008
                        -----------------------------------------
Total Dipole Moment    :      0.00000       0.48061       0.00000
                        -----------------------------------------
Magnitude (a.u.)       :      0.48061
Magnitude (Debye)      :      1.22160

Rotational constants in cm-1:     0.044839     0.022861     0.021986
Rotational constants in MHz :  1344.249759   685.356680   659.112205

                             ****ORCA TERMINATED NORMALLY****
TOTAL RUN TIME: 0 days 1 hours 16 minutes 22 seconds 882 msec
