                         Program Version 5.0.4 -  RELEASE  -
|  1> ! ri-mp2 aug-cc-pvdz aug-cc-pvdz/c tightscf
|  2> %pal nprocs 16 end
|  3> %maxcore 3800
|  4> %base "DZ_B-B_56_AB"
|  5> %scf
|  6> STABPerform true
|  7> STABRestartUHFifUnstable true
|  8> end
|  9>
| 10> *xyz 0 1
| 11> B         0.491558   -0.667649    1.288078
| 12> B        -0.491554    0.667618    1.288096
| 13> S        -1.924353    0.848322    0.248156
| 14> C        -1.912600   -0.608233   -0.630148
| 15> N        -1.921664   -1.585100   -1.231483
| 16> S         1.924353   -0.848329    0.248127
| 17> C         1.912598    0.608249   -0.630139
| 18> N         1.921663    1.585132   -1.231448
| 19> H        -0.336019    1.612368    1.990450
| 20> H         0.336026   -1.612417    1.990409
| 21> *
| 22>
| 23> $new_job
| 24> ! ri-mp2 aug-cc-pvtz aug-cc-pvtz/c tightscf
| 25> %pal nprocs 16 end
| 26> %maxcore 3800
| 27> %base "TZ_B-B_56_AB"
| 28>
| 29> *xyz 0 1
| 30> B         0.491558   -0.667649    1.288078
| 31> B        -0.491554    0.667618    1.288096
| 32> S        -1.924353    0.848322    0.248156
| 33> C        -1.912600   -0.608233   -0.630148
| 34> N        -1.921664   -1.585100   -1.231483
| 35> S         1.924353   -0.848329    0.248127
| 36> C         1.912598    0.608249   -0.630139
| 37> N         1.921663    1.585132   -1.231448
| 38> H        -0.336019    1.612368    1.990450
| 39> H         0.336026   -1.612417    1.990409
| 40> *
| 41>
| 42> $new_job
| 43> ! ri-mp2 aug-cc-pvqz aug-cc-pvqz/c tightscf
| 44> %pal nprocs 16 end
| 45> %maxcore 3800
| 46> %base "QZ_B-B_56_AB"
| 47>
| 48> *xyz 0 1
| 49> B         0.491558   -0.667649    1.288078
| 50> B        -0.491554    0.667618    1.288096
| 51> S        -1.924353    0.848322    0.248156
| 52> C        -1.912600   -0.608233   -0.630148
| 53> N        -1.921664   -1.585100   -1.231483
| 54> S         1.924353   -0.848329    0.248127
| 55> C         1.912598    0.608249   -0.630139
| 56> N         1.921663    1.585132   -1.231448
| 57> H        -0.336019    1.612368    1.990450
| 58> H         0.336026   -1.612417    1.990409
| 59> *
| 60>
| 61>
| 62>
| 63>
| 64>                          ****END OF INPUT****
 Total Charge           Charge          ....    0
 Multiplicity           Mult            ....    1
 Number of Electrons    NEL             ....   70
MP2 TOTAL ENERGY:    -1031.263794049 Eh
FINAL SINGLE POINT ENERGY     -1031.263794049170
MP2 TOTAL ENERGY:    -1031.555796911 Eh
FINAL SINGLE POINT ENERGY     -1031.555796910861

CARTESIAN COORDINATES (ANGSTROEM)
---------------------------------
  B      0.491558   -0.667649    1.288078
  B     -0.491554    0.667618    1.288096
  S     -1.924353    0.848322    0.248156
  C     -1.912600   -0.608233   -0.630148
  N     -1.921664   -1.585100   -1.231483
  S      1.924353   -0.848329    0.248127
  C      1.912598    0.608249   -0.630139
  N      1.921663    1.585132   -1.231448
  H     -0.336019    1.612368    1.990450
  H      0.336026   -1.612417    1.990409

 Multiplicity           Mult            ....    1
 Number of Electrons    NEL             ....   70
 Basis Dimension        Dim             ....  740

ORBITAL ENERGIES
----------------

  NO   OCC          E(Eh)            E(eV)
   0   2.0000     -92.031721     -2504.3104
   1   2.0000     -92.031721     -2504.3104
   2   2.0000     -15.596659      -424.4067
   3   2.0000     -15.596659      -424.4067
   4   2.0000     -11.309571      -307.7491
   5   2.0000     -11.309571      -307.7491
   6   2.0000      -9.034868      -245.8513
   7   2.0000      -9.034868      -245.8512
   8   2.0000      -7.663426      -208.5324
   9   2.0000      -7.662553      -208.5087
  10   2.0000      -6.716565      -182.7670
  11   2.0000      -6.716565      -182.7670
  12   2.0000      -6.714848      -182.7203
  13   2.0000      -6.714847      -182.7203
  14   2.0000      -6.714665      -182.7153
  15   2.0000      -6.714665      -182.7153
  16   2.0000      -1.252324       -34.0775
  17   2.0000      -1.251534       -34.0560
  18   2.0000      -1.082272       -29.4501
  19   2.0000      -1.073795       -29.2194
  20   2.0000      -0.794948       -21.6316
  21   2.0000      -0.753650       -20.5079
  22   2.0000      -0.676564       -18.4102
  23   2.0000      -0.609682       -16.5903
  24   2.0000      -0.585045       -15.9199
  25   2.0000      -0.578847       -15.7512
  26   2.0000      -0.575353       -15.6562
  27   2.0000      -0.564306       -15.3556
  28   2.0000      -0.549058       -14.9406
  29   2.0000      -0.542812       -14.7707
  30   2.0000      -0.497109       -13.5270
  31   2.0000      -0.474708       -12.9175
  32   2.0000      -0.456849       -12.4315
  33   2.0000      -0.427115       -11.6224
  34   2.0000      -0.424700       -11.5567
  35   0.0000       0.017246         0.4693
  36   0.0000       0.021630         0.5886
  37   0.0000       0.027185         0.7398
  38   0.0000       0.028770         0.7829
  39   0.0000       0.043892         1.1944

MULLIKEN ATOMIC CHARGES
-----------------------
   0 B :    0.379656
   1 B :    0.379655
   2 S :    0.462859
   3 C :   -0.082346
   4 N :   -0.541241
   5 S :    0.462858
   6 C :   -0.082345
   7 N :   -0.541242
   8 H :   -0.218927
   9 H :   -0.218927
Sum of atomic charges:   -0.0000000

LOEWDIN ATOMIC CHARGES
----------------------
   0 B :   -0.613970
   1 B :   -0.613971
   2 S :    1.387172
   3 C :   -0.842691
   4 N :    0.320682
   5 S :    1.387171
   6 C :   -0.842691
   7 N :    0.320682
   8 H :   -0.251193
   9 H :   -0.251192

  Mayer bond orders larger than 0.100000
B(  0-B ,  1-B ) :   0.9856 B(  0-B ,  5-S ) :   1.1525 B(  0-B ,  9-H ) :   0.9053
B(  1-B ,  2-S ) :   1.1525 B(  1-B ,  8-H ) :   0.9053 B(  2-S ,  3-C ) :   0.8915
B(  3-C ,  4-N ) :   2.5907 B(  5-S ,  6-C ) :   0.8915 B(  6-C ,  7-N ) :   2.5907

MP2 TOTAL ENERGY:    -1031.652526811 Eh
FINAL SINGLE POINT ENERGY     -1031.652526811233

DIPOLE MOMENT
-------------
                                X             Y             Z
Electronic contribution:     -0.00000       0.00000      -0.10642
Nuclear contribution   :      0.00000      -0.00002       1.76350
                        -----------------------------------------
Total Dipole Moment    :     -0.00000      -0.00002       1.65709
                        -----------------------------------------
Magnitude (a.u.)       :      1.65709
Magnitude (Debye)      :      4.21198

Rotational constants in cm-1:     0.070211     0.031567     0.029342
Rotational constants in MHz :  2104.868430   946.361059   879.659786

                             ****ORCA TERMINATED NORMALLY****
TOTAL RUN TIME: 0 days 0 hours 44 minutes 57 seconds 933 msec
