                         Program Version 5.0.4 -  RELEASE  -
|  1> ! ri-mp2 aug-cc-pvdz aug-cc-pvdz/c tightscf
|  2> %pal nprocs 16 end
|  3> %maxcore 3800
|  4> %base "DZ_B-B_65_A"
|  5> %scf
|  6> STABPerform true
|  7> STABRestartUHFifUnstable true
|  8> end
|  9>
| 10> *xyz 0 2
| 11> B         0.839798    1.941552   -0.082848
| 12> B         0.025489    0.512153   -0.006514
| 13> O        -1.334716    0.564468    0.002775
| 14> O         0.636710   -0.710586   -0.006205
| 15> C        -2.110564   -0.621863    0.008847
| 16> H        -3.157558   -0.326908    0.014528
| 17> H        -1.898309   -1.223686    0.893416
| 18> H        -1.908480   -1.225129   -0.877180
| 19> C         2.043388   -0.820558    0.009123
| 20> H         2.312927   -1.812579   -0.348174
| 21> H         2.430639   -0.694783    1.022235
| 22> H         2.509967   -0.079173   -0.647684
| 23> H         1.371475    2.917201    0.309294
| 24> *
| 25>
| 26> $new_job
| 27> ! ri-mp2 aug-cc-pvtz aug-cc-pvtz/c tightscf
| 28> %pal nprocs 16 end
| 29> %maxcore 3800
| 30> %base "TZ_B-B_65_A"
| 31>
| 32> *xyz 0 2
| 33> B         0.839798    1.941552   -0.082848
| 34> B         0.025489    0.512153   -0.006514
| 35> O        -1.334716    0.564468    0.002775
| 36> O         0.636710   -0.710586   -0.006205
| 37> C        -2.110564   -0.621863    0.008847
| 38> H        -3.157558   -0.326908    0.014528
| 39> H        -1.898309   -1.223686    0.893416
| 40> H        -1.908480   -1.225129   -0.877180
| 41> C         2.043388   -0.820558    0.009123
| 42> H         2.312927   -1.812579   -0.348174
| 43> H         2.430639   -0.694783    1.022235
| 44> H         2.509967   -0.079173   -0.647684
| 45> H         1.371475    2.917201    0.309294
| 46> *
| 47>
| 48> $new_job
| 49> ! ri-mp2 aug-cc-pvqz aug-cc-pvqz/c tightscf
| 50> %pal nprocs 16 end
| 51> %maxcore 3800
| 52> %base "QZ_B-B_65_A"
| 53>
| 54> *xyz 0 2
| 55> B         0.839798    1.941552   -0.082848
| 56> B         0.025489    0.512153   -0.006514
| 57> O        -1.334716    0.564468    0.002775
| 58> O         0.636710   -0.710586   -0.006205
| 59> C        -2.110564   -0.621863    0.008847
| 60> H        -3.157558   -0.326908    0.014528
| 61> H        -1.898309   -1.223686    0.893416
| 62> H        -1.908480   -1.225129   -0.877180
| 63> C         2.043388   -0.820558    0.009123
| 64> H         2.312927   -1.812579   -0.348174
| 65> H         2.430639   -0.694783    1.022235
| 66> H         2.509967   -0.079173   -0.647684
| 67> H         1.371475    2.917201    0.309294
| 68> *
| 69>
| 70>
| 71>
| 72>
| 73>                          ****END OF INPUT****
 Total Charge           Charge          ....    0
 Multiplicity           Mult            ....    2
 Number of Electrons    NEL             ....   45
MP2 TOTAL ENERGY:     -279.761582058 Eh
FINAL SINGLE POINT ENERGY      -279.761582057594
MP2 TOTAL ENERGY:     -280.013591422 Eh
FINAL SINGLE POINT ENERGY      -280.013591422477

CARTESIAN COORDINATES (ANGSTROEM)
---------------------------------
  B      0.839798    1.941552   -0.082848
  B      0.025489    0.512153   -0.006514
  O     -1.334716    0.564468    0.002775
  O      0.636710   -0.710586   -0.006205
  C     -2.110564   -0.621863    0.008847
  H     -3.157558   -0.326908    0.014528
  H     -1.898309   -1.223686    0.893416
  H     -1.908480   -1.225129   -0.877180
  C      2.043388   -0.820558    0.009123
  H      2.312927   -1.812579   -0.348174
  H      2.430639   -0.694783    1.022235
  H      2.509967   -0.079173   -0.647684
  H      1.371475    2.917201    0.309294

 Multiplicity           Mult            ....    2
 Number of Electrons    NEL             ....   45
 Basis Dimension        Dim             ....  802

ORBITAL ENERGIES
----------------
                 SPIN UP ORBITALS
  NO   OCC          E(Eh)            E(eV)
   0   1.0000     -20.558420      -559.4231
   1   1.0000     -20.549357      -559.1764
   2   1.0000     -11.283242      -307.0326
   3   1.0000     -11.266861      -306.5869
   4   1.0000      -7.621661      -207.3959
   5   1.0000      -7.618771      -207.3173
   6   1.0000      -1.386941       -37.7406
   7   1.0000      -1.349885       -36.7322
   8   1.0000      -0.946221       -25.7480
   9   1.0000      -0.931297       -25.3419
  10   1.0000      -0.745549       -20.2874
  11   1.0000      -0.689554       -18.7637
  12   1.0000      -0.674931       -18.3658
  13   1.0000      -0.650939       -17.7129
  14   1.0000      -0.622459       -16.9380
  15   1.0000      -0.620047       -16.8723
  16   1.0000      -0.593691       -16.1551
  17   1.0000      -0.525556       -14.3011
  18   1.0000      -0.492830       -13.4106
  19   1.0000      -0.490677       -13.3520
  20   1.0000      -0.463970       -12.6253
  21   1.0000      -0.452114       -12.3027
  22   1.0000      -0.306406        -8.3377
  23   0.0000       0.023049         0.6272
  24   0.0000       0.029922         0.8142
  25   0.0000       0.031631         0.8607
  26   0.0000       0.037183         1.0118
  27   0.0000       0.043286         1.1779

                 SPIN DOWN ORBITALS
  NO   OCC          E(Eh)            E(eV)
   0   1.0000     -20.557569      -559.3999
   1   1.0000     -20.547872      -559.1360
   2   1.0000     -11.283248      -307.0328
   3   1.0000     -11.267017      -306.5911
   4   1.0000      -7.622573      -207.4208
   5   1.0000      -7.605219      -206.9485
   6   1.0000      -1.384522       -37.6748
   7   1.0000      -1.346827       -36.6490
   8   1.0000      -0.946018       -25.7425
   9   1.0000      -0.930873       -25.3303
  10   1.0000      -0.732201       -19.9242
  11   1.0000      -0.678761       -18.4700
  12   1.0000      -0.664232       -18.0747
  13   1.0000      -0.645549       -17.5663
  14   1.0000      -0.616293       -16.7702
  15   1.0000      -0.600318       -16.3355
  16   1.0000      -0.592996       -16.1363
  17   1.0000      -0.522756       -14.2249
  18   1.0000      -0.490259       -13.3406
  19   1.0000      -0.485045       -13.1987
  20   1.0000      -0.454717       -12.3735
  21   1.0000      -0.443022       -12.0553
  22   0.0000       0.023509         0.6397
  23   0.0000       0.030035         0.8173
  24   0.0000       0.032580         0.8865
  25   0.0000       0.033309         0.9064
  26   0.0000       0.044882         1.2213

MULLIKEN ATOMIC CHARGES AND SPIN POPULATIONS
--------------------------------------------
   0 B :    0.289707    1.025134
   1 B :    1.339398   -0.009536
   2 O :   -1.063241    0.016647
   3 O :   -1.029787    0.004066
   4 C :   -0.692710   -0.007143
   5 H :    0.496764   -0.000179
   6 H :    0.305894    0.001665
   7 H :    0.298877    0.001592
   8 C :   -0.640664    0.006517
   9 H :    0.400074   -0.000670
  10 H :    0.311514   -0.000105
  11 H :    0.285253    0.002021
  12 H :   -0.301079   -0.040010
Sum of atomic charges         :    0.0000000

LOEWDIN ATOMIC CHARGES AND SPIN POPULATIONS
-------------------------------------------
   0 B :    0.492384    0.486355
   1 B :   -1.310759    0.236338
   2 O :    0.892667    0.037814
   3 O :    0.924978    0.026963
   4 C :    0.572200    0.001510
   5 H :   -0.317500   -0.000152
   6 H :   -0.306313   -0.000216
   7 H :   -0.306032    0.000226
   8 C :    0.561429    0.018904
   9 H :   -0.305198    0.000080
  10 H :   -0.292790    0.002037
  11 H :   -0.324653    0.012672
  12 H :   -0.280413    0.177469

  Mayer bond orders larger than 0.100000
B(  0-B ,  1-B ) :   1.1388 B(  0-B ,  2-O ) :  -0.1631 B(  0-B , 12-H ) :   0.9093
B(  1-B ,  2-O ) :   0.2910 B(  1-B ,  3-O ) :   0.4740 B(  2-O ,  3-O ) :  -0.1022
B(  2-O ,  4-C ) :   0.9444 B(  3-O ,  8-C ) :   0.9462 B(  4-C ,  5-H ) :   0.7460
B(  4-C ,  6-H ) :   0.8960 B(  4-C ,  7-H ) :   0.8917 B(  8-C ,  9-H ) :   0.8582
B(  8-C , 10-H ) :   0.8977 B(  8-C , 11-H ) :   0.9009

MP2 TOTAL ENERGY:     -280.092300611 Eh
FINAL SINGLE POINT ENERGY      -280.092300610798

DIPOLE MOMENT
-------------
                                X             Y             Z
Electronic contribution:     -0.48518       4.06549      -0.30234
Nuclear contribution   :      0.95035      -4.41502       0.43744
                        -----------------------------------------
Total Dipole Moment    :      0.46517      -0.34953       0.13511
                        -----------------------------------------
Magnitude (a.u.)       :      0.59734
Magnitude (Debye)      :      1.51831

Rotational constants in cm-1:     0.191396     0.090342     0.062902
Rotational constants in MHz :  5737.901306  2708.385951  1885.744499

                             ****ORCA TERMINATED NORMALLY****
TOTAL RUN TIME: 0 days 1 hours 56 minutes 43 seconds 10 msec
