                         Program Version 5.0.4 -  RELEASE  -
|  1> ! ri-mp2 aug-cc-pvdz aug-cc-pvdz/c tightscf
|  2> %pal nprocs 16 end
|  3> %maxcore 3800
|  4> %base "DZ_Si-Cl_74_A"
|  5> %scf
|  6> STABPerform true
|  7> STABRestartUHFifUnstable true
|  8> end
|  9>
| 10> *xyz 0 2
| 11> Si        -0.904364   -0.510806   -0.307519
| 12> C         0.795448    0.096089    0.348914
| 13> F        -1.997321    0.513783    0.256180
| 14> F         1.181348    1.251054   -0.264017
| 15> F         1.732779   -0.859681    0.064334
| 16> H        -1.185637   -1.846330    0.274548
| 17> H         0.822793    0.274684    1.428762
| 18> *
| 19>
| 20> $new_job
| 21> ! ri-mp2 aug-cc-pvtz aug-cc-pvtz/c tightscf
| 22> %pal nprocs 16 end
| 23> %maxcore 3800
| 24> %base "TZ_Si-Cl_74_A"
| 25>
| 26> *xyz 0 2
| 27> Si        -0.904364   -0.510806   -0.307519
| 28> C         0.795448    0.096089    0.348914
| 29> F        -1.997321    0.513783    0.256180
| 30> F         1.181348    1.251054   -0.264017
| 31> F         1.732779   -0.859681    0.064334
| 32> H        -1.185637   -1.846330    0.274548
| 33> H         0.822793    0.274684    1.428762
| 34> *
| 35>
| 36> $new_job
| 37> ! ri-mp2 aug-cc-pvqz aug-cc-pvqz/c tightscf
| 38> %pal nprocs 16 end
| 39> %maxcore 3800
| 40> %base "QZ_Si-Cl_74_A"
| 41>
| 42> *xyz 0 2
| 43> Si        -0.904364   -0.510806   -0.307519
| 44> C         0.795448    0.096089    0.348914
| 45> F        -1.997321    0.513783    0.256180
| 46> F         1.181348    1.251054   -0.264017
| 47> F         1.732779   -0.859681    0.064334
| 48> H        -1.185637   -1.846330    0.274548
| 49> H         0.822793    0.274684    1.428762
| 50> *
| 51>
| 52>
| 53>
| 54>
| 55>                          ****END OF INPUT****
 Total Charge           Charge          ....    0
 Multiplicity           Mult            ....    2
 Number of Electrons    NEL             ....   49
MP2 TOTAL ENERGY:     -627.153965211 Eh
FINAL SINGLE POINT ENERGY      -627.153965210937
MP2 TOTAL ENERGY:     -627.473074916 Eh
FINAL SINGLE POINT ENERGY      -627.473074915595

CARTESIAN COORDINATES (ANGSTROEM)
---------------------------------
  Si    -0.904364   -0.510806   -0.307519
  C      0.795448    0.096089    0.348914
  F     -1.997321    0.513783    0.256180
  F      1.181348    1.251054   -0.264017
  F      1.732779   -0.859681    0.064334
  H     -1.185637   -1.846330    0.274548
  H      0.822793    0.274684    1.428762

 Multiplicity           Mult            ....    2
 Number of Electrons    NEL             ....   49
 Basis Dimension        Dim             ....  496

ORBITAL ENERGIES
----------------
                 SPIN UP ORBITALS
  NO   OCC          E(Eh)            E(eV)
   0   1.0000     -68.847726     -1873.4419
   1   1.0000     -26.316871      -716.1185
   2   1.0000     -26.315031      -716.0684
   3   1.0000     -26.305839      -715.8183
   4   1.0000     -11.402881      -310.2882
   5   1.0000      -6.192636      -168.5102
   6   1.0000      -4.304415      -117.1291
   7   1.0000      -4.295874      -116.8967
   8   1.0000      -4.294714      -116.8651
   9   1.0000      -1.663401       -45.2634
  10   1.0000      -1.609746       -43.8034
  11   1.0000      -1.604669       -43.6653
  12   1.0000      -0.968875       -26.3644
  13   1.0000      -0.808512       -22.0007
  14   1.0000      -0.778675       -21.1888
  15   1.0000      -0.759190       -20.6586
  16   1.0000      -0.746300       -20.3079
  17   1.0000      -0.694490       -18.8980
  18   1.0000      -0.686777       -18.6882
  19   1.0000      -0.674314       -18.3490
  20   1.0000      -0.639635       -17.4054
  21   1.0000      -0.630558       -17.1584
  22   1.0000      -0.595200       -16.1962
  23   1.0000      -0.485932       -13.2229
  24   1.0000      -0.377083       -10.2609
  25   0.0000       0.025289         0.6881
  26   0.0000       0.034374         0.9354
  27   0.0000       0.038316         1.0426
  28   0.0000       0.043348         1.1796
  29   0.0000       0.056400         1.5347

                 SPIN DOWN ORBITALS
  NO   OCC          E(Eh)            E(eV)
   0   1.0000     -68.841812     -1873.2809
   1   1.0000     -26.316981      -716.1215
   2   1.0000     -26.315390      -716.0782
   3   1.0000     -26.302886      -715.7379
   4   1.0000     -11.401050      -310.2383
   5   1.0000      -6.183029      -168.2488
   6   1.0000      -4.292210      -116.7970
   7   1.0000      -4.291172      -116.7687
   8   1.0000      -4.282821      -116.5415
   9   1.0000      -1.663602       -45.2689
  10   1.0000      -1.605420       -43.6857
  11   1.0000      -1.601514       -43.5794
  12   1.0000      -0.962747       -26.1977
  13   1.0000      -0.790357       -21.5067
  14   1.0000      -0.777518       -21.1573
  15   1.0000      -0.759270       -20.6608
  16   1.0000      -0.739958       -20.1353
  17   1.0000      -0.685193       -18.6451
  18   1.0000      -0.675196       -18.3730
  19   1.0000      -0.672385       -18.2965
  20   1.0000      -0.639452       -17.4004
  21   1.0000      -0.618472       -16.8295
  22   1.0000      -0.575890       -15.6708
  23   1.0000      -0.471455       -12.8289
  24   0.0000       0.012745         0.3468
  25   0.0000       0.027254         0.7416
  26   0.0000       0.037018         1.0073
  27   0.0000       0.039884         1.0853
  28   0.0000       0.051563         1.4031

MULLIKEN ATOMIC CHARGES AND SPIN POPULATIONS
--------------------------------------------
   0 Si:    1.214736    0.900723
   1 C :    0.621995    0.043925
   2 F :   -0.698902   -0.004450
   3 F :   -0.615142   -0.006404
   4 F :   -0.617563   -0.002573
   5 H :   -0.207240    0.056495
   6 H :    0.302116    0.012284
Sum of atomic charges         :   -0.0000000

LOEWDIN ATOMIC CHARGES AND SPIN POPULATIONS
-------------------------------------------
   0 Si:    0.309431    0.579950
   1 C :   -1.147296    0.147954
   2 F :    0.311781    0.103178
   3 F :    0.676869    0.006241
   4 F :    0.669269    0.008749
   5 H :   -0.336275    0.134286
   6 H :   -0.483779    0.019642

  Mayer bond orders larger than 0.100000
B(  0-Si,  1-C ) :   0.8177 B(  0-Si,  2-F ) :   0.3700 B(  0-Si,  5-H ) :   0.9265
B(  1-C ,  3-F ) :   0.5761 B(  1-C ,  4-F ) :   0.5747 B(  1-C ,  6-H ) :   0.8321

MP2 TOTAL ENERGY:     -627.578960507 Eh
FINAL SINGLE POINT ENERGY      -627.578960506838

DIPOLE MOMENT
-------------
                                X             Y             Z
Electronic contribution:      0.77912       1.79614      -1.29581
Nuclear contribution   :     -1.12667      -2.26060       1.54713
                        -----------------------------------------
Total Dipole Moment    :     -0.34756      -0.46446       0.25132
                        -----------------------------------------
Magnitude (a.u.)       :      0.63221
Magnitude (Debye)      :      1.60694

Rotational constants in cm-1:     0.246257     0.083885     0.066977
Rotational constants in MHz :  7382.595500  2514.812082  2007.911944

                             ****ORCA TERMINATED NORMALLY****
TOTAL RUN TIME: 0 days 0 hours 22 minutes 22 seconds 716 msec
