                         Program Version 5.0.4 -  RELEASE  -
|  1> ! ri-mp2 aug-cc-pvdz aug-cc-pvdz/c tightscf
|  2> %pal nprocs 16 end
|  3> %maxcore 3800
|  4> %base "DZ_B-F_36_AB"
|  5> %scf
|  6> STABPerform true
|  7> STABRestartUHFifUnstable true
|  8> end
|  9>
| 10> *xyz 0 1
| 11> F        -2.205594    1.130371   -0.000014
| 12> F        -2.205848   -1.130224   -0.000014
| 13> B        -1.532809   -0.000003    0.000010
| 14> N        -0.125340   -0.000165    0.000035
| 15> C         1.059893   -0.000063    0.000014
| 16> S         2.617816    0.000014   -0.000008
| 17> *
| 18>
| 19> $new_job
| 20> ! ri-mp2 aug-cc-pvtz aug-cc-pvtz/c tightscf
| 21> %pal nprocs 16 end
| 22> %maxcore 3800
| 23> %base "TZ_B-F_36_AB"
| 24>
| 25> *xyz 0 1
| 26> F        -2.205594    1.130371   -0.000014
| 27> F        -2.205848   -1.130224   -0.000014
| 28> B        -1.532809   -0.000003    0.000010
| 29> N        -0.125340   -0.000165    0.000035
| 30> C         1.059893   -0.000063    0.000014
| 31> S         2.617816    0.000014   -0.000008
| 32> *
| 33>
| 34> $new_job
| 35> ! ri-mp2 aug-cc-pvqz aug-cc-pvqz/c tightscf
| 36> %pal nprocs 16 end
| 37> %maxcore 3800
| 38> %base "QZ_B-F_36_AB"
| 39>
| 40> *xyz 0 1
| 41> F        -2.205594    1.130371   -0.000014
| 42> F        -2.205848   -1.130224   -0.000014
| 43> B        -1.532809   -0.000003    0.000010
| 44> N        -0.125340   -0.000165    0.000035
| 45> C         1.059893   -0.000063    0.000014
| 46> S         2.617816    0.000014   -0.000008
| 47> *
| 48>
| 49>
| 50>
| 51>
| 52>                          ****END OF INPUT****
 Total Charge           Charge          ....    0
 Multiplicity           Mult            ....    1
 Number of Electrons    NEL             ....   52
MP2 TOTAL ENERGY:     -714.507803577 Eh
FINAL SINGLE POINT ENERGY      -714.507803577469
MP2 TOTAL ENERGY:     -714.829481059 Eh
FINAL SINGLE POINT ENERGY      -714.829481059257

CARTESIAN COORDINATES (ANGSTROEM)
---------------------------------
  F     -2.205594    1.130371   -0.000014
  F     -2.205848   -1.130224   -0.000014
  B     -1.532809   -0.000003    0.000010
  N     -0.125340   -0.000165    0.000035
  C      1.059893   -0.000063    0.000014
  S      2.617816    0.000014   -0.000008

 Multiplicity           Mult            ....    1
 Number of Electrons    NEL             ....   52
 Basis Dimension        Dim             ....  484

ORBITAL ENERGIES
----------------

  NO   OCC          E(Eh)            E(eV)
   0   2.0000     -91.975453     -2502.7793
   1   2.0000     -26.332485      -716.5433
   2   2.0000     -26.332468      -716.5429
   3   2.0000     -15.616132      -424.9365
   4   2.0000     -11.408839      -310.4503
   5   2.0000      -8.980215      -244.3641
   6   2.0000      -7.767444      -211.3629
   7   2.0000      -6.662019      -181.2827
   8   2.0000      -6.659633      -181.2178
   9   2.0000      -6.659463      -181.2132
  10   2.0000      -1.667689       -45.3801
  11   2.0000      -1.636388       -44.5284
  12   2.0000      -1.307372       -35.5754
  13   2.0000      -1.070902       -29.1407
  14   2.0000      -0.907259       -24.6878
  15   2.0000      -0.823953       -22.4209
  16   2.0000      -0.789797       -21.4915
  17   2.0000      -0.739873       -20.1330
  18   2.0000      -0.696230       -18.9454
  19   2.0000      -0.681275       -18.5384
  20   2.0000      -0.675685       -18.3863
  21   2.0000      -0.623628       -16.9698
  22   2.0000      -0.598235       -16.2788
  23   2.0000      -0.591687       -16.1006
  24   2.0000      -0.398496       -10.8436
  25   2.0000      -0.392928       -10.6921
  26   0.0000       0.030081         0.8185
  27   0.0000       0.034632         0.9424
  28   0.0000       0.037881         1.0308
  29   0.0000       0.038644         1.0516
  30   0.0000       0.054085         1.4717

MULLIKEN ATOMIC CHARGES
-----------------------
   0 F :   -0.694832
   1 F :   -0.694830
   2 B :    1.549363
   3 N :   -0.473078
   4 C :    0.117262
   5 S :    0.196115
Sum of atomic charges:    0.0000000

LOEWDIN ATOMIC CHARGES
----------------------
   0 F :    0.805579
   1 F :    0.805577
   2 B :   -1.984176
   3 N :    0.407361
   4 C :   -1.046361
   5 S :    1.012020

  Mayer bond orders larger than 0.100000
B(  0-F ,  2-B ) :   0.5531 B(  0-F ,  3-N ) :  -0.1216 B(  1-F ,  2-B ) :   0.5531
B(  1-F ,  3-N ) :  -0.1216 B(  2-B ,  3-N ) :   0.9623 B(  3-N ,  4-C ) :   2.1391
B(  3-N ,  5-S ) :   0.1061 B(  4-C ,  5-S ) :   1.6378

MP2 TOTAL ENERGY:     -714.933774006 Eh
FINAL SINGLE POINT ENERGY      -714.933774006354

DIPOLE MOMENT
-------------
                                X             Y             Z
Electronic contribution:     -4.98737       0.00013       0.00000
Nuclear contribution   :      5.03478      -0.00013       0.00002
                        -----------------------------------------
Total Dipole Moment    :      0.04741      -0.00000       0.00002
                        -----------------------------------------
Magnitude (a.u.)       :      0.04741
Magnitude (Debye)      :      0.12049

Rotational constants in cm-1:     0.347275     0.038020     0.034268
Rotational constants in MHz : 10411.041674  1139.795980  1027.324927

                             ****ORCA TERMINATED NORMALLY****
TOTAL RUN TIME: 0 days 0 hours 6 minutes 47 seconds 742 msec
