                         Program Version 5.0.4 -  RELEASE  -
|  1> ! ri-mp2 aug-cc-pvdz aug-cc-pvdz/c tightscf
|  2> %pal nprocs 16 end
|  3> %maxcore 3800
|  4> %base "DZ_S-Cl_50_AB"
|  5>
|  6> *xyz 0 1
|  7> Cl        -1.494201   -0.829687   -0.000014
|  8> S        -0.726814    1.022537    0.000009
|  9> C         0.973072    0.786711    0.000011
| 10> S         1.860996   -0.547641    0.000001
| 11> H         1.416075    1.786094    0.000022
| 12> *
| 13>
| 14> $new_job
| 15> ! ri-mp2 aug-cc-pvtz aug-cc-pvtz/c tightscf
| 16> %pal nprocs 16 end
| 17> %maxcore 3800
| 18> %base "TZ_S-Cl_50_AB"
| 19>
| 20> *xyz 0 1
| 21> Cl        -1.494201   -0.829687   -0.000014
| 22> S        -0.726814    1.022537    0.000009
| 23> C         0.973072    0.786711    0.000011
| 24> S         1.860996   -0.547641    0.000001
| 25> H         1.416075    1.786094    0.000022
| 26> *
| 27>
| 28> $new_job
| 29> ! ri-mp2 aug-cc-pvqz aug-cc-pvqz/c tightscf
| 30> %pal nprocs 16 end
| 31> %maxcore 3800
| 32> %base "QZ_S-Cl_50_AB"
| 33>
| 34> *xyz 0 1
| 35> Cl        -1.494201   -0.829687   -0.000014
| 36> S        -0.726814    1.022537    0.000009
| 37> C         0.973072    0.786711    0.000011
| 38> S         1.860996   -0.547641    0.000001
| 39> H         1.416075    1.786094    0.000022
| 40> *
| 41>
| 42>
| 43>
| 44>
| 45>                          ****END OF INPUT****
 Total Charge           Charge          ....    0
 Multiplicity           Mult            ....    1
 Number of Electrons    NEL             ....   56
MP2 TOTAL ENERGY:    -1293.549852937 Eh
FINAL SINGLE POINT ENERGY     -1293.549852936570
MP2 TOTAL ENERGY:    -1293.749029767 Eh
FINAL SINGLE POINT ENERGY     -1293.749029766731

CARTESIAN COORDINATES (ANGSTROEM)
---------------------------------
  Cl    -1.494201   -0.829687   -0.000014
  S     -0.726814    1.022537    0.000009
  C      0.973072    0.786711    0.000011
  S      1.860996   -0.547641    0.000001
  H      1.416075    1.786094    0.000022

 Multiplicity           Mult            ....    1
 Number of Electrons    NEL             ....   56
 Basis Dimension        Dim             ....  378

ORBITAL ENERGIES
----------------

  NO   OCC          E(Eh)            E(eV)
   0   2.0000    -104.875729     -2853.8137
   1   2.0000     -92.050836     -2504.8306
   2   2.0000     -91.952779     -2502.1623
   3   2.0000     -11.358682      -309.0854
   4   2.0000     -10.600022      -288.4413
   5   2.0000      -9.049160      -246.2402
   6   2.0000      -8.956574      -243.7208
   7   2.0000      -8.067033      -219.5151
   8   2.0000      -8.064940      -219.4582
   9   2.0000      -8.064792      -219.4541
  10   2.0000      -6.730343      -183.1419
  11   2.0000      -6.728695      -183.0971
  12   2.0000      -6.727867      -183.0746
  13   2.0000      -6.637716      -180.6214
  14   2.0000      -6.636870      -180.5984
  15   2.0000      -6.635447      -180.5597
  16   2.0000      -1.190365       -32.3915
  17   2.0000      -1.092987       -29.7417
  18   2.0000      -0.961664       -26.1682
  19   2.0000      -0.784256       -21.3407
  20   2.0000      -0.636323       -17.3152
  21   2.0000      -0.587620       -15.9900
  22   2.0000      -0.555797       -15.1240
  23   2.0000      -0.529593       -14.4110
  24   2.0000      -0.471291       -12.8245
  25   2.0000      -0.463530       -12.6133
  26   2.0000      -0.363934        -9.9031
  27   2.0000      -0.357740        -9.7346
  28   0.0000       0.025603         0.6967
  29   0.0000       0.036004         0.9797
  30   0.0000       0.040224         1.0946
  31   0.0000       0.049980         1.3600
  32   0.0000       0.062059         1.6887

MULLIKEN ATOMIC CHARGES
-----------------------
   0 Cl:   -0.220135
   1 S :    0.467696
   2 C :   -0.798215
   3 S :    0.104702
   4 H :    0.445952
Sum of atomic charges:    0.0000000

LOEWDIN ATOMIC CHARGES
----------------------
   0 Cl:    0.495692
   1 S :    0.314937
   2 C :   -1.121283
   3 S :    0.932688
   4 H :   -0.622033

  Mayer bond orders larger than 0.100000
B(  0-Cl,  1-S ) :   1.0151 B(  1-S ,  2-C ) :   1.1044 B(  2-C ,  3-S ) :   1.7042
B(  2-C ,  4-H ) :   0.7254

MP2 TOTAL ENERGY:    -1293.815501353 Eh
FINAL SINGLE POINT ENERGY     -1293.815501352552

DIPOLE MOMENT
-------------
                                X             Y             Z
Electronic contribution:     -3.54093      -1.98978      -0.00003
Nuclear contribution   :      3.28687       2.76347       0.00004
                        -----------------------------------------
Total Dipole Moment    :     -0.25405       0.77369       0.00001
                        -----------------------------------------
Magnitude (a.u.)       :      0.81433
Magnitude (Debye)      :      2.06987

Rotational constants in cm-1:     0.215823     0.076482     0.056470
Rotational constants in MHz :  6470.211065  2292.860382  1692.932746

                             ****ORCA TERMINATED NORMALLY****
TOTAL RUN TIME: 0 days 0 hours 3 minutes 15 seconds 578 msec
