                         Program Version 5.0.4 -  RELEASE  -
|  1> ! ri-mp2 aug-cc-pvdz aug-cc-pvdz/c tightscf
|  2> %pal nprocs 16 end
|  3> %maxcore 3800
|  4> %base "DZ_Si-Si_119_AB"
|  5> %scf
|  6> STABPerform true
|  7> STABRestartUHFifUnstable true
|  8> end
|  9>
| 10> *xyz 0 1
| 11> Si         1.178209    1.680785   -0.064739
| 12> Si        -1.178205    1.680787    0.064738
| 13> S        -1.905754   -0.413484    0.063113
| 14> H        -1.801605    2.346383   -1.090608
| 15> H        -1.654655    2.218023    1.349925
| 16> O        -1.163245   -1.115566    1.093520
| 17> O        -1.475416   -0.988174   -1.328179
| 18> O        -3.326893   -0.432736    0.109145
| 19> S         1.905753   -0.413487   -0.063112
| 20> H         1.801612    2.346379    1.090607
| 21> H         1.654661    2.218018   -1.349927
| 22> O         1.163242   -1.115566   -1.093520
| 23> O         3.326893   -0.432740   -0.109144
| 24> O         1.475411   -0.988172    1.328180
| 25> H        -0.500100   -1.187836   -1.330395
| 26> H         0.500094   -1.187823    1.330394
| 27> *
| 28>
| 29> $new_job
| 30> ! ri-mp2 aug-cc-pvtz aug-cc-pvtz/c tightscf
| 31> %pal nprocs 16 end
| 32> %maxcore 3800
| 33> %base "TZ_Si-Si_119_AB"
| 34>
| 35> *xyz 0 1
| 36> Si         1.178209    1.680785   -0.064739
| 37> Si        -1.178205    1.680787    0.064738
| 38> S        -1.905754   -0.413484    0.063113
| 39> H        -1.801605    2.346383   -1.090608
| 40> H        -1.654655    2.218023    1.349925
| 41> O        -1.163245   -1.115566    1.093520
| 42> O        -1.475416   -0.988174   -1.328179
| 43> O        -3.326893   -0.432736    0.109145
| 44> S         1.905753   -0.413487   -0.063112
| 45> H         1.801612    2.346379    1.090607
| 46> H         1.654661    2.218018   -1.349927
| 47> O         1.163242   -1.115566   -1.093520
| 48> O         3.326893   -0.432740   -0.109144
| 49> O         1.475411   -0.988172    1.328180
| 50> H        -0.500100   -1.187836   -1.330395
| 51> H         0.500094   -1.187823    1.330394
| 52> *
| 53>
| 54> $new_job
| 55> ! ri-mp2 aug-cc-pvqz aug-cc-pvqz/c tightscf
| 56> %pal nprocs 16 end
| 57> %maxcore 3800
| 58> %base "QZ_Si-Si_119_AB"
| 59>
| 60> *xyz 0 1
| 61> Si         1.178209    1.680785   -0.064739
| 62> Si        -1.178205    1.680787    0.064738
| 63> S        -1.905754   -0.413484    0.063113
| 64> H        -1.801605    2.346383   -1.090608
| 65> H        -1.654655    2.218023    1.349925
| 66> O        -1.163245   -1.115566    1.093520
| 67> O        -1.475416   -0.988174   -1.328179
| 68> O        -3.326893   -0.432736    0.109145
| 69> S         1.905753   -0.413487   -0.063112
| 70> H         1.801612    2.346379    1.090607
| 71> H         1.654661    2.218018   -1.349927
| 72> O         1.163242   -1.115566   -1.093520
| 73> O         3.326893   -0.432740   -0.109144
| 74> O         1.475411   -0.988172    1.328180
| 75> H        -0.500100   -1.187836   -1.330395
| 76> H         0.500094   -1.187823    1.330394
| 77> *
| 78>
| 79>
| 80>
| 81>
| 82>                          ****END OF INPUT****
 Total Charge           Charge          ....    0
 Multiplicity           Mult            ....    1
 Number of Electrons    NEL             ....  114
MP2 TOTAL ENERGY:    -1827.221540856 Eh
FINAL SINGLE POINT ENERGY     -1827.221540855702
MP2 TOTAL ENERGY:    -1827.869451019 Eh
FINAL SINGLE POINT ENERGY     -1827.869451018738

CARTESIAN COORDINATES (ANGSTROEM)
---------------------------------
  Si     1.178209    1.680785   -0.064739
  Si    -1.178205    1.680787    0.064738
  S     -1.905754   -0.413484    0.063113
  H     -1.801605    2.346383   -1.090608
  H     -1.654655    2.218023    1.349925
  O     -1.163245   -1.115566    1.093520
  O     -1.475416   -0.988174   -1.328179
  O     -3.326893   -0.432736    0.109145
  S      1.905753   -0.413487   -0.063112
  H      1.801612    2.346379    1.090607
  H      1.654661    2.218018   -1.349927
  O      1.163242   -1.115566   -1.093520
  O      3.326893   -0.432740   -0.109144
  O      1.475411   -0.988172    1.328180
  H     -0.500100   -1.187836   -1.330395
  H      0.500094   -1.187823    1.330394

 Multiplicity           Mult            ....    1
 Number of Electrons    NEL             ....  114
 Basis Dimension        Dim             .... 1092

ORBITAL ENERGIES
----------------

  NO   OCC          E(Eh)            E(eV)
   0   2.0000     -92.220338     -2509.4430
   1   2.0000     -92.220338     -2509.4430
   2   2.0000     -68.853486     -1873.5986
   3   2.0000     -68.853484     -1873.5986
   4   2.0000     -20.633921      -561.4775
   5   2.0000     -20.633921      -561.4775
   6   2.0000     -20.586158      -560.1778
   7   2.0000     -20.586157      -560.1778
   8   2.0000     -20.573955      -559.8458
   9   2.0000     -20.573955      -559.8458
  10   2.0000      -9.187095      -249.9936
  11   2.0000      -9.187094      -249.9935
  12   2.0000      -6.873045      -187.0251
  13   2.0000      -6.873045      -187.0251
  14   2.0000      -6.871874      -186.9932
  15   2.0000      -6.871874      -186.9932
  16   2.0000      -6.871471      -186.9822
  17   2.0000      -6.871471      -186.9822
  18   2.0000      -6.203340      -168.8015
  19   2.0000      -6.203202      -168.7977
  20   2.0000      -4.309684      -117.2725
  21   2.0000      -4.309512      -117.2678
  22   2.0000      -4.309166      -117.2584
  23   2.0000      -4.308738      -117.2467
  24   2.0000      -4.308665      -117.2447
  25   2.0000      -4.308585      -117.2425
  26   2.0000      -1.536287       -41.8045
  27   2.0000      -1.527641       -41.5692
  28   2.0000      -1.416239       -38.5378
  29   2.0000      -1.405010       -38.2323
  30   2.0000      -1.384928       -37.6858
  31   2.0000      -1.381993       -37.6059
  32   2.0000      -0.946276       -25.7495
  33   2.0000      -0.916347       -24.9351
  34   2.0000      -0.847580       -23.0638
  35   2.0000      -0.819459       -22.2986
  36   2.0000      -0.767754       -20.8916
  37   2.0000      -0.742440       -20.2028
  38   2.0000      -0.722736       -19.6666
  39   2.0000      -0.706994       -19.2383
  40   2.0000      -0.696948       -18.9649
  41   2.0000      -0.670957       -18.2577
  42   2.0000      -0.663153       -18.0453
  43   2.0000      -0.632436       -17.2095
  44   2.0000      -0.595013       -16.1911
  45   2.0000      -0.584870       -15.9151
  46   2.0000      -0.572097       -15.5675
  47   2.0000      -0.559717       -15.2307
  48   2.0000      -0.555184       -15.1073
  49   2.0000      -0.548984       -14.9386
  50   2.0000      -0.534155       -14.5351
  51   2.0000      -0.531446       -14.4614
  52   2.0000      -0.516591       -14.0571
  53   2.0000      -0.508284       -13.8311
  54   2.0000      -0.495147       -13.4736
  55   2.0000      -0.462609       -12.5882
  56   2.0000      -0.453057       -12.3283
  57   0.0000       0.005976         0.1626
  58   0.0000       0.020745         0.5645
  59   0.0000       0.024532         0.6675
  60   0.0000       0.030606         0.8328
  61   0.0000       0.040558         1.1036

MULLIKEN ATOMIC CHARGES
-----------------------
   0 Si:    0.812735
   1 Si:    0.812735
   2 S :    2.510753
   3 H :   -0.176299
   4 H :   -0.185384
   5 O :   -1.110995
   6 O :   -0.884027
   7 O :   -1.324145
   8 S :    2.510752
   9 H :   -0.176299
  10 H :   -0.185384
  11 O :   -1.110996
  12 O :   -1.324144
  13 O :   -0.884027
  14 H :    0.357362
  15 H :    0.357362
Sum of atomic charges:    0.0000000

LOEWDIN ATOMIC CHARGES
----------------------
   0 Si:    0.675880
   1 Si:    0.675882
   2 S :   -0.541800
   3 H :   -0.278036
   4 H :   -0.280179
   5 O :    0.438714
   6 O :    0.991742
   7 O :    0.236351
   8 S :   -0.541800
   9 H :   -0.278035
  10 H :   -0.280178
  11 O :    0.438712
  12 O :    0.236351
  13 O :    0.991744
  14 H :   -1.242671
  15 H :   -1.242678

  Mayer bond orders larger than 0.100000
B(  0-Si,  1-Si) :   0.7543 B(  0-Si,  8-S ) :   0.6138 B(  0-Si,  9-H ) :   0.8070
B(  0-Si, 10-H ) :   0.7987 B(  1-Si,  2-S ) :   0.6138 B(  1-Si,  3-H ) :   0.8070
B(  1-Si,  4-H ) :   0.7987 B(  2-S ,  5-O ) :   1.0874 B(  2-S ,  6-O ) :   0.7067
B(  2-S ,  7-O ) :   1.0069 B(  5-O , 15-H ) :   0.1553 B(  6-O , 14-H ) :   0.8178
B(  8-S , 11-O ) :   1.0874 B(  8-S , 12-O ) :   1.0069 B(  8-S , 13-O ) :   0.7067
B( 11-O , 14-H ) :   0.1553 B( 13-O , 15-H ) :   0.8178

MP2 TOTAL ENERGY:    -1828.083508848 Eh
FINAL SINGLE POINT ENERGY     -1828.083508847629

DIPOLE MOMENT
-------------
                                X             Y             Z
Electronic contribution:     -0.00001      -3.70136       0.00000
Nuclear contribution   :      0.00001       6.25410      -0.00000
                        -----------------------------------------
Total Dipole Moment    :     -0.00000       2.55275      -0.00000
                        -----------------------------------------
Magnitude (a.u.)       :      2.55275
Magnitude (Debye)      :      6.48857

Rotational constants in cm-1:     0.044881     0.018819     0.015890
Rotational constants in MHz :  1345.512368   564.193843   476.360253

                             ****ORCA TERMINATED NORMALLY****
TOTAL RUN TIME: 0 days 3 hours 26 minutes 36 seconds 139 msec
