                         Program Version 5.0.4 -  RELEASE  -
|  1> ! ri-mp2 aug-cc-pvdz aug-cc-pvdz/c tightscf
|  2> %pal nprocs 16 end
|  3> %maxcore 3800
|  4> %base "DZ_Si-Cl_31_AB"
|  5> %scf
|  6> STABPerform true
|  7> STABRestartUHFifUnstable true
|  8> end
|  9>
| 10> *xyz 0 1
| 11> Si        -1.393848    0.911412    0.120571
| 12> C         0.398658    0.779064   -0.383388
| 13> C         1.190490   -0.216702    0.431377
| 14> H         0.806293   -1.226319    0.317394
| 15> H         1.197512    0.036940    1.488585
| 16> Cl         2.912266   -0.275703   -0.076162
| 17> Cl        -2.305570   -0.925216   -0.091314
| 18> H         0.838033    1.776041   -0.286736
| 19> H         0.443869    0.517378   -1.442489
| 20> H        -2.099897    1.874360   -0.742840
| 21> H        -1.520649    1.303283    1.537250
| 22> *
| 23>
| 24> $new_job
| 25> ! ri-mp2 aug-cc-pvtz aug-cc-pvtz/c tightscf
| 26> %pal nprocs 16 end
| 27> %maxcore 3800
| 28> %base "TZ_Si-Cl_31_AB"
| 29>
| 30> *xyz 0 1
| 31> Si        -1.393848    0.911412    0.120571
| 32> C         0.398658    0.779064   -0.383388
| 33> C         1.190490   -0.216702    0.431377
| 34> H         0.806293   -1.226319    0.317394
| 35> H         1.197512    0.036940    1.488585
| 36> Cl         2.912266   -0.275703   -0.076162
| 37> Cl        -2.305570   -0.925216   -0.091314
| 38> H         0.838033    1.776041   -0.286736
| 39> H         0.443869    0.517378   -1.442489
| 40> H        -2.099897    1.874360   -0.742840
| 41> H        -1.520649    1.303283    1.537250
| 42> *
| 43>
| 44> $new_job
| 45> ! ri-mp2 aug-cc-pvqz aug-cc-pvqz/c tightscf
| 46> %pal nprocs 16 end
| 47> %maxcore 3800
| 48> %base "QZ_Si-Cl_31_AB"
| 49>
| 50> *xyz 0 1
| 51> Si        -1.393848    0.911412    0.120571
| 52> C         0.398658    0.779064   -0.383388
| 53> C         1.190490   -0.216702    0.431377
| 54> H         0.806293   -1.226319    0.317394
| 55> H         1.197512    0.036940    1.488585
| 56> Cl         2.912266   -0.275703   -0.076162
| 57> Cl        -2.305570   -0.925216   -0.091314
| 58> H         0.838033    1.776041   -0.286736
| 59> H         0.443869    0.517378   -1.442489
| 60> H        -2.099897    1.874360   -0.742840
| 61> H        -1.520649    1.303283    1.537250
| 62> *
| 63>
| 64>
| 65>
| 66>
| 67>                          ****END OF INPUT****
 Total Charge           Charge          ....    0
 Multiplicity           Mult            ....    1
 Number of Electrons    NEL             ....   66
MP2 TOTAL ENERGY:    -1287.934735438 Eh
FINAL SINGLE POINT ENERGY     -1287.934735438134
MP2 TOTAL ENERGY:    -1288.172669296 Eh
FINAL SINGLE POINT ENERGY     -1288.172669295883

CARTESIAN COORDINATES (ANGSTROEM)
---------------------------------
  Si    -1.393848    0.911412    0.120571
  C      0.398658    0.779064   -0.383388
  C      1.190490   -0.216702    0.431377
  H      0.806293   -1.226319    0.317394
  H      1.197512    0.036940    1.488585
  Cl     2.912266   -0.275703   -0.076162
  Cl    -2.305570   -0.925216   -0.091314
  H      0.838033    1.776041   -0.286736
  H      0.443869    0.517378   -1.442489
  H     -2.099897    1.874360   -0.742840
  H     -1.520649    1.303283    1.537250

 Multiplicity           Mult            ....    1
 Number of Electrons    NEL             ....   66
 Basis Dimension        Dim             ....  688

ORBITAL ENERGIES
----------------

  NO   OCC          E(Eh)            E(eV)
   0   2.0000    -104.832380     -2852.6341
   1   2.0000    -104.823682     -2852.3974
   2   2.0000     -68.820593     -1872.7036
   3   2.0000     -11.303587      -307.5862
   4   2.0000     -11.239271      -305.8361
   5   2.0000     -10.559898      -287.3494
   6   2.0000     -10.549457      -287.0653
   7   2.0000      -8.026700      -218.4176
   8   2.0000      -8.025608      -218.3879
   9   2.0000      -8.025598      -218.3876
  10   2.0000      -8.016501      -218.1401
  11   2.0000      -8.014861      -218.0955
  12   2.0000      -8.014833      -218.0947
  13   2.0000      -6.166583      -167.8013
  14   2.0000      -4.273619      -116.2911
  15   2.0000      -4.272553      -116.2621
  16   2.0000      -4.272271      -116.2544
  17   2.0000      -1.143436       -31.1145
  18   2.0000      -1.103140       -30.0180
  19   2.0000      -1.010854       -27.5067
  20   2.0000      -0.856958       -23.3190
  21   2.0000      -0.717258       -19.5176
  22   2.0000      -0.665654       -18.1134
  23   2.0000      -0.584562       -15.9067
  24   2.0000      -0.581774       -15.8309
  25   2.0000      -0.556113       -15.1326
  26   2.0000      -0.526539       -14.3279
  27   2.0000      -0.519929       -14.1480
  28   2.0000      -0.495451       -13.4819
  29   2.0000      -0.459679       -12.5085
  30   2.0000      -0.454272       -12.3614
  31   2.0000      -0.436639       -11.8815
  32   2.0000      -0.427063       -11.6210
  33   0.0000       0.023067         0.6277
  34   0.0000       0.032402         0.8817
  35   0.0000       0.033800         0.9197
  36   0.0000       0.038103         1.0368
  37   0.0000       0.051035         1.3887

MULLIKEN ATOMIC CHARGES
-----------------------
   0 Si:    1.216161
   1 C :   -0.534188
   2 C :   -0.349389
   3 H :    0.298184
   4 H :    0.288527
   5 Cl:   -0.366310
   6 Cl:   -0.638746
   7 H :    0.281506
   8 H :    0.257485
   9 H :   -0.234659
  10 H :   -0.218572
Sum of atomic charges:   -0.0000000

LOEWDIN ATOMIC CHARGES
----------------------
   0 Si:    0.004671
   1 C :    0.321044
   2 C :   -0.247642
   3 H :   -0.425099
   4 H :   -0.409225
   5 Cl:    1.138740
   6 Cl:    0.910898
   7 H :   -0.369162
   8 H :   -0.373515
   9 H :   -0.277974
  10 H :   -0.272734

  Mayer bond orders larger than 0.100000
B(  0-Si,  1-C ) :   0.8164 B(  0-Si,  6-Cl) :   0.4414 B(  0-Si,  9-H ) :   0.8552
B(  0-Si, 10-H ) :   0.8522 B(  1-C ,  2-C ) :   0.9779 B(  1-C ,  7-H ) :   0.8825
B(  1-C ,  8-H ) :   0.9212 B(  2-C ,  3-H ) :   0.8647 B(  2-C ,  4-H ) :   0.8827
B(  2-C ,  5-Cl) :   0.7549

MP2 TOTAL ENERGY:    -1288.249737130 Eh
FINAL SINGLE POINT ENERGY     -1288.249737130256

DIPOLE MOMENT
-------------
                                X             Y             Z
Electronic contribution:      0.68308      -5.11218      -0.89255
Nuclear contribution   :     -1.07393       5.70913       1.05976
                        -----------------------------------------
Total Dipole Moment    :     -0.39085       0.59696       0.16721
                        -----------------------------------------
Magnitude (a.u.)       :      0.73286
Magnitude (Debye)      :      1.86277

Rotational constants in cm-1:     0.195035     0.028824     0.026071
Rotational constants in MHz :  5847.001712   864.122134   781.582127

                             ****ORCA TERMINATED NORMALLY****
TOTAL RUN TIME: 0 days 0 hours 38 minutes 47 seconds 743 msec
