                         Program Version 5.0.4 -  RELEASE  -
|  1> ! ri-mp2 aug-cc-pvdz aug-cc-pvdz/c tightscf
|  2> %pal nprocs 16 end
|  3> %maxcore 3800
|  4> %base "DZ_P-O_27_AB"
|  5> %scf
|  6> STABPerform true
|  7> STABRestartUHFifUnstable true
|  8> end
|  9>
| 10> *xyz 0 1
| 11> O        -0.235500    0.346481   -0.797926
| 12> P        -1.644047    0.085025   -0.009080
| 13> O        -2.543210    1.142219   -0.425479
| 14> O        -1.263526   -0.069056    1.504492
| 15> O         0.722648   -0.666509   -0.468351
| 16> C         1.845350   -0.015952   -0.025794
| 17> F         2.707282   -0.970395    0.266118
| 18> F         1.608678    0.713890    1.063254
| 19> F         2.357972    0.784249   -0.945486
| 20> H        -1.011445    0.756584    1.934772
| 21> O        -2.036005   -1.402549   -0.315413
| 22> H        -2.620600   -1.490623   -1.077379
| 23> *
| 24>
| 25> $new_job
| 26> ! ri-mp2 aug-cc-pvtz aug-cc-pvtz/c tightscf
| 27> %pal nprocs 16 end
| 28> %maxcore 3800
| 29> %base "TZ_P-O_27_AB"
| 30>
| 31> *xyz 0 1
| 32> O        -0.235500    0.346481   -0.797926
| 33> P        -1.644047    0.085025   -0.009080
| 34> O        -2.543210    1.142219   -0.425479
| 35> O        -1.263526   -0.069056    1.504492
| 36> O         0.722648   -0.666509   -0.468351
| 37> C         1.845350   -0.015952   -0.025794
| 38> F         2.707282   -0.970395    0.266118
| 39> F         1.608678    0.713890    1.063254
| 40> F         2.357972    0.784249   -0.945486
| 41> H        -1.011445    0.756584    1.934772
| 42> O        -2.036005   -1.402549   -0.315413
| 43> H        -2.620600   -1.490623   -1.077379
| 44> *
| 45>
| 46> $new_job
| 47> ! ri-mp2 aug-cc-pvqz aug-cc-pvqz/c tightscf
| 48> %pal nprocs 16 end
| 49> %maxcore 3800
| 50> %base "QZ_P-O_27_AB"
| 51>
| 52> *xyz 0 1
| 53> O        -0.235500    0.346481   -0.797926
| 54> P        -1.644047    0.085025   -0.009080
| 55> O        -2.543210    1.142219   -0.425479
| 56> O        -1.263526   -0.069056    1.504492
| 57> O         0.722648   -0.666509   -0.468351
| 58> C         1.845350   -0.015952   -0.025794
| 59> F         2.707282   -0.970395    0.266118
| 60> F         1.608678    0.713890    1.063254
| 61> F         2.357972    0.784249   -0.945486
| 62> H        -1.011445    0.756584    1.934772
| 63> O        -2.036005   -1.402549   -0.315413
| 64> H        -2.620600   -1.490623   -1.077379
| 65> *
| 66>
| 67>
| 68>
| 69>
| 70>                          ****END OF INPUT****
 Total Charge           Charge          ....    0
 Multiplicity           Mult            ....    1
 Number of Electrons    NEL             ....   90
MP2 TOTAL ENERGY:    -1054.345212151 Eh
FINAL SINGLE POINT ENERGY     -1054.345212151426
MP2 TOTAL ENERGY:    -1055.026958620 Eh
FINAL SINGLE POINT ENERGY     -1055.026958619973

CARTESIAN COORDINATES (ANGSTROEM)
---------------------------------
  O     -0.235500    0.346481   -0.797926
  P     -1.644047    0.085025   -0.009080
  O     -2.543210    1.142219   -0.425479
  O     -1.263526   -0.069056    1.504492
  O      0.722648   -0.666509   -0.468351
  C      1.845350   -0.015952   -0.025794
  F      2.707282   -0.970395    0.266118
  F      1.608678    0.713890    1.063254
  F      2.357972    0.784249   -0.945486
  H     -1.011445    0.756584    1.934772
  O     -2.036005   -1.402549   -0.315413
  H     -2.620600   -1.490623   -1.077379

 Multiplicity           Mult            ....    1
 Number of Electrons    NEL             ....   90
 Basis Dimension        Dim             ....  896

ORBITAL ENERGIES
----------------

  NO   OCC          E(Eh)            E(eV)
   0   2.0000     -80.126110     -2180.3423
   1   2.0000     -26.372649      -717.6363
   2   2.0000     -26.370568      -717.5796
   3   2.0000     -26.366272      -717.4627
   4   2.0000     -20.707803      -563.4880
   5   2.0000     -20.689584      -562.9922
   6   2.0000     -20.633585      -561.4684
   7   2.0000     -20.632897      -561.4497
   8   2.0000     -20.537036      -558.8412
   9   2.0000     -11.587800      -315.3201
  10   2.0000      -7.644805      -208.0257
  11   2.0000      -5.543619      -150.8495
  12   2.0000      -5.543348      -150.8422
  13   2.0000      -5.542198      -150.8109
  14   2.0000      -1.780000       -48.4363
  15   2.0000      -1.677382       -45.6439
  16   2.0000      -1.671172       -45.4749
  17   2.0000      -1.570584       -42.7378
  18   2.0000      -1.476629       -40.1811
  19   2.0000      -1.422585       -38.7105
  20   2.0000      -1.346289       -36.6344
  21   2.0000      -1.301979       -35.4286
  22   2.0000      -0.989297       -26.9201
  23   2.0000      -0.903587       -24.5879
  24   2.0000      -0.876163       -23.8416
  25   2.0000      -0.873428       -23.7672
  26   2.0000      -0.865629       -23.5550
  27   2.0000      -0.785850       -21.3841
  28   2.0000      -0.763080       -20.7645
  29   2.0000      -0.754477       -20.5304
  30   2.0000      -0.739923       -20.1343
  31   2.0000      -0.711793       -19.3689
  32   2.0000      -0.705499       -19.1976
  33   2.0000      -0.695029       -18.9127
  34   2.0000      -0.691550       -18.8180
  35   2.0000      -0.682205       -18.5637
  36   2.0000      -0.678689       -18.4681
  37   2.0000      -0.662731       -18.0338
  38   2.0000      -0.624890       -17.0041
  39   2.0000      -0.599464       -16.3122
  40   2.0000      -0.586335       -15.9550
  41   2.0000      -0.569824       -15.5057
  42   2.0000      -0.545485       -14.8434
  43   2.0000      -0.502905       -13.6847
  44   2.0000      -0.498882       -13.5753
  45   0.0000       0.022522         0.6129
  46   0.0000       0.030259         0.8234
  47   0.0000       0.049457         1.3458
  48   0.0000       0.053839         1.4650
  49   0.0000       0.067915         1.8481

MULLIKEN ATOMIC CHARGES
-----------------------
   0 O :   -0.532120
   1 P :    2.617434
   2 O :   -1.114630
   3 O :   -0.865822
   4 O :   -0.374053
   5 C :    2.048863
   6 F :   -0.561998
   7 F :   -0.592571
   8 F :   -0.555239
   9 H :    0.395005
  10 O :   -0.837873
  11 H :    0.373004
Sum of atomic charges:   -0.0000000

LOEWDIN ATOMIC CHARGES
----------------------
   0 O :    0.299955
   1 P :   -1.024678
   2 O :    0.285480
   3 O :    1.095762
   4 O :    0.369725
   5 C :   -2.688335
   6 F :    0.754159
   7 F :    0.746588
   8 F :    0.757020
   9 H :   -0.848411
  10 O :    1.096677
  11 H :   -0.843942

  Mayer bond orders larger than 0.100000
B(  0-O ,  1-P ) :   0.5608 B(  0-O ,  2-O ) :  -0.1237 B(  0-O ,  4-O ) :   0.7602
B(  1-P ,  2-O ) :   1.4073 B(  1-P ,  3-O ) :   0.7022 B(  1-P , 10-O ) :   0.7122
B(  3-O ,  9-H ) :   0.8704 B(  4-O ,  5-C ) :   0.8712 B(  5-C ,  6-F ) :   0.5812
B(  5-C ,  7-F ) :   0.5260 B(  5-C ,  8-F ) :   0.5626 B( 10-O , 11-H ) :   0.9101

MP2 TOTAL ENERGY:    -1055.250321287 Eh
FINAL SINGLE POINT ENERGY     -1055.250321287426

DIPOLE MOMENT
-------------
                                X             Y             Z
Electronic contribution:      8.18869       0.73891      -0.14824
Nuclear contribution   :     -8.11914      -1.25054       0.44487
                        -----------------------------------------
Total Dipole Moment    :      0.06955      -0.51162       0.29663
                        -----------------------------------------
Magnitude (a.u.)       :      0.59547
Magnitude (Debye)      :      1.51357

Rotational constants in cm-1:     0.083092     0.023149     0.022897
Rotational constants in MHz :  2491.036202   693.976665   686.432236

                             ****ORCA TERMINATED NORMALLY****
TOTAL RUN TIME: 0 days 0 hours 58 minutes 43 seconds 580 msec
