                         Program Version 5.0.4 -  RELEASE  -
|  1> ! ri-mp2 aug-cc-pvdz aug-cc-pvdz/c tightscf
|  2> %pal nprocs 16 end
|  3> %maxcore 3800
|  4> %base "DZ_P-N_9_AB"
|  5> %scf
|  6> STABPerform true
|  7> STABRestartUHFifUnstable true
|  8> end
|  9>
| 10> *xyz 0 1
| 11> N        -0.347222   -1.506805    0.292835
| 12> P        -0.013181   -0.076645   -0.559921
| 13> C         1.517542    0.557868    0.241515
| 14> H         2.358808   -0.083908   -0.019363
| 15> H         1.426252    0.595737    1.329980
| 16> C        -1.214208    1.054722    0.237563
| 17> H         1.736597    1.562835   -0.122843
| 18> H        -1.037914    2.075916   -0.102700
| 19> H        -2.224750    0.767292   -0.048425
| 20> H        -1.136826    1.032383    1.327097
| 21> H        -0.181868   -1.559182    1.287783
| 22> H        -0.132034   -2.369302   -0.177024
| 23> *
| 24>
| 25> $new_job
| 26> ! ri-mp2 aug-cc-pvtz aug-cc-pvtz/c tightscf
| 27> %pal nprocs 16 end
| 28> %maxcore 3800
| 29> %base "TZ_P-N_9_AB"
| 30>
| 31> *xyz 0 1
| 32> N        -0.347222   -1.506805    0.292835
| 33> P        -0.013181   -0.076645   -0.559921
| 34> C         1.517542    0.557868    0.241515
| 35> H         2.358808   -0.083908   -0.019363
| 36> H         1.426252    0.595737    1.329980
| 37> C        -1.214208    1.054722    0.237563
| 38> H         1.736597    1.562835   -0.122843
| 39> H        -1.037914    2.075916   -0.102700
| 40> H        -2.224750    0.767292   -0.048425
| 41> H        -1.136826    1.032383    1.327097
| 42> H        -0.181868   -1.559182    1.287783
| 43> H        -0.132034   -2.369302   -0.177024
| 44> *
| 45>
| 46> $new_job
| 47> ! ri-mp2 aug-cc-pvqz aug-cc-pvqz/c tightscf
| 48> %pal nprocs 16 end
| 49> %maxcore 3800
| 50> %base "QZ_P-N_9_AB"
| 51>
| 52> *xyz 0 1
| 53> N        -0.347222   -1.506805    0.292835
| 54> P        -0.013181   -0.076645   -0.559921
| 55> C         1.517542    0.557868    0.241515
| 56> H         2.358808   -0.083908   -0.019363
| 57> H         1.426252    0.595737    1.329980
| 58> C        -1.214208    1.054722    0.237563
| 59> H         1.736597    1.562835   -0.122843
| 60> H        -1.037914    2.075916   -0.102700
| 61> H        -2.224750    0.767292   -0.048425
| 62> H        -1.136826    1.032383    1.327097
| 63> H        -0.181868   -1.559182    1.287783
| 64> H        -0.132034   -2.369302   -0.177024
| 65> *
| 66>
| 67>
| 68>
| 69>
| 70>                          ****END OF INPUT****
 Total Charge           Charge          ....    0
 Multiplicity           Mult            ....    1
 Number of Electrons    NEL             ....   42
MP2 TOTAL ENERGY:     -476.225938061 Eh
FINAL SINGLE POINT ENERGY      -476.225938060745
MP2 TOTAL ENERGY:     -476.409178405 Eh
FINAL SINGLE POINT ENERGY      -476.409178405464

CARTESIAN COORDINATES (ANGSTROEM)
---------------------------------
  N     -0.347222   -1.506805    0.292835
  P     -0.013181   -0.076645   -0.559921
  C      1.517542    0.557868    0.241515
  H      2.358808   -0.083908   -0.019363
  H      1.426252    0.595737    1.329980
  C     -1.214208    1.054722    0.237563
  H      1.736597    1.562835   -0.122843
  H     -1.037914    2.075916   -0.102700
  H     -2.224750    0.767292   -0.048425
  H     -1.136826    1.032383    1.327097
  H     -0.181868   -1.559182    1.287783
  H     -0.132034   -2.369302   -0.177024

 Multiplicity           Mult            ....    1
 Number of Electrons    NEL             ....   42
 Basis Dimension        Dim             ....  692

ORBITAL ENERGIES
----------------

  NO   OCC          E(Eh)            E(eV)
   0   2.0000     -79.942772     -2175.3534
   1   2.0000     -15.540623      -422.8819
   2   2.0000     -11.212398      -305.1049
   3   2.0000     -11.211003      -305.0669
   4   2.0000      -7.480543      -203.5559
   5   2.0000      -5.375099      -146.2639
   6   2.0000      -5.374543      -146.2488
   7   2.0000      -5.373869      -146.2304
   8   2.0000      -1.157569       -31.4991
   9   2.0000      -0.987161       -26.8620
  10   2.0000      -0.931912       -25.3586
  11   2.0000      -0.742181       -20.1958
  12   2.0000      -0.667007       -18.1502
  13   2.0000      -0.592621       -16.1260
  14   2.0000      -0.577842       -15.7239
  15   2.0000      -0.559634       -15.2284
  16   2.0000      -0.547205       -14.8902
  17   2.0000      -0.524292       -14.2667
  18   2.0000      -0.480015       -13.0619
  19   2.0000      -0.392982       -10.6936
  20   2.0000      -0.333751        -9.0818
  21   0.0000       0.025843         0.7032
  22   0.0000       0.033345         0.9074
  23   0.0000       0.035501         0.9660
  24   0.0000       0.039195         1.0665
  25   0.0000       0.053331         1.4512

MULLIKEN ATOMIC CHARGES
-----------------------
   0 N :   -0.925731
   1 P :    0.813048
   2 C :   -1.121732
   3 H :    0.346270
   4 H :    0.274671
   5 C :   -1.137807
   6 H :    0.306225
   7 H :    0.325631
   8 H :    0.358316
   9 H :    0.267246
  10 H :    0.267367
  11 H :    0.226496
Sum of atomic charges:    0.0000000

LOEWDIN ATOMIC CHARGES
----------------------
   0 N :    1.042178
   1 P :    0.793190
   2 C :    0.770188
   3 H :   -0.369150
   4 H :   -0.356984
   5 C :    0.762347
   6 H :   -0.364832
   7 H :   -0.363939
   8 H :   -0.367208
   9 H :   -0.353187
  10 H :   -0.582344
  11 H :   -0.610260

  Mayer bond orders larger than 0.100000
B(  0-N ,  1-P ) :   0.7372 B(  0-N , 10-H ) :   0.9369 B(  0-N , 11-H ) :   1.0268
B(  1-P ,  2-C ) :   0.8454 B(  1-P ,  5-C ) :   0.8564 B(  2-C ,  3-H ) :   0.8889
B(  2-C ,  4-H ) :   0.9138 B(  2-C ,  6-H ) :   0.9134 B(  5-C ,  7-H ) :   0.8989
B(  5-C ,  8-H ) :   0.8822 B(  5-C ,  9-H ) :   0.9200

MP2 TOTAL ENERGY:     -476.464716278 Eh
FINAL SINGLE POINT ENERGY      -476.464716278416

DIPOLE MOMENT
-------------
                                X             Y             Z
Electronic contribution:     -0.55370      -2.19315      -3.49376
Nuclear contribution   :      0.83803       2.13497       4.10375
                        -----------------------------------------
Total Dipole Moment    :      0.28433      -0.05818       0.60999
                        -----------------------------------------
Magnitude (a.u.)       :      0.67551
Magnitude (Debye)      :      1.71700

Rotational constants in cm-1:     0.205993     0.200523     0.128529
Rotational constants in MHz :  6175.524487  6011.525310  3853.202969

                             ****ORCA TERMINATED NORMALLY****
TOTAL RUN TIME: 0 days 0 hours 25 minutes 59 seconds 289 msec
