                         Program Version 5.0.4 -  RELEASE  -
|  1> ! ri-mp2 aug-cc-pvdz aug-cc-pvdz/c tightscf
|  2> %pal nprocs 16 end
|  3> %maxcore 3800
|  4> %base "DZ_Si-Si_64_AB"
|  5> %scf
|  6> STABPerform true
|  7> STABRestartUHFifUnstable true
|  8> end
|  9>
| 10> *xyz 0 1
| 11> Si        -0.774415    1.127178    0.204139
| 12> Si        -2.106241   -0.738996   -0.245000
| 13> O         0.833597    0.881084   -0.287672
| 14> H        -0.773788    1.484052    1.638027
| 15> H        -1.160434    2.312487   -0.586720
| 16> C         1.457667   -0.236322    0.099909
| 17> H        -3.466679   -0.287170   -0.624568
| 18> H        -2.209435   -1.619362    0.934147
| 19> H        -1.530028   -1.483368   -1.386452
| 20> O         0.902714   -1.067030    0.772902
| 21> C         2.867037   -0.323707   -0.389258
| 22> H         3.433257    0.531504   -0.021356
| 23> H         2.877344   -0.275871   -1.477834
| 24> H         3.320237   -1.249071   -0.048937
| 25> *
| 26>
| 27> $new_job
| 28> ! ri-mp2 aug-cc-pvtz aug-cc-pvtz/c tightscf
| 29> %pal nprocs 16 end
| 30> %maxcore 3800
| 31> %base "TZ_Si-Si_64_AB"
| 32>
| 33> *xyz 0 1
| 34> Si        -0.774415    1.127178    0.204139
| 35> Si        -2.106241   -0.738996   -0.245000
| 36> O         0.833597    0.881084   -0.287672
| 37> H        -0.773788    1.484052    1.638027
| 38> H        -1.160434    2.312487   -0.586720
| 39> C         1.457667   -0.236322    0.099909
| 40> H        -3.466679   -0.287170   -0.624568
| 41> H        -2.209435   -1.619362    0.934147
| 42> H        -1.530028   -1.483368   -1.386452
| 43> O         0.902714   -1.067030    0.772902
| 44> C         2.867037   -0.323707   -0.389258
| 45> H         3.433257    0.531504   -0.021356
| 46> H         2.877344   -0.275871   -1.477834
| 47> H         3.320237   -1.249071   -0.048937
| 48> *
| 49>
| 50> $new_job
| 51> ! ri-mp2 aug-cc-pvqz aug-cc-pvqz/c tightscf
| 52> %pal nprocs 16 end
| 53> %maxcore 3800
| 54> %base "QZ_Si-Si_64_AB"
| 55>
| 56> *xyz 0 1
| 57> Si        -0.774415    1.127178    0.204139
| 58> Si        -2.106241   -0.738996   -0.245000
| 59> O         0.833597    0.881084   -0.287672
| 60> H        -0.773788    1.484052    1.638027
| 61> H        -1.160434    2.312487   -0.586720
| 62> C         1.457667   -0.236322    0.099909
| 63> H        -3.466679   -0.287170   -0.624568
| 64> H        -2.209435   -1.619362    0.934147
| 65> H        -1.530028   -1.483368   -1.386452
| 66> O         0.902714   -1.067030    0.772902
| 67> C         2.867037   -0.323707   -0.389258
| 68> H         3.433257    0.531504   -0.021356
| 69> H         2.877344   -0.275871   -1.477834
| 70> H         3.320237   -1.249071   -0.048937
| 71> *
| 72>
| 73>
| 74>
| 75>
| 76>                          ****END OF INPUT****
 Total Charge           Charge          ....    0
 Multiplicity           Mult            ....    1
 Number of Electrons    NEL             ....   64
MP2 TOTAL ENERGY:     -808.946441231 Eh
FINAL SINGLE POINT ENERGY      -808.946441231006
MP2 TOTAL ENERGY:     -809.222084426 Eh
FINAL SINGLE POINT ENERGY      -809.222084425773

CARTESIAN COORDINATES (ANGSTROEM)
---------------------------------
  Si    -0.774415    1.127178    0.204139
  Si    -2.106241   -0.738996   -0.245000
  O      0.833597    0.881084   -0.287672
  H     -0.773788    1.484052    1.638027
  H     -1.160434    2.312487   -0.586720
  C      1.457667   -0.236322    0.099909
  H     -3.466679   -0.287170   -0.624568
  H     -2.209435   -1.619362    0.934147
  H     -1.530028   -1.483368   -1.386452
  O      0.902714   -1.067030    0.772902
  C      2.867037   -0.323707   -0.389258
  H      3.433257    0.531504   -0.021356
  H      2.877344   -0.275871   -1.477834
  H      3.320237   -1.249071   -0.048937

 Multiplicity           Mult            ....    1
 Number of Electrons    NEL             ....   64
 Basis Dimension        Dim             ....  856

ORBITAL ENERGIES
----------------

  NO   OCC          E(Eh)            E(eV)
   0   2.0000     -68.800507     -1872.1570
   1   2.0000     -68.764681     -1871.1821
   2   2.0000     -20.591694      -560.3285
   3   2.0000     -20.552776      -559.2695
   4   2.0000     -11.391575      -309.9805
   5   2.0000     -11.245693      -306.0109
   6   2.0000      -6.146232      -167.2475
   7   2.0000      -6.115474      -166.4105
   8   2.0000      -4.253006      -115.7302
   9   2.0000      -4.252362      -115.7127
  10   2.0000      -4.252184      -115.7078
  11   2.0000      -4.221618      -114.8761
  12   2.0000      -4.221581      -114.8751
  13   2.0000      -4.221400      -114.8701
  14   2.0000      -1.463447       -39.8224
  15   2.0000      -1.357359       -36.9356
  16   2.0000      -1.029787       -28.0219
  17   2.0000      -0.833072       -22.6690
  18   2.0000      -0.738199       -20.0874
  19   2.0000      -0.707457       -19.2509
  20   2.0000      -0.689360       -18.7584
  21   2.0000      -0.662383       -18.0244
  22   2.0000      -0.632926       -17.2228
  23   2.0000      -0.584138       -15.8952
  24   2.0000      -0.569693       -15.5021
  25   2.0000      -0.541784       -14.7427
  26   2.0000      -0.504058       -13.7161
  27   2.0000      -0.486784       -13.2461
  28   2.0000      -0.482502       -13.1295
  29   2.0000      -0.469829       -12.7847
  30   2.0000      -0.458763       -12.4836
  31   2.0000      -0.402491       -10.9523
  32   0.0000       0.022257         0.6056
  33   0.0000       0.030567         0.8318
  34   0.0000       0.032770         0.8917
  35   0.0000       0.038665         1.0521
  36   0.0000       0.044154         1.2015

MULLIKEN ATOMIC CHARGES
-----------------------
   0 Si:    1.039544
   1 Si:    0.411402
   2 O :   -0.842255
   3 H :   -0.207402
   4 H :   -0.269162
   5 C :    0.876113
   6 H :   -0.225716
   7 H :   -0.134043
   8 H :   -0.146755
   9 O :   -0.729104
  10 C :   -0.692248
  11 H :    0.293573
  12 H :    0.302929
  13 H :    0.323125
Sum of atomic charges:   -0.0000000

LOEWDIN ATOMIC CHARGES
----------------------
   0 Si:    0.380287
   1 Si:    1.028924
   2 O :    0.635232
   3 H :   -0.263266
   4 H :   -0.284824
   5 C :   -1.216967
   6 H :   -0.324220
   7 H :   -0.305609
   8 H :   -0.302571
   9 O :    0.696589
  10 C :    0.872068
  11 H :   -0.299096
  12 H :   -0.299189
  13 H :   -0.317359

  Mayer bond orders larger than 0.100000
B(  0-Si,  1-Si) :   0.8301 B(  0-Si,  2-O ) :   0.3871 B(  0-Si,  3-H ) :   0.8690
B(  0-Si,  4-H ) :   0.8621 B(  1-Si,  6-H ) :   0.7458 B(  1-Si,  7-H ) :   0.7918
B(  1-Si,  8-H ) :   0.7755 B(  2-O ,  5-C ) :   1.0138 B(  5-C ,  9-O ) :   1.5150
B(  5-C , 10-C ) :   0.7892 B( 10-C , 11-H ) :   0.9403 B( 10-C , 12-H ) :   0.9193
B( 10-C , 13-H ) :   0.9562

MP2 TOTAL ENERGY:     -809.311652210 Eh
FINAL SINGLE POINT ENERGY      -809.311652209503

DIPOLE MOMENT
-------------
                                X             Y             Z
Electronic contribution:     -0.18250       1.04327       1.14788
Nuclear contribution   :      0.69238      -0.61299      -1.56279
                        -----------------------------------------
Total Dipole Moment    :      0.50988       0.43027      -0.41491
                        -----------------------------------------
Magnitude (a.u.)       :      0.78566
Magnitude (Debye)      :      1.99699

Rotational constants in cm-1:     0.137983     0.045985     0.038252
Rotational constants in MHz :  4136.638138  1378.581864  1146.763670

                             ****ORCA TERMINATED NORMALLY****
TOTAL RUN TIME: 0 days 1 hours 7 minutes 34 seconds 44 msec
