                         Program Version 5.0.4 -  RELEASE  -
|  1> ! ri-mp2 aug-cc-pvdz aug-cc-pvdz/c tightscf
|  2> %pal nprocs 16 end
|  3> %maxcore 3800
|  4> %base "DZ_Si-Si_63_A"
|  5> %scf
|  6> STABPerform true
|  7> STABRestartUHFifUnstable true
|  8> end
|  9>
| 10> *xyz 0 2
| 11> Si        -1.360924   -0.116351   -0.000010
| 12> O         0.022318    0.853385   -0.000026
| 13> H        -1.393583   -0.936375   -1.230636
| 14> H        -1.393624   -0.936274    1.230683
| 15> C         1.259550    0.347175    0.000000
| 16> O         1.511571   -0.819219    0.000040
| 17> H         2.011739    1.145192   -0.000022
| 18> *
| 19>
| 20> $new_job
| 21> ! ri-mp2 aug-cc-pvtz aug-cc-pvtz/c tightscf
| 22> %pal nprocs 16 end
| 23> %maxcore 3800
| 24> %base "TZ_Si-Si_63_A"
| 25>
| 26> *xyz 0 2
| 27> Si        -1.360924   -0.116351   -0.000010
| 28> O         0.022318    0.853385   -0.000026
| 29> H        -1.393583   -0.936375   -1.230636
| 30> H        -1.393624   -0.936274    1.230683
| 31> C         1.259550    0.347175    0.000000
| 32> O         1.511571   -0.819219    0.000040
| 33> H         2.011739    1.145192   -0.000022
| 34> *
| 35>
| 36> $new_job
| 37> ! ri-mp2 aug-cc-pvqz aug-cc-pvqz/c tightscf
| 38> %pal nprocs 16 end
| 39> %maxcore 3800
| 40> %base "QZ_Si-Si_63_A"
| 41>
| 42> *xyz 0 2
| 43> Si        -1.360924   -0.116351   -0.000010
| 44> O         0.022318    0.853385   -0.000026
| 45> H        -1.393583   -0.936375   -1.230636
| 46> H        -1.393624   -0.936274    1.230683
| 47> C         1.259550    0.347175    0.000000
| 48> O         1.511571   -0.819219    0.000040
| 49> H         2.011739    1.145192   -0.000022
| 50> *
| 51>
| 52>
| 53>
| 54>
| 55>                          ****END OF INPUT****
 Total Charge           Charge          ....    0
 Multiplicity           Mult            ....    2
 Number of Electrons    NEL             ....   39
MP2 TOTAL ENERGY:     -478.902209711 Eh
FINAL SINGLE POINT ENERGY      -478.902209711444
MP2 TOTAL ENERGY:     -479.098766423 Eh
FINAL SINGLE POINT ENERGY      -479.098766423365

CARTESIAN COORDINATES (ANGSTROEM)
---------------------------------
  Si    -1.360924   -0.116351   -0.000010
  O      0.022318    0.853385   -0.000026
  H     -1.393583   -0.936375   -1.230636
  H     -1.393624   -0.936274    1.230683
  C      1.259550    0.347175    0.000000
  O      1.511571   -0.819219    0.000040
  H      2.011739    1.145192   -0.000022

 Multiplicity           Mult            ....    2
 Number of Electrons    NEL             ....   39
 Basis Dimension        Dim             ....  462

ORBITAL ENERGIES
----------------
                 SPIN UP ORBITALS
  NO   OCC          E(Eh)            E(eV)
   0   1.0000     -68.824451     -1872.8085
   1   1.0000     -20.603730      -560.6560
   2   1.0000     -20.564672      -559.5932
   3   1.0000     -11.395440      -310.0857
   4   1.0000      -6.170051      -167.8956
   5   1.0000      -4.282461      -116.5317
   6   1.0000      -4.273380      -116.2846
   7   1.0000      -4.272323      -116.2558
   8   1.0000      -1.468838       -39.9691
   9   1.0000      -1.371280       -37.3144
  10   1.0000      -0.896381       -24.3918
  11   1.0000      -0.745270       -20.2798
  12   1.0000      -0.721872       -19.6431
  13   1.0000      -0.664639       -18.0858
  14   1.0000      -0.649369       -17.6702
  15   1.0000      -0.554047       -15.0764
  16   1.0000      -0.521346       -14.1865
  17   1.0000      -0.481665       -13.1068
  18   1.0000      -0.475706       -12.9446
  19   1.0000      -0.356635        -9.7045
  20   0.0000       0.023690         0.6446
  21   0.0000       0.032829         0.8933
  22   0.0000       0.039889         1.0854
  23   0.0000       0.044422         1.2088
  24   0.0000       0.050763         1.3813

                 SPIN DOWN ORBITALS
  NO   OCC          E(Eh)            E(eV)
   0   1.0000     -68.818496     -1872.6465
   1   1.0000     -20.602460      -560.6214
   2   1.0000     -20.564965      -559.6012
   3   1.0000     -11.394648      -310.0641
   4   1.0000      -6.160604      -167.6386
   5   1.0000      -4.269509      -116.1793
   6   1.0000      -4.268602      -116.1546
   7   1.0000      -4.260156      -115.9247
   8   1.0000      -1.467259       -39.9261
   9   1.0000      -1.369748       -37.2727
  10   1.0000      -0.887259       -24.1436
  11   1.0000      -0.735654       -20.0182
  12   1.0000      -0.711325       -19.3561
  13   1.0000      -0.647738       -17.6259
  14   1.0000      -0.643696       -17.5159
  15   1.0000      -0.545497       -14.8437
  16   1.0000      -0.515981       -14.0406
  17   1.0000      -0.475623       -12.9424
  18   1.0000      -0.473892       -12.8953
  19   0.0000       0.019557         0.5322
  20   0.0000       0.029653         0.8069
  21   0.0000       0.036409         0.9907
  22   0.0000       0.040318         1.0971
  23   0.0000       0.049002         1.3334

MULLIKEN ATOMIC CHARGES AND SPIN POPULATIONS
--------------------------------------------
   0 Si:    0.816433    0.963857
   1 O :   -0.762091   -0.052251
   2 H :   -0.156792    0.038431
   3 H :   -0.156793    0.038432
   4 C :    0.286901    0.018788
   5 O :   -0.642123   -0.006681
   6 H :    0.614465   -0.000576
Sum of atomic charges         :   -0.0000000

LOEWDIN ATOMIC CHARGES AND SPIN POPULATIONS
-------------------------------------------
   0 Si:    0.742086    0.585927
   1 O :    0.525960    0.118748
   2 H :   -0.345364    0.135104
   3 H :   -0.345364    0.135105
   4 C :   -0.822354    0.020649
   5 O :    0.649758    0.002378
   6 H :   -0.404722    0.002089

  Mayer bond orders larger than 0.100000
B(  0-Si,  1-O ) :   0.3688 B(  0-Si,  2-H ) :   0.9086 B(  0-Si,  3-H ) :   0.9086
B(  1-O ,  4-C ) :   1.1597 B(  4-C ,  5-O ) :   1.7789 B(  4-C ,  6-H ) :   0.5913

MP2 TOTAL ENERGY:     -479.163577730 Eh
FINAL SINGLE POINT ENERGY      -479.163577730039

DIPOLE MOMENT
-------------
                                X             Y             Z
Electronic contribution:      0.31775       1.34099      -0.00005
Nuclear contribution   :     -0.65199      -0.70190       0.00003
                        -----------------------------------------
Total Dipole Moment    :     -0.33424       0.63910      -0.00003
                        -----------------------------------------
Magnitude (a.u.)       :      0.72122
Magnitude (Debye)      :      1.83320

Rotational constants in cm-1:     0.560319     0.141726     0.117948
Rotational constants in MHz : 16797.926987  4248.826106  3535.978226

                             ****ORCA TERMINATED NORMALLY****
TOTAL RUN TIME: 0 days 0 hours 28 minutes 37 seconds 276 msec
