                         Program Version 5.0.4 -  RELEASE  -
|  1> ! ri-mp2 aug-cc-pvdz aug-cc-pvdz/c tightscf
|  2> %pal nprocs 16 end
|  3> %maxcore 3800
|  4> %base "DZ_P-C_18_AB"
|  5>
|  6> *xyz 0 1
|  7> C        -0.504959    0.529906   -0.561529
|  8> P         1.054097   -0.125941    0.160912
|  9> N        -1.647481   -0.331367   -0.075612
| 10> O         1.087708    0.004531    1.611901
| 11> O         2.161473    0.699714   -0.616750
| 12> O        -2.611753    0.200426    0.399641
| 13> O        -1.519763   -1.538200   -0.217128
| 14> H        -0.476673    0.345683   -1.636209
| 15> C        -0.726165    1.988714   -0.240876
| 16> H        -0.740666    2.150660    0.834587
| 17> H        -1.665184    2.339689   -0.661034
| 18> H         0.087007    2.568400   -0.674649
| 19> H         2.721662    1.202326   -0.013314
| 20> O         1.229081   -1.547252   -0.489460
| 21> H         0.407538   -2.063552   -0.424972
| 22> *
| 23>
| 24> $new_job
| 25> ! ri-mp2 aug-cc-pvtz aug-cc-pvtz/c tightscf
| 26> %pal nprocs 16 end
| 27> %maxcore 3800
| 28> %base "TZ_P-C_18_AB"
| 29>
| 30> *xyz 0 1
| 31> C        -0.504959    0.529906   -0.561529
| 32> P         1.054097   -0.125941    0.160912
| 33> N        -1.647481   -0.331367   -0.075612
| 34> O         1.087708    0.004531    1.611901
| 35> O         2.161473    0.699714   -0.616750
| 36> O        -2.611753    0.200426    0.399641
| 37> O        -1.519763   -1.538200   -0.217128
| 38> H        -0.476673    0.345683   -1.636209
| 39> C        -0.726165    1.988714   -0.240876
| 40> H        -0.740666    2.150660    0.834587
| 41> H        -1.665184    2.339689   -0.661034
| 42> H         0.087007    2.568400   -0.674649
| 43> H         2.721662    1.202326   -0.013314
| 44> O         1.229081   -1.547252   -0.489460
| 45> H         0.407538   -2.063552   -0.424972
| 46> *
| 47>
| 48> $new_job
| 49> ! ri-mp2 aug-cc-pvqz aug-cc-pvqz/c tightscf
| 50> %pal nprocs 16 end
| 51> %maxcore 3800
| 52> %base "QZ_P-C_18_AB"
| 53>
| 54> *xyz 0 1
| 55> C        -0.504959    0.529906   -0.561529
| 56> P         1.054097   -0.125941    0.160912
| 57> N        -1.647481   -0.331367   -0.075612
| 58> O         1.087708    0.004531    1.611901
| 59> O         2.161473    0.699714   -0.616750
| 60> O        -2.611753    0.200426    0.399641
| 61> O        -1.519763   -1.538200   -0.217128
| 62> H        -0.476673    0.345683   -1.636209
| 63> C        -0.726165    1.988714   -0.240876
| 64> H        -0.740666    2.150660    0.834587
| 65> H        -1.665184    2.339689   -0.661034
| 66> H         0.087007    2.568400   -0.674649
| 67> H         2.721662    1.202326   -0.013314
| 68> O         1.229081   -1.547252   -0.489460
| 69> H         0.407538   -2.063552   -0.424972
| 70> *
| 71>
| 72>
| 73>
| 74>
| 75>                          ****END OF INPUT****
 Total Charge           Charge          ....    0
 Multiplicity           Mult            ....    1
 Number of Electrons    NEL             ....   80
MP2 TOTAL ENERGY:     -850.364078441 Eh
FINAL SINGLE POINT ENERGY      -850.364078440831
MP2 TOTAL ENERGY:     -850.871628045 Eh
FINAL SINGLE POINT ENERGY      -850.871628045007

CARTESIAN COORDINATES (ANGSTROEM)
---------------------------------
  C     -0.504959    0.529906   -0.561529
  P      1.054097   -0.125941    0.160912
  N     -1.647481   -0.331367   -0.075612
  O      1.087708    0.004531    1.611901
  O      2.161473    0.699714   -0.616750
  O     -2.611753    0.200426    0.399641
  O     -1.519763   -1.538200   -0.217128
  H     -0.476673    0.345683   -1.636209
  C     -0.726165    1.988714   -0.240876
  H     -0.740666    2.150660    0.834587
  H     -1.665184    2.339689   -0.661034
  H      0.087007    2.568400   -0.674649
  H      2.721662    1.202326   -0.013314
  O      1.229081   -1.547252   -0.489460
  H      0.407538   -2.063552   -0.424972

 Multiplicity           Mult            ....    1
 Number of Electrons    NEL             ....   80
 Basis Dimension        Dim             .... 1000

ORBITAL ENERGIES
----------------

  NO   OCC          E(Eh)            E(eV)
   0   2.0000     -80.094008     -2179.4688
   1   2.0000     -20.634781      -561.5009
   2   2.0000     -20.624047      -561.2088
   3   2.0000     -20.619615      -561.0883
   4   2.0000     -20.609872      -560.8231
   5   2.0000     -20.524930      -558.5117
   6   2.0000     -15.873280      -431.9339
   7   2.0000     -11.332685      -308.3780
   8   2.0000     -11.259507      -306.3868
   9   2.0000      -7.616527      -207.2562
  10   2.0000      -5.515020      -150.0713
  11   2.0000      -5.514380      -150.0539
  12   2.0000      -5.513299      -150.0245
  13   2.0000      -1.644158       -44.7398
  14   2.0000      -1.462116       -39.7862
  15   2.0000      -1.435204       -39.0539
  16   2.0000      -1.405239       -38.2385
  17   2.0000      -1.321214       -35.9521
  18   2.0000      -1.148161       -31.2430
  19   2.0000      -0.987206       -26.8632
  20   2.0000      -0.896654       -24.3992
  21   2.0000      -0.853355       -23.2210
  22   2.0000      -0.780871       -21.2486
  23   2.0000      -0.775897       -21.1132
  24   2.0000      -0.760478       -20.6937
  25   2.0000      -0.741279       -20.1712
  26   2.0000      -0.699115       -19.0239
  27   2.0000      -0.670638       -18.2490
  28   2.0000      -0.650329       -17.6963
  29   2.0000      -0.620191       -16.8763
  30   2.0000      -0.602752       -16.4017
  31   2.0000      -0.587723       -15.9928
  32   2.0000      -0.580741       -15.8028
  33   2.0000      -0.565277       -15.3820
  34   2.0000      -0.531596       -14.4655
  35   2.0000      -0.518593       -14.1116
  36   2.0000      -0.508824       -13.8458
  37   2.0000      -0.486097       -13.2274
  38   2.0000      -0.483189       -13.1482
  39   2.0000      -0.473168       -12.8756
  40   0.0000       0.017260         0.4697
  41   0.0000       0.027260         0.7418
  42   0.0000       0.032340         0.8800
  43   0.0000       0.040649         1.1061
  44   0.0000       0.048507         1.3199

MULLIKEN ATOMIC CHARGES
-----------------------
   0 C :   -0.268005
   1 P :    2.564886
   2 N :    0.919604
   3 O :   -1.186439
   4 O :   -1.000637
   5 O :   -0.591148
   6 O :   -0.663968
   7 H :    0.422633
   8 C :   -0.841448
   9 H :    0.274633
  10 H :    0.311461
  11 H :    0.288739
  12 H :    0.400108
  13 O :   -1.017940
  14 H :    0.387521
Sum of atomic charges:   -0.0000000

LOEWDIN ATOMIC CHARGES
----------------------
   0 C :   -0.102327
   1 P :   -0.658803
   2 N :   -0.812849
   3 O :    0.335459
   4 O :    1.122838
   5 O :    0.602538
   6 O :    0.610373
   7 H :   -0.335067
   8 C :    0.851857
   9 H :   -0.291929
  10 H :   -0.291218
  11 H :   -0.288445
  12 H :   -0.847697
  13 O :    1.119801
  14 H :   -1.014531

  Mayer bond orders larger than 0.100000
B(  0-C ,  1-P ) :   0.7903 B(  0-C ,  2-N ) :   0.8429 B(  0-C ,  3-O ) :  -0.1634
B(  0-C ,  5-O ) :   0.1426 B(  0-C ,  6-O ) :   0.1087 B(  0-C ,  7-H ) :   0.7729
B(  0-C ,  8-C ) :   0.7469 B(  1-P ,  3-O ) :   1.3800 B(  1-P ,  4-O ) :   0.5020
B(  1-P , 13-O ) :   0.5402 B(  2-N ,  5-O ) :   1.2389 B(  2-N ,  6-O ) :   1.1181
B(  3-O , 12-H ) :  -0.1203 B(  4-O , 12-H ) :   0.9273 B(  5-O ,  6-O ) :   0.1076
B(  8-C ,  9-H ) :   0.9472 B(  8-C , 10-H ) :   0.9496 B(  8-C , 11-H ) :   0.9555
B( 13-O , 14-H ) :   0.7989

MP2 TOTAL ENERGY:     -851.038694927 Eh
FINAL SINGLE POINT ENERGY      -851.038694927034

DIPOLE MOMENT
-------------
                                X             Y             Z
Electronic contribution:      1.11472      -5.25555       1.34878
Nuclear contribution   :     -0.65353       6.42166      -2.63427
                        -----------------------------------------
Total Dipole Moment    :      0.46119       1.16611      -1.28549
                        -----------------------------------------
Magnitude (a.u.)       :      1.79583
Magnitude (Debye)      :      4.56463

Rotational constants in cm-1:     0.075086     0.039985     0.032610
Rotational constants in MHz :  2251.012149  1198.722848   977.613603

                             ****ORCA TERMINATED NORMALLY****
TOTAL RUN TIME: 0 days 0 hours 19 minutes 37 seconds 732 msec
