                         Program Version 5.0.4 -  RELEASE  -
|  1> ! ri-mp2 aug-cc-pvdz aug-cc-pvdz/c tightscf
|  2> %pal nprocs 16 end
|  3> %maxcore 3800
|  4> %base "DZ_P-F_4_AB"
|  5>
|  6> *xyz 0 1
|  7> F        -1.962533   -1.753092   -0.395738
|  8> H         0.380241    1.753014   -1.397105
|  9> H         2.736194    1.959588   -0.769306
| 10> P        -1.609740   -0.296440   -0.994970
| 11> C        -2.260894    0.779103    0.391843
| 12> C         0.137241   -0.185868   -0.501379
| 13> C         2.838483    0.050806    0.199622
| 14> C        -2.931474    0.147787    1.572557
| 15> H        -2.245897   -0.549553    2.056821
| 16> H        -3.792682   -0.436027    1.243556
| 17> C         0.861179    0.949282   -0.854069
| 18> O        -2.114612    1.965769    0.253575
| 19> C         4.290420    0.177160    0.555362
| 20> C         2.188988    1.065290   -0.497141
| 21> H         0.227905   -2.095216    0.468827
| 22> H         2.594847   -1.883854    1.077798
| 23> H        -3.243606    0.920149    2.271810
| 24> C         0.773995   -1.203405    0.193816
| 25> C         2.110776   -1.081193    0.535294
| 26> H         4.918970    0.074407   -0.331400
| 27> H         4.592107   -0.589837    1.266929
| 28> H         4.505433    1.151836    0.994246
| 29> *
| 30>
| 31> $new_job
| 32> ! ri-mp2 aug-cc-pvtz aug-cc-pvtz/c tightscf
| 33> %pal nprocs 16 end
| 34> %maxcore 3800
| 35> %base "TZ_P-F_4_AB"
| 36>
| 37> *xyz 0 1
| 38> F        -1.962533   -1.753092   -0.395738
| 39> H         0.380241    1.753014   -1.397105
| 40> H         2.736194    1.959588   -0.769306
| 41> P        -1.609740   -0.296440   -0.994970
| 42> C        -2.260894    0.779103    0.391843
| 43> C         0.137241   -0.185868   -0.501379
| 44> C         2.838483    0.050806    0.199622
| 45> C        -2.931474    0.147787    1.572557
| 46> H        -2.245897   -0.549553    2.056821
| 47> H        -3.792682   -0.436027    1.243556
| 48> C         0.861179    0.949282   -0.854069
| 49> O        -2.114612    1.965769    0.253575
| 50> C         4.290420    0.177160    0.555362
| 51> C         2.188988    1.065290   -0.497141
| 52> H         0.227905   -2.095216    0.468827
| 53> H         2.594847   -1.883854    1.077798
| 54> H        -3.243606    0.920149    2.271810
| 55> C         0.773995   -1.203405    0.193816
| 56> C         2.110776   -1.081193    0.535294
| 57> H         4.918970    0.074407   -0.331400
| 58> H         4.592107   -0.589837    1.266929
| 59> H         4.505433    1.151836    0.994246
| 60> *
| 61>
| 62> $new_job
| 63> ! ri-mp2 aug-cc-pvqz aug-cc-pvqz/c tightscf
| 64> %pal nprocs 16 end
| 65> %maxcore 3800
| 66> %base "QZ_P-F_4_AB"
| 67>
| 68> *xyz 0 1
| 69> F        -1.962533   -1.753092   -0.395738
| 70> H         0.380241    1.753014   -1.397105
| 71> H         2.736194    1.959588   -0.769306
| 72> P        -1.609740   -0.296440   -0.994970
| 73> C        -2.260894    0.779103    0.391843
| 74> C         0.137241   -0.185868   -0.501379
| 75> C         2.838483    0.050806    0.199622
| 76> C        -2.931474    0.147787    1.572557
| 77> H        -2.245897   -0.549553    2.056821
| 78> H        -3.792682   -0.436027    1.243556
| 79> C         0.861179    0.949282   -0.854069
| 80> O        -2.114612    1.965769    0.253575
| 81> C         4.290420    0.177160    0.555362
| 82> C         2.188988    1.065290   -0.497141
| 83> H         0.227905   -2.095216    0.468827
| 84> H         2.594847   -1.883854    1.077798
| 85> H        -3.243606    0.920149    2.271810
| 86> C         0.773995   -1.203405    0.193816
| 87> C         2.110776   -1.081193    0.535294
| 88> H         4.918970    0.074407   -0.331400
| 89> H         4.592107   -0.589837    1.266929
| 90> H         4.505433    1.151836    0.994246
| 91> *
| 92>
| 93>
| 94>
| 95>
| 96>                          ****END OF INPUT****
 Total Charge           Charge          ....    0
 Multiplicity           Mult            ....    1
 Number of Electrons    NEL             ....   96
MP2 TOTAL ENERGY:     -863.515030012 Eh
FINAL SINGLE POINT ENERGY      -863.515030011857
MP2 TOTAL ENERGY:     -864.013880809 Eh
FINAL SINGLE POINT ENERGY      -864.013880808775

CARTESIAN COORDINATES (ANGSTROEM)
---------------------------------
  F     -1.962533   -1.753092   -0.395738
  H      0.380241    1.753014   -1.397105
  H      2.736194    1.959588   -0.769306
  P     -1.609740   -0.296440   -0.994970
  C     -2.260894    0.779103    0.391843
  C      0.137241   -0.185868   -0.501379
  C      2.838483    0.050806    0.199622
  C     -2.931474    0.147787    1.572557
  H     -2.245897   -0.549553    2.056821
  H     -3.792682   -0.436027    1.243556
  C      0.861179    0.949282   -0.854069
  O     -2.114612    1.965769    0.253575
  C      4.290420    0.177160    0.555362
  C      2.188988    1.065290   -0.497141
  H      0.227905   -2.095216    0.468827
  H      2.594847   -1.883854    1.077798
  H     -3.243606    0.920149    2.271810
  C      0.773995   -1.203405    0.193816
  C      2.110776   -1.081193    0.535294
  H      4.918970    0.074407   -0.331400
  H      4.592107   -0.589837    1.266929
  H      4.505433    1.151836    0.994246

 Multiplicity           Mult            ....    1
 Number of Electrons    NEL             ....   96
 Basis Dimension        Dim             .... 1424

ORBITAL ENERGIES
----------------

  NO   OCC          E(Eh)            E(eV)
   0   2.0000     -80.009444     -2177.1677
   1   2.0000     -26.303146      -715.7450
   2   2.0000     -20.561248      -559.5000
   3   2.0000     -11.338195      -308.5280
   4   2.0000     -11.250615      -306.1448
   5   2.0000     -11.246697      -306.0382
   6   2.0000     -11.245666      -306.0101
   7   2.0000     -11.244897      -305.9892
   8   2.0000     -11.239638      -305.8461
   9   2.0000     -11.236313      -305.7556
  10   2.0000     -11.236073      -305.7491
  11   2.0000     -11.229864      -305.5801
  12   2.0000      -7.544580      -205.2985
  13   2.0000      -5.438895      -147.9999
  14   2.0000      -5.437389      -147.9589
  15   2.0000      -5.436484      -147.9342
  16   2.0000      -1.610379       -43.8206
  17   2.0000      -1.406365       -38.2691
  18   2.0000      -1.172456       -31.9042
  19   2.0000      -1.066790       -29.0288
  20   2.0000      -1.027981       -27.9728
  21   2.0000      -1.025437       -27.9036
  22   2.0000      -0.958175       -26.0733
  23   2.0000      -0.884655       -24.0727
  24   2.0000      -0.842854       -22.9352
  25   2.0000      -0.801949       -21.8221
  26   2.0000      -0.757946       -20.6248
  27   2.0000      -0.717597       -19.5268
  28   2.0000      -0.700079       -19.0501
  29   2.0000      -0.684766       -18.6334
  30   2.0000      -0.656933       -17.8760
  31   2.0000      -0.646880       -17.6025
  32   2.0000      -0.639466       -17.4008
  33   2.0000      -0.626207       -17.0400
  34   2.0000      -0.609862       -16.5952
  35   2.0000      -0.596027       -16.2187
  36   2.0000      -0.587967       -15.9994
  37   2.0000      -0.585522       -15.9329
  38   2.0000      -0.551567       -15.0089
  39   2.0000      -0.549697       -14.9580
  40   2.0000      -0.525005       -14.2861
  41   2.0000      -0.510495       -13.8913
  42   2.0000      -0.500822       -13.6280
  43   2.0000      -0.497160       -13.5284
  44   2.0000      -0.422994       -11.5103
  45   2.0000      -0.389034       -10.5862
  46   2.0000      -0.349247        -9.5035
  47   2.0000      -0.323338        -8.7985
  48   0.0000       0.021541         0.5862
  49   0.0000       0.026636         0.7248
  50   0.0000       0.030821         0.8387
  51   0.0000       0.034945         0.9509
  52   0.0000       0.038463         1.0466

MULLIKEN ATOMIC CHARGES
-----------------------
   0 F :   -0.780714
   1 H :    0.312216
   2 H :    0.250079
   3 P :    1.195775
   4 C :    0.643017
   5 C :   -0.368817
   6 C :    0.452950
   7 C :   -1.006237
   8 H :    0.252763
   9 H :    0.298704
  10 C :   -0.244587
  11 O :   -0.865623
  12 C :   -0.847740
  13 C :   -0.295967
  14 H :    0.317385
  15 H :    0.178426
  16 H :    0.366094
  17 C :   -0.252261
  18 C :   -0.337570
  19 H :    0.276886
  20 H :    0.227461
  21 H :    0.227761
Sum of atomic charges:   -0.0000000

LOEWDIN ATOMIC CHARGES
----------------------
   0 F :    0.338977
   1 H :   -0.331189
   2 H :   -0.310303
   3 P :    0.406298
   4 C :   -0.832803
   5 C :   -0.297106
   6 C :   -0.075153
   7 C :    0.825006
   8 H :   -0.312579
   9 H :   -0.310493
  10 C :    0.247241
  11 O :    0.647645
  12 C :    0.911466
  13 C :    0.351390
  14 H :   -0.363896
  15 H :   -0.318306
  16 H :   -0.318631
  17 C :    0.260872
  18 C :    0.351992
  19 H :   -0.277370
  20 H :   -0.305596
  21 H :   -0.287462

  Mayer bond orders larger than 0.100000
B(  0-F ,  3-P ) :   0.4241 B(  0-F ,  5-C ) :  -0.1774 B(  1-H ,  5-C ) :  -0.1553
B(  1-H , 10-C ) :   0.9710 B(  1-H , 13-C ) :  -0.1433 B(  2-H ,  6-C ) :  -0.1015
B(  2-H , 10-C ) :  -0.1366 B(  2-H , 13-C ) :   1.0615 B(  3-P ,  4-C ) :   0.6879
B(  3-P ,  5-C ) :   0.8612 B(  3-P , 10-C ) :  -0.1491 B(  4-C ,  7-C ) :   0.9867
B(  4-C , 11-O ) :   1.2007 B(  5-C , 10-C ) :   0.9229 B(  5-C , 13-C ) :  -0.2006
B(  5-C , 14-H ) :  -0.1301 B(  5-C , 17-C ) :   0.7484 B(  5-C , 18-C ) :  -0.2169
B(  6-C , 10-C ) :  -0.1172 B(  6-C , 12-C ) :   0.6532 B(  6-C , 13-C ) :   0.9598
B(  6-C , 17-C ) :  -0.1910 B(  6-C , 18-C ) :   1.0417 B(  6-C , 19-H ) :  -0.1071
B(  6-C , 20-H ) :  -0.1110 B(  6-C , 21-H ) :  -0.1074 B(  7-C ,  8-H ) :   0.9355
B(  7-C ,  9-H ) :   0.9195 B(  7-C , 11-O ) :   0.1130 B(  7-C , 16-H ) :   0.9124
B( 10-C , 13-C ) :   1.2755 B( 10-C , 18-C ) :   0.1644 B( 12-C , 19-H ) :   0.9913
B( 12-C , 20-H ) :   1.0469 B( 12-C , 21-H ) :   1.0309 B( 13-C , 17-C ) :   0.1365
B( 13-C , 18-C ) :  -0.1253 B( 14-H , 17-C ) :   0.9665 B( 14-H , 18-C ) :  -0.1299
B( 15-H , 17-C ) :  -0.1722 B( 15-H , 18-C ) :   1.1264 B( 17-C , 18-C ) :   1.2598

MP2 TOTAL ENERGY:     -864.174403472 Eh
FINAL SINGLE POINT ENERGY      -864.174403472105

DIPOLE MOMENT
-------------
                                X             Y             Z
Electronic contribution:    -13.13258      -2.83311      -7.50722
Nuclear contribution   :     13.81602       2.29998       8.05241
                        -----------------------------------------
Total Dipole Moment    :      0.68344      -0.53313       0.54518
                        -----------------------------------------
Magnitude (a.u.)       :      1.02398
Magnitude (Debye)      :      2.60276

Rotational constants in cm-1:     0.054125     0.016047     0.014654
Rotational constants in MHz :  1622.613756   481.083416   439.312083

                             ****ORCA TERMINATED NORMALLY****
TOTAL RUN TIME: 0 days 1 hours 16 minutes 6 seconds 71 msec
