                         Program Version 5.0.4 -  RELEASE  -
|  1> ! ri-mp2 aug-cc-pvdz aug-cc-pvdz/c tightscf
|  2> %pal nprocs 16 end
|  3> %maxcore 3800
|  4> %base "DZ_Si-Si_154_AB"
|  5> %scf
|  6> STABPerform true
|  7> STABRestartUHFifUnstable true
|  8> end
|  9>
| 10> *xyz 0 1
| 11> Si        -1.051758   -1.261434   -0.501411
| 12> Si         1.059424   -1.209089    0.506033
| 13> B         2.105135    0.475227   -0.002293
| 14> H         1.811193   -2.448674    0.185163
| 15> H         0.830012   -1.223358    1.977349
| 16> O         1.473450    1.655206   -0.175509
| 17> C         3.658567    0.436283   -0.193800
| 18> H         3.919416   -0.236249   -1.016708
| 19> H         4.154773    0.022047    0.688216
| 20> H         4.077842    1.421123   -0.404016
| 21> B        -2.093953    0.413908   -0.014998
| 22> H        -1.826006   -2.475182   -0.139151
| 23> H        -0.892592   -1.278075   -1.980339
| 24> O        -1.339342    1.551404    0.100050
| 25> C        -3.637194    0.461855    0.227395
| 26> H        -4.174350    0.057267   -0.634176
| 27> H        -4.031732    1.459861    0.438683
| 28> H        -3.899639   -0.190724    1.065026
| 29> H         0.508454    1.645307   -0.070459
| 30> H        -1.841717    2.346598    0.314264
| 31> *
| 32>
| 33> $new_job
| 34> ! ri-mp2 aug-cc-pvtz aug-cc-pvtz/c tightscf
| 35> %pal nprocs 16 end
| 36> %maxcore 3800
| 37> %base "TZ_Si-Si_154_AB"
| 38>
| 39> *xyz 0 1
| 40> Si        -1.051758   -1.261434   -0.501411
| 41> Si         1.059424   -1.209089    0.506033
| 42> B         2.105135    0.475227   -0.002293
| 43> H         1.811193   -2.448674    0.185163
| 44> H         0.830012   -1.223358    1.977349
| 45> O         1.473450    1.655206   -0.175509
| 46> C         3.658567    0.436283   -0.193800
| 47> H         3.919416   -0.236249   -1.016708
| 48> H         4.154773    0.022047    0.688216
| 49> H         4.077842    1.421123   -0.404016
| 50> B        -2.093953    0.413908   -0.014998
| 51> H        -1.826006   -2.475182   -0.139151
| 52> H        -0.892592   -1.278075   -1.980339
| 53> O        -1.339342    1.551404    0.100050
| 54> C        -3.637194    0.461855    0.227395
| 55> H        -4.174350    0.057267   -0.634176
| 56> H        -4.031732    1.459861    0.438683
| 57> H        -3.899639   -0.190724    1.065026
| 58> H         0.508454    1.645307   -0.070459
| 59> H        -1.841717    2.346598    0.314264
| 60> *
| 61>
| 62> $new_job
| 63> ! ri-mp2 aug-cc-pvqz aug-cc-pvqz/c tightscf
| 64> %pal nprocs 16 end
| 65> %maxcore 3800
| 66> %base "QZ_Si-Si_154_AB"
| 67>
| 68> *xyz 0 1
| 69> Si        -1.051758   -1.261434   -0.501411
| 70> Si         1.059424   -1.209089    0.506033
| 71> B         2.105135    0.475227   -0.002293
| 72> H         1.811193   -2.448674    0.185163
| 73> H         0.830012   -1.223358    1.977349
| 74> O         1.473450    1.655206   -0.175509
| 75> C         3.658567    0.436283   -0.193800
| 76> H         3.919416   -0.236249   -1.016708
| 77> H         4.154773    0.022047    0.688216
| 78> H         4.077842    1.421123   -0.404016
| 79> B        -2.093953    0.413908   -0.014998
| 80> H        -1.826006   -2.475182   -0.139151
| 81> H        -0.892592   -1.278075   -1.980339
| 82> O        -1.339342    1.551404    0.100050
| 83> C        -3.637194    0.461855    0.227395
| 84> H        -4.174350    0.057267   -0.634176
| 85> H        -4.031732    1.459861    0.438683
| 86> H        -3.899639   -0.190724    1.065026
| 87> H         0.508454    1.645307   -0.070459
| 88> H        -1.841717    2.346598    0.314264
| 89> *
| 90>
| 91>
| 92>
| 93>
| 94>                          ****END OF INPUT****
 Total Charge           Charge          ....    0
 Multiplicity           Mult            ....    1
 Number of Electrons    NEL             ....   78
MP2 TOTAL ENERGY:     -860.909349626 Eh
FINAL SINGLE POINT ENERGY      -860.909349626397
MP2 TOTAL ENERGY:     -861.234605467 Eh
FINAL SINGLE POINT ENERGY      -861.234605466613

CARTESIAN COORDINATES (ANGSTROEM)
---------------------------------
  Si    -1.051758   -1.261434   -0.501411
  Si     1.059424   -1.209089    0.506033
  B      2.105135    0.475227   -0.002293
  H      1.811193   -2.448674    0.185163
  H      0.830012   -1.223358    1.977349
  O      1.473450    1.655206   -0.175509
  C      3.658567    0.436283   -0.193800
  H      3.919416   -0.236249   -1.016708
  H      4.154773    0.022047    0.688216
  H      4.077842    1.421123   -0.404016
  B     -2.093953    0.413908   -0.014998
  H     -1.826006   -2.475182   -0.139151
  H     -0.892592   -1.278075   -1.980339
  O     -1.339342    1.551404    0.100050
  C     -3.637194    0.461855    0.227395
  H     -4.174350    0.057267   -0.634176
  H     -4.031732    1.459861    0.438683
  H     -3.899639   -0.190724    1.065026
  H      0.508454    1.645307   -0.070459
  H     -1.841717    2.346598    0.314264

 Multiplicity           Mult            ....    1
 Number of Electrons    NEL             ....   78
 Basis Dimension        Dim             .... 1200

ORBITAL ENERGIES
----------------

  NO   OCC          E(Eh)            E(eV)
   0   2.0000     -68.744367     -1870.6293
   1   2.0000     -68.739212     -1870.4891
   2   2.0000     -20.601134      -560.5854
   3   2.0000     -20.552823      -559.2708
   4   2.0000     -11.210661      -305.0576
   5   2.0000     -11.180911      -304.2481
   6   2.0000      -7.632125      -207.6807
   7   2.0000      -7.604353      -206.9250
   8   2.0000      -6.097049      -165.9091
   9   2.0000      -6.091791      -165.7661
  10   2.0000      -4.203142      -114.3733
  11   2.0000      -4.203059      -114.3710
  12   2.0000      -4.202797      -114.3639
  13   2.0000      -4.197896      -114.2306
  14   2.0000      -4.197838      -114.2290
  15   2.0000      -4.197275      -114.2137
  16   2.0000      -1.397059       -38.0159
  17   2.0000      -1.349898       -36.7326
  18   2.0000      -0.967227       -26.3196
  19   2.0000      -0.939032       -25.5524
  20   2.0000      -0.793525       -21.5929
  21   2.0000      -0.746626       -20.3167
  22   2.0000      -0.732550       -19.9337
  23   2.0000      -0.667791       -18.1715
  24   2.0000      -0.648719       -17.6526
  25   2.0000      -0.589380       -16.0378
  26   2.0000      -0.586434       -15.9577
  27   2.0000      -0.575223       -15.6526
  28   2.0000      -0.551307       -15.0018
  29   2.0000      -0.545987       -14.8571
  30   2.0000      -0.542671       -14.7668
  31   2.0000      -0.522439       -14.2163
  32   2.0000      -0.507191       -13.8014
  33   2.0000      -0.505016       -13.7422
  34   2.0000      -0.476387       -12.9631
  35   2.0000      -0.466198       -12.6859
  36   2.0000      -0.421862       -11.4795
  37   2.0000      -0.387910       -10.5556
  38   2.0000      -0.356525        -9.7015
  39   0.0000       0.016538         0.4500
  40   0.0000       0.028891         0.7862
  41   0.0000       0.029797         0.8108
  42   0.0000       0.031607         0.8601
  43   0.0000       0.038761         1.0548

MULLIKEN ATOMIC CHARGES
-----------------------
   0 Si:    0.592566
   1 Si:    0.574720
   2 B :    0.898673
   3 H :   -0.287497
   4 H :   -0.202439
   5 O :   -1.332842
   6 C :   -1.032853
   7 H :    0.310329
   8 H :    0.321330
   9 H :    0.325027
  10 B :    0.884247
  11 H :   -0.296721
  12 H :   -0.215035
  13 O :   -1.107037
  14 C :   -1.012718
  15 H :    0.331092
  16 H :    0.272074
  17 H :    0.327488
  18 H :    0.341152
  19 H :    0.308444
Sum of atomic charges:    0.0000000

LOEWDIN ATOMIC CHARGES
----------------------
   0 Si:    0.874207
   1 Si:    0.876049
   2 B :   -0.877038
   3 H :   -0.275721
   4 H :   -0.271928
   5 O :    1.339668
   6 C :    0.982789
   7 H :   -0.319062
   8 H :   -0.319835
   9 H :   -0.319089
  10 B :   -0.843998
  11 H :   -0.274985
  12 H :   -0.270921
  13 O :    1.372627
  14 C :    1.009089
  15 H :   -0.310705
  16 H :   -0.310763
  17 H :   -0.310208
  18 H :   -1.028235
  19 H :   -0.721942

  Mayer bond orders larger than 0.100000
B(  0-Si,  1-Si) :   0.7418 B(  0-Si, 10-B ) :   0.7745 B(  0-Si, 11-H ) :   0.7581
B(  0-Si, 12-H ) :   0.7819 B(  1-Si,  2-B ) :   0.7689 B(  1-Si,  3-H ) :   0.7041
B(  1-Si,  4-H ) :   0.7745 B(  2-B ,  5-O ) :   0.3304 B(  2-B ,  6-C ) :   0.9478
B(  5-O , 13-O ) :  -0.1074 B(  5-O , 18-H ) :   0.9909 B(  6-C ,  7-H ) :   0.9047
B(  6-C ,  8-H ) :   0.9289 B(  6-C ,  9-H ) :   0.8479 B( 10-B , 13-O ) :   0.1977
B( 10-B , 14-C ) :   0.9190 B( 13-O , 18-H ) :   0.1149 B( 13-O , 19-H ) :   1.0384
B( 14-C , 15-H ) :   0.9171 B( 14-C , 16-H ) :   0.8731 B( 14-C , 17-H ) :   0.8896

MP2 TOTAL ENERGY:     -861.338129003 Eh
FINAL SINGLE POINT ENERGY      -861.338129003115

DIPOLE MOMENT
-------------
                                X             Y             Z
Electronic contribution:      0.17445       1.90918      -0.22803
Nuclear contribution   :     -1.37717      -1.42164       0.43805
                        -----------------------------------------
Total Dipole Moment    :     -1.20272       0.48754       0.21002
                        -----------------------------------------
Magnitude (a.u.)       :      1.31467
Magnitude (Debye)      :      3.34161

Rotational constants in cm-1:     0.072485     0.024818     0.019672
Rotational constants in MHz :  2173.043848   744.037940   589.764053

                             ****ORCA TERMINATED NORMALLY****
TOTAL RUN TIME: 0 days 2 hours 56 minutes 52 seconds 34 msec
