                         Program Version 5.0.4 -  RELEASE  -
|  1> ! ri-mp2 aug-cc-pvdz aug-cc-pvdz/c tightscf
|  2> %pal nprocs 16 end
|  3> %maxcore 3800
|  4> %base "DZ_Si-Si_86_AB"
|  5>
|  6> *xyz 0 1
|  7> Si        -1.171620    1.454242    0.031711
|  8> Si         1.171619    1.454242   -0.031711
|  9> C         1.792210   -0.160265   -0.824862
| 10> H         1.711544    1.660831    1.330528
| 11> H         1.654144    2.554898   -0.896321
| 12> N         1.920476   -1.314077   -0.329063
| 13> C        -1.792210   -0.160266    0.824862
| 14> H        -1.711545    1.660830   -1.330528
| 15> H        -1.654146    2.554897    0.896321
| 16> N        -1.920476   -1.314078    0.329063
| 17> C         1.599057   -1.560496    1.054130
| 18> H         2.470251   -1.998854    1.542335
| 19> H         0.797836   -2.298839    1.101430
| 20> H         1.287568   -0.674382    1.617590
| 21> C        -1.599055   -1.560496   -1.054130
| 22> H        -0.797834   -2.298839   -1.101429
| 23> H        -1.287567   -0.674383   -1.617590
| 24> H        -2.470249   -1.998855   -1.542336
| 25> H         2.050430   -0.079926   -1.885436
| 26> H        -2.050432   -0.079927    1.885436
| 27> *
| 28>
| 29> $new_job
| 30> ! ri-mp2 aug-cc-pvtz aug-cc-pvtz/c tightscf
| 31> %pal nprocs 16 end
| 32> %maxcore 3800
| 33> %base "TZ_Si-Si_86_AB"
| 34>
| 35> *xyz 0 1
| 36> Si        -1.171620    1.454242    0.031711
| 37> Si         1.171619    1.454242   -0.031711
| 38> C         1.792210   -0.160265   -0.824862
| 39> H         1.711544    1.660831    1.330528
| 40> H         1.654144    2.554898   -0.896321
| 41> N         1.920476   -1.314077   -0.329063
| 42> C        -1.792210   -0.160266    0.824862
| 43> H        -1.711545    1.660830   -1.330528
| 44> H        -1.654146    2.554897    0.896321
| 45> N        -1.920476   -1.314078    0.329063
| 46> C         1.599057   -1.560496    1.054130
| 47> H         2.470251   -1.998854    1.542335
| 48> H         0.797836   -2.298839    1.101430
| 49> H         1.287568   -0.674382    1.617590
| 50> C        -1.599055   -1.560496   -1.054130
| 51> H        -0.797834   -2.298839   -1.101429
| 52> H        -1.287567   -0.674383   -1.617590
| 53> H        -2.470249   -1.998855   -1.542336
| 54> H         2.050430   -0.079926   -1.885436
| 55> H        -2.050432   -0.079927    1.885436
| 56> *
| 57>
| 58> $new_job
| 59> ! ri-mp2 aug-cc-pvqz aug-cc-pvqz/c tightscf
| 60> %pal nprocs 16 end
| 61> %maxcore 3800
| 62> %base "QZ_Si-Si_86_AB"
| 63>
| 64> *xyz 0 1
| 65> Si        -1.171620    1.454242    0.031711
| 66> Si         1.171619    1.454242   -0.031711
| 67> C         1.792210   -0.160265   -0.824862
| 68> H         1.711544    1.660831    1.330528
| 69> H         1.654144    2.554898   -0.896321
| 70> N         1.920476   -1.314077   -0.329063
| 71> C        -1.792210   -0.160266    0.824862
| 72> H        -1.711545    1.660830   -1.330528
| 73> H        -1.654146    2.554897    0.896321
| 74> N        -1.920476   -1.314078    0.329063
| 75> C         1.599057   -1.560496    1.054130
| 76> H         2.470251   -1.998854    1.542335
| 77> H         0.797836   -2.298839    1.101430
| 78> H         1.287568   -0.674382    1.617590
| 79> C        -1.599055   -1.560496   -1.054130
| 80> H        -0.797834   -2.298839   -1.101429
| 81> H        -1.287567   -0.674383   -1.617590
| 82> H        -2.470249   -1.998855   -1.542336
| 83> H         2.050430   -0.079926   -1.885436
| 84> H        -2.050432   -0.079927    1.885436
| 85> *
| 86>
| 87>
| 88>
| 89>
| 90>                          ****END OF INPUT****
 Total Charge           Charge          ....    0
 Multiplicity           Mult            ....    1
 Number of Electrons    NEL             ....   78
MP2 TOTAL ENERGY:     -846.310657223 Eh
FINAL SINGLE POINT ENERGY      -846.310657223023
MP2 TOTAL ENERGY:     -846.621252756 Eh
FINAL SINGLE POINT ENERGY      -846.621252755765

CARTESIAN COORDINATES (ANGSTROEM)
---------------------------------
  Si    -1.171620    1.454242    0.031711
  Si     1.171619    1.454242   -0.031711
  C      1.792210   -0.160265   -0.824862
  H      1.711544    1.660831    1.330528
  H      1.654144    2.554898   -0.896321
  N      1.920476   -1.314077   -0.329063
  C     -1.792210   -0.160266    0.824862
  H     -1.711545    1.660830   -1.330528
  H     -1.654146    2.554897    0.896321
  N     -1.920476   -1.314078    0.329063
  C      1.599057   -1.560496    1.054130
  H      2.470251   -1.998854    1.542335
  H      0.797836   -2.298839    1.101430
  H      1.287568   -0.674382    1.617590
  C     -1.599055   -1.560496   -1.054130
  H     -0.797834   -2.298839   -1.101429
  H     -1.287567   -0.674383   -1.617590
  H     -2.470249   -1.998855   -1.542336
  H      2.050430   -0.079926   -1.885436
  H     -2.050432   -0.079927    1.885436

 Multiplicity           Mult            ....    1
 Number of Electrons    NEL             ....   78
 Basis Dimension        Dim             .... 1200

ORBITAL ENERGIES
----------------

  NO   OCC          E(Eh)            E(eV)
   0   2.0000     -68.778430     -1871.5562
   1   2.0000     -68.778429     -1871.5562
   2   2.0000     -15.569707      -423.6733
   3   2.0000     -15.569707      -423.6733
   4   2.0000     -11.263711      -306.5012
   5   2.0000     -11.263711      -306.5011
   6   2.0000     -11.248375      -306.0839
   7   2.0000     -11.248375      -306.0838
   8   2.0000      -6.129412      -166.7898
   9   2.0000      -6.129264      -166.7857
  10   2.0000      -4.235796      -115.2619
  11   2.0000      -4.235580      -115.2560
  12   2.0000      -4.235515      -115.2542
  13   2.0000      -4.235248      -115.2470
  14   2.0000      -4.235211      -115.2460
  15   2.0000      -4.235051      -115.2416
  16   2.0000      -1.233582       -33.5675
  17   2.0000      -1.231024       -33.4979
  18   2.0000      -0.966098       -26.2889
  19   2.0000      -0.965588       -26.2750
  20   2.0000      -0.819799       -22.3079
  21   2.0000      -0.792979       -21.5781
  22   2.0000      -0.720206       -19.5978
  23   2.0000      -0.677366       -18.4321
  24   2.0000      -0.648398       -17.6438
  25   2.0000      -0.648127       -17.6364
  26   2.0000      -0.607854       -16.5405
  27   2.0000      -0.589318       -16.0362
  28   2.0000      -0.585174       -15.9234
  29   2.0000      -0.571821       -15.5600
  30   2.0000      -0.523974       -14.2581
  31   2.0000      -0.522665       -14.2224
  32   2.0000      -0.498326       -13.5601
  33   2.0000      -0.484033       -13.1712
  34   2.0000      -0.457010       -12.4359
  35   2.0000      -0.430406       -11.7119
  36   2.0000      -0.396538       -10.7904
  37   2.0000      -0.380914       -10.3652
  38   2.0000      -0.368884       -10.0378
  39   0.0000       0.021047         0.5727
  40   0.0000       0.027482         0.7478
  41   0.0000       0.029996         0.8162
  42   0.0000       0.032422         0.8823
  43   0.0000       0.041798         1.1374

MULLIKEN ATOMIC CHARGES
-----------------------
   0 Si:    1.131039
   1 Si:    1.131039
   2 C :   -0.384713
   3 H :   -0.224972
   4 H :   -0.540145
   5 N :   -0.612207
   6 C :   -0.384713
   7 H :   -0.224972
   8 H :   -0.540146
   9 N :   -0.612206
  10 C :   -0.829276
  11 H :    0.461385
  12 H :    0.315547
  13 H :    0.247123
  14 C :   -0.829276
  15 H :    0.315548
  16 H :    0.247124
  17 H :    0.461384
  18 H :    0.436219
  19 H :    0.436219
Sum of atomic charges:   -0.0000000

LOEWDIN ATOMIC CHARGES
----------------------
   0 Si:    0.756552
   1 Si:    0.756551
   2 C :    0.048315
   3 H :   -0.248147
   4 H :   -0.268930
   5 N :    0.536804
   6 C :    0.048314
   7 H :   -0.248147
   8 H :   -0.268930
   9 N :    0.536804
  10 C :    0.623958
  11 H :   -0.305215
  12 H :   -0.324011
  13 H :   -0.381882
  14 C :    0.623957
  15 H :   -0.324011
  16 H :   -0.381883
  17 H :   -0.305214
  18 H :   -0.437443
  19 H :   -0.437443

  Mayer bond orders larger than 0.100000
B(  0-Si,  1-Si) :   0.9220 B(  0-Si,  6-C ) :   0.7072 B(  0-Si,  7-H ) :   0.8452
B(  0-Si,  8-H ) :   0.5478 B(  1-Si,  2-C ) :   0.7072 B(  1-Si,  3-H ) :   0.8452
B(  1-Si,  4-H ) :   0.5478 B(  2-C ,  5-N ) :   1.6623 B(  2-C , 18-H ) :   0.8372
B(  5-N , 10-C ) :   0.8821 B(  6-C ,  9-N ) :   1.6623 B(  6-C , 19-H ) :   0.8372
B(  9-N , 14-C ) :   0.8821 B( 10-C , 11-H ) :   0.7985 B( 10-C , 12-H ) :   0.8918
B( 10-C , 13-H ) :   0.9304 B( 14-C , 15-H ) :   0.8918 B( 14-C , 16-H ) :   0.9304
B( 14-C , 17-H ) :   0.7985

MP2 TOTAL ENERGY:     -846.719513990 Eh
FINAL SINGLE POINT ENERGY      -846.719513990078

DIPOLE MOMENT
-------------
                                X             Y             Z
Electronic contribution:      0.00000       2.65065      -0.00000
Nuclear contribution   :      0.00000      -1.89250      -0.00000
                        -----------------------------------------
Total Dipole Moment    :      0.00000       0.75815      -0.00000
                        -----------------------------------------
Magnitude (a.u.)       :      0.75815
Magnitude (Debye)      :      1.92706

Rotational constants in cm-1:     0.050257     0.039494     0.027162
Rotational constants in MHz :  1506.676637  1184.013994   814.282977

                             ****ORCA TERMINATED NORMALLY****
TOTAL RUN TIME: 0 days 0 hours 49 minutes 19 seconds 841 msec
