                         Program Version 5.0.4 -  RELEASE  -
|  1> ! ri-mp2 aug-cc-pvdz aug-cc-pvdz/c tightscf
|  2> %pal nprocs 16 end
|  3> %maxcore 3800
|  4> %base "DZ_P-F_30_AB"
|  5> %scf
|  6> STABPerform true
|  7> STABRestartUHFifUnstable true
|  8> end
|  9>
| 10> *xyz 0 1
| 11> F         2.785400    1.394479    0.320546
| 12> F        -0.365058   -1.853478    1.130015
| 13> O         2.544417   -1.370291   -0.883007
| 14> O         0.240937    2.234386   -0.811551
| 15> P         1.558511    0.538741    0.842696
| 16> P        -0.179866   -1.616247   -0.461112
| 17> C         1.597428   -0.943611   -0.299889
| 18> C         0.209300    1.149779   -0.308426
| 19> C        -0.874709    0.115028   -0.580249
| 20> H        -1.165038    0.259584   -1.626544
| 21> C        -2.137703    0.316420    0.294797
| 22> H        -1.840864    0.191058    1.338548
| 23> C        -2.715765    1.715476    0.120604
| 24> H        -3.593077    1.830412    0.757582
| 25> H        -3.025702    1.881550   -0.912752
| 26> H        -2.005394    2.497152    0.380050
| 27> C        -3.193771   -0.734376   -0.030421
| 28> H        -4.088491   -0.561053    0.567115
| 29> H        -3.480774   -0.681137   -1.082600
| 30> H        -2.854926   -1.749034    0.177752
| 31> *
| 32>
| 33> $new_job
| 34> ! ri-mp2 aug-cc-pvtz aug-cc-pvtz/c tightscf
| 35> %pal nprocs 16 end
| 36> %maxcore 3800
| 37> %base "TZ_P-F_30_AB"
| 38>
| 39> *xyz 0 1
| 40> F         2.785400    1.394479    0.320546
| 41> F        -0.365058   -1.853478    1.130015
| 42> O         2.544417   -1.370291   -0.883007
| 43> O         0.240937    2.234386   -0.811551
| 44> P         1.558511    0.538741    0.842696
| 45> P        -0.179866   -1.616247   -0.461112
| 46> C         1.597428   -0.943611   -0.299889
| 47> C         0.209300    1.149779   -0.308426
| 48> C        -0.874709    0.115028   -0.580249
| 49> H        -1.165038    0.259584   -1.626544
| 50> C        -2.137703    0.316420    0.294797
| 51> H        -1.840864    0.191058    1.338548
| 52> C        -2.715765    1.715476    0.120604
| 53> H        -3.593077    1.830412    0.757582
| 54> H        -3.025702    1.881550   -0.912752
| 55> H        -2.005394    2.497152    0.380050
| 56> C        -3.193771   -0.734376   -0.030421
| 57> H        -4.088491   -0.561053    0.567115
| 58> H        -3.480774   -0.681137   -1.082600
| 59> H        -2.854926   -1.749034    0.177752
| 60> *
| 61>
| 62> $new_job
| 63> ! ri-mp2 aug-cc-pvqz aug-cc-pvqz/c tightscf
| 64> %pal nprocs 16 end
| 65> %maxcore 3800
| 66> %base "QZ_P-F_30_AB"
| 67>
| 68> *xyz 0 1
| 69> F         2.785400    1.394479    0.320546
| 70> F        -0.365058   -1.853478    1.130015
| 71> O         2.544417   -1.370291   -0.883007
| 72> O         0.240937    2.234386   -0.811551
| 73> P         1.558511    0.538741    0.842696
| 74> P        -0.179866   -1.616247   -0.461112
| 75> C         1.597428   -0.943611   -0.299889
| 76> C         0.209300    1.149779   -0.308426
| 77> C        -0.874709    0.115028   -0.580249
| 78> H        -1.165038    0.259584   -1.626544
| 79> C        -2.137703    0.316420    0.294797
| 80> H        -1.840864    0.191058    1.338548
| 81> C        -2.715765    1.715476    0.120604
| 82> H        -3.593077    1.830412    0.757582
| 83> H        -3.025702    1.881550   -0.912752
| 84> H        -2.005394    2.497152    0.380050
| 85> C        -3.193771   -0.734376   -0.030421
| 86> H        -4.088491   -0.561053    0.567115
| 87> H        -3.480774   -0.681137   -1.082600
| 88> H        -2.854926   -1.749034    0.177752
| 89> *
| 90>
| 91>
| 92>
| 93>
| 94>                          ****END OF INPUT****
 Total Charge           Charge          ....    0
 Multiplicity           Mult            ....    1
 Number of Electrons    NEL             ....  108
MP2 TOTAL ENERGY:    -1263.909806508 Eh
FINAL SINGLE POINT ENERGY     -1263.909806507994
MP2 TOTAL ENERGY:    -1264.494668381 Eh
FINAL SINGLE POINT ENERGY     -1264.494668381006

CARTESIAN COORDINATES (ANGSTROEM)
---------------------------------
  F      2.785400    1.394479    0.320546
  F     -0.365058   -1.853478    1.130015
  O      2.544417   -1.370291   -0.883007
  O      0.240937    2.234386   -0.811551
  P      1.558511    0.538741    0.842696
  P     -0.179866   -1.616247   -0.461112
  C      1.597428   -0.943611   -0.299889
  C      0.209300    1.149779   -0.308426
  C     -0.874709    0.115028   -0.580249
  H     -1.165038    0.259584   -1.626544
  C     -2.137703    0.316420    0.294797
  H     -1.840864    0.191058    1.338548
  C     -2.715765    1.715476    0.120604
  H     -3.593077    1.830412    0.757582
  H     -3.025702    1.881550   -0.912752
  H     -2.005394    2.497152    0.380050
  C     -3.193771   -0.734376   -0.030421
  H     -4.088491   -0.561053    0.567115
  H     -3.480774   -0.681137   -1.082600
  H     -2.854926   -1.749034    0.177752

 Multiplicity           Mult            ....    1
 Number of Electrons    NEL             ....  108
 Basis Dimension        Dim             .... 1336

ORBITAL ENERGIES
----------------

  NO   OCC          E(Eh)            E(eV)
   0   2.0000     -80.039756     -2177.9925
   1   2.0000     -80.036319     -2177.8990
   2   2.0000     -26.325722      -716.3593
   3   2.0000     -26.323806      -716.3072
   4   2.0000     -20.606881      -560.7417
   5   2.0000     -20.588890      -560.2522
   6   2.0000     -11.368101      -309.3417
   7   2.0000     -11.366260      -309.2916
   8   2.0000     -11.279649      -306.9349
   9   2.0000     -11.270063      -306.6740
  10   2.0000     -11.239043      -305.8299
  11   2.0000     -11.230136      -305.5875
  12   2.0000      -7.574402      -206.1100
  13   2.0000      -7.572086      -206.0469
  14   2.0000      -5.468082      -148.7941
  15   2.0000      -5.466881      -148.7614
  16   2.0000      -5.466145      -148.7414
  17   2.0000      -5.465935      -148.7357
  18   2.0000      -5.464846      -148.7060
  19   2.0000      -5.464272      -148.6904
  20   2.0000      -1.632952       -44.4349
  21   2.0000      -1.632215       -44.4148
  22   2.0000      -1.445800       -39.3422
  23   2.0000      -1.434923       -39.0462
  24   2.0000      -1.139378       -31.0041
  25   2.0000      -1.048916       -28.5424
  26   2.0000      -0.958901       -26.0930
  27   2.0000      -0.949997       -25.8507
  28   2.0000      -0.897316       -24.4172
  29   2.0000      -0.824091       -22.4246
  30   2.0000      -0.791723       -21.5439
  31   2.0000      -0.779473       -21.2106
  32   2.0000      -0.728143       -19.8138
  33   2.0000      -0.725183       -19.7332
  34   2.0000      -0.719262       -19.5721
  35   2.0000      -0.711331       -19.3563
  36   2.0000      -0.691617       -18.8199
  37   2.0000      -0.685124       -18.6432
  38   2.0000      -0.674026       -18.3412
  39   2.0000      -0.646439       -17.5905
  40   2.0000      -0.633809       -17.2468
  41   2.0000      -0.628807       -17.1107
  42   2.0000      -0.585694       -15.9375
  43   2.0000      -0.578580       -15.7440
  44   2.0000      -0.575755       -15.6671
  45   2.0000      -0.560194       -15.2437
  46   2.0000      -0.549032       -14.9399
  47   2.0000      -0.522229       -14.2106
  48   2.0000      -0.516092       -14.0436
  49   2.0000      -0.502316       -13.6687
  50   2.0000      -0.491752       -13.3812
  51   2.0000      -0.436822       -11.8865
  52   2.0000      -0.393347       -10.7035
  53   2.0000      -0.368814       -10.0359
  54   0.0000       0.020554         0.5593
  55   0.0000       0.026944         0.7332
  56   0.0000       0.027845         0.7577
  57   0.0000       0.032622         0.8877
  58   0.0000       0.036142         0.9835

MULLIKEN ATOMIC CHARGES
-----------------------
   0 F :   -0.732659
   1 F :   -0.762247
   2 O :   -0.832675
   3 O :   -0.943789
   4 P :    1.152683
   5 P :    1.144990
   6 C :    0.203318
   7 C :    0.796546
   8 C :   -0.456226
   9 H :    0.284187
  10 C :    0.353704
  11 H :    0.243405
  12 C :   -0.954233
  13 H :    0.282084
  14 H :    0.185132
  15 H :    0.252631
  16 C :   -0.974303
  17 H :    0.282104
  18 H :    0.185890
  19 H :    0.289458
Sum of atomic charges:    0.0000000

LOEWDIN ATOMIC CHARGES
----------------------
   0 F :    0.311780
   1 F :    0.344676
   2 O :    0.545582
   3 O :    0.693505
   4 P :    0.341968
   5 P :    0.401436
   6 C :   -1.014108
   7 C :   -0.925423
   8 C :   -0.153639
   9 H :   -0.379655
  10 C :    0.012702
  11 H :   -0.302777
  12 C :    0.920253
  13 H :   -0.270402
  14 H :   -0.265798
  15 H :   -0.307263
  16 C :    0.897094
  17 H :   -0.267400
  18 H :   -0.267230
  19 H :   -0.315299

  Mayer bond orders larger than 0.100000
B(  0-F ,  4-P ) :   0.5801 B(  0-F ,  6-C ) :  -0.1026 B(  0-F ,  7-C ) :  -0.1148
B(  1-F ,  5-P ) :   0.3954 B(  1-F ,  8-C ) :  -0.1123 B(  2-O ,  6-C ) :   1.2499
B(  3-O ,  7-C ) :   0.8408 B(  3-O ,  8-C ) :   0.3361 B(  4-P ,  6-C ) :   0.8188
B(  4-P ,  7-C ) :   0.7697 B(  5-P ,  6-C ) :   0.9169 B(  5-P ,  8-C ) :   0.5820
B(  6-C ,  8-C ) :  -0.1085 B(  7-C ,  8-C ) :   1.0927 B(  8-C ,  9-H ) :   0.8588
B(  8-C , 10-C ) :   0.7288 B( 10-C , 11-H ) :   0.9344 B( 10-C , 12-C ) :   0.5234
B( 10-C , 13-H ) :  -0.1018 B( 10-C , 14-H ) :  -0.1010 B( 10-C , 16-C ) :   0.6179
B( 12-C , 13-H ) :   1.0187 B( 12-C , 14-H ) :   1.0363 B( 12-C , 15-H ) :   0.9925
B( 12-C , 16-C ) :   0.1482 B( 16-C , 17-H ) :   0.9967 B( 16-C , 18-H ) :   1.0222
B( 16-C , 19-H ) :   0.9757

MP2 TOTAL ENERGY:    -1264.685475700 Eh
FINAL SINGLE POINT ENERGY     -1264.685475699565

DIPOLE MOMENT
-------------
                                X             Y             Z
Electronic contribution:     22.97984      -5.25649       2.47045
Nuclear contribution   :    -24.59329       4.93675      -2.12665
                        -----------------------------------------
Total Dipole Moment    :     -1.61344      -0.31974       0.34380
                        -----------------------------------------
Magnitude (a.u.)       :      1.68037
Magnitude (Debye)      :      4.27115

Rotational constants in cm-1:     0.035044     0.021183     0.015449
Rotational constants in MHz :  1050.578584   635.048081   463.150886

                             ****ORCA TERMINATED NORMALLY****
TOTAL RUN TIME: 0 days 6 hours 27 minutes 42 seconds 283 msec
