                         Program Version 5.0.4 -  RELEASE  -
|  1> ! ri-mp2 aug-cc-pvdz aug-cc-pvdz/c tightscf
|  2> %pal nprocs 16 end
|  3> %maxcore 3800
|  4> %base "DZ_P-N_3_AB"
|  5> %scf
|  6> STABPerform true
|  7> STABRestartUHFifUnstable true
|  8> end
|  9>
| 10> *xyz 0 1
| 11> P        -0.576968    1.106237   -0.224527
| 12> N        -1.257958   -0.467652    0.258831
| 13> O        -2.512244   -0.158022    0.830304
| 14> O        -1.493834   -1.198764   -0.916187
| 15> C         1.142015    0.561936   -0.554892
| 16> C         1.872446   -0.169272    0.563111
| 17> H         1.684460    1.468462   -0.842733
| 18> H         1.098030   -0.056492   -1.454968
| 19> C         3.274346   -0.596788    0.155425
| 20> H         1.288197   -1.040482    0.859734
| 21> H         1.924972    0.480101    1.440774
| 22> H         3.243478   -1.275127   -0.699062
| 23> H         3.782916   -1.112675    0.970454
| 24> H         3.884861    0.263301   -0.126847
| 25> H        -2.649736   -0.859413    1.478084
| 26> H        -2.091262   -0.662336   -1.467332
| 27> H        -0.389895    1.553697    1.103181
| 28> *
| 29>
| 30> $new_job
| 31> ! ri-mp2 aug-cc-pvtz aug-cc-pvtz/c tightscf
| 32> %pal nprocs 16 end
| 33> %maxcore 3800
| 34> %base "TZ_P-N_3_AB"
| 35>
| 36> *xyz 0 1
| 37> P        -0.576968    1.106237   -0.224527
| 38> N        -1.257958   -0.467652    0.258831
| 39> O        -2.512244   -0.158022    0.830304
| 40> O        -1.493834   -1.198764   -0.916187
| 41> C         1.142015    0.561936   -0.554892
| 42> C         1.872446   -0.169272    0.563111
| 43> H         1.684460    1.468462   -0.842733
| 44> H         1.098030   -0.056492   -1.454968
| 45> C         3.274346   -0.596788    0.155425
| 46> H         1.288197   -1.040482    0.859734
| 47> H         1.924972    0.480101    1.440774
| 48> H         3.243478   -1.275127   -0.699062
| 49> H         3.782916   -1.112675    0.970454
| 50> H         3.884861    0.263301   -0.126847
| 51> H        -2.649736   -0.859413    1.478084
| 52> H        -2.091262   -0.662336   -1.467332
| 53> H        -0.389895    1.553697    1.103181
| 54> *
| 55>
| 56> $new_job
| 57> ! ri-mp2 aug-cc-pvqz aug-cc-pvqz/c tightscf
| 58> %pal nprocs 16 end
| 59> %maxcore 3800
| 60> %base "QZ_P-N_3_AB"
| 61>
| 62> *xyz 0 1
| 63> P        -0.576968    1.106237   -0.224527
| 64> N        -1.257958   -0.467652    0.258831
| 65> O        -2.512244   -0.158022    0.830304
| 66> O        -1.493834   -1.198764   -0.916187
| 67> C         1.142015    0.561936   -0.554892
| 68> C         1.872446   -0.169272    0.563111
| 69> H         1.684460    1.468462   -0.842733
| 70> H         1.098030   -0.056492   -1.454968
| 71> C         3.274346   -0.596788    0.155425
| 72> H         1.288197   -1.040482    0.859734
| 73> H         1.924972    0.480101    1.440774
| 74> H         3.243478   -1.275127   -0.699062
| 75> H         3.782916   -1.112675    0.970454
| 76> H         3.884861    0.263301   -0.126847
| 77> H        -2.649736   -0.859413    1.478084
| 78> H        -2.091262   -0.662336   -1.467332
| 79> H        -0.389895    1.553697    1.103181
| 80> *
| 81>
| 82>
| 83>
| 84>
| 85>                          ****END OF INPUT****
 Total Charge           Charge          ....    0
 Multiplicity           Mult            ....    1
 Number of Electrons    NEL             ....   66
MP2 TOTAL ENERGY:     -665.429810141 Eh
FINAL SINGLE POINT ENERGY      -665.429810140854
MP2 TOTAL ENERGY:     -665.765002000 Eh
FINAL SINGLE POINT ENERGY      -665.765001999623

CARTESIAN COORDINATES (ANGSTROEM)
---------------------------------
  P     -0.576968    1.106237   -0.224527
  N     -1.257958   -0.467652    0.258831
  O     -2.512244   -0.158022    0.830304
  O     -1.493834   -1.198764   -0.916187
  C      1.142015    0.561936   -0.554892
  C      1.872446   -0.169272    0.563111
  H      1.684460    1.468462   -0.842733
  H      1.098030   -0.056492   -1.454968
  C      3.274346   -0.596788    0.155425
  H      1.288197   -1.040482    0.859734
  H      1.924972    0.480101    1.440774
  H      3.243478   -1.275127   -0.699062
  H      3.782916   -1.112675    0.970454
  H      3.884861    0.263301   -0.126847
  H     -2.649736   -0.859413    1.478084
  H     -2.091262   -0.662336   -1.467332
  H     -0.389895    1.553697    1.103181

 Multiplicity           Mult            ....    1
 Number of Electrons    NEL             ....   66
 Basis Dimension        Dim             .... 1024

ORBITAL ENERGIES
----------------

  NO   OCC          E(Eh)            E(eV)
   0   2.0000     -79.961635     -2175.8667
   1   2.0000     -20.603474      -560.6490
   2   2.0000     -20.599997      -560.5544
   3   2.0000     -15.667224      -426.3268
   4   2.0000     -11.230302      -305.5921
   5   2.0000     -11.222436      -305.3780
   6   2.0000     -11.213001      -305.1213
   7   2.0000      -7.502216      -204.1457
   8   2.0000      -5.396097      -146.8353
   9   2.0000      -5.395748      -146.8258
  10   2.0000      -5.394463      -146.7908
  11   2.0000      -1.474028       -40.1103
  12   2.0000      -1.352528       -36.8042
  13   2.0000      -1.077376       -29.3169
  14   2.0000      -1.031993       -28.0820
  15   2.0000      -0.945492       -25.7282
  16   2.0000      -0.828892       -22.5553
  17   2.0000      -0.790554       -21.5121
  18   2.0000      -0.744299       -20.2534
  19   2.0000      -0.661861       -18.0102
  20   2.0000      -0.654375       -17.8065
  21   2.0000      -0.632271       -17.2050
  22   2.0000      -0.622448       -16.9377
  23   2.0000      -0.585638       -15.9360
  24   2.0000      -0.548164       -14.9163
  25   2.0000      -0.541486       -14.7346
  26   2.0000      -0.504749       -13.7349
  27   2.0000      -0.493176       -13.4200
  28   2.0000      -0.487937       -13.2774
  29   2.0000      -0.478579       -13.0228
  30   2.0000      -0.466190       -12.6857
  31   2.0000      -0.435722       -11.8566
  32   2.0000      -0.351521        -9.5654
  33   0.0000       0.025917         0.7052
  34   0.0000       0.031531         0.8580
  35   0.0000       0.034190         0.9303
  36   0.0000       0.035495         0.9659
  37   0.0000       0.047207         1.2846

MULLIKEN ATOMIC CHARGES
-----------------------
   0 P :    0.600995
   1 N :    0.228527
   2 O :   -0.761412
   3 O :   -0.657004
   4 C :   -0.597760
   5 C :   -0.363290
   6 H :    0.307979
   7 H :    0.227951
   8 C :   -0.833373
   9 H :    0.276994
  10 H :    0.235621
  11 H :    0.221893
  12 H :    0.270105
  13 H :    0.226541
  14 H :    0.369872
  15 H :    0.353132
  16 H :   -0.106769
Sum of atomic charges:    0.0000000

LOEWDIN ATOMIC CHARGES
----------------------
   0 P :    1.063895
   1 N :   -0.395665
   2 O :    0.986273
   3 O :    0.984965
   4 C :    0.319961
   5 C :    0.429869
   6 H :   -0.354526
   7 H :   -0.356282
   8 C :    0.922300
   9 H :   -0.306261
  10 H :   -0.291078
  11 H :   -0.284513
  12 H :   -0.282557
  13 H :   -0.285470
  14 H :   -0.845907
  15 H :   -0.888767
  16 H :   -0.416237

  Mayer bond orders larger than 0.100000
B(  0-P ,  1-N ) :   0.7758 B(  0-P ,  4-C ) :   0.7897 B(  0-P , 16-H ) :   0.9774
B(  1-N ,  2-O ) :   0.4843 B(  1-N ,  3-O ) :   0.6445 B(  2-O , 14-H ) :   0.8904
B(  3-O , 15-H ) :   0.8362 B(  4-C ,  5-C ) :   0.9026 B(  4-C ,  6-H ) :   0.8918
B(  4-C ,  7-H ) :   0.9343 B(  5-C ,  8-C ) :   0.9127 B(  5-C ,  9-H ) :   0.8672
B(  5-C , 10-H ) :   0.8824 B(  8-C , 11-H ) :   0.9589 B(  8-C , 12-H ) :   0.9905
B(  8-C , 13-H ) :   0.9682

MP2 TOTAL ENERGY:     -665.871833710 Eh
FINAL SINGLE POINT ENERGY      -665.871833710207

DIPOLE MOMENT
-------------
                                X             Y             Z
Electronic contribution:    -12.00344       2.44597      -1.26073
Nuclear contribution   :     12.34067      -2.33486       1.48560
                        -----------------------------------------
Total Dipole Moment    :      0.33723       0.11111       0.22487
                        -----------------------------------------
Magnitude (a.u.)       :      0.42028
Magnitude (Debye)      :      1.06827

Rotational constants in cm-1:     0.129396     0.036382     0.033805
Rotational constants in MHz :  3879.181675  1090.691040  1013.450815

                             ****ORCA TERMINATED NORMALLY****
TOTAL RUN TIME: 0 days 2 hours 5 minutes 18 seconds 57 msec
