                         Program Version 5.0.4 -  RELEASE  -
|  1> ! ri-mp2 aug-cc-pvdz aug-cc-pvdz/c tightscf
|  2> %pal nprocs 16 end
|  3> %maxcore 3800
|  4> %base "DZ_B-P_11_AB"
|  5>
|  6> *xyz 0 1
|  7> C        -2.032266   -1.523954    0.085035
|  8> C        -3.330860   -1.115934    0.157348
|  9> C        -3.647812    0.256091    0.134373
| 10> C        -2.656950    1.187855    0.039720
| 11> C        -1.303254    0.795950   -0.036310
| 12> C        -0.984160   -0.581917   -0.014202
| 13> H        -1.786097   -2.578281    0.102472
| 14> H        -4.125338   -1.846379    0.232847
| 15> H        -4.682347    0.566874    0.192504
| 16> H        -2.895642    2.243897    0.021774
| 17> C         0.370857   -0.974797   -0.087389
| 18> C         1.373835   -0.051106   -0.178796
| 19> C        -0.249013    1.732538   -0.137034
| 20> C         1.046321    1.326436   -0.212518
| 21> H        -0.489357    2.788155   -0.158092
| 22> H         1.837157    2.060504   -0.296227
| 23> B         4.218460    0.285738    0.853534
| 24> H         0.599083   -2.033698   -0.062579
| 25> P         3.105952   -0.544757   -0.336642
| 26> H         4.009591    1.409539    1.177131
| 27> H         5.236567   -0.254355    1.141697
| 28> H         3.094621   -1.920557   -0.070924
| 29> *
| 30>
| 31> $new_job
| 32> ! ri-mp2 aug-cc-pvtz aug-cc-pvtz/c tightscf
| 33> %pal nprocs 16 end
| 34> %maxcore 3800
| 35> %base "TZ_B-P_11_AB"
| 36>
| 37> *xyz 0 1
| 38> C        -2.032266   -1.523954    0.085035
| 39> C        -3.330860   -1.115934    0.157348
| 40> C        -3.647812    0.256091    0.134373
| 41> C        -2.656950    1.187855    0.039720
| 42> C        -1.303254    0.795950   -0.036310
| 43> C        -0.984160   -0.581917   -0.014202
| 44> H        -1.786097   -2.578281    0.102472
| 45> H        -4.125338   -1.846379    0.232847
| 46> H        -4.682347    0.566874    0.192504
| 47> H        -2.895642    2.243897    0.021774
| 48> C         0.370857   -0.974797   -0.087389
| 49> C         1.373835   -0.051106   -0.178796
| 50> C        -0.249013    1.732538   -0.137034
| 51> C         1.046321    1.326436   -0.212518
| 52> H        -0.489357    2.788155   -0.158092
| 53> H         1.837157    2.060504   -0.296227
| 54> B         4.218460    0.285738    0.853534
| 55> H         0.599083   -2.033698   -0.062579
| 56> P         3.105952   -0.544757   -0.336642
| 57> H         4.009591    1.409539    1.177131
| 58> H         5.236567   -0.254355    1.141697
| 59> H         3.094621   -1.920557   -0.070924
| 60> *
| 61>
| 62> $new_job
| 63> ! ri-mp2 aug-cc-pvqz aug-cc-pvqz/c tightscf
| 64> %pal nprocs 16 end
| 65> %maxcore 3800
| 66> %base "QZ_B-P_11_AB"
| 67>
| 68> *xyz 0 1
| 69> C        -2.032266   -1.523954    0.085035
| 70> C        -3.330860   -1.115934    0.157348
| 71> C        -3.647812    0.256091    0.134373
| 72> C        -2.656950    1.187855    0.039720
| 73> C        -1.303254    0.795950   -0.036310
| 74> C        -0.984160   -0.581917   -0.014202
| 75> H        -1.786097   -2.578281    0.102472
| 76> H        -4.125338   -1.846379    0.232847
| 77> H        -4.682347    0.566874    0.192504
| 78> H        -2.895642    2.243897    0.021774
| 79> C         0.370857   -0.974797   -0.087389
| 80> C         1.373835   -0.051106   -0.178796
| 81> C        -0.249013    1.732538   -0.137034
| 82> C         1.046321    1.326436   -0.212518
| 83> H        -0.489357    2.788155   -0.158092
| 84> H         1.837157    2.060504   -0.296227
| 85> B         4.218460    0.285738    0.853534
| 86> H         0.599083   -2.033698   -0.062579
| 87> P         3.105952   -0.544757   -0.336642
| 88> H         4.009591    1.409539    1.177131
| 89> H         5.236567   -0.254355    1.141697
| 90> H         3.094621   -1.920557   -0.070924
| 91> *
| 92>
| 93>
| 94>
| 95>
| 96>                          ****END OF INPUT****
 Total Charge           Charge          ....    0
 Multiplicity           Mult            ....    1
 Number of Electrons    NEL             ....   90
MP2 TOTAL ENERGY:     -751.514050631 Eh
FINAL SINGLE POINT ENERGY      -751.514050630971
MP2 TOTAL ENERGY:     -751.912676332 Eh
FINAL SINGLE POINT ENERGY      -751.912676332184

CARTESIAN COORDINATES (ANGSTROEM)
---------------------------------
  C     -2.032266   -1.523954    0.085035
  C     -3.330860   -1.115934    0.157348
  C     -3.647812    0.256091    0.134373
  C     -2.656950    1.187855    0.039720
  C     -1.303254    0.795950   -0.036310
  C     -0.984160   -0.581917   -0.014202
  H     -1.786097   -2.578281    0.102472
  H     -4.125338   -1.846379    0.232847
  H     -4.682347    0.566874    0.192504
  H     -2.895642    2.243897    0.021774
  C      0.370857   -0.974797   -0.087389
  C      1.373835   -0.051106   -0.178796
  C     -0.249013    1.732538   -0.137034
  C      1.046321    1.326436   -0.212518
  H     -0.489357    2.788155   -0.158092
  H      1.837157    2.060504   -0.296227
  B      4.218460    0.285738    0.853534
  H      0.599083   -2.033698   -0.062579
  P      3.105952   -0.544757   -0.336642
  H      4.009591    1.409539    1.177131
  H      5.236567   -0.254355    1.141697
  H      3.094621   -1.920557   -0.070924

 Multiplicity           Mult            ....    1
 Number of Electrons    NEL             ....   90
 Basis Dimension        Dim             .... 1424

ORBITAL ENERGIES
----------------

  NO   OCC          E(Eh)            E(eV)
   0   2.0000     -79.932119     -2175.0635
   1   2.0000     -11.252939      -306.2080
   2   2.0000     -11.246105      -306.0221
   3   2.0000     -11.244099      -305.9675
   4   2.0000     -11.241044      -305.8844
   5   2.0000     -11.240844      -305.8789
   6   2.0000     -11.239567      -305.8442
   7   2.0000     -11.238154      -305.8057
   8   2.0000     -11.237854      -305.7975
   9   2.0000     -11.236652      -305.7648
  10   2.0000     -11.235765      -305.7407
  11   2.0000      -7.608344      -207.0336
  12   2.0000      -7.479006      -203.5141
  13   2.0000      -5.373769      -146.2277
  14   2.0000      -5.373549      -146.2217
  15   2.0000      -5.373179      -146.2116
  16   2.0000      -1.188404       -32.3381
  17   2.0000      -1.122873       -30.5549
  18   2.0000      -1.060065       -28.8458
  19   2.0000      -1.022711       -27.8294
  20   2.0000      -0.993211       -27.0267
  21   2.0000      -0.890140       -24.2219
  22   2.0000      -0.854733       -23.2585
  23   2.0000      -0.821922       -22.3656
  24   2.0000      -0.814950       -22.1759
  25   2.0000      -0.710586       -19.3360
  26   2.0000      -0.706998       -19.2384
  27   2.0000      -0.682810       -18.5802
  28   2.0000      -0.655675       -17.8418
  29   2.0000      -0.629357       -17.1257
  30   2.0000      -0.611334       -16.6352
  31   2.0000      -0.595497       -16.2043
  32   2.0000      -0.587683       -15.9917
  33   2.0000      -0.556853       -15.1527
  34   2.0000      -0.546729       -14.8773
  35   2.0000      -0.528169       -14.3722
  36   2.0000      -0.509799       -13.8723
  37   2.0000      -0.490172       -13.3383
  38   2.0000      -0.481764       -13.1095
  39   2.0000      -0.473666       -12.8891
  40   2.0000      -0.458351       -12.4724
  41   2.0000      -0.398476       -10.8431
  42   2.0000      -0.365116        -9.9353
  43   2.0000      -0.312590        -8.5060
  44   2.0000      -0.287733        -7.8296
  45   0.0000       0.021501         0.5851
  46   0.0000       0.024798         0.6748
  47   0.0000       0.026570         0.7230
  48   0.0000       0.034003         0.9253
  49   0.0000       0.034603         0.9416

MULLIKEN ATOMIC CHARGES
-----------------------
   0 C :   -0.619037
   1 C :   -0.414375
   2 C :   -0.405356
   3 C :   -0.548592
   4 C :    0.797922
   5 C :    0.927397
   6 H :    0.181541
   7 H :    0.265077
   8 H :    0.270689
   9 H :    0.196388
  10 C :   -0.256736
  11 C :   -0.295542
  12 C :   -0.425906
  13 C :   -0.368034
  14 H :    0.137810
  15 H :    0.235414
  16 B :    0.187566
  17 H :    0.143520
  18 P :    0.405229
  19 H :   -0.125444
  20 H :   -0.232259
  21 H :   -0.057272
Sum of atomic charges:    0.0000000

LOEWDIN ATOMIC CHARGES
----------------------
   0 C :    0.357473
   1 C :    0.351588
   2 C :    0.351611
   3 C :    0.355016
   4 C :   -0.112297
   5 C :   -0.111397
   6 H :   -0.317601
   7 H :   -0.321457
   8 H :   -0.321968
   9 H :   -0.317772
  10 C :    0.268073
  11 C :   -0.283395
  12 C :    0.366283
  13 C :    0.261134
  14 H :   -0.313707
  15 H :   -0.343976
  16 B :    0.119900
  17 H :   -0.343537
  18 P :    1.304967
  19 H :   -0.252989
  20 H :   -0.269902
  21 H :   -0.426047

  Mayer bond orders larger than 0.100000
B(  0-C ,  1-C ) :   1.3628 B(  0-C ,  3-C ) :   0.1847 B(  0-C ,  4-C ) :  -0.3030
B(  0-C ,  5-C ) :   0.6588 B(  0-C ,  6-H ) :   1.1567 B(  0-C ,  7-H ) :  -0.1666
B(  0-C , 10-C ) :  -0.3075 B(  1-C ,  2-C ) :   1.1176 B(  1-C ,  5-C ) :  -0.3687
B(  1-C ,  7-H ) :   1.1253 B(  2-C ,  3-C ) :   1.3156 B(  2-C ,  4-C ) :  -0.3019
B(  2-C ,  8-H ) :   1.1262 B(  3-C ,  4-C ) :   0.6474 B(  3-C ,  5-C ) :  -0.3143
B(  3-C ,  8-H ) :  -0.1978 B(  3-C ,  9-H ) :   1.1043 B(  4-C ,  5-C ) :   0.9872
B(  4-C ,  9-H ) :  -0.1751 B(  4-C , 10-C ) :  -0.1854 B(  4-C , 12-C ) :   0.7341
B(  4-C , 13-C ) :  -0.2189 B(  4-C , 14-H ) :  -0.1530 B(  5-C ,  6-H ) :  -0.1928
B(  5-C , 10-C ) :   0.7469 B(  5-C , 11-C ) :  -0.5382 B(  5-C , 12-C ) :  -0.3017
B(  5-C , 17-H ) :  -0.2030 B( 10-C , 11-C ) :   0.7269 B( 10-C , 12-C ) :   0.1881
B( 10-C , 13-C ) :   0.1879 B( 10-C , 17-H ) :   1.0795 B( 10-C , 18-P ) :  -0.3909
B( 11-C , 12-C ) :  -0.2121 B( 11-C , 13-C ) :   0.8519 B( 11-C , 15-H ) :  -0.1263
B( 11-C , 16-B ) :  -0.1080 B( 11-C , 17-H ) :  -0.1182 B( 11-C , 18-P ) :   1.0312
B( 12-C , 13-C ) :   1.2034 B( 12-C , 14-H ) :   1.1983 B( 12-C , 15-H ) :  -0.1418
B( 13-C , 14-H ) :  -0.2258 B( 13-C , 15-H ) :   1.0601 B( 13-C , 18-P ) :  -0.1280
B( 16-B , 18-P ) :   1.3497 B( 16-B , 19-H ) :   0.9275 B( 16-B , 20-H ) :   0.9426
B( 18-P , 21-H ) :   0.9796

MP2 TOTAL ENERGY:     -752.039457344 Eh
FINAL SINGLE POINT ENERGY      -752.039457344015

DIPOLE MOMENT
-------------
                                X             Y             Z
Electronic contribution:      4.94688      -0.80132      -1.66052
Nuclear contribution   :     -5.46376       0.71185       1.88064
                        -----------------------------------------
Total Dipole Moment    :     -0.51688      -0.08947       0.22012
                        -----------------------------------------
Magnitude (a.u.)       :      0.56888
Magnitude (Debye)      :      1.44598

Rotational constants in cm-1:     0.082348     0.015141     0.013111
Rotational constants in MHz :  2468.730152   453.928889   393.060086

                             ****ORCA TERMINATED NORMALLY****
TOTAL RUN TIME: 0 days 1 hours 17 minutes 37 seconds 366 msec
