                         Program Version 5.0.4 -  RELEASE  -
|  1> ! ri-mp2 aug-cc-pvdz aug-cc-pvdz/c tightscf
|  2> %pal nprocs 16 end
|  3> %maxcore 3800
|  4> %base "DZ_P-N_38_AB"
|  5> %scf
|  6> STABPerform true
|  7> STABRestartUHFifUnstable true
|  8> end
|  9>
| 10> *xyz 0 1
| 11> N        -2.100152    0.552176    0.119354
| 12> C         0.636815    0.063740    0.518485
| 13> C         1.575519    0.894330   -0.310492
| 14> C         1.948655   -0.503858    0.047628
| 15> H         1.923051   -1.249297   -0.736062
| 16> H         2.722070   -0.658996    0.786179
| 17> H         2.094908    1.705667    0.179519
| 18> H         1.297222    1.094925   -1.336754
| 19> P        -0.880701   -0.562443   -0.265282
| 20> H         0.583208    0.316831    1.571374
| 21> H        -1.176019   -1.532937    0.720898
| 22> H        -2.351459    1.197736   -0.609630
| 23> H        -2.147334    0.972211    1.034503
| 24> *
| 25>
| 26> $new_job
| 27> ! ri-mp2 aug-cc-pvtz aug-cc-pvtz/c tightscf
| 28> %pal nprocs 16 end
| 29> %maxcore 3800
| 30> %base "TZ_P-N_38_AB"
| 31>
| 32> *xyz 0 1
| 33> N        -2.100152    0.552176    0.119354
| 34> C         0.636815    0.063740    0.518485
| 35> C         1.575519    0.894330   -0.310492
| 36> C         1.948655   -0.503858    0.047628
| 37> H         1.923051   -1.249297   -0.736062
| 38> H         2.722070   -0.658996    0.786179
| 39> H         2.094908    1.705667    0.179519
| 40> H         1.297222    1.094925   -1.336754
| 41> P        -0.880701   -0.562443   -0.265282
| 42> H         0.583208    0.316831    1.571374
| 43> H        -1.176019   -1.532937    0.720898
| 44> H        -2.351459    1.197736   -0.609630
| 45> H        -2.147334    0.972211    1.034503
| 46> *
| 47>
| 48> $new_job
| 49> ! ri-mp2 aug-cc-pvqz aug-cc-pvqz/c tightscf
| 50> %pal nprocs 16 end
| 51> %maxcore 3800
| 52> %base "QZ_P-N_38_AB"
| 53>
| 54> *xyz 0 1
| 55> N        -2.100152    0.552176    0.119354
| 56> C         0.636815    0.063740    0.518485
| 57> C         1.575519    0.894330   -0.310492
| 58> C         1.948655   -0.503858    0.047628
| 59> H         1.923051   -1.249297   -0.736062
| 60> H         2.722070   -0.658996    0.786179
| 61> H         2.094908    1.705667    0.179519
| 62> H         1.297222    1.094925   -1.336754
| 63> P        -0.880701   -0.562443   -0.265282
| 64> H         0.583208    0.316831    1.571374
| 65> H        -1.176019   -1.532937    0.720898
| 66> H        -2.351459    1.197736   -0.609630
| 67> H        -2.147334    0.972211    1.034503
| 68> *
| 69>
| 70>
| 71>
| 72>
| 73>                          ****END OF INPUT****
 Total Charge           Charge          ....    0
 Multiplicity           Mult            ....    1
 Number of Electrons    NEL             ....   48
MP2 TOTAL ENERGY:     -514.179933576 Eh
FINAL SINGLE POINT ENERGY      -514.179933576170
MP2 TOTAL ENERGY:     -514.391434500 Eh
FINAL SINGLE POINT ENERGY      -514.391434499532

CARTESIAN COORDINATES (ANGSTROEM)
---------------------------------
  N     -2.100152    0.552176    0.119354
  C      0.636815    0.063740    0.518485
  C      1.575519    0.894330   -0.310492
  C      1.948655   -0.503858    0.047628
  H      1.923051   -1.249297   -0.736062
  H      2.722070   -0.658996    0.786179
  H      2.094908    1.705667    0.179519
  H      1.297222    1.094925   -1.336754
  P     -0.880701   -0.562443   -0.265282
  H      0.583208    0.316831    1.571374
  H     -1.176019   -1.532937    0.720898
  H     -2.351459    1.197736   -0.609630
  H     -2.147334    0.972211    1.034503

 Multiplicity           Mult            ....    1
 Number of Electrons    NEL             ....   48
 Basis Dimension        Dim             ....  772

ORBITAL ENERGIES
----------------

  NO   OCC          E(Eh)            E(eV)
   0   2.0000     -79.946009     -2175.4415
   1   2.0000     -15.544214      -422.9796
   2   2.0000     -11.229550      -305.5716
   3   2.0000     -11.228270      -305.5368
   4   2.0000     -11.226509      -305.4888
   5   2.0000      -7.484431      -203.6617
   6   2.0000      -5.378743      -146.3630
   7   2.0000      -5.378354      -146.3524
   8   2.0000      -5.377764      -146.3364
   9   2.0000      -1.162870       -31.6433
  10   2.0000      -1.140124       -31.0243
  11   2.0000      -0.865753       -23.5583
  12   2.0000      -0.825891       -22.4736
  13   2.0000      -0.757184       -20.6040
  14   2.0000      -0.673961       -18.3394
  15   2.0000      -0.666245       -18.1295
  16   2.0000      -0.620424       -16.8826
  17   2.0000      -0.559020       -15.2117
  18   2.0000      -0.519835       -14.1454
  19   2.0000      -0.514098       -13.9893
  20   2.0000      -0.444071       -12.0838
  21   2.0000      -0.421173       -11.4607
  22   2.0000      -0.389041       -10.5863
  23   2.0000      -0.348711        -9.4889
  24   0.0000       0.023460         0.6384
  25   0.0000       0.031431         0.8553
  26   0.0000       0.033775         0.9191
  27   0.0000       0.037838         1.0296
  28   0.0000       0.048966         1.3324

MULLIKEN ATOMIC CHARGES
-----------------------
   0 N :   -0.993605
   1 C :   -0.667853
   2 C :   -0.642909
   3 C :   -0.685675
   4 H :    0.329922
   5 H :    0.370719
   6 H :    0.363899
   7 H :    0.341203
   8 P :    0.711172
   9 H :    0.441283
  10 H :   -0.119154
  11 H :    0.267535
  12 H :    0.283464
Sum of atomic charges:   -0.0000000

LOEWDIN ATOMIC CHARGES
----------------------
   0 N :    1.013180
   1 C :   -0.036568
   2 C :    0.507424
   3 C :    0.504254
   4 H :   -0.296206
   5 H :   -0.275367
   6 H :   -0.275993
   7 H :   -0.295631
   8 P :    1.105985
   9 H :   -0.332647
  10 H :   -0.414663
  11 H :   -0.616308
  12 H :   -0.587461

  Mayer bond orders larger than 0.100000
B(  0-N ,  8-P ) :   0.7682 B(  0-N , 11-H ) :   0.9557 B(  0-N , 12-H ) :   0.9199
B(  1-C ,  2-C ) :   0.9235 B(  1-C ,  3-C ) :   0.9364 B(  1-C ,  8-P ) :   0.6359
B(  1-C ,  9-H ) :   0.8048 B(  2-C ,  3-C ) :   1.0815 B(  2-C ,  6-H ) :   0.8530
B(  2-C ,  7-H ) :   0.8610 B(  3-C ,  4-H ) :   0.8672 B(  3-C ,  5-H ) :   0.8551
B(  8-P , 10-H ) :   0.9960

MP2 TOTAL ENERGY:     -514.457112389 Eh
FINAL SINGLE POINT ENERGY      -514.457112388738

DIPOLE MOMENT
-------------
                                X             Y             Z
Electronic contribution:     -3.56249      -1.81783      -1.42278
Nuclear contribution   :      3.81736       2.41367       1.88575
                        -----------------------------------------
Total Dipole Moment    :      0.25487       0.59584       0.46297
                        -----------------------------------------
Magnitude (a.u.)       :      0.79644
Magnitude (Debye)      :      2.02440

Rotational constants in cm-1:     0.324787     0.080496     0.072345
Rotational constants in MHz :  9736.863227  2413.202734  2168.862695

                             ****ORCA TERMINATED NORMALLY****
TOTAL RUN TIME: 0 days 0 hours 58 minutes 42 seconds 725 msec
