                         Program Version 5.0.4 -  RELEASE  -
|  1> ! ri-mp2 aug-cc-pvdz aug-cc-pvdz/c tightscf
|  2> %pal nprocs 16 end
|  3> %maxcore 3800
|  4> %base "DZ_Si-Cl_4_AB"
|  5> %scf
|  6> STABPerform true
|  7> STABRestartUHFifUnstable true
|  8> end
|  9>
| 10> *xyz 0 1
| 11> Si        -2.170745    0.798299    0.224933
| 12> C        -0.434579    1.034177   -0.393783
| 13> Cl        -2.789738   -1.136706   -0.151876
| 14> C         0.607565    0.130326    0.262525
| 15> H        -0.176446    2.086837   -0.231300
| 16> H        -0.433518    0.887273   -1.477786
| 17> C         2.016381    0.362987   -0.262801
| 18> H         0.333903   -0.916255    0.105298
| 19> H         0.598815    0.285052    1.345900
| 20> C         3.057167   -0.536275    0.386298
| 21> H         2.292975    1.410796   -0.105728
| 22> H         2.026293    0.206144   -1.346344
| 23> C         4.461591   -0.299220   -0.145937
| 24> H         2.776428   -1.581612    0.228880
| 25> H         3.043548   -0.378597    1.468690
| 26> H         4.509626   -0.481572   -1.221186
| 27> H         5.187840   -0.955225    0.334681
| 28> H         4.778481    0.730990    0.027478
| 29> H        -3.116722    1.701380   -0.458776
| 30> H        -2.253995    1.000634    1.685203
| 31> *
| 32>
| 33> $new_job
| 34> ! ri-mp2 aug-cc-pvtz aug-cc-pvtz/c tightscf
| 35> %pal nprocs 16 end
| 36> %maxcore 3800
| 37> %base "TZ_Si-Cl_4_AB"
| 38>
| 39> *xyz 0 1
| 40> Si        -2.170745    0.798299    0.224933
| 41> C        -0.434579    1.034177   -0.393783
| 42> Cl        -2.789738   -1.136706   -0.151876
| 43> C         0.607565    0.130326    0.262525
| 44> H        -0.176446    2.086837   -0.231300
| 45> H        -0.433518    0.887273   -1.477786
| 46> C         2.016381    0.362987   -0.262801
| 47> H         0.333903   -0.916255    0.105298
| 48> H         0.598815    0.285052    1.345900
| 49> C         3.057167   -0.536275    0.386298
| 50> H         2.292975    1.410796   -0.105728
| 51> H         2.026293    0.206144   -1.346344
| 52> C         4.461591   -0.299220   -0.145937
| 53> H         2.776428   -1.581612    0.228880
| 54> H         3.043548   -0.378597    1.468690
| 55> H         4.509626   -0.481572   -1.221186
| 56> H         5.187840   -0.955225    0.334681
| 57> H         4.778481    0.730990    0.027478
| 58> H        -3.116722    1.701380   -0.458776
| 59> H        -2.253995    1.000634    1.685203
| 60> *
| 61>
| 62> $new_job
| 63> ! ri-mp2 aug-cc-pvqz aug-cc-pvqz/c tightscf
| 64> %pal nprocs 16 end
| 65> %maxcore 3800
| 66> %base "QZ_Si-Cl_4_AB"
| 67>
| 68> *xyz 0 1
| 69> Si        -2.170745    0.798299    0.224933
| 70> C        -0.434579    1.034177   -0.393783
| 71> Cl        -2.789738   -1.136706   -0.151876
| 72> C         0.607565    0.130326    0.262525
| 73> H        -0.176446    2.086837   -0.231300
| 74> H        -0.433518    0.887273   -1.477786
| 75> C         2.016381    0.362987   -0.262801
| 76> H         0.333903   -0.916255    0.105298
| 77> H         0.598815    0.285052    1.345900
| 78> C         3.057167   -0.536275    0.386298
| 79> H         2.292975    1.410796   -0.105728
| 80> H         2.026293    0.206144   -1.346344
| 81> C         4.461591   -0.299220   -0.145937
| 82> H         2.776428   -1.581612    0.228880
| 83> H         3.043548   -0.378597    1.468690
| 84> H         4.509626   -0.481572   -1.221186
| 85> H         5.187840   -0.955225    0.334681
| 86> H         4.778481    0.730990    0.027478
| 87> H        -3.116722    1.701380   -0.458776
| 88> H        -2.253995    1.000634    1.685203
| 89> *
| 90>
| 91>
| 92>
| 93>
| 94>                          ****END OF INPUT****
 Total Charge           Charge          ....    0
 Multiplicity           Mult            ....    1
 Number of Electrons    NEL             ....   74
MP2 TOTAL ENERGY:     -946.433129926 Eh
FINAL SINGLE POINT ENERGY      -946.433129925608
MP2 TOTAL ENERGY:     -946.726619494 Eh
FINAL SINGLE POINT ENERGY      -946.726619493566

CARTESIAN COORDINATES (ANGSTROEM)
---------------------------------
  Si    -2.170745    0.798299    0.224933
  C     -0.434579    1.034177   -0.393783
  Cl    -2.789738   -1.136706   -0.151876
  C      0.607565    0.130326    0.262525
  H     -0.176446    2.086837   -0.231300
  H     -0.433518    0.887273   -1.477786
  C      2.016381    0.362987   -0.262801
  H      0.333903   -0.916255    0.105298
  H      0.598815    0.285052    1.345900
  C      3.057167   -0.536275    0.386298
  H      2.292975    1.410796   -0.105728
  H      2.026293    0.206144   -1.346344
  C      4.461591   -0.299220   -0.145937
  H      2.776428   -1.581612    0.228880
  H      3.043548   -0.378597    1.468690
  H      4.509626   -0.481572   -1.221186
  H      5.187840   -0.955225    0.334681
  H      4.778481    0.730990    0.027478
  H     -3.116722    1.701380   -0.458776
  H     -2.253995    1.000634    1.685203

 Multiplicity           Mult            ....    1
 Number of Electrons    NEL             ....   74
 Basis Dimension        Dim             .... 1166

ORBITAL ENERGIES
----------------

  NO   OCC          E(Eh)            E(eV)
   0   2.0000    -104.818209     -2852.2485
   1   2.0000     -68.803430     -1872.2365
   2   2.0000     -11.226713      -305.4944
   3   2.0000     -11.218003      -305.2574
   4   2.0000     -11.217713      -305.2495
   5   2.0000     -11.216959      -305.2290
   6   2.0000     -11.210928      -305.0649
   7   2.0000     -10.545739      -286.9642
   8   2.0000      -8.012547      -218.0325
   9   2.0000      -8.011476      -218.0033
  10   2.0000      -8.011468      -218.0031
  11   2.0000      -6.149583      -167.3387
  12   2.0000      -4.256614      -115.8283
  13   2.0000      -4.255560      -115.7997
  14   2.0000      -4.255118      -115.7876
  15   2.0000      -1.094597       -29.7855
  16   2.0000      -1.084984       -29.5239
  17   2.0000      -1.024489       -27.8778
  18   2.0000      -0.929159       -25.2837
  19   2.0000      -0.831869       -22.6363
  20   2.0000      -0.794199       -21.6113
  21   2.0000      -0.698302       -19.0018
  22   2.0000      -0.657627       -17.8949
  23   2.0000      -0.606924       -16.5152
  24   2.0000      -0.594890       -16.1878
  25   2.0000      -0.571057       -15.5393
  26   2.0000      -0.544309       -14.8114
  27   2.0000      -0.526794       -14.3348
  28   2.0000      -0.520532       -14.1644
  29   2.0000      -0.510181       -13.8827
  30   2.0000      -0.495317       -13.4782
  31   2.0000      -0.485209       -13.2032
  32   2.0000      -0.469231       -12.7684
  33   2.0000      -0.468136       -12.7386
  34   2.0000      -0.464115       -12.6292
  35   2.0000      -0.441282       -12.0079
  36   2.0000      -0.419466       -11.4142
  37   0.0000       0.023771         0.6469
  38   0.0000       0.027793         0.7563
  39   0.0000       0.031462         0.8561
  40   0.0000       0.033195         0.9033
  41   0.0000       0.041226         1.1218

MULLIKEN ATOMIC CHARGES
-----------------------
   0 Si:    1.213413
   1 C :   -0.622413
   2 Cl:   -0.681644
   3 C :   -0.347552
   4 H :    0.226997
   5 H :    0.196844
   6 C :   -0.291198
   7 H :    0.277623
   8 H :    0.273923
   9 C :   -0.477984
  10 H :    0.242718
  11 H :    0.224975
  12 C :   -0.898760
  13 H :    0.229827
  14 H :    0.230921
  15 H :    0.226875
  16 H :    0.267514
  17 H :    0.225717
  18 H :   -0.291107
  19 H :   -0.226690
Sum of atomic charges:    0.0000000

LOEWDIN ATOMIC CHARGES
----------------------
   0 Si:    0.021258
   1 C :    0.452123
   2 Cl:    0.901886
   3 C :    0.424226
   4 H :   -0.336508
   5 H :   -0.341890
   6 C :    0.501611
   7 H :   -0.297176
   8 H :   -0.280231
   9 C :    0.505316
  10 H :   -0.266958
  11 H :   -0.266790
  12 C :    0.926253
  13 H :   -0.270076
  14 H :   -0.270331
  15 H :   -0.283927
  16 H :   -0.282871
  17 H :   -0.284095
  18 H :   -0.281115
  19 H :   -0.270706

  Mayer bond orders larger than 0.100000
B(  0-Si,  1-C ) :   0.9530 B(  0-Si,  2-Cl) :   0.3501 B(  0-Si, 18-H ) :   0.8149
B(  0-Si, 19-H ) :   0.8301 B(  1-C ,  3-C ) :   0.9872 B(  1-C ,  4-H ) :   0.8973
B(  1-C ,  5-H ) :   0.9288 B(  3-C ,  6-C ) :   1.0225 B(  3-C ,  7-H ) :   0.8394
B(  3-C ,  8-H ) :   0.8416 B(  6-C ,  9-C ) :   0.9412 B(  6-C , 10-H ) :   0.8496
B(  6-C , 11-H ) :   0.8699 B(  9-C , 12-C ) :   1.0245 B(  9-C , 13-H ) :   0.8775
B(  9-C , 14-H ) :   0.8772 B(  9-C , 16-H ) :  -0.1038 B( 12-C , 15-H ) :   0.9533
B( 12-C , 16-H ) :   1.0237 B( 12-C , 17-H ) :   0.9560

MP2 TOTAL ENERGY:     -946.817801187 Eh
FINAL SINGLE POINT ENERGY      -946.817801187243

DIPOLE MOMENT
-------------
                                X             Y             Z
Electronic contribution:    -23.51631      -5.09328      -0.54920
Nuclear contribution   :     24.08519       5.66656       0.56795
                        -----------------------------------------
Total Dipole Moment    :      0.56888       0.57328       0.01875
                        -----------------------------------------
Magnitude (a.u.)       :      0.80785
Magnitude (Debye)      :      2.05338

Rotational constants in cm-1:     0.141219     0.017841     0.016478
Rotational constants in MHz :  4233.653632   534.869597   494.001828

                             ****ORCA TERMINATED NORMALLY****
TOTAL RUN TIME: 0 days 4 hours 54 minutes 59 seconds 752 msec
