                         Program Version 5.0.4 -  RELEASE  -
|  1> ! ri-mp2 aug-cc-pvdz aug-cc-pvdz/c tightscf
|  2> %pal nprocs 16 end
|  3> %maxcore 3800
|  4> %base "DZ_Si-F_15_AB"
|  5>
|  6> *xyz 0 1
|  7> Si         0.000000    0.447491    0.000000
|  8> F         0.000000   -0.485676    1.280918
|  9> F         0.000000   -0.485676   -1.280918
| 10> H         1.235604    1.238650    0.000000
| 11> H        -1.235604    1.238650    0.000000
| 12> *
| 13>
| 14> $new_job
| 15> ! ri-mp2 aug-cc-pvtz aug-cc-pvtz/c tightscf
| 16> %pal nprocs 16 end
| 17> %maxcore 3800
| 18> %base "TZ_Si-F_15_AB"
| 19>
| 20> *xyz 0 1
| 21> Si         0.000000    0.447491    0.000000
| 22> F         0.000000   -0.485676    1.280918
| 23> F         0.000000   -0.485676   -1.280918
| 24> H         1.235604    1.238650    0.000000
| 25> H        -1.235604    1.238650    0.000000
| 26> *
| 27>
| 28> $new_job
| 29> ! ri-mp2 aug-cc-pvqz aug-cc-pvqz/c tightscf
| 30> %pal nprocs 16 end
| 31> %maxcore 3800
| 32> %base "QZ_Si-F_15_AB"
| 33>
| 34> *xyz 0 1
| 35> Si         0.000000    0.447491    0.000000
| 36> F         0.000000   -0.485676    1.280918
| 37> F         0.000000   -0.485676   -1.280918
| 38> H         1.235604    1.238650    0.000000
| 39> H        -1.235604    1.238650    0.000000
| 40> *
| 41>
| 42>
| 43>
| 44>
| 45>                          ****END OF INPUT****
 Total Charge           Charge          ....    0
 Multiplicity           Mult            ....    1
 Number of Electrons    NEL             ....   34
MP2 TOTAL ENERGY:     -489.629745930 Eh
FINAL SINGLE POINT ENERGY      -489.629745929785
MP2 TOTAL ENERGY:     -489.846623398 Eh
FINAL SINGLE POINT ENERGY      -489.846623397641

CARTESIAN COORDINATES (ANGSTROEM)
---------------------------------
  Si     0.000000    0.447491    0.000000
  F      0.000000   -0.485676    1.280918
  F      0.000000   -0.485676   -1.280918
  H      1.235604    1.238650    0.000000
  H     -1.235604    1.238650    0.000000

 Multiplicity           Mult            ....    1
 Number of Electrons    NEL             ....   34
 Basis Dimension        Dim             ....  336

ORBITAL ENERGIES
----------------

  NO   OCC          E(Eh)            E(eV)
   0   2.0000     -68.854482     -1873.6257
   1   2.0000     -26.300749      -715.6798
   2   2.0000     -26.300741      -715.6795
   3   2.0000      -6.193877      -168.5440
   4   2.0000      -4.301990      -117.0631
   5   2.0000      -4.301278      -117.0437
   6   2.0000      -4.300350      -117.0185
   7   2.0000      -1.614896       -43.9435
   8   2.0000      -1.596572       -43.4449
   9   2.0000      -0.807496       -21.9731
  10   2.0000      -0.725597       -19.7445
  11   2.0000      -0.705993       -19.2111
  12   2.0000      -0.702157       -19.1067
  13   2.0000      -0.670180       -18.2365
  14   2.0000      -0.653380       -17.7794
  15   2.0000      -0.598033       -16.2733
  16   2.0000      -0.502039       -13.6612
  17   0.0000       0.028795         0.7835
  18   0.0000       0.039483         1.0744
  19   0.0000       0.040501         1.1021
  20   0.0000       0.042939         1.1684
  21   0.0000       0.063787         1.7357

MULLIKEN ATOMIC CHARGES
-----------------------
   0 Si:    1.621754
   1 F :   -0.645368
   2 F :   -0.645368
   3 H :   -0.165509
   4 H :   -0.165509
Sum of atomic charges:    0.0000000

LOEWDIN ATOMIC CHARGES
----------------------
   0 Si:   -0.159587
   1 F :    0.380104
   2 F :    0.380104
   3 H :   -0.300311
   4 H :   -0.300311

  Mayer bond orders larger than 0.100000
B(  0-Si,  1-F ) :   0.4707 B(  0-Si,  2-F ) :   0.4707 B(  0-Si,  3-H ) :   0.9497
B(  0-Si,  4-H ) :   0.9497

MP2 TOTAL ENERGY:     -489.919313423 Eh
FINAL SINGLE POINT ENERGY      -489.919313422947

DIPOLE MOMENT
-------------
                                X             Y             Z
Electronic contribution:     -0.00000      -2.52368      -0.00000
Nuclear contribution   :      0.00000       3.19697       0.00000
                        -----------------------------------------
Total Dipole Moment    :     -0.00000       0.67329      -0.00000
                        -----------------------------------------
Magnitude (a.u.)       :      0.67329
Magnitude (Debye)      :      1.71137

Rotational constants in cm-1:     0.818768     0.257684     0.211108
Rotational constants in MHz : 24546.054377  7725.172147  6328.861600

                             ****ORCA TERMINATED NORMALLY****
TOTAL RUN TIME: 0 days 0 hours 0 minutes 50 seconds 473 msec
