                         Program Version 5.0.4 -  RELEASE  -
|  1> ! ri-mp2 aug-cc-pvdz aug-cc-pvdz/c tightscf
|  2> %pal nprocs 16 end
|  3> %maxcore 3800
|  4> %base "DZ_B-Cl_62_AB"
|  5>
|  6> *xyz 0 1
|  7> Cl         1.872846   -1.973680   -0.000002
|  8> Cl         3.166779    0.719701   -0.000004
|  9> B         1.690664   -0.226557   -0.000001
| 10> C         0.301195    0.437843    0.000000
| 11> C        -0.858285   -0.349050    0.000001
| 12> C        -2.109042    0.241281    0.000002
| 13> C        -2.216607    1.629747    0.000001
| 14> C         0.173756    1.824658   -0.000000
| 15> H         1.057769    2.445687   -0.000001
| 16> C        -1.081649    2.411173    0.000000
| 17> H        -1.175653    3.488856   -0.000000
| 18> H        -3.204805    2.069536    0.000002
| 19> H        -0.759547   -1.423034    0.000001
| 20> O        -3.277871   -0.442018    0.000002
| 21> C        -3.228536   -1.852109    0.000005
| 22> H        -2.722981   -2.232649    0.890977
| 23> H        -2.722984   -2.232653   -0.890967
| 24> H        -4.260752   -2.190432    0.000008
| 25> *
| 26>
| 27> $new_job
| 28> ! ri-mp2 aug-cc-pvtz aug-cc-pvtz/c tightscf
| 29> %pal nprocs 16 end
| 30> %maxcore 3800
| 31> %base "TZ_B-Cl_62_AB"
| 32>
| 33> *xyz 0 1
| 34> Cl         1.872846   -1.973680   -0.000002
| 35> Cl         3.166779    0.719701   -0.000004
| 36> B         1.690664   -0.226557   -0.000001
| 37> C         0.301195    0.437843    0.000000
| 38> C        -0.858285   -0.349050    0.000001
| 39> C        -2.109042    0.241281    0.000002
| 40> C        -2.216607    1.629747    0.000001
| 41> C         0.173756    1.824658   -0.000000
| 42> H         1.057769    2.445687   -0.000001
| 43> C        -1.081649    2.411173    0.000000
| 44> H        -1.175653    3.488856   -0.000000
| 45> H        -3.204805    2.069536    0.000002
| 46> H        -0.759547   -1.423034    0.000001
| 47> O        -3.277871   -0.442018    0.000002
| 48> C        -3.228536   -1.852109    0.000005
| 49> H        -2.722981   -2.232649    0.890977
| 50> H        -2.722984   -2.232653   -0.890967
| 51> H        -4.260752   -2.190432    0.000008
| 52> *
| 53>
| 54> $new_job
| 55> ! ri-mp2 aug-cc-pvqz aug-cc-pvqz/c tightscf
| 56> %pal nprocs 16 end
| 57> %maxcore 3800
| 58> %base "QZ_B-Cl_62_AB"
| 59>
| 60> *xyz 0 1
| 61> Cl         1.872846   -1.973680   -0.000002
| 62> Cl         3.166779    0.719701   -0.000004
| 63> B         1.690664   -0.226557   -0.000001
| 64> C         0.301195    0.437843    0.000000
| 65> C        -0.858285   -0.349050    0.000001
| 66> C        -2.109042    0.241281    0.000002
| 67> C        -2.216607    1.629747    0.000001
| 68> C         0.173756    1.824658   -0.000000
| 69> H         1.057769    2.445687   -0.000001
| 70> C        -1.081649    2.411173    0.000000
| 71> H        -1.175653    3.488856   -0.000000
| 72> H        -3.204805    2.069536    0.000002
| 73> H        -0.759547   -1.423034    0.000001
| 74> O        -3.277871   -0.442018    0.000002
| 75> C        -3.228536   -1.852109    0.000005
| 76> H        -2.722981   -2.232649    0.890977
| 77> H        -2.722984   -2.232653   -0.890967
| 78> H        -4.260752   -2.190432    0.000008
| 79> *
| 80>
| 81>
| 82>
| 83>
| 84>                          ****END OF INPUT****
 Total Charge           Charge          ....    0
 Multiplicity           Mult            ....    1
 Number of Electrons    NEL             ....   96
MP2 TOTAL ENERGY:    -1289.364791491 Eh
FINAL SINGLE POINT ENERGY     -1289.364791490887
MP2 TOTAL ENERGY:    -1289.805876887 Eh
FINAL SINGLE POINT ENERGY     -1289.805876886646

CARTESIAN COORDINATES (ANGSTROEM)
---------------------------------
  Cl     1.872846   -1.973680   -0.000002
  Cl     3.166779    0.719701   -0.000004
  B      1.690664   -0.226557   -0.000001
  C      0.301195    0.437843    0.000000
  C     -0.858285   -0.349050    0.000001
  C     -2.109042    0.241281    0.000002
  C     -2.216607    1.629747    0.000001
  C      0.173756    1.824658   -0.000000
  H      1.057769    2.445687   -0.000001
  C     -1.081649    2.411173    0.000000
  H     -1.175653    3.488856   -0.000000
  H     -3.204805    2.069536    0.000002
  H     -0.759547   -1.423034    0.000001
  O     -3.277871   -0.442018    0.000002
  C     -3.228536   -1.852109    0.000005
  H     -2.722981   -2.232649    0.890977
  H     -2.722984   -2.232653   -0.890967
  H     -4.260752   -2.190432    0.000008

 Multiplicity           Mult            ....    1
 Number of Electrons    NEL             ....   96
 Basis Dimension        Dim             .... 1210

ORBITAL ENERGIES
----------------

  NO   OCC          E(Eh)            E(eV)
   0   2.0000    -104.837569     -2852.7753
   1   2.0000    -104.836458     -2852.7451
   2   2.0000     -20.590118      -560.2856
   3   2.0000     -11.306049      -307.6532
   4   2.0000     -11.288753      -307.1826
   5   2.0000     -11.246014      -306.0196
   6   2.0000     -11.244534      -305.9793
   7   2.0000     -11.244364      -305.9747
   8   2.0000     -11.243016      -305.9380
   9   2.0000     -11.234470      -305.7055
  10   2.0000     -10.565537      -287.5029
  11   2.0000     -10.564418      -287.4724
  12   2.0000      -8.032365      -218.5718
  13   2.0000      -8.031321      -218.5434
  14   2.0000      -8.031253      -218.5415
  15   2.0000      -8.031101      -218.5374
  16   2.0000      -8.030196      -218.5128
  17   2.0000      -8.029971      -218.5066
  18   2.0000      -7.705520      -209.6779
  19   2.0000      -1.423532       -38.7363
  20   2.0000      -1.168952       -31.8088
  21   2.0000      -1.139168       -30.9983
  22   2.0000      -1.096759       -29.8443
  23   2.0000      -1.037687       -28.2369
  24   2.0000      -1.030204       -28.0333
  25   2.0000      -0.952760       -25.9259
  26   2.0000      -0.853715       -23.2308
  27   2.0000      -0.822747       -22.3881
  28   2.0000      -0.742592       -20.2070
  29   2.0000      -0.685631       -18.6570
  30   2.0000      -0.680153       -18.5079
  31   2.0000      -0.667687       -18.1687
  32   2.0000      -0.666203       -18.1283
  33   2.0000      -0.624829       -17.0025
  34   2.0000      -0.596165       -16.2225
  35   2.0000      -0.592737       -16.1292
  36   2.0000      -0.558673       -15.2023
  37   2.0000      -0.543403       -14.7868
  38   2.0000      -0.536279       -14.5929
  39   2.0000      -0.521323       -14.1859
  40   2.0000      -0.517484       -14.0814
  41   2.0000      -0.499395       -13.5892
  42   2.0000      -0.476844       -12.9756
  43   2.0000      -0.464934       -12.6515
  44   2.0000      -0.461907       -12.5691
  45   2.0000      -0.448875       -12.2145
  46   2.0000      -0.358157        -9.7459
  47   2.0000      -0.326236        -8.8773
  48   0.0000       0.021306         0.5798
  49   0.0000       0.026118         0.7107
  50   0.0000       0.030905         0.8410
  51   0.0000       0.036286         0.9874
  52   0.0000       0.040163         1.0929

MULLIKEN ATOMIC CHARGES
-----------------------
   0 Cl:   -0.283107
   1 Cl:   -0.257535
   2 B :    0.890779
   3 C :   -0.217035
   4 C :   -0.865569
   5 C :    1.344885
   6 C :   -0.601289
   7 C :   -0.367753
   8 H :    0.304732
   9 C :   -0.289513
  10 H :    0.173263
  11 H :    0.332251
  12 H :    0.361730
  13 O :   -0.860214
  14 C :   -0.661719
  15 H :    0.244878
  16 H :    0.244877
  17 H :    0.506339
Sum of atomic charges:    0.0000000

LOEWDIN ATOMIC CHARGES
----------------------
   0 Cl:    1.304735
   1 Cl:    1.302766
   2 B :   -2.304860
   3 C :   -0.156389
   4 C :    0.246250
   5 C :   -0.446206
   6 C :    0.334813
   7 C :    0.265168
   8 H :   -0.380478
   9 C :    0.356354
  10 H :   -0.316017
  11 H :   -0.316532
  12 H :   -0.430829
  13 O :    0.883844
  14 C :    0.579225
  15 H :   -0.303298
  16 H :   -0.303298
  17 H :   -0.315248

  Mayer bond orders larger than 0.100000
B(  0-Cl,  2-B ) :   0.8594 B(  0-Cl,  3-C ) :   0.1749 B(  0-Cl,  4-C ) :   0.1184
B(  0-Cl, 12-H ) :  -0.1391 B(  1-Cl,  2-B ) :   0.8569 B(  1-Cl,  3-C ) :   0.3346
B(  1-Cl,  8-H ) :  -0.1059 B(  2-B ,  3-C ) :   1.2913 B(  3-C ,  4-C ) :   0.8985
B(  3-C ,  5-C ) :  -0.5260 B(  3-C ,  6-C ) :  -0.1162 B(  3-C ,  7-C ) :   1.0771
B(  3-C ,  9-C ) :  -0.3967 B(  4-C ,  5-C ) :   1.4794 B(  4-C ,  6-C ) :   0.1097
B(  4-C ,  9-C ) :   0.1418 B(  4-C , 12-H ) :   0.9347 B(  4-C , 13-O ) :   0.3161
B(  4-C , 14-C ) :   0.1836 B(  5-C ,  6-C ) :   0.9961 B(  5-C ,  9-C ) :  -0.3430
B(  5-C , 11-H ) :  -0.1166 B(  5-C , 14-C ) :  -0.1666 B(  6-C ,  7-C ) :   0.2379
B(  6-C ,  9-C ) :   1.3260 B(  6-C , 10-H ) :  -0.1795 B(  6-C , 11-H ) :   0.9055
B(  6-C , 13-O ) :   0.2198 B(  7-C ,  8-H ) :   1.0182 B(  7-C ,  9-C ) :   1.1376
B(  7-C , 10-H ) :  -0.2074 B(  9-C , 10-H ) :   1.3066 B( 13-O , 14-C ) :   0.9171
B( 14-C , 15-H ) :   0.9198 B( 14-C , 16-H ) :   0.9198 B( 14-C , 17-H ) :   0.7430

MP2 TOTAL ENERGY:    -1289.949340978 Eh
FINAL SINGLE POINT ENERGY     -1289.949340978091

DIPOLE MOMENT
-------------
                                X             Y             Z
Electronic contribution:     20.61346      -1.84748      -0.00003
Nuclear contribution   :    -21.39784       1.80909       0.00003
                        -----------------------------------------
Total Dipole Moment    :     -0.78438      -0.03838       0.00000
                        -----------------------------------------
Magnitude (a.u.)       :      0.78532
Magnitude (Debye)      :      1.99612

Rotational constants in cm-1:     0.043424     0.017014     0.012253
Rotational constants in MHz :  1301.820616   510.068905   367.330897

                             ****ORCA TERMINATED NORMALLY****
TOTAL RUN TIME: 0 days 0 hours 51 minutes 43 seconds 324 msec
