                         Program Version 5.0.4 -  RELEASE  -
|  1> ! ri-mp2 aug-cc-pvdz aug-cc-pvdz/c tightscf
|  2> %pal nprocs 16 end
|  3> %maxcore 3800
|  4> %base "DZ_P-C_83_AB"
|  5>
|  6> *xyz 0 1
|  7> C        -2.253969   -0.745267   -0.313640
|  8> C        -2.005014    0.712674   -0.594461
|  9> O        -3.261293   -1.160146    0.176037
| 10> O        -1.261527   -1.595548   -0.642417
| 11> P        -0.829091    1.579039    0.564108
| 12> H        -2.959565    1.229608   -0.525046
| 13> H        -1.617453    0.856719   -1.604485
| 14> C         0.708877    0.627353    0.299090
| 15> H        -0.464558   -1.118780   -0.908340
| 16> C         1.166137   -0.340971    1.188675
| 17> C         1.475973    0.910871   -0.830255
| 18> C         2.654904    0.228961   -1.075510
| 19> C         3.099050   -0.730481   -0.180456
| 20> C         2.355876   -1.008750    0.953960
| 21> H         2.696315   -1.758659    1.655293
| 22> H         0.580843   -0.585699    2.065014
| 23> H         1.152500    1.681287   -1.520533
| 24> H         3.234230    0.456543   -1.960322
| 25> H         4.024186   -1.259077   -0.366550
| 26> H        -1.238564    0.931691    1.749957
| 27> *
| 28>
| 29> $new_job
| 30> ! ri-mp2 aug-cc-pvtz aug-cc-pvtz/c tightscf
| 31> %pal nprocs 16 end
| 32> %maxcore 3800
| 33> %base "TZ_P-C_83_AB"
| 34>
| 35> *xyz 0 1
| 36> C        -2.253969   -0.745267   -0.313640
| 37> C        -2.005014    0.712674   -0.594461
| 38> O        -3.261293   -1.160146    0.176037
| 39> O        -1.261527   -1.595548   -0.642417
| 40> P        -0.829091    1.579039    0.564108
| 41> H        -2.959565    1.229608   -0.525046
| 42> H        -1.617453    0.856719   -1.604485
| 43> C         0.708877    0.627353    0.299090
| 44> H        -0.464558   -1.118780   -0.908340
| 45> C         1.166137   -0.340971    1.188675
| 46> C         1.475973    0.910871   -0.830255
| 47> C         2.654904    0.228961   -1.075510
| 48> C         3.099050   -0.730481   -0.180456
| 49> C         2.355876   -1.008750    0.953960
| 50> H         2.696315   -1.758659    1.655293
| 51> H         0.580843   -0.585699    2.065014
| 52> H         1.152500    1.681287   -1.520533
| 53> H         3.234230    0.456543   -1.960322
| 54> H         4.024186   -1.259077   -0.366550
| 55> H        -1.238564    0.931691    1.749957
| 56> *
| 57>
| 58> $new_job
| 59> ! ri-mp2 aug-cc-pvqz aug-cc-pvqz/c tightscf
| 60> %pal nprocs 16 end
| 61> %maxcore 3800
| 62> %base "QZ_P-C_83_AB"
| 63>
| 64> *xyz 0 1
| 65> C        -2.253969   -0.745267   -0.313640
| 66> C        -2.005014    0.712674   -0.594461
| 67> O        -3.261293   -1.160146    0.176037
| 68> O        -1.261527   -1.595548   -0.642417
| 69> P        -0.829091    1.579039    0.564108
| 70> H        -2.959565    1.229608   -0.525046
| 71> H        -1.617453    0.856719   -1.604485
| 72> C         0.708877    0.627353    0.299090
| 73> H        -0.464558   -1.118780   -0.908340
| 74> C         1.166137   -0.340971    1.188675
| 75> C         1.475973    0.910871   -0.830255
| 76> C         2.654904    0.228961   -1.075510
| 77> C         3.099050   -0.730481   -0.180456
| 78> C         2.355876   -1.008750    0.953960
| 79> H         2.696315   -1.758659    1.655293
| 80> H         0.580843   -0.585699    2.065014
| 81> H         1.152500    1.681287   -1.520533
| 82> H         3.234230    0.456543   -1.960322
| 83> H         4.024186   -1.259077   -0.366550
| 84> H        -1.238564    0.931691    1.749957
| 85> *
| 86>
| 87>
| 88>
| 89>
| 90>                          ****END OF INPUT****
 Total Charge           Charge          ....    0
 Multiplicity           Mult            ....    1
 Number of Electrons    NEL             ....   88
MP2 TOTAL ENERGY:     -800.328498890 Eh
FINAL SINGLE POINT ENERGY      -800.328498890106
MP2 TOTAL ENERGY:     -800.767712132 Eh
FINAL SINGLE POINT ENERGY      -800.767712131977

CARTESIAN COORDINATES (ANGSTROEM)
---------------------------------
  C     -2.253969   -0.745267   -0.313640
  C     -2.005014    0.712674   -0.594461
  O     -3.261293   -1.160146    0.176037
  O     -1.261527   -1.595548   -0.642417
  P     -0.829091    1.579039    0.564108
  H     -2.959565    1.229608   -0.525046
  H     -1.617453    0.856719   -1.604485
  C      0.708877    0.627353    0.299090
  H     -0.464558   -1.118780   -0.908340
  C      1.166137   -0.340971    1.188675
  C      1.475973    0.910871   -0.830255
  C      2.654904    0.228961   -1.075510
  C      3.099050   -0.730481   -0.180456
  C      2.355876   -1.008750    0.953960
  H      2.696315   -1.758659    1.655293
  H      0.580843   -0.585699    2.065014
  H      1.152500    1.681287   -1.520533
  H      3.234230    0.456543   -1.960322
  H      4.024186   -1.259077   -0.366550
  H     -1.238564    0.931691    1.749957

 Multiplicity           Mult            ....    1
 Number of Electrons    NEL             ....   88
 Basis Dimension        Dim             .... 1298

ORBITAL ENERGIES
----------------

  NO   OCC          E(Eh)            E(eV)
   0   2.0000     -79.963839     -2175.9267
   1   2.0000     -20.602667      -560.6271
   2   2.0000     -20.536456      -558.8254
   3   2.0000     -11.380696      -309.6845
   4   2.0000     -11.260566      -306.4156
   5   2.0000     -11.259645      -306.3905
   6   2.0000     -11.259061      -306.3746
   7   2.0000     -11.256690      -306.3101
   8   2.0000     -11.255557      -306.2793
   9   2.0000     -11.254307      -306.2453
  10   2.0000     -11.252547      -306.1974
  11   2.0000      -7.505765      -204.2423
  12   2.0000      -5.399702      -146.9334
  13   2.0000      -5.399543      -146.9290
  14   2.0000      -5.398522      -146.9013
  15   2.0000      -1.458409       -39.6853
  16   2.0000      -1.361522       -37.0489
  17   2.0000      -1.181575       -32.1523
  18   2.0000      -1.060954       -28.8700
  19   2.0000      -1.041647       -28.3446
  20   2.0000      -1.026513       -27.9328
  21   2.0000      -0.876347       -23.8466
  22   2.0000      -0.851658       -23.1748
  23   2.0000      -0.829299       -22.5664
  24   2.0000      -0.797879       -21.7114
  25   2.0000      -0.724643       -19.7185
  26   2.0000      -0.711260       -19.3544
  27   2.0000      -0.670868       -18.2553
  28   2.0000      -0.654846       -17.8193
  29   2.0000      -0.648308       -17.6414
  30   2.0000      -0.629961       -17.1421
  31   2.0000      -0.613394       -16.6913
  32   2.0000      -0.608725       -16.5642
  33   2.0000      -0.575751       -15.6670
  34   2.0000      -0.555735       -15.1223
  35   2.0000      -0.536324       -14.5941
  36   2.0000      -0.519249       -14.1295
  37   2.0000      -0.507426       -13.8078
  38   2.0000      -0.495702       -13.4887
  39   2.0000      -0.470684       -12.8080
  40   2.0000      -0.455139       -12.3850
  41   2.0000      -0.398846       -10.8532
  42   2.0000      -0.363016        -9.8782
  43   2.0000      -0.341544        -9.2939
  44   0.0000       0.017552         0.4776
  45   0.0000       0.024303         0.6613
  46   0.0000       0.028830         0.7845
  47   0.0000       0.036646         0.9972
  48   0.0000       0.038928         1.0593

MULLIKEN ATOMIC CHARGES
-----------------------
   0 C :    1.207691
   1 C :   -0.744249
   2 O :   -0.848299
   3 O :   -0.885763
   4 P :    0.458387
   5 H :    0.352502
   6 H :    0.289427
   7 C :    0.348789
   8 H :    0.428229
   9 C :   -0.605595
  10 C :   -0.442675
  11 C :   -0.264358
  12 C :   -0.384138
  13 C :   -0.273666
  14 H :    0.235808
  15 H :    0.321018
  16 H :    0.310555
  17 H :    0.233430
  18 H :    0.369398
  19 H :   -0.106493
Sum of atomic charges:   -0.0000000

LOEWDIN ATOMIC CHARGES
----------------------
   0 C :   -1.101602
   1 C :    0.309034
   2 O :    0.674750
   3 O :    1.263673
   4 P :    1.282564
   5 H :   -0.390072
   6 H :   -0.360962
   7 C :   -0.307030
   8 H :   -0.880754
   9 C :    0.253820
  10 C :    0.241353
  11 C :    0.344238
  12 C :    0.344107
  13 C :    0.349811
  14 H :   -0.313841
  15 H :   -0.334544
  16 H :   -0.332073
  17 H :   -0.316329
  18 H :   -0.315976
  19 H :   -0.410167

  Mayer bond orders larger than 0.100000
B(  0-C ,  1-C ) :   1.0744 B(  0-C ,  2-O ) :   1.2968 B(  0-C ,  3-O ) :   0.8119
B(  1-C ,  2-O ) :   0.1186 B(  1-C ,  4-P ) :   0.7205 B(  1-C ,  5-H ) :   0.8639
B(  1-C ,  6-H ) :   0.9168 B(  2-O ,  3-O ) :   0.1328 B(  3-O ,  8-H ) :   0.7059
B(  4-P ,  7-C ) :   0.8481 B(  4-P ,  9-C ) :  -0.1091 B(  4-P , 10-C ) :  -0.2027
B(  4-P , 19-H ) :   0.9418 B(  7-C ,  9-C ) :   0.8443 B(  7-C , 10-C ) :   0.9005
B(  7-C , 11-C ) :  -0.2895 B(  7-C , 13-C ) :  -0.3297 B(  7-C , 16-H ) :  -0.1051
B(  9-C , 10-C ) :   0.1195 B(  9-C , 11-C ) :   0.1603 B(  9-C , 12-C ) :   0.1401
B(  9-C , 13-C ) :   1.3574 B(  9-C , 14-H ) :  -0.1216 B(  9-C , 15-H ) :   0.9485
B( 10-C , 11-C ) :   1.3070 B( 10-C , 12-C ) :   0.1076 B( 10-C , 13-C ) :   0.1293
B( 10-C , 16-H ) :   0.9688 B( 10-C , 17-H ) :  -0.1280 B( 11-C , 12-C ) :   1.1291
B( 11-C , 13-C ) :  -0.1083 B( 11-C , 17-H ) :   1.1460 B( 12-C , 13-C ) :   1.1184
B( 12-C , 18-H ) :   0.9564 B( 13-C , 14-H ) :   1.1420

MP2 TOTAL ENERGY:     -800.909710392 Eh
FINAL SINGLE POINT ENERGY      -800.909710392124

DIPOLE MOMENT
-------------
                                X             Y             Z
Electronic contribution:     -4.32431       1.83277       1.39260
Nuclear contribution   :      6.02197      -1.09469      -1.92625
                        -----------------------------------------
Total Dipole Moment    :      1.69766       0.73808      -0.53366
                        -----------------------------------------
Magnitude (a.u.)       :      1.92655
Magnitude (Debye)      :      4.89691

Rotational constants in cm-1:     0.057345     0.021498     0.018921
Rotational constants in MHz :  1719.168583   644.479923   567.239873

                             ****ORCA TERMINATED NORMALLY****
TOTAL RUN TIME: 0 days 1 hours 0 minutes 2 seconds 678 msec
