                         Program Version 5.0.4 -  RELEASE  -
|  1> ! ri-mp2 aug-cc-pvdz aug-cc-pvdz/c tightscf
|  2> %pal nprocs 16 end
|  3> %maxcore 3800
|  4> %base "DZ_Si-Si_20_AB"
|  5> %scf
|  6> STABPerform true
|  7> STABRestartUHFifUnstable true
|  8> end
|  9>
| 10> *xyz 0 1
| 11> Si        -1.394087    1.164273    0.000000
| 12> Si         0.625259    0.004869    0.000000
| 13> Cl         2.163206    1.350521   -0.000001
| 14> H        -1.488462    1.996227   -1.212789
| 15> Cl         0.783901   -1.171605   -1.656856
| 16> Cl        -2.922745   -0.204985    0.000001
| 17> Cl         0.783902   -1.171604    1.656857
| 18> H        -1.488461    1.996228    1.212787
| 19> *
| 20>
| 21> $new_job
| 22> ! ri-mp2 aug-cc-pvtz aug-cc-pvtz/c tightscf
| 23> %pal nprocs 16 end
| 24> %maxcore 3800
| 25> %base "TZ_Si-Si_20_AB"
| 26>
| 27> *xyz 0 1
| 28> Si        -1.394087    1.164273    0.000000
| 29> Si         0.625259    0.004869    0.000000
| 30> Cl         2.163206    1.350521   -0.000001
| 31> H        -1.488462    1.996227   -1.212789
| 32> Cl         0.783901   -1.171605   -1.656856
| 33> Cl        -2.922745   -0.204985    0.000001
| 34> Cl         0.783902   -1.171604    1.656857
| 35> H        -1.488461    1.996228    1.212787
| 36> *
| 37>
| 38> $new_job
| 39> ! ri-mp2 aug-cc-pvqz aug-cc-pvqz/c tightscf
| 40> %pal nprocs 16 end
| 41> %maxcore 3800
| 42> %base "QZ_Si-Si_20_AB"
| 43>
| 44> *xyz 0 1
| 45> Si        -1.394087    1.164273    0.000000
| 46> Si         0.625259    0.004869    0.000000
| 47> Cl         2.163206    1.350521   -0.000001
| 48> H        -1.488462    1.996227   -1.212789
| 49> Cl         0.783901   -1.171605   -1.656856
| 50> Cl        -2.922745   -0.204985    0.000001
| 51> Cl         0.783902   -1.171604    1.656857
| 52> H        -1.488461    1.996228    1.212787
| 53> *
| 54>
| 55>
| 56>
| 57>
| 58>                          ****END OF INPUT****
 Total Charge           Charge          ....    0
 Multiplicity           Mult            ....    1
 Number of Electrons    NEL             ....   98
MP2 TOTAL ENERGY:    -2418.038283321 Eh
FINAL SINGLE POINT ENERGY     -2418.038283320911
MP2 TOTAL ENERGY:    -2418.359733198 Eh
FINAL SINGLE POINT ENERGY     -2418.359733198472

CARTESIAN COORDINATES (ANGSTROEM)
---------------------------------
  Si    -1.394087    1.164273    0.000000
  Si     0.625259    0.004869    0.000000
  Cl     2.163206    1.350521   -0.000001
  H     -1.488462    1.996227   -1.212789
  Cl     0.783901   -1.171605   -1.656856
  Cl    -2.922745   -0.204985    0.000001
  Cl     0.783902   -1.171604    1.656857
  H     -1.488461    1.996228    1.212787

 Multiplicity           Mult            ....    1
 Number of Electrons    NEL             ....   98
 Basis Dimension        Dim             ....  596

ORBITAL ENERGIES
----------------

  NO   OCC          E(Eh)            E(eV)
   0   2.0000    -104.853822     -2853.2176
   1   2.0000    -104.852517     -2853.1821
   2   2.0000    -104.852517     -2853.1821
   3   2.0000    -104.843491     -2852.9364
   4   2.0000     -68.902418     -1874.9301
   5   2.0000     -68.835914     -1873.1204
   6   2.0000     -10.581324      -287.9325
   7   2.0000     -10.580039      -287.8975
   8   2.0000     -10.580033      -287.8973
   9   2.0000     -10.570784      -287.6457
  10   2.0000      -8.048058      -218.9988
  11   2.0000      -8.046875      -218.9666
  12   2.0000      -8.046872      -218.9665
  13   2.0000      -8.046780      -218.9640
  14   2.0000      -8.046779      -218.9640
  15   2.0000      -8.045575      -218.9312
  16   2.0000      -8.045575      -218.9312
  17   2.0000      -8.045572      -218.9311
  18   2.0000      -8.045571      -218.9311
  19   2.0000      -8.037591      -218.7140
  20   2.0000      -8.036410      -218.6818
  21   2.0000      -8.036400      -218.6816
  22   2.0000      -6.238870      -169.7683
  23   2.0000      -6.181945      -168.2193
  24   2.0000      -4.345848      -118.2565
  25   2.0000      -4.345801      -118.2553
  26   2.0000      -4.344492      -118.2196
  27   2.0000      -4.288683      -116.7010
  28   2.0000      -4.287851      -116.6784
  29   2.0000      -4.287638      -116.6726
  30   2.0000      -1.152641       -31.3650
  31   2.0000      -1.113316       -30.2949
  32   2.0000      -1.110422       -30.2161
  33   2.0000      -1.110060       -30.2063
  34   2.0000      -0.763710       -20.7816
  35   2.0000      -0.688894       -18.7458
  36   2.0000      -0.582015       -15.8374
  37   2.0000      -0.581926       -15.8350
  38   2.0000      -0.559992       -15.2381
  39   2.0000      -0.545993       -14.8572
  40   2.0000      -0.544867       -14.8266
  41   2.0000      -0.508849       -13.8465
  42   2.0000      -0.508620       -13.8402
  43   2.0000      -0.495286       -13.4774
  44   2.0000      -0.481877       -13.1125
  45   2.0000      -0.481548       -13.1036
  46   2.0000      -0.468570       -12.7504
  47   2.0000      -0.466459       -12.6930
  48   2.0000      -0.416937       -11.3454
  49   0.0000       0.026006         0.7077
  50   0.0000       0.034094         0.9278
  51   0.0000       0.037484         1.0200
  52   0.0000       0.040835         1.1112
  53   0.0000       0.050849         1.3837

MULLIKEN ATOMIC CHARGES
-----------------------
   0 Si:    0.895782
   1 Si:    1.875121
   2 Cl:   -0.620289
   3 H :   -0.172228
   4 Cl:   -0.613591
   5 Cl:   -0.578974
   6 Cl:   -0.613592
   7 H :   -0.172228
Sum of atomic charges:    0.0000000

LOEWDIN ATOMIC CHARGES
----------------------
   0 Si:   -0.240040
   1 Si:   -2.473747
   2 Cl:    0.840218
   3 H :   -0.335255
   4 Cl:    0.844787
   5 Cl:    0.854507
   6 Cl:    0.844786
   7 H :   -0.335256

  Mayer bond orders larger than 0.100000
B(  0-Si,  1-Si) :   0.8315 B(  0-Si,  3-H ) :   0.8628 B(  0-Si,  5-Cl) :   0.5365
B(  0-Si,  7-H ) :   0.8628 B(  1-Si,  2-Cl) :   0.4982 B(  1-Si,  4-Cl) :   0.5334
B(  1-Si,  6-Cl) :   0.5334

MP2 TOTAL ENERGY:    -2418.469158488 Eh
FINAL SINGLE POINT ENERGY     -2418.469158487522

DIPOLE MOMENT
-------------
                                X             Y             Z
Electronic contribution:      3.63678      -4.63041       0.00000
Nuclear contribution   :     -3.76071       5.18558      -0.00000
                        -----------------------------------------
Total Dipole Moment    :     -0.12393       0.55518      -0.00000
                        -----------------------------------------
Magnitude (a.u.)       :      0.56884
Magnitude (Debye)      :      1.44588

Rotational constants in cm-1:     0.041433     0.021610     0.021293
Rotational constants in MHz :  1242.144857   647.858906   638.340936

                             ****ORCA TERMINATED NORMALLY****
TOTAL RUN TIME: 0 days 0 hours 20 minutes 46 seconds 55 msec
