                         Program Version 5.0.4 -  RELEASE  -
|  1> ! ri-mp2 aug-cc-pvdz aug-cc-pvdz/c tightscf
|  2> %pal nprocs 16 end
|  3> %maxcore 3800
|  4> %base "DZ_Si-Si_45_AB"
|  5> %scf
|  6> STABPerform true
|  7> STABRestartUHFifUnstable true
|  8> end
|  9>
| 10> *xyz 0 1
| 11> Si         2.169460   -0.706908   -0.127817
| 12> Si         0.785029    1.175057   -0.143730
| 13> C        -1.533253   -0.354949    0.203500
| 14> O        -1.119053   -1.474224    0.391241
| 15> H         2.316430   -1.215636    1.252824
| 16> H         1.637271   -1.769845   -1.002978
| 17> H         3.508270   -0.310132   -0.626212
| 18> C        -0.830422    0.835027    0.787777
| 19> H        -0.554394    0.603201    1.817427
| 20> H        -1.454308    1.728803    0.777386
| 21> H         0.457743    1.568805   -1.536284
| 22> H         1.450433    2.328109    0.506358
| 23> C        -2.742812   -0.090254   -0.650205
| 24> H        -3.085175   -1.013178   -1.109866
| 25> H        -2.508388    0.648501   -1.419085
| 26> H        -3.539394    0.332133   -0.034287
| 27> *
| 28>
| 29> $new_job
| 30> ! ri-mp2 aug-cc-pvtz aug-cc-pvtz/c tightscf
| 31> %pal nprocs 16 end
| 32> %maxcore 3800
| 33> %base "TZ_Si-Si_45_AB"
| 34>
| 35> *xyz 0 1
| 36> Si         2.169460   -0.706908   -0.127817
| 37> Si         0.785029    1.175057   -0.143730
| 38> C        -1.533253   -0.354949    0.203500
| 39> O        -1.119053   -1.474224    0.391241
| 40> H         2.316430   -1.215636    1.252824
| 41> H         1.637271   -1.769845   -1.002978
| 42> H         3.508270   -0.310132   -0.626212
| 43> C        -0.830422    0.835027    0.787777
| 44> H        -0.554394    0.603201    1.817427
| 45> H        -1.454308    1.728803    0.777386
| 46> H         0.457743    1.568805   -1.536284
| 47> H         1.450433    2.328109    0.506358
| 48> C        -2.742812   -0.090254   -0.650205
| 49> H        -3.085175   -1.013178   -1.109866
| 50> H        -2.508388    0.648501   -1.419085
| 51> H        -3.539394    0.332133   -0.034287
| 52> *
| 53>
| 54> $new_job
| 55> ! ri-mp2 aug-cc-pvqz aug-cc-pvqz/c tightscf
| 56> %pal nprocs 16 end
| 57> %maxcore 3800
| 58> %base "QZ_Si-Si_45_AB"
| 59>
| 60> *xyz 0 1
| 61> Si         2.169460   -0.706908   -0.127817
| 62> Si         0.785029    1.175057   -0.143730
| 63> C        -1.533253   -0.354949    0.203500
| 64> O        -1.119053   -1.474224    0.391241
| 65> H         2.316430   -1.215636    1.252824
| 66> H         1.637271   -1.769845   -1.002978
| 67> H         3.508270   -0.310132   -0.626212
| 68> C        -0.830422    0.835027    0.787777
| 69> H        -0.554394    0.603201    1.817427
| 70> H        -1.454308    1.728803    0.777386
| 71> H         0.457743    1.568805   -1.536284
| 72> H         1.450433    2.328109    0.506358
| 73> C        -2.742812   -0.090254   -0.650205
| 74> H        -3.085175   -1.013178   -1.109866
| 75> H        -2.508388    0.648501   -1.419085
| 76> H        -3.539394    0.332133   -0.034287
| 77> *
| 78>
| 79>
| 80>
| 81>
| 82>                          ****END OF INPUT****
 Total Charge           Charge          ....    0
 Multiplicity           Mult            ....    1
 Number of Electrons    NEL             ....   64
MP2 TOTAL ENERGY:     -773.016296556 Eh
FINAL SINGLE POINT ENERGY      -773.016296556154
MP2 TOTAL ENERGY:     -773.262143307 Eh
FINAL SINGLE POINT ENERGY      -773.262143306527

CARTESIAN COORDINATES (ANGSTROEM)
---------------------------------
  Si     2.169460   -0.706908   -0.127817
  Si     0.785029    1.175057   -0.143730
  C     -1.533253   -0.354949    0.203500
  O     -1.119053   -1.474224    0.391241
  H      2.316430   -1.215636    1.252824
  H      1.637271   -1.769845   -1.002978
  H      3.508270   -0.310132   -0.626212
  C     -0.830422    0.835027    0.787777
  H     -0.554394    0.603201    1.817427
  H     -1.454308    1.728803    0.777386
  H      0.457743    1.568805   -1.536284
  H      1.450433    2.328109    0.506358
  C     -2.742812   -0.090254   -0.650205
  H     -3.085175   -1.013178   -1.109866
  H     -2.508388    0.648501   -1.419085
  H     -3.539394    0.332133   -0.034287

 Multiplicity           Mult            ....    1
 Number of Electrons    NEL             ....   64
 Basis Dimension        Dim             ....  948

ORBITAL ENERGIES
----------------

  NO   OCC          E(Eh)            E(eV)
   0   2.0000     -68.773835     -1871.4312
   1   2.0000     -68.760720     -1871.0743
   2   2.0000     -20.542974      -559.0028
   3   2.0000     -11.335964      -308.4673
   4   2.0000     -11.236507      -305.7609
   5   2.0000     -11.229498      -305.5702
   6   2.0000      -6.124093      -166.6450
   7   2.0000      -6.111553      -166.3038
   8   2.0000      -4.230228      -115.1104
   9   2.0000      -4.230157      -115.1084
  10   2.0000      -4.230024      -115.1048
  11   2.0000      -4.217720      -114.7700
  12   2.0000      -4.217625      -114.7674
  13   2.0000      -4.217515      -114.7644
  14   2.0000      -1.393454       -37.9178
  15   2.0000      -1.046992       -28.4901
  16   2.0000      -0.971670       -26.4405
  17   2.0000      -0.760043       -20.6818
  18   2.0000      -0.731865       -19.9151
  19   2.0000      -0.672419       -18.2974
  20   2.0000      -0.650586       -17.7034
  21   2.0000      -0.645049       -17.5527
  22   2.0000      -0.606472       -16.5029
  23   2.0000      -0.572152       -15.5690
  24   2.0000      -0.549936       -14.9645
  25   2.0000      -0.521996       -14.2042
  26   2.0000      -0.494338       -13.4516
  27   2.0000      -0.477720       -12.9994
  28   2.0000      -0.471487       -12.8298
  29   2.0000      -0.452255       -12.3065
  30   2.0000      -0.413937       -11.2638
  31   2.0000      -0.398519       -10.8443
  32   0.0000       0.020717         0.5637
  33   0.0000       0.030419         0.8278
  34   0.0000       0.031470         0.8563
  35   0.0000       0.033257         0.9050
  36   0.0000       0.043874         1.1939

MULLIKEN ATOMIC CHARGES
-----------------------
   0 Si:    0.462681
   1 Si:    0.788774
   2 C :    0.964808
   3 O :   -0.866619
   4 H :   -0.148514
   5 H :   -0.131882
   6 H :   -0.245449
   7 C :   -0.752661
   8 H :    0.266847
   9 H :    0.290991
  10 H :   -0.256486
  11 H :   -0.272563
  12 C :   -0.928018
  13 H :    0.321892
  14 H :    0.231742
  15 H :    0.274456
Sum of atomic charges:    0.0000000

LOEWDIN ATOMIC CHARGES
----------------------
   0 Si:    1.042857
   1 Si:    0.712431
   2 C :   -0.758211
   3 O :    0.739669
   4 H :   -0.301080
   5 H :   -0.302967
   6 H :   -0.320506
   7 C :    0.415626
   8 H :   -0.360794
   9 H :   -0.353831
  10 H :   -0.250722
  11 H :   -0.258050
  12 C :    0.888545
  13 H :   -0.311303
  14 H :   -0.294439
  15 H :   -0.287225

  Mayer bond orders larger than 0.100000
B(  0-Si,  1-Si) :   0.7706 B(  0-Si,  4-H ) :   0.7650 B(  0-Si,  5-H ) :   0.7732
B(  0-Si,  6-H ) :   0.7427 B(  1-Si,  7-C ) :   0.7539 B(  1-Si, 10-H ) :   0.7992
B(  1-Si, 11-H ) :   0.7894 B(  2-C ,  3-O ) :   1.1383 B(  2-C ,  7-C ) :   0.9315
B(  2-C , 12-C ) :   0.8941 B(  3-O ,  7-C ) :   0.1490 B(  7-C ,  8-H ) :   0.9333
B(  7-C ,  9-H ) :   0.9193 B( 12-C , 13-H ) :   0.9513 B( 12-C , 14-H ) :   0.9554
B( 12-C , 15-H ) :   0.9348

MP2 TOTAL ENERGY:     -773.340712113 Eh
FINAL SINGLE POINT ENERGY      -773.340712113278

DIPOLE MOMENT
-------------
                                X             Y             Z
Electronic contribution:      1.41516      -1.80531       1.28336
Nuclear contribution   :     -2.00034       2.89517      -1.37393
                        -----------------------------------------
Total Dipole Moment    :     -0.58518       1.08986      -0.09056
                        -----------------------------------------
Magnitude (a.u.)       :      1.24034
Magnitude (Debye)      :      3.15269

Rotational constants in cm-1:     0.116810     0.044402     0.036217
Rotational constants in MHz :  3501.862343  1331.153357  1085.759296

                             ****ORCA TERMINATED NORMALLY****
TOTAL RUN TIME: 0 days 1 hours 34 minutes 11 seconds 160 msec
