                         Program Version 5.0.4 -  RELEASE  -
|  1> ! ri-mp2 aug-cc-pvdz aug-cc-pvdz/c tightscf
|  2> %pal nprocs 16 end
|  3> %maxcore 3800
|  4> %base "DZ_P-O_5_AB"
|  5> %scf
|  6> STABPerform true
|  7> STABRestartUHFifUnstable true
|  8> end
|  9>
| 10> *xyz 0 1
| 11> P        -1.367076    0.048087   -0.001418
| 12> O        -0.000002   -0.000003    0.852820
| 13> P         1.367076   -0.048088   -0.001411
| 14> O        -1.327929    1.198322   -0.907964
| 15> O        -1.482168   -1.382418   -0.611745
| 16> O         1.327937   -1.198318   -0.907963
| 17> O         1.482168    1.382421   -0.611731
| 18> H         0.620670    1.676533   -0.975542
| 19> H        -0.620669   -1.676530   -0.975553
| 20> O         2.503656   -0.052091    1.072502
| 21> H         2.931419   -0.911735    1.163136
| 22> O        -2.503661    0.052088    1.072490
| 23> H        -2.931423    0.911733    1.163126
| 24> *
| 25>
| 26> $new_job
| 27> ! ri-mp2 aug-cc-pvtz aug-cc-pvtz/c tightscf
| 28> %pal nprocs 16 end
| 29> %maxcore 3800
| 30> %base "TZ_P-O_5_AB"
| 31>
| 32> *xyz 0 1
| 33> P        -1.367076    0.048087   -0.001418
| 34> O        -0.000002   -0.000003    0.852820
| 35> P         1.367076   -0.048088   -0.001411
| 36> O        -1.327929    1.198322   -0.907964
| 37> O        -1.482168   -1.382418   -0.611745
| 38> O         1.327937   -1.198318   -0.907963
| 39> O         1.482168    1.382421   -0.611731
| 40> H         0.620670    1.676533   -0.975542
| 41> H        -0.620669   -1.676530   -0.975553
| 42> O         2.503656   -0.052091    1.072502
| 43> H         2.931419   -0.911735    1.163136
| 44> O        -2.503661    0.052088    1.072490
| 45> H        -2.931423    0.911733    1.163126
| 46> *
| 47>
| 48> $new_job
| 49> ! ri-mp2 aug-cc-pvqz aug-cc-pvqz/c tightscf
| 50> %pal nprocs 16 end
| 51> %maxcore 3800
| 52> %base "QZ_P-O_5_AB"
| 53>
| 54> *xyz 0 1
| 55> P        -1.367076    0.048087   -0.001418
| 56> O        -0.000002   -0.000003    0.852820
| 57> P         1.367076   -0.048088   -0.001411
| 58> O        -1.327929    1.198322   -0.907964
| 59> O        -1.482168   -1.382418   -0.611745
| 60> O         1.327937   -1.198318   -0.907963
| 61> O         1.482168    1.382421   -0.611731
| 62> H         0.620670    1.676533   -0.975542
| 63> H        -0.620669   -1.676530   -0.975553
| 64> O         2.503656   -0.052091    1.072502
| 65> H         2.931419   -0.911735    1.163136
| 66> O        -2.503661    0.052088    1.072490
| 67> H        -2.931423    0.911733    1.163126
| 68> *
| 69>
| 70>
| 71>
| 72>
| 73>                          ****END OF INPUT****
 Total Charge           Charge          ....    0
 Multiplicity           Mult            ....    1
 Number of Electrons    NEL             ....   90
MP2 TOTAL ENERGY:    -1209.768834523 Eh
FINAL SINGLE POINT ENERGY     -1209.768834522932
MP2 TOTAL ENERGY:    -1210.386722160 Eh
FINAL SINGLE POINT ENERGY     -1210.386722160270

CARTESIAN COORDINATES (ANGSTROEM)
---------------------------------
  P     -1.367076    0.048087   -0.001418
  O     -0.000002   -0.000003    0.852820
  P      1.367076   -0.048088   -0.001411
  O     -1.327929    1.198322   -0.907964
  O     -1.482168   -1.382418   -0.611745
  O      1.327937   -1.198318   -0.907963
  O      1.482168    1.382421   -0.611731
  H      0.620670    1.676533   -0.975542
  H     -0.620669   -1.676530   -0.975553
  O      2.503656   -0.052091    1.072502
  H      2.931419   -0.911735    1.163136
  O     -2.503661    0.052088    1.072490
  H     -2.931423    0.911733    1.163126

 Multiplicity           Mult            ....    1
 Number of Electrons    NEL             ....   90
 Basis Dimension        Dim             ....  912

ORBITAL ENERGIES
----------------

  NO   OCC          E(Eh)            E(eV)
   0   2.0000     -80.127706     -2180.3857
   1   2.0000     -80.127706     -2180.3857
   2   2.0000     -20.633491      -561.4658
   3   2.0000     -20.633490      -561.4658
   4   2.0000     -20.630295      -561.3789
   5   2.0000     -20.612711      -560.9004
   6   2.0000     -20.612710      -560.9003
   7   2.0000     -20.540247      -558.9285
   8   2.0000     -20.540246      -558.9285
   9   2.0000      -7.645575      -208.0467
  10   2.0000      -7.645573      -208.0466
  11   2.0000      -5.544820      -150.8822
  12   2.0000      -5.544769      -150.8808
  13   2.0000      -5.544276      -150.8674
  14   2.0000      -5.544269      -150.8672
  15   2.0000      -5.542875      -150.8293
  16   2.0000      -5.542869      -150.8291
  17   2.0000      -1.511058       -41.1180
  18   2.0000      -1.471551       -40.0429
  19   2.0000      -1.425074       -38.7782
  20   2.0000      -1.413767       -38.4706
  21   2.0000      -1.404296       -38.2128
  22   2.0000      -1.339895       -36.4604
  23   2.0000      -1.329546       -36.1788
  24   2.0000      -0.919895       -25.0316
  25   2.0000      -0.871710       -23.7204
  26   2.0000      -0.798120       -21.7180
  27   2.0000      -0.765768       -20.8376
  28   2.0000      -0.746266       -20.3069
  29   2.0000      -0.730043       -19.8655
  30   2.0000      -0.704112       -19.1599
  31   2.0000      -0.691477       -18.8160
  32   2.0000      -0.683932       -18.6107
  33   2.0000      -0.640016       -17.4157
  34   2.0000      -0.623613       -16.9694
  35   2.0000      -0.619433       -16.8556
  36   2.0000      -0.602993       -16.4083
  37   2.0000      -0.592579       -16.1249
  38   2.0000      -0.570320       -15.5192
  39   2.0000      -0.568466       -15.4687
  40   2.0000      -0.565996       -15.4015
  41   2.0000      -0.506262       -13.7761
  42   2.0000      -0.505147       -13.7457
  43   2.0000      -0.502907       -13.6848
  44   2.0000      -0.496489       -13.5101
  45   0.0000       0.020148         0.5483
  46   0.0000       0.025608         0.6968
  47   0.0000       0.043481         1.1832
  48   0.0000       0.045622         1.2414
  49   0.0000       0.058684         1.5969

MULLIKEN ATOMIC CHARGES
-----------------------
   0 P :    2.710889
   1 O :   -1.020118
   2 P :    2.710889
   3 O :   -1.079242
   4 O :   -0.863295
   5 O :   -1.079243
   6 O :   -0.863295
   7 H :    0.358513
   8 H :    0.358514
   9 O :   -1.004918
  10 H :    0.388112
  11 O :   -1.004918
  12 H :    0.388112
Sum of atomic charges:   -0.0000000

LOEWDIN ATOMIC CHARGES
----------------------
   0 P :   -1.004678
   1 O :    0.513808
   2 P :   -1.004679
   3 O :    0.407977
   4 O :    1.108615
   5 O :    0.407975
   6 O :    1.108614
   7 H :   -1.028746
   8 H :   -1.028742
   9 O :    1.107362
  10 H :   -0.847434
  11 O :    1.107361
  12 H :   -0.847433

  Mayer bond orders larger than 0.100000
B(  0-P ,  1-O ) :   0.7017 B(  0-P ,  3-O ) :   1.3616 B(  0-P ,  4-O ) :   0.7173
B(  0-P , 11-O ) :   0.4912 B(  1-O ,  2-P ) :   0.7017 B(  2-P ,  5-O ) :   1.3616
B(  2-P ,  6-O ) :   0.7173 B(  2-P ,  9-O ) :   0.4912 B(  4-O ,  8-H ) :   0.8509
B(  6-O ,  7-H ) :   0.8509 B(  9-O , 10-H ) :   0.8990 B( 11-O , 12-H ) :   0.8990

MP2 TOTAL ENERGY:    -1210.587293571 Eh
FINAL SINGLE POINT ENERGY     -1210.587293570924

DIPOLE MOMENT
-------------
                                X             Y             Z
Electronic contribution:     -0.00001      -0.00001       0.70738
Nuclear contribution   :     -0.00000       0.00000       0.35824
                        -----------------------------------------
Total Dipole Moment    :     -0.00001      -0.00001       1.06562
                        -----------------------------------------
Magnitude (a.u.)       :      1.06562
Magnitude (Debye)      :      2.70859

Rotational constants in cm-1:     0.081800     0.030504     0.029275
Rotational constants in MHz :  2452.297626   914.488770   877.640172

                             ****ORCA TERMINATED NORMALLY****
TOTAL RUN TIME: 0 days 1 hours 41 minutes 29 seconds 540 msec
