                         Program Version 5.0.4 -  RELEASE  -
|  1> ! ri-mp2 aug-cc-pvdz aug-cc-pvdz/c tightscf
|  2> %pal nprocs 16 end
|  3> %maxcore 3800
|  4> %base "DZ_B-Cl_31_A"
|  5> %scf
|  6> STABPerform true
|  7> STABRestartUHFifUnstable true
|  8> end
|  9>
| 10> *xyz 0 2
| 11> Cl         1.869331    0.425522    0.000003
| 12> B         0.848540   -0.930644   -0.000009
| 13> C        -1.442652    0.544655    0.000002
| 14> N        -1.812958    1.630437   -0.000008
| 15> S        -0.917169   -1.078852    0.000002
| 16> *
| 17>
| 18> $new_job
| 19> ! ri-mp2 aug-cc-pvtz aug-cc-pvtz/c tightscf
| 20> %pal nprocs 16 end
| 21> %maxcore 3800
| 22> %base "TZ_B-Cl_31_A"
| 23>
| 24> *xyz 0 2
| 25> Cl         1.869331    0.425522    0.000003
| 26> B         0.848540   -0.930644   -0.000009
| 27> C        -1.442652    0.544655    0.000002
| 28> N        -1.812958    1.630437   -0.000008
| 29> S        -0.917169   -1.078852    0.000002
| 30> *
| 31>
| 32> $new_job
| 33> ! ri-mp2 aug-cc-pvqz aug-cc-pvqz/c tightscf
| 34> %pal nprocs 16 end
| 35> %maxcore 3800
| 36> %base "QZ_B-Cl_31_A"
| 37>
| 38> *xyz 0 2
| 39> Cl         1.869331    0.425522    0.000003
| 40> B         0.848540   -0.930644   -0.000009
| 41> C        -1.442652    0.544655    0.000002
| 42> N        -1.812958    1.630437   -0.000008
| 43> S        -0.917169   -1.078852    0.000002
| 44> *
| 45>
| 46>
| 47>
| 48>
| 49>                          ****END OF INPUT****
 Total Charge           Charge          ....    0
 Multiplicity           Mult            ....    2
 Number of Electrons    NEL             ....   51
MP2 TOTAL ENERGY:     -974.665224167 Eh
FINAL SINGLE POINT ENERGY      -974.665224166794
MP2 TOTAL ENERGY:     -974.866556427 Eh
FINAL SINGLE POINT ENERGY      -974.866556427182

CARTESIAN COORDINATES (ANGSTROEM)
---------------------------------
  Cl     1.869331    0.425522    0.000003
  B      0.848540   -0.930644   -0.000009
  C     -1.442652    0.544655    0.000002
  N     -1.812958    1.630437   -0.000008
  S     -0.917169   -1.078852    0.000002

 Multiplicity           Mult            ....    2
 Number of Electrons    NEL             ....   51
 Basis Dimension        Dim             ....  408

ORBITAL ENERGIES
----------------
                 SPIN UP ORBITALS
  NO   OCC          E(Eh)            E(eV)
   0   1.0000    -104.877578     -2853.8640
   1   1.0000     -92.037532     -2504.4686
   2   1.0000     -15.594565      -424.3497
   3   1.0000     -11.309207      -307.7392
   4   1.0000     -10.604983      -288.5762
   5   1.0000      -9.040606      -246.0074
   6   1.0000      -8.072531      -219.6647
   7   1.0000      -8.070603      -219.6123
   8   1.0000      -8.070160      -219.6002
   9   1.0000      -7.737166      -210.5390
  10   1.0000      -6.721647      -182.9053
  11   1.0000      -6.720574      -182.8761
  12   1.0000      -6.719693      -182.8522
  13   1.0000      -1.249132       -33.9906
  14   1.0000      -1.165649       -31.7189
  15   1.0000      -1.079635       -29.3784
  16   1.0000      -0.765434       -20.8285
  17   1.0000      -0.665681       -18.1141
  18   1.0000      -0.594035       -16.1645
  19   1.0000      -0.579979       -15.7820
  20   1.0000      -0.556781       -15.1508
  21   1.0000      -0.524409       -14.2699
  22   1.0000      -0.519622       -14.1396
  23   1.0000      -0.482481       -13.1290
  24   1.0000      -0.423979       -11.5370
  25   1.0000      -0.382073       -10.3967
  26   0.0000       0.026928         0.7327
  27   0.0000       0.031463         0.8561
  28   0.0000       0.034967         0.9515
  29   0.0000       0.039505         1.0750
  30   0.0000       0.046468         1.2645

                 SPIN DOWN ORBITALS
  NO   OCC          E(Eh)            E(eV)
   0   1.0000    -104.876888     -2853.8452
   1   1.0000     -92.037315     -2504.4627
   2   1.0000     -15.595273      -424.3689
   3   1.0000     -11.306651      -307.6696
   4   1.0000     -10.604183      -288.5545
   5   1.0000      -9.039845      -245.9867
   6   1.0000      -8.071345      -219.6325
   7   1.0000      -8.070326      -219.6047
   8   1.0000      -8.068227      -219.5476
   9   1.0000      -7.715726      -209.9556
  10   1.0000      -6.722263      -182.9221
  11   1.0000      -6.720165      -182.8650
  12   1.0000      -6.719850      -182.8564
  13   1.0000      -1.248169       -33.9644
  14   1.0000      -1.156880       -31.4803
  15   1.0000      -1.070830       -29.1388
  16   1.0000      -0.732849       -19.9418
  17   1.0000      -0.653311       -17.7775
  18   1.0000      -0.586297       -15.9539
  19   1.0000      -0.568081       -15.4583
  20   1.0000      -0.554589       -15.0911
  21   1.0000      -0.520096       -14.1525
  22   1.0000      -0.502293       -13.6681
  23   1.0000      -0.475205       -12.9310
  24   1.0000      -0.425912       -11.5896
  25   0.0000       0.015089         0.4106
  26   0.0000       0.035074         0.9544
  27   0.0000       0.035556         0.9675
  28   0.0000       0.039210         1.0670
  29   0.0000       0.054442         1.4814

MULLIKEN ATOMIC CHARGES AND SPIN POPULATIONS
--------------------------------------------
   0 Cl:   -0.136108    0.024299
   1 B :    0.191052    1.002114
   2 C :   -0.085098    0.099589
   3 N :   -0.468308   -0.030822
   4 S :    0.498462   -0.095180
Sum of atomic charges         :    0.0000000

LOEWDIN ATOMIC CHARGES AND SPIN POPULATIONS
-------------------------------------------
   0 Cl:    1.193185    0.172319
   1 B :   -1.668207    0.614416
   2 C :   -0.932093    0.039858
   3 N :    0.278709   -0.006356
   4 S :    1.128405    0.179763

  Mayer bond orders larger than 0.100000
B(  0-Cl,  1-B ) :   1.2446 B(  1-B ,  4-S ) :   1.1721 B(  2-C ,  3-N ) :   2.6441
B(  2-C ,  4-S ) :   0.8584

MP2 TOTAL ENERGY:     -974.934663782 Eh
FINAL SINGLE POINT ENERGY      -974.934663782227

DIPOLE MOMENT
-------------
                                X             Y             Z
Electronic contribution:      3.61701      -1.22372       0.00000
Nuclear contribution   :     -3.06644       0.16891       0.00000
                        -----------------------------------------
Total Dipole Moment    :      0.55057      -1.05481       0.00000
                        -----------------------------------------
Magnitude (a.u.)       :      1.18986
Magnitude (Debye)      :      3.02437

Rotational constants in cm-1:     0.179541     0.073431     0.052116
Rotational constants in MHz :  5382.508381  2201.398110  1562.393180

                             ****ORCA TERMINATED NORMALLY****
TOTAL RUN TIME: 0 days 0 hours 17 minutes 19 seconds 839 msec
