                         Program Version 5.0.4 -  RELEASE  -
|  1> ! ri-mp2 aug-cc-pvdz aug-cc-pvdz/c tightscf
|  2> %pal nprocs 16 end
|  3> %maxcore 3800
|  4> %base "DZ_B-Cl_2_AB"
|  5>
|  6> *xyz 0 1
|  7> Cl        -0.213424    1.740559   -0.000000
|  8> Cl        -1.977874   -0.712789   -0.000003
|  9> S         1.007996   -1.112777    0.000002
| 10> B        -0.376401   -0.003752    0.000004
| 11> C         2.456467   -0.027418    0.000000
| 12> H         3.327835   -0.677299   -0.000001
| 13> H         2.469747    0.596452    0.888706
| 14> H         2.469745    0.596453   -0.888704
| 15> *
| 16>
| 17> $new_job
| 18> ! ri-mp2 aug-cc-pvtz aug-cc-pvtz/c tightscf
| 19> %pal nprocs 16 end
| 20> %maxcore 3800
| 21> %base "TZ_B-Cl_2_AB"
| 22>
| 23> *xyz 0 1
| 24> Cl        -0.213424    1.740559   -0.000000
| 25> Cl        -1.977874   -0.712789   -0.000003
| 26> S         1.007996   -1.112777    0.000002
| 27> B        -0.376401   -0.003752    0.000004
| 28> C         2.456467   -0.027418    0.000000
| 29> H         3.327835   -0.677299   -0.000001
| 30> H         2.469747    0.596452    0.888706
| 31> H         2.469745    0.596453   -0.888704
| 32> *
| 33>
| 34> $new_job
| 35> ! ri-mp2 aug-cc-pvqz aug-cc-pvqz/c tightscf
| 36> %pal nprocs 16 end
| 37> %maxcore 3800
| 38> %base "QZ_B-Cl_2_AB"
| 39>
| 40> *xyz 0 1
| 41> Cl        -0.213424    1.740559   -0.000000
| 42> Cl        -1.977874   -0.712789   -0.000003
| 43> S         1.007996   -1.112777    0.000002
| 44> B        -0.376401   -0.003752    0.000004
| 45> C         2.456467   -0.027418    0.000000
| 46> H         3.327835   -0.677299   -0.000001
| 47> H         2.469747    0.596452    0.888706
| 48> H         2.469745    0.596453   -0.888704
| 49> *
| 50>
| 51>
| 52>
| 53>
| 54>                          ****END OF INPUT****
 Total Charge           Charge          ....    0
 Multiplicity           Mult            ....    1
 Number of Electrons    NEL             ....   64
MP2 TOTAL ENERGY:    -1381.634403692 Eh
FINAL SINGLE POINT ENERGY     -1381.634403692441
MP2 TOTAL ENERGY:    -1381.865983961 Eh
FINAL SINGLE POINT ENERGY     -1381.865983961441

CARTESIAN COORDINATES (ANGSTROEM)
---------------------------------
  Cl    -0.213424    1.740559   -0.000000
  Cl    -1.977874   -0.712789   -0.000003
  S      1.007996   -1.112777    0.000002
  B     -0.376401   -0.003752    0.000004
  C      2.456467   -0.027418    0.000000
  H      3.327835   -0.677299   -0.000001
  H      2.469747    0.596452    0.888706
  H      2.469745    0.596453   -0.888704

 Multiplicity           Mult            ....    1
 Number of Electrons    NEL             ....   64
 Basis Dimension        Dim             ....  550

ORBITAL ENERGIES
----------------

  NO   OCC          E(Eh)            E(eV)
   0   2.0000    -104.847251     -2853.0387
   1   2.0000    -104.841653     -2852.8864
   2   2.0000     -91.968260     -2502.5836
   3   2.0000     -11.269881      -306.6690
   4   2.0000     -10.574981      -287.7599
   5   2.0000     -10.569308      -287.6055
   6   2.0000      -8.972839      -244.1634
   7   2.0000      -8.041826      -218.8292
   8   2.0000      -8.040698      -218.7985
   9   2.0000      -8.040501      -218.7932
  10   2.0000      -8.036169      -218.6753
  11   2.0000      -8.035000      -218.6435
  12   2.0000      -8.034824      -218.6387
  13   2.0000      -7.728888      -210.3137
  14   2.0000      -6.654302      -181.0728
  15   2.0000      -6.653366      -181.0473
  16   2.0000      -6.653002      -181.0374
  17   2.0000      -1.151108       -31.3233
  18   2.0000      -1.104012       -30.0417
  19   2.0000      -1.057524       -28.7767
  20   2.0000      -0.894365       -24.3369
  21   2.0000      -0.676895       -18.4192
  22   2.0000      -0.621678       -16.9167
  23   2.0000      -0.610079       -16.6011
  24   2.0000      -0.591676       -16.1003
  25   2.0000      -0.547596       -14.9008
  26   2.0000      -0.525055       -14.2875
  27   2.0000      -0.486873       -13.2485
  28   2.0000      -0.471810       -12.8386
  29   2.0000      -0.456434       -12.4202
  30   2.0000      -0.445363       -12.1189
  31   2.0000      -0.385548       -10.4913
  32   0.0000       0.023454         0.6382
  33   0.0000       0.035792         0.9739
  34   0.0000       0.038351         1.0436
  35   0.0000       0.039983         1.0880
  36   0.0000       0.051955         1.4138

MULLIKEN ATOMIC CHARGES
-----------------------
   0 Cl:   -0.204907
   1 Cl:   -0.151374
   2 S :    0.113273
   3 B :    0.227212
   4 C :   -0.931824
   5 H :    0.387028
   6 H :    0.280295
   7 H :    0.280297
Sum of atomic charges:   -0.0000000

LOEWDIN ATOMIC CHARGES
----------------------
   0 Cl:    1.215197
   1 Cl:    1.142529
   2 S :    1.214027
   3 B :   -2.899333
   4 C :    0.486833
   5 H :   -0.386240
   6 H :   -0.386506
   7 H :   -0.386507

  Mayer bond orders larger than 0.100000
B(  0-Cl,  3-B ) :   1.1021 B(  1-Cl,  3-B ) :   1.0833 B(  2-S ,  3-B ) :   1.3804
B(  2-S ,  4-C ) :   1.0089 B(  4-C ,  5-H ) :   0.8236 B(  4-C ,  6-H ) :   0.9196
B(  4-C ,  7-H ) :   0.9196

MP2 TOTAL ENERGY:    -1381.942915993 Eh
FINAL SINGLE POINT ENERGY     -1381.942915993458

DIPOLE MOMENT
-------------
                                X             Y             Z
Electronic contribution:    -10.00529       1.06127       0.00000
Nuclear contribution   :     10.89378      -0.85607       0.00000
                        -----------------------------------------
Total Dipole Moment    :      0.88849       0.20520       0.00000
                        -----------------------------------------
Magnitude (a.u.)       :      0.91188
Magnitude (Debye)      :      2.31781

Rotational constants in cm-1:     0.100411     0.062227     0.038699
Rotational constants in MHz :  3010.257388  1865.530878  1160.177835

                             ****ORCA TERMINATED NORMALLY****
TOTAL RUN TIME: 0 days 0 hours 5 minutes 19 seconds 388 msec
