                         Program Version 5.0.4 -  RELEASE  -
|  1> ! ri-mp2 aug-cc-pvdz aug-cc-pvdz/c tightscf
|  2> %pal nprocs 16 end
|  3> %maxcore 3800
|  4> %base "DZ_Si-F_12_AB"
|  5>
|  6> *xyz 0 1
|  7> Si         0.348061    0.434950    0.422321
|  8> C        -1.236245   -0.235251   -0.148007
|  9> Cl         1.901777   -0.750412   -0.148101
| 10> F         0.578251    1.890541   -0.178200
| 11> F        -1.561831   -1.487018    0.066830
| 12> F        -2.325928    0.494166   -0.167158
| 13> *
| 14>
| 15> $new_job
| 16> ! ri-mp2 aug-cc-pvtz aug-cc-pvtz/c tightscf
| 17> %pal nprocs 16 end
| 18> %maxcore 3800
| 19> %base "TZ_Si-F_12_AB"
| 20>
| 21> *xyz 0 1
| 22> Si         0.348061    0.434950    0.422321
| 23> C        -1.236245   -0.235251   -0.148007
| 24> Cl         1.901777   -0.750412   -0.148101
| 25> F         0.578251    1.890541   -0.178200
| 26> F        -1.561831   -1.487018    0.066830
| 27> F        -2.325928    0.494166   -0.167158
| 28> *
| 29>
| 30> $new_job
| 31> ! ri-mp2 aug-cc-pvqz aug-cc-pvqz/c tightscf
| 32> %pal nprocs 16 end
| 33> %maxcore 3800
| 34> %base "QZ_Si-F_12_AB"
| 35>
| 36> *xyz 0 1
| 37> Si         0.348061    0.434950    0.422321
| 38> C        -1.236245   -0.235251   -0.148007
| 39> Cl         1.901777   -0.750412   -0.148101
| 40> F         0.578251    1.890541   -0.178200
| 41> F        -1.561831   -1.487018    0.066830
| 42> F        -2.325928    0.494166   -0.167158
| 43> *
| 44>
| 45>
| 46>
| 47>
| 48>                          ****END OF INPUT****
 Total Charge           Charge          ....    0
 Multiplicity           Mult            ....    1
 Number of Electrons    NEL             ....   64
MP2 TOTAL ENERGY:    -1085.642387375 Eh
FINAL SINGLE POINT ENERGY     -1085.642387375019
MP2 TOTAL ENERGY:    -1086.022036071 Eh
FINAL SINGLE POINT ENERGY     -1086.022036071224

CARTESIAN COORDINATES (ANGSTROEM)
---------------------------------
  Si     0.348061    0.434950    0.422321
  C     -1.236245   -0.235251   -0.148007
  Cl     1.901777   -0.750412   -0.148101
  F      0.578251    1.890541   -0.178200
  F     -1.561831   -1.487018    0.066830
  F     -2.325928    0.494166   -0.167158

 Multiplicity           Mult            ....    1
 Number of Electrons    NEL             ....   64
 Basis Dimension        Dim             ....  488

ORBITAL ENERGIES
----------------

  NO   OCC          E(Eh)            E(eV)
   0   2.0000    -104.857378     -2853.3143
   1   2.0000     -68.871000     -1874.0752
   2   2.0000     -26.376496      -717.7409
   3   2.0000     -26.376436      -717.7393
   4   2.0000     -26.314974      -716.0669
   5   2.0000     -11.466597      -312.0220
   6   2.0000     -10.584372      -288.0154
   7   2.0000      -8.051182      -219.0838
   8   2.0000      -8.049947      -219.0502
   9   2.0000      -8.049865      -219.0480
  10   2.0000      -6.211892      -169.0342
  11   2.0000      -4.318527      -117.5131
  12   2.0000      -4.317646      -117.4891
  13   2.0000      -4.316146      -117.4483
  14   2.0000      -1.739297       -47.3287
  15   2.0000      -1.670615       -45.4597
  16   2.0000      -1.617525       -44.0151
  17   2.0000      -1.126218       -30.6460
  18   2.0000      -0.982308       -26.7300
  19   2.0000      -0.844507       -22.9802
  20   2.0000      -0.828196       -22.5363
  21   2.0000      -0.789872       -21.4935
  22   2.0000      -0.768487       -20.9116
  23   2.0000      -0.715673       -19.4745
  24   2.0000      -0.698678       -19.0120
  25   2.0000      -0.695928       -18.9372
  26   2.0000      -0.691881       -18.8270
  27   2.0000      -0.650797       -17.7091
  28   2.0000      -0.570028       -15.5112
  29   2.0000      -0.507181       -13.8011
  30   2.0000      -0.498662       -13.5693
  31   2.0000      -0.331117        -9.0102
  32   0.0000      -0.002606        -0.0709
  33   0.0000       0.037743         1.0270
  34   0.0000       0.040938         1.1140
  35   0.0000       0.042748         1.1632
  36   0.0000       0.048336         1.3153

MULLIKEN ATOMIC CHARGES
-----------------------
   0 Si:    1.541865
   1 C :    0.712184
   2 Cl:   -0.525479
   3 F :   -0.713571
   4 F :   -0.509859
   5 F :   -0.505141
Sum of atomic charges:    0.0000000

LOEWDIN ATOMIC CHARGES
----------------------
   0 Si:   -0.939247
   1 C :   -1.462456
   2 Cl:    0.809866
   3 F :    0.297714
   4 F :    0.643798
   5 F :    0.650325

  Mayer bond orders larger than 0.100000
B(  0-Si,  1-C ) :   1.3613 B(  0-Si,  2-Cl) :   0.7295 B(  0-Si,  3-F ) :   0.4076
B(  1-C ,  4-F ) :   0.7370 B(  1-C ,  5-F ) :   0.7202

MP2 TOTAL ENERGY:    -1086.149264283 Eh
FINAL SINGLE POINT ENERGY     -1086.149264282943

DIPOLE MOMENT
-------------
                                X             Y             Z
Electronic contribution:     -0.50589      -0.26649      -0.27821
Nuclear contribution   :      0.47747       0.14566       0.41834
                        -----------------------------------------
Total Dipole Moment    :     -0.02842      -0.12083       0.14013
                        -----------------------------------------
Magnitude (a.u.)       :      0.18720
Magnitude (Debye)      :      0.47582

Rotational constants in cm-1:     0.114089     0.053906     0.037802
Rotational constants in MHz :  3420.299477  1616.070719  1133.271946

                             ****ORCA TERMINATED NORMALLY****
TOTAL RUN TIME: 0 days 0 hours 2 minutes 35 seconds 783 msec
