                         Program Version 5.0.4 -  RELEASE  -
|  1> ! ri-mp2 aug-cc-pvdz aug-cc-pvdz/c tightscf
|  2> %pal nprocs 16 end
|  3> %maxcore 3800
|  4> %base "DZ_Si-S_6_AB"
|  5>
|  6> *xyz 0 1
|  7> S         1.784762    0.000770   -0.692786
|  8> Si         0.455968   -0.001106    0.994401
|  9> H         2.907848   -0.000056    0.037500
| 10> C        -1.296924   -0.000364    0.330558
| 11> C        -1.612598   -1.262787   -0.471858
| 12> H        -1.006352   -1.317421   -1.377806
| 13> H        -2.660616   -1.271199   -0.778869
| 14> H        -1.426831   -2.170678    0.103432
| 15> C        -1.612590    1.263833   -0.469061
| 16> H        -1.006343    1.320472   -1.374884
| 17> H        -1.426821    2.170447    0.108239
| 18> H        -2.660607    1.272931   -0.776055
| 19> H        -1.926224   -0.001357    1.228694
| 20> H         0.699435    1.197536    1.828778
| 21> H         0.699431   -1.201604    1.826105
| 22> *
| 23>
| 24> $new_job
| 25> ! ri-mp2 aug-cc-pvtz aug-cc-pvtz/c tightscf
| 26> %pal nprocs 16 end
| 27> %maxcore 3800
| 28> %base "TZ_Si-S_6_AB"
| 29>
| 30> *xyz 0 1
| 31> S         1.784762    0.000770   -0.692786
| 32> Si         0.455968   -0.001106    0.994401
| 33> H         2.907848   -0.000056    0.037500
| 34> C        -1.296924   -0.000364    0.330558
| 35> C        -1.612598   -1.262787   -0.471858
| 36> H        -1.006352   -1.317421   -1.377806
| 37> H        -2.660616   -1.271199   -0.778869
| 38> H        -1.426831   -2.170678    0.103432
| 39> C        -1.612590    1.263833   -0.469061
| 40> H        -1.006343    1.320472   -1.374884
| 41> H        -1.426821    2.170447    0.108239
| 42> H        -2.660607    1.272931   -0.776055
| 43> H        -1.926224   -0.001357    1.228694
| 44> H         0.699435    1.197536    1.828778
| 45> H         0.699431   -1.201604    1.826105
| 46> *
| 47>
| 48> $new_job
| 49> ! ri-mp2 aug-cc-pvqz aug-cc-pvqz/c tightscf
| 50> %pal nprocs 16 end
| 51> %maxcore 3800
| 52> %base "QZ_Si-S_6_AB"
| 53>
| 54> *xyz 0 1
| 55> S         1.784762    0.000770   -0.692786
| 56> Si         0.455968   -0.001106    0.994401
| 57> H         2.907848   -0.000056    0.037500
| 58> C        -1.296924   -0.000364    0.330558
| 59> C        -1.612598   -1.262787   -0.471858
| 60> H        -1.006352   -1.317421   -1.377806
| 61> H        -2.660616   -1.271199   -0.778869
| 62> H        -1.426831   -2.170678    0.103432
| 63> C        -1.612590    1.263833   -0.469061
| 64> H        -1.006343    1.320472   -1.374884
| 65> H        -1.426821    2.170447    0.108239
| 66> H        -2.660607    1.272931   -0.776055
| 67> H        -1.926224   -0.001357    1.228694
| 68> H         0.699435    1.197536    1.828778
| 69> H         0.699431   -1.201604    1.826105
| 70> *
| 71>
| 72>
| 73>
| 74>
| 75>                          ****END OF INPUT****
 Total Charge           Charge          ....    0
 Multiplicity           Mult            ....    1
 Number of Electrons    NEL             ....   58
MP2 TOTAL ENERGY:     -806.644641045 Eh
FINAL SINGLE POINT ENERGY      -806.644641044644
MP2 TOTAL ENERGY:     -806.853967281 Eh
FINAL SINGLE POINT ENERGY      -806.853967281141

CARTESIAN COORDINATES (ANGSTROEM)
---------------------------------
  S      1.784762    0.000770   -0.692786
  Si     0.455968   -0.001106    0.994401
  H      2.907848   -0.000056    0.037500
  C     -1.296924   -0.000364    0.330558
  C     -1.612598   -1.262787   -0.471858
  H     -1.006352   -1.317421   -1.377806
  H     -2.660616   -1.271199   -0.778869
  H     -1.426831   -2.170678    0.103432
  C     -1.612590    1.263833   -0.469061
  H     -1.006343    1.320472   -1.374884
  H     -1.426821    2.170447    0.108239
  H     -2.660607    1.272931   -0.776055
  H     -1.926224   -0.001357    1.228694
  H      0.699435    1.197536    1.828778
  H      0.699431   -1.201604    1.826105

 Multiplicity           Mult            ....    1
 Number of Electrons    NEL             ....   58
 Basis Dimension        Dim             ....  868

ORBITAL ENERGIES
----------------

  NO   OCC          E(Eh)            E(eV)
   0   2.0000     -91.942276     -2501.8765
   1   2.0000     -68.784566     -1871.7232
   2   2.0000     -11.221639      -305.3563
   3   2.0000     -11.219507      -305.2983
   4   2.0000     -11.219411      -305.2957
   5   2.0000      -8.947071      -243.4622
   6   2.0000      -6.628630      -180.3742
   7   2.0000      -6.627843      -180.3528
   8   2.0000      -6.627018      -180.3303
   9   2.0000      -6.132438      -166.8721
  10   2.0000      -4.239077      -115.3512
  11   2.0000      -4.238408      -115.3329
  12   2.0000      -4.238109      -115.3248
  13   2.0000      -1.065645       -28.9977
  14   2.0000      -0.963290       -26.2125
  15   2.0000      -0.936229       -25.4761
  16   2.0000      -0.812450       -22.1079
  17   2.0000      -0.686645       -18.6846
  18   2.0000      -0.625136       -17.0108
  19   2.0000      -0.589408       -16.0386
  20   2.0000      -0.568527       -15.4704
  21   2.0000      -0.542781       -14.7698
  22   2.0000      -0.542375       -14.7588
  23   2.0000      -0.495302       -13.4779
  24   2.0000      -0.489343       -13.3157
  25   2.0000      -0.479295       -13.0423
  26   2.0000      -0.438340       -11.9278
  27   2.0000      -0.416628       -11.3370
  28   2.0000      -0.371837       -10.1182
  29   0.0000       0.023342         0.6352
  30   0.0000       0.032255         0.8777
  31   0.0000       0.034301         0.9334
  32   0.0000       0.034881         0.9492
  33   0.0000       0.048201         1.3116

MULLIKEN ATOMIC CHARGES
-----------------------
   0 S :   -0.500771
   1 Si:    1.094405
   2 H :    0.032792
   3 C :   -0.006083
   4 C :   -0.952507
   5 H :    0.225518
   6 H :    0.290262
   7 H :    0.249695
   8 C :   -0.952507
   9 H :    0.225519
  10 H :    0.249694
  11 H :    0.290262
  12 H :    0.296010
  13 H :   -0.271145
  14 H :   -0.271145
Sum of atomic charges:   -0.0000000

LOEWDIN ATOMIC CHARGES
----------------------
   0 S :    1.471494
   1 Si:    0.270308
   2 H :   -0.883506
   3 C :    0.033325
   4 C :    0.834832
   5 H :   -0.303110
   6 H :   -0.277450
   7 H :   -0.289160
   8 C :    0.834831
   9 H :   -0.303111
  10 H :   -0.289160
  11 H :   -0.277450
  12 H :   -0.338883
  13 H :   -0.241479
  14 H :   -0.241480

  Mayer bond orders larger than 0.100000
B(  0-S ,  1-Si) :   0.6177 B(  0-S ,  2-H ) :   1.0759 B(  0-S ,  3-C ) :  -0.1126
B(  1-Si,  3-C ) :   0.6891 B(  1-Si, 13-H ) :   0.7761 B(  1-Si, 14-H ) :   0.7761
B(  3-C ,  4-C ) :   0.7760 B(  3-C ,  8-C ) :   0.7760 B(  3-C , 12-H ) :   0.8681
B(  4-C ,  5-H ) :   0.9691 B(  4-C ,  6-H ) :   0.9597 B(  4-C ,  7-H ) :   0.9748
B(  8-C ,  9-H ) :   0.9691 B(  8-C , 10-H ) :   0.9748 B(  8-C , 11-H ) :   0.9597

MP2 TOTAL ENERGY:     -806.918391405 Eh
FINAL SINGLE POINT ENERGY      -806.918391405158

DIPOLE MOMENT
-------------
                                X             Y             Z
Electronic contribution:      7.76931       0.00048      -0.42369
Nuclear contribution   :     -8.08802      -0.00091       0.80589
                        -----------------------------------------
Total Dipole Moment    :     -0.31872      -0.00043       0.38220
                        -----------------------------------------
Magnitude (a.u.)       :      0.49765
Magnitude (Debye)      :      1.26494

Rotational constants in cm-1:     0.140110     0.059882     0.058774
Rotational constants in MHz :  4200.406183  1795.207473  1762.008658

                             ****ORCA TERMINATED NORMALLY****
TOTAL RUN TIME: 0 days 0 hours 15 minutes 34 seconds 42 msec
