                         Program Version 5.0.4 -  RELEASE  -
|  1> ! ri-mp2 aug-cc-pvdz aug-cc-pvdz/c tightscf
|  2> %pal nprocs 16 end
|  3> %maxcore 3800
|  4> %base "DZ_B-Si_8_AB"
|  5> %scf
|  6> STABPerform true
|  7> STABRestartUHFifUnstable true
|  8> end
|  9>
| 10> *xyz 0 1
| 11> Si        -0.404759   -0.424930    0.000008
| 12> B         1.533376    0.161500   -0.000013
| 13> O         1.897094    1.471981   -0.000023
| 14> C        -0.897632   -1.356776    1.533904
| 15> H        -0.689731   -0.777994    2.433591
| 16> H        -0.335695   -2.290914    1.595818
| 17> C        -0.897653   -1.356819   -1.533855
| 18> Cl        -1.474018    1.386840   -0.000009
| 19> H        -0.335712   -2.290955   -1.595753
| 20> H        -0.689771   -0.778059   -2.433560
| 21> H        -1.961251   -1.597586   -1.520950
| 22> H        -1.961232   -1.597537    1.521023
| 23> H         1.147966    2.077546   -0.000019
| 24> O         2.509948   -0.783330   -0.000017
| 25> H         3.398845   -0.406909   -0.000026
| 26> *
| 27>
| 28> $new_job
| 29> ! ri-mp2 aug-cc-pvtz aug-cc-pvtz/c tightscf
| 30> %pal nprocs 16 end
| 31> %maxcore 3800
| 32> %base "TZ_B-Si_8_AB"
| 33>
| 34> *xyz 0 1
| 35> Si        -0.404759   -0.424930    0.000008
| 36> B         1.533376    0.161500   -0.000013
| 37> O         1.897094    1.471981   -0.000023
| 38> C        -0.897632   -1.356776    1.533904
| 39> H        -0.689731   -0.777994    2.433591
| 40> H        -0.335695   -2.290914    1.595818
| 41> C        -0.897653   -1.356819   -1.533855
| 42> Cl        -1.474018    1.386840   -0.000009
| 43> H        -0.335712   -2.290955   -1.595753
| 44> H        -0.689771   -0.778059   -2.433560
| 45> H        -1.961251   -1.597586   -1.520950
| 46> H        -1.961232   -1.597537    1.521023
| 47> H         1.147966    2.077546   -0.000019
| 48> O         2.509948   -0.783330   -0.000017
| 49> H         3.398845   -0.406909   -0.000026
| 50> *
| 51>
| 52> $new_job
| 53> ! ri-mp2 aug-cc-pvqz aug-cc-pvqz/c tightscf
| 54> %pal nprocs 16 end
| 55> %maxcore 3800
| 56> %base "QZ_B-Si_8_AB"
| 57>
| 58> *xyz 0 1
| 59> Si        -0.404759   -0.424930    0.000008
| 60> B         1.533376    0.161500   -0.000013
| 61> O         1.897094    1.471981   -0.000023
| 62> C        -0.897632   -1.356776    1.533904
| 63> H        -0.689731   -0.777994    2.433591
| 64> H        -0.335695   -2.290914    1.595818
| 65> C        -0.897653   -1.356819   -1.533855
| 66> Cl        -1.474018    1.386840   -0.000009
| 67> H        -0.335712   -2.290955   -1.595753
| 68> H        -0.689771   -0.778059   -2.433560
| 69> H        -1.961251   -1.597586   -1.520950
| 70> H        -1.961232   -1.597537    1.521023
| 71> H         1.147966    2.077546   -0.000019
| 72> O         2.509948   -0.783330   -0.000017
| 73> H         3.398845   -0.406909   -0.000026
| 74> *
| 75>
| 76>
| 77>
| 78>
| 79>                          ****END OF INPUT****
 Total Charge           Charge          ....    0
 Multiplicity           Mult            ....    1
 Number of Electrons    NEL             ....   72
MP2 TOTAL ENERGY:    -1004.500716254 Eh
FINAL SINGLE POINT ENERGY     -1004.500716254230
MP2 TOTAL ENERGY:    -1004.833057782 Eh
FINAL SINGLE POINT ENERGY     -1004.833057782059

CARTESIAN COORDINATES (ANGSTROEM)
---------------------------------
  Si    -0.404759   -0.424930    0.000008
  B      1.533376    0.161500   -0.000013
  O      1.897094    1.471981   -0.000023
  C     -0.897632   -1.356776    1.533904
  H     -0.689731   -0.777994    2.433591
  H     -0.335695   -2.290914    1.595818
  C     -0.897653   -1.356819   -1.533855
  Cl    -1.474018    1.386840   -0.000009
  H     -0.335712   -2.290955   -1.595753
  H     -0.689771   -0.778059   -2.433560
  H     -1.961251   -1.597586   -1.520950
  H     -1.961232   -1.597537    1.521023
  H      1.147966    2.077546   -0.000019
  O      2.509948   -0.783330   -0.000017
  H      3.398845   -0.406909   -0.000026

 Multiplicity           Mult            ....    1
 Number of Electrons    NEL             ....   72
 Basis Dimension        Dim             ....  936

ORBITAL ENERGIES
----------------

  NO   OCC          E(Eh)            E(eV)
   0   2.0000    -104.813680     -2852.1252
   1   2.0000     -68.787446     -1871.8016
   2   2.0000     -20.573614      -559.8365
   3   2.0000     -20.572474      -559.8055
   4   2.0000     -11.209496      -305.0259
   5   2.0000     -11.209488      -305.0257
   6   2.0000     -10.541244      -286.8418
   7   2.0000      -8.007998      -217.9087
   8   2.0000      -8.007064      -217.8833
   9   2.0000      -8.007045      -217.8828
  10   2.0000      -7.639181      -207.8727
  11   2.0000      -6.134903      -166.9392
  12   2.0000      -4.242093      -115.4332
  13   2.0000      -4.240406      -115.3873
  14   2.0000      -4.240318      -115.3849
  15   2.0000      -1.391434       -37.8628
  16   2.0000      -1.351434       -36.7744
  17   2.0000      -1.083896       -29.4943
  18   2.0000      -0.966090       -26.2887
  19   2.0000      -0.938572       -25.5398
  20   2.0000      -0.778006       -21.1706
  21   2.0000      -0.742055       -20.1923
  22   2.0000      -0.669181       -18.2093
  23   2.0000      -0.608835       -16.5673
  24   2.0000      -0.581011       -15.8101
  25   2.0000      -0.578303       -15.7364
  26   2.0000      -0.575627       -15.6636
  27   2.0000      -0.570951       -15.5364
  28   2.0000      -0.559227       -15.2173
  29   2.0000      -0.554313       -15.0836
  30   2.0000      -0.507752       -13.8166
  31   2.0000      -0.491903       -13.3854
  32   2.0000      -0.482282       -13.1235
  33   2.0000      -0.470998       -12.8165
  34   2.0000      -0.430369       -11.7109
  35   2.0000      -0.402908       -10.9637
  36   0.0000       0.021518         0.5855
  37   0.0000       0.029167         0.7937
  38   0.0000       0.033653         0.9157
  39   0.0000       0.037390         1.0174
  40   0.0000       0.046952         1.2776

MULLIKEN ATOMIC CHARGES
-----------------------
   0 Si:    1.675453
   1 B :    1.226914
   2 O :   -1.151450
   3 C :   -1.150555
   4 H :    0.273457
   5 H :    0.279712
   6 C :   -1.150554
   7 Cl:   -0.783471
   8 H :    0.279712
   9 H :    0.273457
  10 H :    0.283199
  11 H :    0.283200
  12 H :    0.370214
  13 O :   -1.029753
  14 H :    0.320464
Sum of atomic charges:   -0.0000000

LOEWDIN ATOMIC CHARGES
----------------------
   0 Si:   -0.418309
   1 B :   -1.210664
   2 O :    1.308048
   3 C :    0.913394
   4 H :   -0.354391
   5 H :   -0.342862
   6 C :    0.913395
   7 Cl:    0.993669
   8 H :   -0.342862
   9 H :   -0.354392
  10 H :   -0.351880
  11 H :   -0.351880
  12 H :   -0.889687
  13 O :    1.288379
  14 H :   -0.799958

  Mayer bond orders larger than 0.100000
B(  0-Si,  1-B ) :   0.8725 B(  0-Si,  2-O ) :  -0.1587 B(  0-Si,  3-C ) :   0.8278
B(  0-Si,  6-C ) :   0.8278 B(  1-B ,  2-O ) :   0.4697 B(  1-B ,  7-Cl) :   0.1104
B(  1-B , 13-O ) :   0.3726 B(  2-O , 12-H ) :   0.9108 B(  3-C ,  4-H ) :   0.9540
B(  3-C ,  5-H ) :   0.9252 B(  3-C , 11-H ) :   0.9313 B(  6-C ,  8-H ) :   0.9252
B(  6-C ,  9-H ) :   0.9540 B(  6-C , 10-H ) :   0.9313 B( 13-O , 14-H ) :   0.9688

MP2 TOTAL ENERGY:    -1004.940182251 Eh
FINAL SINGLE POINT ENERGY     -1004.940182251278

DIPOLE MOMENT
-------------
                                X             Y             Z
Electronic contribution:      0.67167       9.10493      -0.00013
Nuclear contribution   :     -0.44867      -9.51401       0.00014
                        -----------------------------------------
Total Dipole Moment    :      0.22300      -0.40908       0.00001
                        -----------------------------------------
Magnitude (a.u.)       :      0.46591
Magnitude (Debye)      :      1.18425

Rotational constants in cm-1:     0.064831     0.043649     0.034423
Rotational constants in MHz :  1943.579570  1308.574921  1031.976567

                             ****ORCA TERMINATED NORMALLY****
TOTAL RUN TIME: 0 days 1 hours 56 minutes 31 seconds 31 msec
