                         Program Version 5.0.4 -  RELEASE  -
|  1> ! ri-mp2 aug-cc-pvdz aug-cc-pvdz/c tightscf
|  2> %pal nprocs 16 end
|  3> %maxcore 3800
|  4> %base "DZ_B-B_23_A"
|  5> %scf
|  6> STABPerform true
|  7> STABRestartUHFifUnstable true
|  8> end
|  9>
| 10> *xyz 0 2
| 11> B         0.066554    0.785831   -0.000015
| 12> C        -1.256725    0.134032   -0.000010
| 13> O        -2.295087   -0.348965   -0.000007
| 14> Cl         1.498094   -0.229945    0.000013
| 15> H         0.100673    1.967438   -0.000024
| 16> *
| 17>
| 18> $new_job
| 19> ! ri-mp2 aug-cc-pvtz aug-cc-pvtz/c tightscf
| 20> %pal nprocs 16 end
| 21> %maxcore 3800
| 22> %base "TZ_B-B_23_A"
| 23>
| 24> *xyz 0 2
| 25> B         0.066554    0.785831   -0.000015
| 26> C        -1.256725    0.134032   -0.000010
| 27> O        -2.295087   -0.348965   -0.000007
| 28> Cl         1.498094   -0.229945    0.000013
| 29> H         0.100673    1.967438   -0.000024
| 30> *
| 31>
| 32> $new_job
| 33> ! ri-mp2 aug-cc-pvqz aug-cc-pvqz/c tightscf
| 34> %pal nprocs 16 end
| 35> %maxcore 3800
| 36> %base "QZ_B-B_23_A"
| 37>
| 38> *xyz 0 2
| 39> B         0.066554    0.785831   -0.000015
| 40> C        -1.256725    0.134032   -0.000010
| 41> O        -2.295087   -0.348965   -0.000007
| 42> Cl         1.498094   -0.229945    0.000013
| 43> H         0.100673    1.967438   -0.000024
| 44> *
| 45>
| 46>
| 47>
| 48>
| 49>                          ****END OF INPUT****
 Total Charge           Charge          ....    0
 Multiplicity           Mult            ....    2
 Number of Electrons    NEL             ....   37
MP2 TOTAL ENERGY:     -598.062894825 Eh
FINAL SINGLE POINT ENERGY      -598.062894825110
MP2 TOTAL ENERGY:     -598.235875357 Eh
FINAL SINGLE POINT ENERGY      -598.235875356828

CARTESIAN COORDINATES (ANGSTROEM)
---------------------------------
  B      0.066554    0.785831   -0.000015
  C     -1.256725    0.134032   -0.000010
  O     -2.295087   -0.348965   -0.000007
  Cl     1.498094   -0.229945    0.000013
  H      0.100673    1.967438   -0.000024

 Multiplicity           Mult            ....    2
 Number of Electrons    NEL             ....   37
 Basis Dimension        Dim             ....  370

ORBITAL ENERGIES
----------------
                 SPIN UP ORBITALS
  NO   OCC          E(Eh)            E(eV)
   0   1.0000    -104.841725     -2852.8884
   1   1.0000     -20.674609      -562.5847
   2   1.0000     -11.385832      -309.8242
   3   1.0000     -10.568831      -287.5925
   4   1.0000      -8.035940      -218.6691
   5   1.0000      -8.035173      -218.6482
   6   1.0000      -8.034260      -218.6233
   7   1.0000      -7.672090      -208.7682
   8   1.0000      -1.527816       -41.5740
   9   1.0000      -1.123241       -30.5649
  10   1.0000      -0.916074       -24.9276
  11   1.0000      -0.771539       -20.9946
  12   1.0000      -0.714489       -19.4422
  13   1.0000      -0.656500       -17.8643
  14   1.0000      -0.619982       -16.8706
  15   1.0000      -0.556357       -15.1393
  16   1.0000      -0.509234       -13.8570
  17   1.0000      -0.462945       -12.5974
  18   1.0000      -0.342028        -9.3071
  19   0.0000       0.030001         0.8164
  20   0.0000       0.032677         0.8892
  21   0.0000       0.036665         0.9977
  22   0.0000       0.037250         1.0136
  23   0.0000       0.069259         1.8846

                 SPIN DOWN ORBITALS
  NO   OCC          E(Eh)            E(eV)
   0   1.0000    -104.841138     -2852.8724
   1   1.0000     -20.660573      -562.2028
   2   1.0000     -11.381599      -309.7090
   3   1.0000     -10.568215      -287.5757
   4   1.0000      -8.035757      -218.6641
   5   1.0000      -8.033956      -218.6151
   6   1.0000      -8.032592      -218.5779
   7   1.0000      -7.666532      -208.6169
   8   1.0000      -1.499216       -40.7957
   9   1.0000      -1.116909       -30.3926
  10   1.0000      -0.861343       -23.4383
  11   1.0000      -0.749920       -20.4064
  12   1.0000      -0.644041       -17.5253
  13   1.0000      -0.612341       -16.6626
  14   1.0000      -0.607983       -16.5441
  15   1.0000      -0.552404       -15.0317
  16   1.0000      -0.481739       -13.1088
  17   1.0000      -0.461363       -12.5543
  18   0.0000       0.026128         0.7110
  19   0.0000       0.030603         0.8328
  20   0.0000       0.032876         0.8946
  21   0.0000       0.037577         1.0225
  22   0.0000       0.044864         1.2208

MULLIKEN ATOMIC CHARGES AND SPIN POPULATIONS
--------------------------------------------
   0 B :    0.408143    0.415364
   1 C :    0.502725    0.323346
   2 O :   -0.514072    0.265696
   3 Cl:   -0.223262    0.023241
   4 H :   -0.173535   -0.027646
Sum of atomic charges         :    0.0000000

LOEWDIN ATOMIC CHARGES AND SPIN POPULATIONS
-------------------------------------------
   0 B :   -1.105179    0.259585
   1 C :   -0.402256    0.317392
   2 O :    0.621823    0.255509
   3 Cl:    1.217582    0.095330
   4 H :   -0.331970    0.072184

  Mayer bond orders larger than 0.100000
B(  0-B ,  1-C ) :   1.3127 B(  0-B ,  3-Cl) :   1.1190 B(  0-B ,  4-H ) :   0.8983
B(  1-C ,  2-O ) :   1.9107

MP2 TOTAL ENERGY:     -598.294099614 Eh
FINAL SINGLE POINT ENERGY      -598.294099614076

DIPOLE MOMENT
-------------
                                X             Y             Z
Electronic contribution:      1.79730      -1.21844       0.00002
Nuclear contribution   :     -1.96832       1.53014      -0.00003
                        -----------------------------------------
Total Dipole Moment    :     -0.17102       0.31170      -0.00001
                        -----------------------------------------
Magnitude (a.u.)       :      0.35553
Magnitude (Debye)      :      0.90369

Rotational constants in cm-1:     1.156403     0.092214     0.085404
Rotational constants in MHz : 34668.096323  2764.499126  2560.333336

                             ****ORCA TERMINATED NORMALLY****
TOTAL RUN TIME: 0 days 0 hours 9 minutes 32 seconds 132 msec
