                         Program Version 5.0.4 -  RELEASE  -
|  1> ! ri-mp2 aug-cc-pvdz aug-cc-pvdz/c tightscf
|  2> %pal nprocs 16 end
|  3> %maxcore 3800
|  4> %base "DZ_S-S_29_AB"
|  5> %scf
|  6> STABPerform true
|  7> STABRestartUHFifUnstable true
|  8> end
|  9>
| 10> *xyz 0 1
| 11> S         2.372625    0.339635   -0.065879
| 12> S         0.780409   -0.926404    0.080115
| 13> C        -0.639196    0.178283   -0.089884
| 14> O        -0.547651    1.366046   -0.098836
| 15> C        -1.930628   -0.592513   -0.219400
| 16> C        -3.141963    0.220729    0.200868
| 17> H        -1.851780   -1.522794    0.347054
| 18> H        -2.003972   -0.885041   -1.271050
| 19> H        -3.086999    0.487256    1.255958
| 20> H        -4.055657   -0.349987    0.040143
| 21> H        -3.203162    1.144256   -0.370926
| 22> H         2.404973    0.747254    1.212220
| 23> *
| 24>
| 25> $new_job
| 26> ! ri-mp2 aug-cc-pvtz aug-cc-pvtz/c tightscf
| 27> %pal nprocs 16 end
| 28> %maxcore 3800
| 29> %base "TZ_S-S_29_AB"
| 30>
| 31> *xyz 0 1
| 32> S         2.372625    0.339635   -0.065879
| 33> S         0.780409   -0.926404    0.080115
| 34> C        -0.639196    0.178283   -0.089884
| 35> O        -0.547651    1.366046   -0.098836
| 36> C        -1.930628   -0.592513   -0.219400
| 37> C        -3.141963    0.220729    0.200868
| 38> H        -1.851780   -1.522794    0.347054
| 39> H        -2.003972   -0.885041   -1.271050
| 40> H        -3.086999    0.487256    1.255958
| 41> H        -4.055657   -0.349987    0.040143
| 42> H        -3.203162    1.144256   -0.370926
| 43> H         2.404973    0.747254    1.212220
| 44> *
| 45>
| 46> $new_job
| 47> ! ri-mp2 aug-cc-pvqz aug-cc-pvqz/c tightscf
| 48> %pal nprocs 16 end
| 49> %maxcore 3800
| 50> %base "QZ_S-S_29_AB"
| 51>
| 52> *xyz 0 1
| 53> S         2.372625    0.339635   -0.065879
| 54> S         0.780409   -0.926404    0.080115
| 55> C        -0.639196    0.178283   -0.089884
| 56> O        -0.547651    1.366046   -0.098836
| 57> C        -1.930628   -0.592513   -0.219400
| 58> C        -3.141963    0.220729    0.200868
| 59> H        -1.851780   -1.522794    0.347054
| 60> H        -2.003972   -0.885041   -1.271050
| 61> H        -3.086999    0.487256    1.255958
| 62> H        -4.055657   -0.349987    0.040143
| 63> H        -3.203162    1.144256   -0.370926
| 64> H         2.404973    0.747254    1.212220
| 65> *
| 66>
| 67>
| 68>
| 69>
| 70>                          ****END OF INPUT****
 Total Charge           Charge          ....    0
 Multiplicity           Mult            ....    1
 Number of Electrons    NEL             ....   64
MP2 TOTAL ENERGY:     -987.965926373 Eh
FINAL SINGLE POINT ENERGY      -987.965926372654
MP2 TOTAL ENERGY:     -988.242734010 Eh
FINAL SINGLE POINT ENERGY      -988.242734009771

CARTESIAN COORDINATES (ANGSTROEM)
---------------------------------
  S      2.372625    0.339635   -0.065879
  S      0.780409   -0.926404    0.080115
  C     -0.639196    0.178283   -0.089884
  O     -0.547651    1.366046   -0.098836
  C     -1.930628   -0.592513   -0.219400
  C     -3.141963    0.220729    0.200868
  H     -1.851780   -1.522794    0.347054
  H     -2.003972   -0.885041   -1.271050
  H     -3.086999    0.487256    1.255958
  H     -4.055657   -0.349987    0.040143
  H     -3.203162    1.144256   -0.370926
  H      2.404973    0.747254    1.212220

 Multiplicity           Mult            ....    1
 Number of Electrons    NEL             ....   64
 Basis Dimension        Dim             ....  764

ORBITAL ENERGIES
----------------

  NO   OCC          E(Eh)            E(eV)
   0   2.0000     -91.995307     -2503.3196
   1   2.0000     -91.988521     -2503.1349
   2   2.0000     -20.565568      -559.6176
   3   2.0000     -11.366402      -309.2955
   4   2.0000     -11.255923      -306.2892
   5   2.0000     -11.229057      -305.5582
   6   2.0000      -8.996541      -244.8083
   7   2.0000      -8.989395      -244.6139
   8   2.0000      -6.677834      -181.7131
   9   2.0000      -6.676487      -181.6765
  10   2.0000      -6.675862      -181.6595
  11   2.0000      -6.670709      -181.5192
  12   2.0000      -6.669661      -181.4907
  13   2.0000      -6.668657      -181.4634
  14   2.0000      -1.421061       -38.6690
  15   2.0000      -1.091990       -29.7146
  16   2.0000      -1.059939       -28.8424
  17   2.0000      -0.941572       -25.6215
  18   2.0000      -0.867259       -23.5993
  19   2.0000      -0.740852       -20.1596
  20   2.0000      -0.668824       -18.1996
  21   2.0000      -0.656366       -17.8606
  22   2.0000      -0.634480       -17.2651
  23   2.0000      -0.577599       -15.7173
  24   2.0000      -0.562031       -15.2936
  25   2.0000      -0.541667       -14.7395
  26   2.0000      -0.529991       -14.4218
  27   2.0000      -0.508797       -13.8451
  28   2.0000      -0.478885       -13.0311
  29   2.0000      -0.430458       -11.7134
  30   2.0000      -0.390452       -10.6247
  31   2.0000      -0.374913       -10.2019
  32   0.0000       0.023858         0.6492
  33   0.0000       0.031776         0.8647
  34   0.0000       0.036326         0.9885
  35   0.0000       0.037437         1.0187
  36   0.0000       0.047859         1.3023

MULLIKEN ATOMIC CHARGES
-----------------------
   0 S :   -0.186174
   1 S :    0.084167
   2 C :    0.500103
   3 O :   -0.736629
   4 C :   -0.356495
   5 C :   -0.782841
   6 H :    0.255453
   7 H :    0.323600
   8 H :    0.223293
   9 H :    0.307086
  10 H :    0.239697
  11 H :    0.128740
Sum of atomic charges:   -0.0000000

LOEWDIN ATOMIC CHARGES
----------------------
   0 S :    1.012194
   1 S :    0.691948
   2 C :   -1.183114
   3 O :    0.630223
   4 C :    0.335729
   5 C :    0.896884
   6 H :   -0.339726
   7 H :   -0.298526
   8 H :   -0.282873
   9 H :   -0.282317
  10 H :   -0.298385
  11 H :   -0.882038

  Mayer bond orders larger than 0.100000
B(  0-S ,  1-S ) :   1.1087 B(  0-S , 11-H ) :   0.9687 B(  1-S ,  2-C ) :   0.9677
B(  2-C ,  3-O ) :   1.4319 B(  2-C ,  4-C ) :   0.8200 B(  3-O ,  4-C ) :   0.1123
B(  4-C ,  5-C ) :   0.9926 B(  4-C ,  6-H ) :   0.9199 B(  4-C ,  7-H ) :   0.8181
B(  5-C ,  8-H ) :   0.9663 B(  5-C ,  9-H ) :   0.9398 B(  5-C , 10-H ) :   0.9396

MP2 TOTAL ENERGY:     -988.332108974 Eh
FINAL SINGLE POINT ENERGY      -988.332108973777

DIPOLE MOMENT
-------------
                                X             Y             Z
Electronic contribution:     11.13093      -0.30550      -0.92985
Nuclear contribution   :    -11.70740      -0.33385       1.19154
                        -----------------------------------------
Total Dipole Moment    :     -0.57646      -0.63935       0.26169
                        -----------------------------------------
Magnitude (a.u.)       :      0.89976
Magnitude (Debye)      :      2.28700

Rotational constants in cm-1:     0.215554     0.039354     0.034163
Rotational constants in MHz :  6462.144987  1179.816641  1024.192941

                             ****ORCA TERMINATED NORMALLY****
TOTAL RUN TIME: 0 days 0 hours 52 minutes 18 seconds 895 msec
