                         Program Version 5.0.4 -  RELEASE  -
|  1> ! ri-mp2 aug-cc-pvdz aug-cc-pvdz/c tightscf
|  2> %pal nprocs 16 end
|  3> %maxcore 3800
|  4> %base "DZ_B-Cl_28_A"
|  5> %scf
|  6> STABPerform true
|  7> STABRestartUHFifUnstable true
|  8> end
|  9>
| 10> *xyz 0 2
| 11> Cl         1.679029    0.026112   -0.000006
| 12> B         0.039404   -0.511612   -0.000001
| 13> C        -1.200176    0.377876    0.000003
| 14> C        -2.425501   -0.144677    0.000011
| 15> H        -1.094780    1.461227   -0.000004
| 16> H        -2.574267   -1.217575    0.000014
| 17> H        -3.317407    0.471316    0.000011
| 18> *
| 19>
| 20> $new_job
| 21> ! ri-mp2 aug-cc-pvtz aug-cc-pvtz/c tightscf
| 22> %pal nprocs 16 end
| 23> %maxcore 3800
| 24> %base "TZ_B-Cl_28_A"
| 25>
| 26> *xyz 0 2
| 27> Cl         1.679029    0.026112   -0.000006
| 28> B         0.039404   -0.511612   -0.000001
| 29> C        -1.200176    0.377876    0.000003
| 30> C        -2.425501   -0.144677    0.000011
| 31> H        -1.094780    1.461227   -0.000004
| 32> H        -2.574267   -1.217575    0.000014
| 33> H        -3.317407    0.471316    0.000011
| 34> *
| 35>
| 36> $new_job
| 37> ! ri-mp2 aug-cc-pvqz aug-cc-pvqz/c tightscf
| 38> %pal nprocs 16 end
| 39> %maxcore 3800
| 40> %base "QZ_B-Cl_28_A"
| 41>
| 42> *xyz 0 2
| 43> Cl         1.679029    0.026112   -0.000006
| 44> B         0.039404   -0.511612   -0.000001
| 45> C        -1.200176    0.377876    0.000003
| 46> C        -2.425501   -0.144677    0.000011
| 47> H        -1.094780    1.461227   -0.000004
| 48> H        -2.574267   -1.217575    0.000014
| 49> H        -3.317407    0.471316    0.000011
| 50> *
| 51>
| 52>
| 53>
| 54>
| 55>                          ****END OF INPUT****
 Total Charge           Charge          ....    0
 Multiplicity           Mult            ....    2
 Number of Electrons    NEL             ....   37
MP2 TOTAL ENERGY:     -562.122402738 Eh
FINAL SINGLE POINT ENERGY      -562.122402738295
MP2 TOTAL ENERGY:     -562.270087364 Eh
FINAL SINGLE POINT ENERGY      -562.270087364384

CARTESIAN COORDINATES (ANGSTROEM)
---------------------------------
  Cl     1.679029    0.026112   -0.000006
  B      0.039404   -0.511612   -0.000001
  C     -1.200176    0.377876    0.000003
  C     -2.425501   -0.144677    0.000011
  H     -1.094780    1.461227   -0.000004
  H     -2.574267   -1.217575    0.000014
  H     -3.317407    0.471316    0.000011

 Multiplicity           Mult            ....    2
 Number of Electrons    NEL             ....   37
 Basis Dimension        Dim             ....  462

ORBITAL ENERGIES
----------------
                 SPIN UP ORBITALS
  NO   OCC          E(Eh)            E(eV)
   0   1.0000    -104.837250     -2852.7666
   1   1.0000     -11.261051      -306.4288
   2   1.0000     -11.231142      -305.6149
   3   1.0000     -10.564946      -287.4868
   4   1.0000      -8.032648      -218.5795
   5   1.0000      -8.030494      -218.5209
   6   1.0000      -8.030416      -218.5187
   7   1.0000      -7.668768      -208.6778
   8   1.0000      -1.122699       -30.5502
   9   1.0000      -1.058472       -28.8025
  10   1.0000      -0.820238       -22.3198
  11   1.0000      -0.689727       -18.7684
  12   1.0000      -0.640302       -17.4235
  13   1.0000      -0.587171       -15.9777
  14   1.0000      -0.519513       -14.1367
  15   1.0000      -0.493672       -13.4335
  16   1.0000      -0.493565       -13.4306
  17   1.0000      -0.402532       -10.9535
  18   1.0000      -0.335789        -9.1373
  19   0.0000       0.024336         0.6622
  20   0.0000       0.033857         0.9213
  21   0.0000       0.035811         0.9745
  22   0.0000       0.039813         1.0834
  23   0.0000       0.050363         1.3704

                 SPIN DOWN ORBITALS
  NO   OCC          E(Eh)            E(eV)
   0   1.0000    -104.836375     -2852.7428
   1   1.0000     -11.265967      -306.5625
   2   1.0000     -11.225809      -305.4698
   3   1.0000     -10.563924      -287.4590
   4   1.0000      -8.030968      -218.5337
   5   1.0000      -8.030115      -218.5105
   6   1.0000      -8.028206      -218.4586
   7   1.0000      -7.648731      -208.1326
   8   1.0000      -1.112646       -30.2766
   9   1.0000      -1.059122       -28.8202
  10   1.0000      -0.811652       -22.0862
  11   1.0000      -0.669108       -18.2074
  12   1.0000      -0.631683       -17.1890
  13   1.0000      -0.570511       -15.5244
  14   1.0000      -0.507420       -13.8076
  15   1.0000      -0.488610       -13.2958
  16   1.0000      -0.467450       -12.7200
  17   1.0000      -0.406444       -11.0599
  18   0.0000       0.021811         0.5935
  19   0.0000       0.034147         0.9292
  20   0.0000       0.034404         0.9362
  21   0.0000       0.040196         1.0938
  22   0.0000       0.050021         1.3611

MULLIKEN ATOMIC CHARGES AND SPIN POPULATIONS
--------------------------------------------
   0 Cl:   -0.220460    0.020903
   1 B :    0.436428    1.034114
   2 C :   -0.735733    0.203517
   3 C :   -0.715291   -0.302983
   4 H :    0.428940    0.021666
   5 H :    0.460725    0.013675
   6 H :    0.345391    0.009108
Sum of atomic charges         :    0.0000000

LOEWDIN ATOMIC CHARGES AND SPIN POPULATIONS
-------------------------------------------
   0 Cl:    1.182804    0.180109
   1 B :   -1.070571    0.601877
   2 C :    0.271718    0.220429
   3 C :    0.723045   -0.015133
   4 H :   -0.408859    0.046039
   5 H :   -0.364572   -0.004246
   6 H :   -0.333566   -0.029075

  Mayer bond orders larger than 0.100000
B(  0-Cl,  1-B ) :   1.0546 B(  0-Cl,  2-C ) :   0.1037 B(  1-B ,  2-C ) :   1.0803
B(  2-C ,  3-C ) :   1.6825 B(  2-C ,  4-H ) :   0.7994 B(  3-C ,  5-H ) :   0.7438
B(  3-C ,  6-H ) :   0.9419

MP2 TOTAL ENERGY:     -562.318546420 Eh
FINAL SINGLE POINT ENERGY      -562.318546419862

DIPOLE MOMENT
-------------
                                X             Y             Z
Electronic contribution:      8.11088      -0.85567      -0.00003
Nuclear contribution   :     -8.92940       1.03307       0.00003
                        -----------------------------------------
Total Dipole Moment    :     -0.81852       0.17740       0.00000
                        -----------------------------------------
Magnitude (a.u.)       :      0.83753
Magnitude (Debye)      :      2.12883

Rotational constants in cm-1:     1.943376     0.081948     0.078632
Rotational constants in MHz : 58260.934045  2456.735433  2357.331931

                             ****ORCA TERMINATED NORMALLY****
TOTAL RUN TIME: 0 days 0 hours 21 minutes 40 seconds 651 msec
