                         Program Version 5.0.4 -  RELEASE  -
|  1> ! ri-mp2 aug-cc-pvdz aug-cc-pvdz/c tightscf
|  2> %pal nprocs 16 end
|  3> %maxcore 3800
|  4> %base "DZ_Si-Si_106_AB"
|  5>
|  6> *xyz 0 1
|  7> Si         2.188892   -0.061842   -0.428724
|  8> Si         0.285021   -0.896770    0.637252
|  9> H         1.844129    0.371933   -1.800819
| 10> H         3.225779   -1.116862   -0.525946
| 11> H         2.753799    1.079743    0.319690
| 12> C        -1.287668   -0.089777   -0.051984
| 13> H         0.350210   -0.675238    2.098234
| 14> H         0.130086   -2.351994    0.400844
| 15> N        -1.403349    1.169635   -0.132546
| 16> O        -0.262161    1.813724    0.361005
| 17> H        -0.445140    2.748240    0.223840
| 18> C        -2.441746   -0.904821   -0.545779
| 19> H        -2.835049   -1.536208    0.253092
| 20> H        -2.124587   -1.571241   -1.349949
| 21> H        -3.236787   -0.257462   -0.912022
| 22> *
| 23>
| 24> $new_job
| 25> ! ri-mp2 aug-cc-pvtz aug-cc-pvtz/c tightscf
| 26> %pal nprocs 16 end
| 27> %maxcore 3800
| 28> %base "TZ_Si-Si_106_AB"
| 29>
| 30> *xyz 0 1
| 31> Si         2.188892   -0.061842   -0.428724
| 32> Si         0.285021   -0.896770    0.637252
| 33> H         1.844129    0.371933   -1.800819
| 34> H         3.225779   -1.116862   -0.525946
| 35> H         2.753799    1.079743    0.319690
| 36> C        -1.287668   -0.089777   -0.051984
| 37> H         0.350210   -0.675238    2.098234
| 38> H         0.130086   -2.351994    0.400844
| 39> N        -1.403349    1.169635   -0.132546
| 40> O        -0.262161    1.813724    0.361005
| 41> H        -0.445140    2.748240    0.223840
| 42> C        -2.441746   -0.904821   -0.545779
| 43> H        -2.835049   -1.536208    0.253092
| 44> H        -2.124587   -1.571241   -1.349949
| 45> H        -3.236787   -0.257462   -0.912022
| 46> *
| 47>
| 48> $new_job
| 49> ! ri-mp2 aug-cc-pvqz aug-cc-pvqz/c tightscf
| 50> %pal nprocs 16 end
| 51> %maxcore 3800
| 52> %base "QZ_Si-Si_106_AB"
| 53>
| 54> *xyz 0 1
| 55> Si         2.188892   -0.061842   -0.428724
| 56> Si         0.285021   -0.896770    0.637252
| 57> H         1.844129    0.371933   -1.800819
| 58> H         3.225779   -1.116862   -0.525946
| 59> H         2.753799    1.079743    0.319690
| 60> C        -1.287668   -0.089777   -0.051984
| 61> H         0.350210   -0.675238    2.098234
| 62> H         0.130086   -2.351994    0.400844
| 63> N        -1.403349    1.169635   -0.132546
| 64> O        -0.262161    1.813724    0.361005
| 65> H        -0.445140    2.748240    0.223840
| 66> C        -2.441746   -0.904821   -0.545779
| 67> H        -2.835049   -1.536208    0.253092
| 68> H        -2.124587   -1.571241   -1.349949
| 69> H        -3.236787   -0.257462   -0.912022
| 70> *
| 71>
| 72>
| 73>
| 74>
| 75>                          ****END OF INPUT****
 Total Charge           Charge          ....    0
 Multiplicity           Mult            ....    1
 Number of Electrons    NEL             ....   64
MP2 TOTAL ENERGY:     -788.984942322 Eh
FINAL SINGLE POINT ENERGY      -788.984942321858
MP2 TOTAL ENERGY:     -789.239618234 Eh
FINAL SINGLE POINT ENERGY      -789.239618234468

CARTESIAN COORDINATES (ANGSTROEM)
---------------------------------
  Si     2.188892   -0.061842   -0.428724
  Si     0.285021   -0.896770    0.637252
  H      1.844129    0.371933   -1.800819
  H      3.225779   -1.116862   -0.525946
  H      2.753799    1.079743    0.319690
  C     -1.287668   -0.089777   -0.051984
  H      0.350210   -0.675238    2.098234
  H      0.130086   -2.351994    0.400844
  N     -1.403349    1.169635   -0.132546
  O     -0.262161    1.813724    0.361005
  H     -0.445140    2.748240    0.223840
  C     -2.441746   -0.904821   -0.545779
  H     -2.835049   -1.536208    0.253092
  H     -2.124587   -1.571241   -1.349949
  H     -3.236787   -0.257462   -0.912022

 Multiplicity           Mult            ....    1
 Number of Electrons    NEL             ....   64
 Basis Dimension        Dim             ....  902

ORBITAL ENERGIES
----------------

  NO   OCC          E(Eh)            E(eV)
   0   2.0000     -68.771424     -1871.3656
   1   2.0000     -68.763187     -1871.1415
   2   2.0000     -20.602191      -560.6141
   3   2.0000     -15.624840      -425.1735
   4   2.0000     -11.264548      -306.5239
   5   2.0000     -11.232216      -305.6441
   6   2.0000      -6.121965      -166.5871
   7   2.0000      -6.113789      -166.3647
   8   2.0000      -4.228169      -115.0543
   9   2.0000      -4.227996      -115.0496
  10   2.0000      -4.227952      -115.0484
  11   2.0000      -4.219886      -114.8289
  12   2.0000      -4.219858      -114.8282
  13   2.0000      -4.219762      -114.8256
  14   2.0000      -1.433319       -39.0026
  15   2.0000      -1.170058       -31.8389
  16   2.0000      -0.982220       -26.7276
  17   2.0000      -0.795067       -21.6349
  18   2.0000      -0.741022       -20.1642
  19   2.0000      -0.708668       -19.2838
  20   2.0000      -0.675833       -18.3904
  21   2.0000      -0.617055       -16.7909
  22   2.0000      -0.608198       -16.5499
  23   2.0000      -0.571003       -15.5378
  24   2.0000      -0.561196       -15.2709
  25   2.0000      -0.520533       -14.1644
  26   2.0000      -0.495132       -13.4732
  27   2.0000      -0.480879       -13.0854
  28   2.0000      -0.468233       -12.7413
  29   2.0000      -0.428419       -11.6579
  30   2.0000      -0.403450       -10.9784
  31   2.0000      -0.384703       -10.4683
  32   0.0000       0.022999         0.6258
  33   0.0000       0.029531         0.8036
  34   0.0000       0.034580         0.9410
  35   0.0000       0.035959         0.9785
  36   0.0000       0.045072         1.2265

MULLIKEN ATOMIC CHARGES
-----------------------
   0 Si:    0.493158
   1 Si:    1.084972
   2 H :   -0.160823
   3 H :   -0.254221
   4 H :   -0.140217
   5 C :    0.070303
   6 H :   -0.213338
   7 H :   -0.365038
   8 N :   -0.296800
   9 O :   -0.591083
  10 H :    0.315361
  11 C :   -0.783673
  12 H :    0.248509
  13 H :    0.246661
  14 H :    0.346230
Sum of atomic charges:    0.0000000

LOEWDIN ATOMIC CHARGES
----------------------
   0 Si:    1.023494
   1 Si:    0.645730
   2 H :   -0.302833
   3 H :   -0.321572
   4 H :   -0.307078
   5 C :   -0.436458
   6 H :   -0.257352
   7 H :   -0.264385
   8 N :    0.244933
   9 O :    0.965981
  10 H :   -0.845634
  11 C :    0.791175
  12 H :   -0.303450
  13 H :   -0.306232
  14 H :   -0.326319

  Mayer bond orders larger than 0.100000
B(  0-Si,  1-Si) :   0.7395 B(  0-Si,  2-H ) :   0.7567 B(  0-Si,  3-H ) :   0.7453
B(  0-Si,  4-H ) :   0.7918 B(  1-Si,  5-C ) :   0.6590 B(  1-Si,  6-H ) :   0.8174
B(  1-Si,  7-H ) :   0.7470 B(  5-C ,  8-N ) :   1.5675 B(  5-C , 11-C ) :   0.8101
B(  8-N ,  9-O ) :   0.7486 B(  9-O , 10-H ) :   0.9347 B( 11-C , 12-H ) :   0.9760
B( 11-C , 13-H ) :   0.9445 B( 11-C , 14-H ) :   0.9225

MP2 TOTAL ENERGY:     -789.322367496 Eh
FINAL SINGLE POINT ENERGY      -789.322367495522

DIPOLE MOMENT
-------------
                                X             Y             Z
Electronic contribution:      0.29651       3.11939       1.25219
Nuclear contribution   :     -0.50399      -3.24036      -1.31087
                        -----------------------------------------
Total Dipole Moment    :     -0.20748      -0.12098      -0.05868
                        -----------------------------------------
Magnitude (a.u.)       :      0.24724
Magnitude (Debye)      :      0.62844

Rotational constants in cm-1:     0.106189     0.050177     0.039417
Rotational constants in MHz :  3183.472564  1504.265189  1181.697674

                             ****ORCA TERMINATED NORMALLY****
TOTAL RUN TIME: 0 days 0 hours 16 minutes 9 seconds 685 msec
