                         Program Version 5.0.4 -  RELEASE  -
|  1> ! ri-mp2 aug-cc-pvdz aug-cc-pvdz/c tightscf
|  2> %pal nprocs 16 end
|  3> %maxcore 3800
|  4> %base "DZ_Si-Si_144_A"
|  5> %scf
|  6> STABPerform true
|  7> STABRestartUHFifUnstable true
|  8> end
|  9>
| 10> *xyz 0 2
| 11> Si         2.267328   -0.020627    0.099251
| 12> P        -0.753233   -0.018597    0.101320
| 13> O        -0.641345    1.469399   -0.438210
| 14> H        -1.303894    2.052832   -0.052109
| 15> O        -1.578850   -0.780578   -1.015517
| 16> H        -2.235045   -1.370054   -0.627604
| 17> O        -1.302213   -0.157874    1.442834
| 18> O         0.702575   -0.534551   -0.138969
| 19> H         3.112212   -1.194780   -0.210295
| 20> H         2.541305    1.108573   -0.820418
| 21> *
| 22>
| 23> $new_job
| 24> ! ri-mp2 aug-cc-pvtz aug-cc-pvtz/c tightscf
| 25> %pal nprocs 16 end
| 26> %maxcore 3800
| 27> %base "TZ_Si-Si_144_A"
| 28>
| 29> *xyz 0 2
| 30> Si         2.267328   -0.020627    0.099251
| 31> P        -0.753233   -0.018597    0.101320
| 32> O        -0.641345    1.469399   -0.438210
| 33> H        -1.303894    2.052832   -0.052109
| 34> O        -1.578850   -0.780578   -1.015517
| 35> H        -2.235045   -1.370054   -0.627604
| 36> O        -1.302213   -0.157874    1.442834
| 37> O         0.702575   -0.534551   -0.138969
| 38> H         3.112212   -1.194780   -0.210295
| 39> H         2.541305    1.108573   -0.820418
| 40> *
| 41>
| 42> $new_job
| 43> ! ri-mp2 aug-cc-pvqz aug-cc-pvqz/c tightscf
| 44> %pal nprocs 16 end
| 45> %maxcore 3800
| 46> %base "QZ_Si-Si_144_A"
| 47>
| 48> *xyz 0 2
| 49> Si         2.267328   -0.020627    0.099251
| 50> P        -0.753233   -0.018597    0.101320
| 51> O        -0.641345    1.469399   -0.438210
| 52> H        -1.303894    2.052832   -0.052109
| 53> O        -1.578850   -0.780578   -1.015517
| 54> H        -2.235045   -1.370054   -0.627604
| 55> O        -1.302213   -0.157874    1.442834
| 56> O         0.702575   -0.534551   -0.138969
| 57> H         3.112212   -1.194780   -0.210295
| 58> H         2.541305    1.108573   -0.820418
| 59> *
| 60>
| 61>
| 62>
| 63>
| 64>                          ****END OF INPUT****
 Total Charge           Charge          ....    0
 Multiplicity           Mult            ....    2
 Number of Electrons    NEL             ....   65
MP2 TOTAL ENERGY:     -932.592205424 Eh
FINAL SINGLE POINT ENERGY      -932.592205424428
MP2 TOTAL ENERGY:     -932.973565659 Eh
FINAL SINGLE POINT ENERGY      -932.973565659390

CARTESIAN COORDINATES (ANGSTROEM)
---------------------------------
  Si     2.267328   -0.020627    0.099251
  P     -0.753233   -0.018597    0.101320
  O     -0.641345    1.469399   -0.438210
  H     -1.303894    2.052832   -0.052109
  O     -1.578850   -0.780578   -1.015517
  H     -2.235045   -1.370054   -0.627604
  O     -1.302213   -0.157874    1.442834
  O      0.702575   -0.534551   -0.138969
  H      3.112212   -1.194780   -0.210295
  H      2.541305    1.108573   -0.820418

 Multiplicity           Mult            ....    2
 Number of Electrons    NEL             ....   65
 Basis Dimension        Dim             ....  672

ORBITAL ENERGIES
----------------
                 SPIN UP ORBITALS
  NO   OCC          E(Eh)            E(eV)
   0   1.0000     -80.102433     -2179.6980
   1   1.0000     -68.827280     -1872.8855
   2   1.0000     -20.609306      -560.8077
   3   1.0000     -20.604627      -560.6804
   4   1.0000     -20.595747      -560.4388
   5   1.0000     -20.512763      -558.1806
   6   1.0000      -7.619788      -207.3450
   7   1.0000      -6.172303      -167.9569
   8   1.0000      -5.518837      -150.1752
   9   1.0000      -5.518522      -150.1666
  10   1.0000      -5.517453      -150.1375
  11   1.0000      -4.284436      -116.5854
  12   1.0000      -4.275704      -116.3478
  13   1.0000      -4.274687      -116.3201
  14   1.0000      -1.468008       -39.9465
  15   1.0000      -1.397210       -38.0200
  16   1.0000      -1.387397       -37.7530
  17   1.0000      -1.306411       -35.5493
  18   1.0000      -0.886948       -24.1351
  19   1.0000      -0.787583       -21.4312
  20   1.0000      -0.761148       -20.7119
  21   1.0000      -0.687829       -18.7168
  22   1.0000      -0.661860       -18.0101
  23   1.0000      -0.647476       -17.6187
  24   1.0000      -0.619511       -16.8577
  25   1.0000      -0.604958       -16.4617
  26   1.0000      -0.592345       -16.1185
  27   1.0000      -0.559363       -15.2210
  28   1.0000      -0.543908       -14.8005
  29   1.0000      -0.495127       -13.4731
  30   1.0000      -0.477586       -12.9958
  31   1.0000      -0.475732       -12.9453
  32   1.0000      -0.352899        -9.6029
  33   0.0000       0.023375         0.6361
  34   0.0000       0.029455         0.8015
  35   0.0000       0.033420         0.9094
  36   0.0000       0.047169         1.2835
  37   0.0000       0.048877         1.3300

                 SPIN DOWN ORBITALS
  NO   OCC          E(Eh)            E(eV)
   0   1.0000     -80.102457     -2179.6987
   1   1.0000     -68.821516     -1872.7287
   2   1.0000     -20.609348      -560.8089
   3   1.0000     -20.604568      -560.6788
   4   1.0000     -20.592829      -560.3594
   5   1.0000     -20.512836      -558.1827
   6   1.0000      -7.619823      -207.3459
   7   1.0000      -6.163126      -167.7072
   8   1.0000      -5.518899      -150.1769
   9   1.0000      -5.518535      -150.1670
  10   1.0000      -5.517473      -150.1381
  11   1.0000      -4.272159      -116.2513
  12   1.0000      -4.271156      -116.2241
  13   1.0000      -4.262801      -115.9967
  14   1.0000      -1.466156       -39.8961
  15   1.0000      -1.397173       -38.0190
  16   1.0000      -1.381206       -37.5845
  17   1.0000      -1.306349       -35.5476
  18   1.0000      -0.882732       -24.0204
  19   1.0000      -0.777785       -21.1646
  20   1.0000      -0.760203       -20.6862
  21   1.0000      -0.684969       -18.6390
  22   1.0000      -0.647042       -17.6069
  23   1.0000      -0.635327       -17.2881
  24   1.0000      -0.605046       -16.4641
  25   1.0000      -0.599599       -16.3159
  26   1.0000      -0.586908       -15.9706
  27   1.0000      -0.554860       -15.0985
  28   1.0000      -0.541811       -14.7434
  29   1.0000      -0.482384       -13.1263
  30   1.0000      -0.475511       -12.9393
  31   1.0000      -0.475142       -12.9293
  32   0.0000       0.021837         0.5942
  33   0.0000       0.026454         0.7198
  34   0.0000       0.031112         0.8466
  35   0.0000       0.034064         0.9269
  36   0.0000       0.048439         1.3181

MULLIKEN ATOMIC CHARGES AND SPIN POPULATIONS
--------------------------------------------
   0 Si:    0.797782    0.937723
   1 P :    2.516151   -0.004582
   2 O :   -0.880185    0.000407
   3 H :    0.379336    0.000082
   4 O :   -0.846798   -0.000076
   5 H :    0.349092    0.000403
   6 O :   -1.084927   -0.000884
   7 O :   -0.862510   -0.018189
   8 H :   -0.185868    0.037323
   9 H :   -0.182073    0.047792
Sum of atomic charges         :   -0.0000000

LOEWDIN ATOMIC CHARGES AND SPIN POPULATIONS
-------------------------------------------
   0 Si:    0.744560    0.570366
   1 P :   -1.124167    0.031637
   2 O :    1.084108    0.000899
   3 H :   -0.854425    0.000401
   4 O :    1.085870    0.000900
   5 H :   -0.874430    0.000391
   6 O :    0.293399    0.000998
   7 O :    0.352942    0.128576
   8 H :   -0.360831    0.130774
   9 H :   -0.347025    0.135058

  Mayer bond orders larger than 0.100000
B(  0-Si,  7-O ) :   0.4754 B(  0-Si,  8-H ) :   0.8968 B(  0-Si,  9-H ) :   0.9068
B(  1-P ,  2-O ) :   0.6567 B(  1-P ,  4-O ) :   0.6494 B(  1-P ,  6-O ) :   1.4404
B(  1-P ,  7-O ) :   0.7867 B(  2-O ,  3-H ) :   0.9153 B(  4-O ,  5-H ) :   0.9344

MP2 TOTAL ENERGY:     -933.096756852 Eh
FINAL SINGLE POINT ENERGY      -933.096756852412

DIPOLE MOMENT
-------------
                                X             Y             Z
Electronic contribution:     -2.43075      -0.33673       1.18620
Nuclear contribution   :      2.54531       0.59120      -1.74370
                        -----------------------------------------
Total Dipole Moment    :      0.11457       0.25447      -0.55750
                        -----------------------------------------
Magnitude (a.u.)       :      0.62345
Magnitude (Debye)      :      1.58468

Rotational constants in cm-1:     0.149222     0.052468     0.051946
Rotational constants in MHz :  4473.570043  1572.956378  1557.289672

                             ****ORCA TERMINATED NORMALLY****
TOTAL RUN TIME: 0 days 1 hours 3 minutes 21 seconds 624 msec
