                         Program Version 5.0.4 -  RELEASE  -
|  1> ! ri-mp2 aug-cc-pvdz aug-cc-pvdz/c tightscf
|  2> %pal nprocs 16 end
|  3> %maxcore 3800
|  4> %base "DZ_P-C_85_AB"
|  5>
|  6> *xyz 0 1
|  7> C         0.310104    0.131056    0.123523
|  8> C         0.929571   -1.096949    0.354694
|  9> C         2.297556   -1.246447    0.232376
| 10> C         3.088277   -0.167214   -0.127622
| 11> C         2.490678    1.055573   -0.364367
| 12> C         1.117073    1.201563   -0.241811
| 13> P        -1.966478   -0.940949   -0.961547
| 14> H         2.748402   -2.212625    0.417219
| 15> H         4.159661   -0.281572   -0.223839
| 16> H         3.093172    1.908717   -0.647723
| 17> H         0.681812    2.170598   -0.433807
| 18> H         0.330900   -1.956395    0.624607
| 19> C        -1.201365    0.261120    0.268320
| 20> C        -1.699518    1.683853    0.034220
| 21> H        -1.472814    2.039616   -0.969945
| 22> H        -1.254169    2.376456    0.752542
| 23> H        -2.780430    1.724207    0.162519
| 24> C        -1.639525   -0.180731    1.671538
| 25> H        -1.192606    0.472961    2.422640
| 26> H        -1.339906   -1.202502    1.895782
| 27> H        -2.724385   -0.119210    1.772579
| 28> H        -1.625249   -0.234088   -2.137988
| 29> H        -3.284327   -0.422862   -0.916614
| 30> *
| 31>
| 32> $new_job
| 33> ! ri-mp2 aug-cc-pvtz aug-cc-pvtz/c tightscf
| 34> %pal nprocs 16 end
| 35> %maxcore 3800
| 36> %base "TZ_P-C_85_AB"
| 37>
| 38> *xyz 0 1
| 39> C         0.310104    0.131056    0.123523
| 40> C         0.929571   -1.096949    0.354694
| 41> C         2.297556   -1.246447    0.232376
| 42> C         3.088277   -0.167214   -0.127622
| 43> C         2.490678    1.055573   -0.364367
| 44> C         1.117073    1.201563   -0.241811
| 45> P        -1.966478   -0.940949   -0.961547
| 46> H         2.748402   -2.212625    0.417219
| 47> H         4.159661   -0.281572   -0.223839
| 48> H         3.093172    1.908717   -0.647723
| 49> H         0.681812    2.170598   -0.433807
| 50> H         0.330900   -1.956395    0.624607
| 51> C        -1.201365    0.261120    0.268320
| 52> C        -1.699518    1.683853    0.034220
| 53> H        -1.472814    2.039616   -0.969945
| 54> H        -1.254169    2.376456    0.752542
| 55> H        -2.780430    1.724207    0.162519
| 56> C        -1.639525   -0.180731    1.671538
| 57> H        -1.192606    0.472961    2.422640
| 58> H        -1.339906   -1.202502    1.895782
| 59> H        -2.724385   -0.119210    1.772579
| 60> H        -1.625249   -0.234088   -2.137988
| 61> H        -3.284327   -0.422862   -0.916614
| 62> *
| 63>
| 64> $new_job
| 65> ! ri-mp2 aug-cc-pvqz aug-cc-pvqz/c tightscf
| 66> %pal nprocs 16 end
| 67> %maxcore 3800
| 68> %base "QZ_P-C_85_AB"
| 69>
| 70> *xyz 0 1
| 71> C         0.310104    0.131056    0.123523
| 72> C         0.929571   -1.096949    0.354694
| 73> C         2.297556   -1.246447    0.232376
| 74> C         3.088277   -0.167214   -0.127622
| 75> C         2.490678    1.055573   -0.364367
| 76> C         1.117073    1.201563   -0.241811
| 77> P        -1.966478   -0.940949   -0.961547
| 78> H         2.748402   -2.212625    0.417219
| 79> H         4.159661   -0.281572   -0.223839
| 80> H         3.093172    1.908717   -0.647723
| 81> H         0.681812    2.170598   -0.433807
| 82> H         0.330900   -1.956395    0.624607
| 83> C        -1.201365    0.261120    0.268320
| 84> C        -1.699518    1.683853    0.034220
| 85> H        -1.472814    2.039616   -0.969945
| 86> H        -1.254169    2.376456    0.752542
| 87> H        -2.780430    1.724207    0.162519
| 88> C        -1.639525   -0.180731    1.671538
| 89> H        -1.192606    0.472961    2.422640
| 90> H        -1.339906   -1.202502    1.895782
| 91> H        -2.724385   -0.119210    1.772579
| 92> H        -1.625249   -0.234088   -2.137988
| 93> H        -3.284327   -0.422862   -0.916614
| 94> *
| 95>
| 96>
| 97>
| 98>
| 99>                          ****END OF INPUT****
 Total Charge           Charge          ....    0
 Multiplicity           Mult            ....    1
 Number of Electrons    NEL             ....   82
MP2 TOTAL ENERGY:     -690.552225373 Eh
FINAL SINGLE POINT ENERGY      -690.552225373314
MP2 TOTAL ENERGY:     -690.910496320 Eh
FINAL SINGLE POINT ENERGY      -690.910496319869

CARTESIAN COORDINATES (ANGSTROEM)
---------------------------------
  C      0.310104    0.131056    0.123523
  C      0.929571   -1.096949    0.354694
  C      2.297556   -1.246447    0.232376
  C      3.088277   -0.167214   -0.127622
  C      2.490678    1.055573   -0.364367
  C      1.117073    1.201563   -0.241811
  P     -1.966478   -0.940949   -0.961547
  H      2.748402   -2.212625    0.417219
  H      4.159661   -0.281572   -0.223839
  H      3.093172    1.908717   -0.647723
  H      0.681812    2.170598   -0.433807
  H      0.330900   -1.956395    0.624607
  C     -1.201365    0.261120    0.268320
  C     -1.699518    1.683853    0.034220
  H     -1.472814    2.039616   -0.969945
  H     -1.254169    2.376456    0.752542
  H     -2.780430    1.724207    0.162519
  C     -1.639525   -0.180731    1.671538
  H     -1.192606    0.472961    2.422640
  H     -1.339906   -1.202502    1.895782
  H     -2.724385   -0.119210    1.772579
  H     -1.625249   -0.234088   -2.137988
  H     -3.284327   -0.422862   -0.916614

 Multiplicity           Mult            ....    1
 Number of Electrons    NEL             ....   82
 Basis Dimension        Dim             .... 1402

ORBITAL ENERGIES
----------------

  NO   OCC          E(Eh)            E(eV)
   0   2.0000     -79.931541     -2175.0478
   1   2.0000     -11.251927      -306.1805
   2   2.0000     -11.241375      -305.8934
   3   2.0000     -11.231043      -305.6122
   4   2.0000     -11.230795      -305.6055
   5   2.0000     -11.227947      -305.5280
   6   2.0000     -11.227690      -305.5210
   7   2.0000     -11.227251      -305.5090
   8   2.0000     -11.221567      -305.3544
   9   2.0000     -11.220017      -305.3122
  10   2.0000      -7.474923      -203.4030
  11   2.0000      -5.368724      -146.0904
  12   2.0000      -5.368505      -146.0844
  13   2.0000      -5.367445      -146.0556
  14   2.0000      -1.164701       -31.6931
  15   2.0000      -1.095857       -29.8198
  16   2.0000      -1.017586       -27.6899
  17   2.0000      -1.001402       -27.2495
  18   2.0000      -0.942418       -25.6445
  19   2.0000      -0.871005       -23.7013
  20   2.0000      -0.829494       -22.5717
  21   2.0000      -0.820913       -22.3382
  22   2.0000      -0.748377       -20.3644
  23   2.0000      -0.696704       -18.9583
  24   2.0000      -0.636000       -17.3065
  25   2.0000      -0.628665       -17.1069
  26   2.0000      -0.616197       -16.7676
  27   2.0000      -0.601149       -16.3581
  28   2.0000      -0.587570       -15.9886
  29   2.0000      -0.566557       -15.4168
  30   2.0000      -0.545840       -14.8531
  31   2.0000      -0.529543       -14.4096
  32   2.0000      -0.520241       -14.1565
  33   2.0000      -0.508282       -13.8310
  34   2.0000      -0.498568       -13.5667
  35   2.0000      -0.476355       -12.9623
  36   2.0000      -0.473119       -12.8742
  37   2.0000      -0.447997       -12.1906
  38   2.0000      -0.359468        -9.7816
  39   2.0000      -0.336849        -9.1661
  40   2.0000      -0.326213        -8.8767
  41   0.0000       0.022869         0.6223
  42   0.0000       0.027037         0.7357
  43   0.0000       0.029297         0.7972
  44   0.0000       0.035933         0.9778
  45   0.0000       0.039785         1.0826

MULLIKEN ATOMIC CHARGES
-----------------------
   0 C :    0.583616
   1 C :   -0.522295
   2 C :   -0.288818
   3 C :   -0.398419
   4 C :   -0.352981
   5 C :   -0.548598
   6 P :    0.344153
   7 H :    0.229288
   8 H :    0.330561
   9 H :    0.207156
  10 H :    0.209850
  11 H :    0.210384
  12 C :    1.092709
  13 C :   -1.138616
  14 H :    0.227546
  15 H :    0.212897
  16 H :    0.235214
  17 C :   -1.088276
  18 H :    0.268802
  19 H :    0.241948
  20 H :    0.270867
  21 H :   -0.124481
  22 H :   -0.202508
Sum of atomic charges:    0.0000000

LOEWDIN ATOMIC CHARGES
----------------------
   0 C :   -0.163521
   1 C :    0.301164
   2 C :    0.355950
   3 C :    0.340656
   4 C :    0.355207
   5 C :    0.343107
   6 P :    1.544968
   7 H :   -0.316554
   8 H :   -0.322004
   9 H :   -0.317923
  10 H :   -0.356331
  11 H :   -0.345139
  12 C :   -0.493898
  13 C :    0.812313
  14 H :   -0.293897
  15 H :   -0.270723
  16 H :   -0.293330
  17 C :    0.832890
  18 H :   -0.260240
  19 H :   -0.306192
  20 H :   -0.282986
  21 H :   -0.426536
  22 H :   -0.436982

  Mayer bond orders larger than 0.100000
B(  0-C ,  1-C ) :   0.8696 B(  0-C ,  2-C ) :  -0.3888 B(  0-C ,  3-C ) :  -0.1264
B(  0-C ,  4-C ) :  -0.5204 B(  0-C ,  5-C ) :   0.8663 B(  0-C , 12-C ) :   0.5323
B(  1-C ,  2-C ) :   1.4009 B(  1-C ,  3-C ) :   0.1358 B(  1-C ,  4-C ) :   0.1527
B(  1-C ,  7-H ) :  -0.1542 B(  1-C , 11-H ) :   1.0301 B(  1-C , 12-C ) :  -0.2224
B(  2-C ,  3-C ) :   1.0814 B(  2-C ,  5-C ) :   0.1555 B(  2-C ,  7-H ) :   1.1604
B(  3-C ,  4-C ) :   1.1524 B(  3-C ,  7-H ) :  -0.1055 B(  3-C ,  8-H ) :   1.0448
B(  3-C ,  9-H ) :  -0.1069 B(  4-C ,  5-C ) :   1.3646 B(  4-C ,  9-H ) :   1.1692
B(  5-C ,  9-H ) :  -0.1362 B(  5-C , 10-H ) :   1.0280 B(  5-C , 12-C ) :  -0.2555
B(  6-P , 12-C ) :   0.6824 B(  6-P , 21-H ) :   0.9675 B(  6-P , 22-H ) :   0.9553
B( 12-C , 13-C ) :   0.2716 B( 12-C , 14-H ) :  -0.1428 B( 12-C , 15-H ) :  -0.1200
B( 12-C , 16-H ) :  -0.1459 B( 12-C , 17-C ) :   0.5140 B( 12-C , 19-H ) :  -0.1160
B( 12-C , 21-H ) :  -0.1199 B( 13-C , 14-H ) :   1.1029 B( 13-C , 15-H ) :   1.0451
B( 13-C , 16-H ) :   1.0941 B( 13-C , 17-C ) :   0.1019 B( 17-C , 18-H ) :   1.0259
B( 17-C , 19-H ) :   1.0680 B( 17-C , 20-H ) :   1.0005

MP2 TOTAL ENERGY:     -691.021811342 Eh
FINAL SINGLE POINT ENERGY      -691.021811341881

DIPOLE MOMENT
-------------
                                X             Y             Z
Electronic contribution:      2.80910      -4.78591      -3.48937
Nuclear contribution   :     -2.82054       5.22131       3.67730
                        -----------------------------------------
Total Dipole Moment    :     -0.01145       0.43540       0.18793
                        -----------------------------------------
Magnitude (a.u.)       :      0.47436
Magnitude (Debye)      :      1.20574

Rotational constants in cm-1:     0.068140     0.026226     0.023622
Rotational constants in MHz :  2042.780725   786.249495   708.171811

                             ****ORCA TERMINATED NORMALLY****
TOTAL RUN TIME: 0 days 1 hours 28 minutes 10 seconds 818 msec
