                         Program Version 5.0.4 -  RELEASE  -
|  1> ! ri-mp2 aug-cc-pvdz aug-cc-pvdz/c tightscf
|  2> %pal nprocs 16 end
|  3> %maxcore 3800
|  4> %base "DZ_Si-Si_5_AB"
|  5> %scf
|  6> STABPerform true
|  7> STABRestartUHFifUnstable true
|  8> end
|  9>
| 10> *xyz 0 1
| 11> Si         1.038346   -0.932682    0.539289
| 12> Si        -1.038345   -0.932683   -0.539289
| 13> C        -2.111747    0.509885   -0.047219
| 14> H        -1.739613   -2.199914   -0.217083
| 15> H        -0.845185   -0.919679   -2.010969
| 16> C         2.111748    0.509884    0.047215
| 17> H         1.739613   -2.199914    0.217086
| 18> H         0.845186   -0.919674    2.010969
| 19> C         1.756887    1.464318   -0.801956
| 20> C        -1.756890    1.464314    0.801959
| 21> H         3.104880    0.571100    0.486145
| 22> H         0.784628    1.479526   -1.281741
| 23> H         2.421722    2.281325   -1.059221
| 24> H        -3.104875    0.571106   -0.486157
| 25> H        -0.784634    1.479517    1.281752
| 26> H        -2.421724    2.281323    1.059222
| 27> *
| 28>
| 29> $new_job
| 30> ! ri-mp2 aug-cc-pvtz aug-cc-pvtz/c tightscf
| 31> %pal nprocs 16 end
| 32> %maxcore 3800
| 33> %base "TZ_Si-Si_5_AB"
| 34>
| 35> *xyz 0 1
| 36> Si         1.038346   -0.932682    0.539289
| 37> Si        -1.038345   -0.932683   -0.539289
| 38> C        -2.111747    0.509885   -0.047219
| 39> H        -1.739613   -2.199914   -0.217083
| 40> H        -0.845185   -0.919679   -2.010969
| 41> C         2.111748    0.509884    0.047215
| 42> H         1.739613   -2.199914    0.217086
| 43> H         0.845186   -0.919674    2.010969
| 44> C         1.756887    1.464318   -0.801956
| 45> C        -1.756890    1.464314    0.801959
| 46> H         3.104880    0.571100    0.486145
| 47> H         0.784628    1.479526   -1.281741
| 48> H         2.421722    2.281325   -1.059221
| 49> H        -3.104875    0.571106   -0.486157
| 50> H        -0.784634    1.479517    1.281752
| 51> H        -2.421724    2.281323    1.059222
| 52> *
| 53>
| 54> $new_job
| 55> ! ri-mp2 aug-cc-pvqz aug-cc-pvqz/c tightscf
| 56> %pal nprocs 16 end
| 57> %maxcore 3800
| 58> %base "QZ_Si-Si_5_AB"
| 59>
| 60> *xyz 0 1
| 61> Si         1.038346   -0.932682    0.539289
| 62> Si        -1.038345   -0.932683   -0.539289
| 63> C        -2.111747    0.509885   -0.047219
| 64> H        -1.739613   -2.199914   -0.217083
| 65> H        -0.845185   -0.919679   -2.010969
| 66> C         2.111748    0.509884    0.047215
| 67> H         1.739613   -2.199914    0.217086
| 68> H         0.845186   -0.919674    2.010969
| 69> C         1.756887    1.464318   -0.801956
| 70> C        -1.756890    1.464314    0.801959
| 71> H         3.104880    0.571100    0.486145
| 72> H         0.784628    1.479526   -1.281741
| 73> H         2.421722    2.281325   -1.059221
| 74> H        -3.104875    0.571106   -0.486157
| 75> H        -0.784634    1.479517    1.281752
| 76> H        -2.421724    2.281323    1.059222
| 77> *
| 78>
| 79>
| 80>
| 81>
| 82>                          ****END OF INPUT****
 Total Charge           Charge          ....    0
 Multiplicity           Mult            ....    1
 Number of Electrons    NEL             ....   62
MP2 TOTAL ENERGY:     -735.891368254 Eh
FINAL SINGLE POINT ENERGY      -735.891368253902
MP2 TOTAL ENERGY:     -736.109105721 Eh
FINAL SINGLE POINT ENERGY      -736.109105721314

CARTESIAN COORDINATES (ANGSTROEM)
---------------------------------
  Si     1.038346   -0.932682    0.539289
  Si    -1.038345   -0.932683   -0.539289
  C     -2.111747    0.509885   -0.047219
  H     -1.739613   -2.199914   -0.217083
  H     -0.845185   -0.919679   -2.010969
  C      2.111748    0.509884    0.047215
  H      1.739613   -2.199914    0.217086
  H      0.845186   -0.919674    2.010969
  C      1.756887    1.464318   -0.801956
  C     -1.756890    1.464314    0.801959
  H      3.104880    0.571100    0.486145
  H      0.784628    1.479526   -1.281741
  H      2.421722    2.281325   -1.059221
  H     -3.104875    0.571106   -0.486157
  H     -0.784634    1.479517    1.281752
  H     -2.421724    2.281323    1.059222

 Multiplicity           Mult            ....    1
 Number of Electrons    NEL             ....   62
 Basis Dimension        Dim             ....  948

ORBITAL ENERGIES
----------------

  NO   OCC          E(Eh)            E(eV)
   0   2.0000     -68.761185     -1871.0870
   1   2.0000     -68.761184     -1871.0869
   2   2.0000     -11.240565      -305.8713
   3   2.0000     -11.240563      -305.8713
   4   2.0000     -11.221622      -305.3559
   5   2.0000     -11.221622      -305.3558
   6   2.0000      -6.111829      -166.3113
   7   2.0000      -6.111679      -166.3072
   8   2.0000      -4.218404      -114.7886
   9   2.0000      -4.217965      -114.7767
  10   2.0000      -4.217936      -114.7759
  11   2.0000      -4.217747      -114.7707
  12   2.0000      -4.217706      -114.7696
  13   2.0000      -4.217602      -114.7668
  14   2.0000      -1.044120       -28.4120
  15   2.0000      -1.039620       -28.2895
  16   2.0000      -0.804484       -21.8911
  17   2.0000      -0.796148       -21.6643
  18   2.0000      -0.726317       -19.7641
  19   2.0000      -0.659997       -17.9594
  20   2.0000      -0.631523       -17.1846
  21   2.0000      -0.626902       -17.0589
  22   2.0000      -0.569829       -15.5058
  23   2.0000      -0.559903       -15.2357
  24   2.0000      -0.490716       -13.3531
  25   2.0000      -0.480081       -13.0637
  26   2.0000      -0.456831       -12.4310
  27   2.0000      -0.451281       -12.2800
  28   2.0000      -0.392093       -10.6694
  29   2.0000      -0.387491       -10.5442
  30   2.0000      -0.377478       -10.2717
  31   0.0000       0.023035         0.6268
  32   0.0000       0.028764         0.7827
  33   0.0000       0.032452         0.8831
  34   0.0000       0.034597         0.9414
  35   0.0000       0.041661         1.1337

MULLIKEN ATOMIC CHARGES
-----------------------
   0 Si:    1.043286
   1 Si:    1.043286
   2 C :   -0.799068
   3 H :   -0.383136
   4 H :   -0.256065
   5 C :   -0.799067
   6 H :   -0.383135
   7 H :   -0.256064
   8 C :   -0.905408
   9 C :   -0.905404
  10 H :    0.429792
  11 H :    0.478760
  12 H :    0.391837
  13 H :    0.429792
  14 H :    0.478757
  15 H :    0.391837
Sum of atomic charges:   -0.0000000

LOEWDIN ATOMIC CHARGES
----------------------
   0 Si:    0.700102
   1 Si:    0.700102
   2 C :    0.280403
   3 H :   -0.266974
   4 H :   -0.258501
   5 C :    0.280403
   6 H :   -0.266974
   7 H :   -0.258501
   8 C :    0.684875
   9 C :    0.684874
  10 H :   -0.413181
  11 H :   -0.386194
  12 H :   -0.340530
  13 H :   -0.413181
  14 H :   -0.386193
  15 H :   -0.340529

  Mayer bond orders larger than 0.100000
B(  0-Si,  1-Si) :   0.8607 B(  0-Si,  5-C ) :   0.8354 B(  0-Si,  6-H ) :   0.7424
B(  0-Si,  7-H ) :   0.7923 B(  1-Si,  2-C ) :   0.8354 B(  1-Si,  3-H ) :   0.7424
B(  1-Si,  4-H ) :   0.7923 B(  2-C ,  9-C ) :   1.8280 B(  2-C , 13-H ) :   0.7841
B(  5-C ,  8-C ) :   1.8280 B(  5-C , 10-H ) :   0.7841 B(  8-C , 11-H ) :   0.7469
B(  8-C , 12-H ) :   0.8820 B(  9-C , 14-H ) :   0.7469 B(  9-C , 15-H ) :   0.8820

MP2 TOTAL ENERGY:     -736.177566242 Eh
FINAL SINGLE POINT ENERGY      -736.177566242187

DIPOLE MOMENT
-------------
                                X             Y             Z
Electronic contribution:      0.00000      -2.09204      -0.00000
Nuclear contribution   :     -0.00000       2.58558       0.00000
                        -----------------------------------------
Total Dipole Moment    :      0.00000       0.49354      -0.00000
                        -----------------------------------------
Magnitude (a.u.)       :      0.49354
Magnitude (Debye)      :      1.25448

Rotational constants in cm-1:     0.093797     0.051393     0.040576
Rotational constants in MHz :  2811.973735  1540.726898  1216.426370

                             ****ORCA TERMINATED NORMALLY****
TOTAL RUN TIME: 0 days 1 hours 42 minutes 7 seconds 244 msec
