                         Program Version 5.0.4 -  RELEASE  -
|  1> ! ri-mp2 aug-cc-pvdz aug-cc-pvdz/c tightscf
|  2> %pal nprocs 16 end
|  3> %maxcore 3800
|  4> %base "DZ_S-Cl_47_AB"
|  5> %scf
|  6> STABPerform true
|  7> STABRestartUHFifUnstable true
|  8> end
|  9>
| 10> *xyz 0 1
| 11> Cl        -2.037834    0.731289    0.182964
| 12> S        -0.849416   -0.785927   -0.529532
| 13> S         0.815916   -0.736497    0.582448
| 14> S         2.093614    0.638911   -0.274206
| 15> H         1.681354    1.704276    0.430255
| 16> *
| 17>
| 18> $new_job
| 19> ! ri-mp2 aug-cc-pvtz aug-cc-pvtz/c tightscf
| 20> %pal nprocs 16 end
| 21> %maxcore 3800
| 22> %base "TZ_S-Cl_47_AB"
| 23>
| 24> *xyz 0 1
| 25> Cl        -2.037834    0.731289    0.182964
| 26> S        -0.849416   -0.785927   -0.529532
| 27> S         0.815916   -0.736497    0.582448
| 28> S         2.093614    0.638911   -0.274206
| 29> H         1.681354    1.704276    0.430255
| 30> *
| 31>
| 32> $new_job
| 33> ! ri-mp2 aug-cc-pvqz aug-cc-pvqz/c tightscf
| 34> %pal nprocs 16 end
| 35> %maxcore 3800
| 36> %base "QZ_S-Cl_47_AB"
| 37>
| 38> *xyz 0 1
| 39> Cl        -2.037834    0.731289    0.182964
| 40> S        -0.849416   -0.785927   -0.529532
| 41> S         0.815916   -0.736497    0.582448
| 42> S         2.093614    0.638911   -0.274206
| 43> H         1.681354    1.704276    0.430255
| 44> *
| 45>
| 46>
| 47>
| 48>
| 49>                          ****END OF INPUT****
 Total Charge           Charge          ....    0
 Multiplicity           Mult            ....    1
 Number of Electrons    NEL             ....   66
MP2 TOTAL ENERGY:    -1653.246412845 Eh
FINAL SINGLE POINT ENERGY     -1653.246412844686
MP2 TOTAL ENERGY:    -1653.472737982 Eh
FINAL SINGLE POINT ENERGY     -1653.472737982081

CARTESIAN COORDINATES (ANGSTROEM)
---------------------------------
  Cl    -2.037834    0.731289    0.182964
  S     -0.849416   -0.785927   -0.529532
  S      0.815916   -0.736497    0.582448
  S      2.093614    0.638911   -0.274206
  H      1.681354    1.704276    0.430255

 Multiplicity           Mult            ....    1
 Number of Electrons    NEL             ....   66
 Basis Dimension        Dim             ....  382

ORBITAL ENERGIES
----------------

  NO   OCC          E(Eh)            E(eV)
   0   2.0000    -104.860597     -2853.4019
   1   2.0000     -92.044566     -2504.6600
   2   2.0000     -92.030259     -2504.2707
   3   2.0000     -92.002154     -2503.5059
   4   2.0000     -10.584903      -288.0299
   5   2.0000      -9.040875      -246.0147
   6   2.0000      -9.028450      -245.6766
   7   2.0000      -9.003153      -244.9882
   8   2.0000      -8.051824      -219.1013
   9   2.0000      -8.049926      -219.0496
  10   2.0000      -8.049726      -219.0442
  11   2.0000      -6.721592      -182.9038
  12   2.0000      -6.720255      -182.8674
  13   2.0000      -6.718950      -182.8319
  14   2.0000      -6.709377      -182.5714
  15   2.0000      -6.708069      -182.5358
  16   2.0000      -6.707299      -182.5149
  17   2.0000      -6.684309      -181.8893
  18   2.0000      -6.683345      -181.8631
  19   2.0000      -6.682363      -181.8363
  20   2.0000      -1.161924       -31.6176
  21   2.0000      -1.083671       -29.4882
  22   2.0000      -0.970240       -26.4016
  23   2.0000      -0.823871       -22.4187
  24   2.0000      -0.610385       -16.6094
  25   2.0000      -0.581997       -15.8369
  26   2.0000      -0.550274       -14.9737
  27   2.0000      -0.531735       -14.4693
  28   2.0000      -0.490998       -13.3607
  29   2.0000      -0.464897       -12.6505
  30   2.0000      -0.407470       -11.0878
  31   2.0000      -0.392970       -10.6933
  32   2.0000      -0.375911       -10.2290
  33   0.0000       0.028765         0.7827
  34   0.0000       0.040815         1.1106
  35   0.0000       0.044325         1.2061
  36   0.0000       0.050543         1.3753
  37   0.0000       0.067411         1.8343

MULLIKEN ATOMIC CHARGES
-----------------------
   0 Cl:   -0.243003
   1 S :    0.190500
   2 S :    0.042321
   3 S :   -0.116900
   4 H :    0.127082
Sum of atomic charges:    0.0000000

LOEWDIN ATOMIC CHARGES
----------------------
   0 Cl:    0.339555
   1 S :   -0.298764
   2 S :   -0.041620
   3 S :    0.923627
   4 H :   -0.922798

  Mayer bond orders larger than 0.100000
B(  0-Cl,  1-S ) :   0.9286 B(  1-S ,  2-S ) :   1.1655 B(  2-S ,  3-S ) :   1.0829
B(  3-S ,  4-H ) :   0.9703

MP2 TOTAL ENERGY:    -1653.547147387 Eh
FINAL SINGLE POINT ENERGY     -1653.547147387215

DIPOLE MOMENT
-------------
                                X             Y             Z
Electronic contribution:     -3.92868      -0.46298      -0.09095
Nuclear contribution   :      4.23629       0.64043       0.16384
                        -----------------------------------------
Total Dipole Moment    :      0.30761       0.17745       0.07289
                        -----------------------------------------
Magnitude (a.u.)       :      0.36253
Magnitude (Debye)      :      0.92147

Rotational constants in cm-1:     0.176122     0.047002     0.041409
Rotational constants in MHz :  5279.993092  1409.071880  1241.410968

                             ****ORCA TERMINATED NORMALLY****
TOTAL RUN TIME: 0 days 0 hours 8 minutes 44 seconds 273 msec
