                         Program Version 5.0.4 -  RELEASE  -
|  1> ! ri-mp2 aug-cc-pvdz aug-cc-pvdz/c tightscf
|  2> %pal nprocs 16 end
|  3> %maxcore 3800
|  4> %base "DZ_B-P_64_AB"
|  5>
|  6> *xyz 0 1
|  7> C        -2.445624   -1.484133    0.298918
|  8> C        -1.164187   -1.495725   -0.219188
|  9> C        -3.061867   -0.275858    0.572474
| 10> C        -2.392347    0.905925    0.314730
| 11> C        -1.107993    0.913398   -0.217793
| 12> C        -0.478406   -0.312203   -0.482135
| 13> H        -2.958275   -2.416982    0.492203
| 14> H        -0.683236   -2.443556   -0.423092
| 15> B         2.244736   -0.110193    0.435379
| 16> O         3.581910   -0.320609    0.360745
| 17> O         1.702005    0.277670    1.620526
| 18> H        -2.878238    1.851760    0.520035
| 19> H        -4.063030   -0.252426    0.981684
| 20> C        -0.429013    2.222951   -0.506833
| 21> H        -1.113232    3.054877   -0.350805
| 22> H        -0.071126    2.260918   -1.536738
| 23> H         0.439169    2.385222    0.135509
| 24> H         0.739714    0.321862    1.613119
| 25> H         4.027430   -0.201043    1.207134
| 26> P         1.210716   -0.319639   -1.196522
| 27> H         1.381705   -1.717690   -1.279324
| 28> *
| 29>
| 30> $new_job
| 31> ! ri-mp2 aug-cc-pvtz aug-cc-pvtz/c tightscf
| 32> %pal nprocs 16 end
| 33> %maxcore 3800
| 34> %base "TZ_B-P_64_AB"
| 35>
| 36> *xyz 0 1
| 37> C        -2.445624   -1.484133    0.298918
| 38> C        -1.164187   -1.495725   -0.219188
| 39> C        -3.061867   -0.275858    0.572474
| 40> C        -2.392347    0.905925    0.314730
| 41> C        -1.107993    0.913398   -0.217793
| 42> C        -0.478406   -0.312203   -0.482135
| 43> H        -2.958275   -2.416982    0.492203
| 44> H        -0.683236   -2.443556   -0.423092
| 45> B         2.244736   -0.110193    0.435379
| 46> O         3.581910   -0.320609    0.360745
| 47> O         1.702005    0.277670    1.620526
| 48> H        -2.878238    1.851760    0.520035
| 49> H        -4.063030   -0.252426    0.981684
| 50> C        -0.429013    2.222951   -0.506833
| 51> H        -1.113232    3.054877   -0.350805
| 52> H        -0.071126    2.260918   -1.536738
| 53> H         0.439169    2.385222    0.135509
| 54> H         0.739714    0.321862    1.613119
| 55> H         4.027430   -0.201043    1.207134
| 56> P         1.210716   -0.319639   -1.196522
| 57> H         1.381705   -1.717690   -1.279324
| 58> *
| 59>
| 60> $new_job
| 61> ! ri-mp2 aug-cc-pvqz aug-cc-pvqz/c tightscf
| 62> %pal nprocs 16 end
| 63> %maxcore 3800
| 64> %base "QZ_B-P_64_AB"
| 65>
| 66> *xyz 0 1
| 67> C        -2.445624   -1.484133    0.298918
| 68> C        -1.164187   -1.495725   -0.219188
| 69> C        -3.061867   -0.275858    0.572474
| 70> C        -2.392347    0.905925    0.314730
| 71> C        -1.107993    0.913398   -0.217793
| 72> C        -0.478406   -0.312203   -0.482135
| 73> H        -2.958275   -2.416982    0.492203
| 74> H        -0.683236   -2.443556   -0.423092
| 75> B         2.244736   -0.110193    0.435379
| 76> O         3.581910   -0.320609    0.360745
| 77> O         1.702005    0.277670    1.620526
| 78> H        -2.878238    1.851760    0.520035
| 79> H        -4.063030   -0.252426    0.981684
| 80> C        -0.429013    2.222951   -0.506833
| 81> H        -1.113232    3.054877   -0.350805
| 82> H        -0.071126    2.260918   -1.536738
| 83> H         0.439169    2.385222    0.135509
| 84> H         0.739714    0.321862    1.613119
| 85> H         4.027430   -0.201043    1.207134
| 86> P         1.210716   -0.319639   -1.196522
| 87> H         1.381705   -1.717690   -1.279324
| 88> *
| 89>
| 90>
| 91>
| 92>
| 93>                          ****END OF INPUT****
 Total Charge           Charge          ....    0
 Multiplicity           Mult            ....    1
 Number of Electrons    NEL             ....   88
MP2 TOTAL ENERGY:     -787.796610384 Eh
FINAL SINGLE POINT ENERGY      -787.796610383625
MP2 TOTAL ENERGY:     -788.230710602 Eh
FINAL SINGLE POINT ENERGY      -788.230710602413

CARTESIAN COORDINATES (ANGSTROEM)
---------------------------------
  C     -2.445624   -1.484133    0.298918
  C     -1.164187   -1.495725   -0.219188
  C     -3.061867   -0.275858    0.572474
  C     -2.392347    0.905925    0.314730
  C     -1.107993    0.913398   -0.217793
  C     -0.478406   -0.312203   -0.482135
  H     -2.958275   -2.416982    0.492203
  H     -0.683236   -2.443556   -0.423092
  B      2.244736   -0.110193    0.435379
  O      3.581910   -0.320609    0.360745
  O      1.702005    0.277670    1.620526
  H     -2.878238    1.851760    0.520035
  H     -4.063030   -0.252426    0.981684
  C     -0.429013    2.222951   -0.506833
  H     -1.113232    3.054877   -0.350805
  H     -0.071126    2.260918   -1.536738
  H      0.439169    2.385222    0.135509
  H      0.739714    0.321862    1.613119
  H      4.027430   -0.201043    1.207134
  P      1.210716   -0.319639   -1.196522
  H      1.381705   -1.717690   -1.279324

 Multiplicity           Mult            ....    1
 Number of Electrons    NEL             ....   88
 Basis Dimension        Dim             .... 1344

ORBITAL ENERGIES
----------------

  NO   OCC          E(Eh)            E(eV)
   0   2.0000     -79.923080     -2174.8176
   1   2.0000     -20.573031      -559.8206
   2   2.0000     -20.568845      -559.7067
   3   2.0000     -11.250697      -306.1470
   4   2.0000     -11.244406      -305.9759
   5   2.0000     -11.240758      -305.8766
   6   2.0000     -11.239205      -305.8343
   7   2.0000     -11.236222      -305.7532
   8   2.0000     -11.235926      -305.7451
   9   2.0000     -11.227874      -305.5260
  10   2.0000      -7.650603      -208.1835
  11   2.0000      -7.468324      -203.2234
  12   2.0000      -5.362633      -145.9247
  13   2.0000      -5.362074      -145.9094
  14   2.0000      -5.361534      -145.8947
  15   2.0000      -1.391096       -37.8536
  16   2.0000      -1.351252       -36.7694
  17   2.0000      -1.169151       -31.8142
  18   2.0000      -1.059063       -28.8186
  19   2.0000      -1.030630       -28.0449
  20   2.0000      -0.944971       -25.7140
  21   2.0000      -0.873178       -23.7604
  22   2.0000      -0.822972       -22.3942
  23   2.0000      -0.792890       -21.5756
  24   2.0000      -0.763095       -20.7649
  25   2.0000      -0.731909       -19.9163
  26   2.0000      -0.685326       -18.6487
  27   2.0000      -0.653604       -17.7855
  28   2.0000      -0.626722       -17.0540
  29   2.0000      -0.621510       -16.9121
  30   2.0000      -0.587745       -15.9933
  31   2.0000      -0.582246       -15.8437
  32   2.0000      -0.580580       -15.7984
  33   2.0000      -0.567114       -15.4319
  34   2.0000      -0.558415       -15.1952
  35   2.0000      -0.541580       -14.7371
  36   2.0000      -0.509620       -13.8675
  37   2.0000      -0.503947       -13.7131
  38   2.0000      -0.499642       -13.5960
  39   2.0000      -0.484557       -13.1855
  40   2.0000      -0.450164       -12.2496
  41   2.0000      -0.382908       -10.4195
  42   2.0000      -0.340801        -9.2737
  43   2.0000      -0.318452        -8.6655
  44   0.0000       0.020338         0.5534
  45   0.0000       0.026371         0.7176
  46   0.0000       0.026857         0.7308
  47   0.0000       0.034969         0.9516
  48   0.0000       0.040349         1.0980

MULLIKEN ATOMIC CHARGES
-----------------------
   0 C :   -0.347804
   1 C :   -0.661787
   2 C :   -0.405436
   3 C :   -0.540906
   4 C :    0.793776
   5 C :    0.318987
   6 H :    0.272683
   7 H :    0.260760
   8 B :    1.419913
   9 O :   -1.080387
  10 O :   -1.256833
  11 H :    0.208436
  12 H :    0.282861
  13 C :   -0.845051
  14 H :    0.318250
  15 H :    0.224438
  16 H :    0.206599
  17 H :    0.413578
  18 H :    0.322018
  19 P :    0.286837
  20 H :   -0.190933
Sum of atomic charges:    0.0000000

LOEWDIN ATOMIC CHARGES
----------------------
   0 C :    0.344407
   1 C :    0.262181
   2 C :    0.348200
   3 C :    0.342726
   4 C :   -0.160011
   5 C :   -0.302530
   6 H :   -0.319093
   7 H :   -0.345923
   8 B :   -1.408674
   9 O :    1.281699
  10 O :    1.349862
  11 H :   -0.320644
  12 H :   -0.317479
  13 C :    0.872510
  14 H :   -0.298761
  15 H :   -0.301490
  16 H :   -0.293153
  17 H :   -0.852922
  18 H :   -0.801923
  19 P :    1.364217
  20 H :   -0.443199

  Mayer bond orders larger than 0.100000
B(  0-C ,  1-C ) :   1.2917 B(  0-C ,  2-C ) :   1.1748 B(  0-C ,  5-C ) :  -0.2739
B(  0-C ,  6-H ) :   1.1006 B(  0-C , 12-H ) :  -0.1039 B(  1-C ,  2-C ) :   0.1344
B(  1-C ,  3-C ) :   0.1753 B(  1-C ,  5-C ) :   0.8966 B(  1-C ,  6-H ) :  -0.1595
B(  1-C ,  7-H ) :   1.0324 B(  2-C ,  3-C ) :   1.2728 B(  2-C ,  4-C ) :  -0.2919
B(  2-C , 12-H ) :   1.0970 B(  3-C ,  4-C ) :   1.0225 B(  3-C ,  5-C ) :  -0.2797
B(  3-C , 11-H ) :   1.0720 B(  3-C , 12-H ) :  -0.1731 B(  3-C , 13-C ) :  -0.1047
B(  4-C ,  5-C ) :   0.9792 B(  4-C , 13-C ) :   0.4950 B(  4-C , 19-P ) :  -0.2348
B(  5-C , 10-O ) :  -0.1246 B(  5-C , 19-P ) :   0.7002 B(  5-C , 20-H ) :  -0.1485
B(  8-B ,  9-O ) :   0.3875 B(  8-B , 10-O ) :   0.3798 B(  8-B , 19-P ) :   1.0144
B(  9-O , 10-O ) :  -0.1504 B(  9-O , 18-H ) :   0.9404 B(  9-O , 19-P ) :  -0.1617
B( 10-O , 17-H ) :   0.8305 B( 10-O , 19-P ) :   0.1148 B( 13-C , 14-H ) :   0.9836
B( 13-C , 15-H ) :   1.0366 B( 13-C , 16-H ) :   1.0339 B( 19-P , 20-H ) :   0.9816

MP2 TOTAL ENERGY:     -788.370041100 Eh
FINAL SINGLE POINT ENERGY      -788.370041100166

DIPOLE MOMENT
-------------
                                X             Y             Z
Electronic contribution:      7.28143      -3.14617      -1.54080
Nuclear contribution   :     -7.92965       3.18406       2.14503
                        -----------------------------------------
Total Dipole Moment    :     -0.64822       0.03789       0.60422
                        -----------------------------------------
Magnitude (a.u.)       :      0.88697
Magnitude (Debye)      :      2.25450

Rotational constants in cm-1:     0.057493     0.020853     0.019278
Rotational constants in MHz :  1723.595637   625.145251   577.931424

                             ****ORCA TERMINATED NORMALLY****
TOTAL RUN TIME: 0 days 1 hours 3 minutes 16 seconds 262 msec
