                         Program Version 5.0.4 -  RELEASE  -
|  1> ! ri-mp2 aug-cc-pvdz aug-cc-pvdz/c tightscf
|  2> %pal nprocs 16 end
|  3> %maxcore 3800
|  4> %base "DZ_B-F_32_AB"
|  5> %scf
|  6> STABPerform true
|  7> STABRestartUHFifUnstable true
|  8> end
|  9>
| 10> *xyz 0 1
| 11> F         2.260273   -0.265443    0.000015
| 12> F         0.819680    1.490050   -0.000015
| 13> B         1.035810    0.203429    0.000001
| 14> C        -1.645020   -0.000081   -0.000007
| 15> N        -2.594188    0.643230    0.000018
| 16> S        -0.304324   -1.033796   -0.000005
| 17> *
| 18>
| 19> $new_job
| 20> ! ri-mp2 aug-cc-pvtz aug-cc-pvtz/c tightscf
| 21> %pal nprocs 16 end
| 22> %maxcore 3800
| 23> %base "TZ_B-F_32_AB"
| 24>
| 25> *xyz 0 1
| 26> F         2.260273   -0.265443    0.000015
| 27> F         0.819680    1.490050   -0.000015
| 28> B         1.035810    0.203429    0.000001
| 29> C        -1.645020   -0.000081   -0.000007
| 30> N        -2.594188    0.643230    0.000018
| 31> S        -0.304324   -1.033796   -0.000005
| 32> *
| 33>
| 34> $new_job
| 35> ! ri-mp2 aug-cc-pvqz aug-cc-pvqz/c tightscf
| 36> %pal nprocs 16 end
| 37> %maxcore 3800
| 38> %base "QZ_B-F_32_AB"
| 39>
| 40> *xyz 0 1
| 41> F         2.260273   -0.265443    0.000015
| 42> F         0.819680    1.490050   -0.000015
| 43> B         1.035810    0.203429    0.000001
| 44> C        -1.645020   -0.000081   -0.000007
| 45> N        -2.594188    0.643230    0.000018
| 46> S        -0.304324   -1.033796   -0.000005
| 47> *
| 48>
| 49>
| 50>
| 51>
| 52>                          ****END OF INPUT****
 Total Charge           Charge          ....    0
 Multiplicity           Mult            ....    1
 Number of Electrons    NEL             ....   52
MP2 TOTAL ENERGY:     -714.475785082 Eh
FINAL SINGLE POINT ENERGY      -714.475785082335
MP2 TOTAL ENERGY:     -714.795525044 Eh
FINAL SINGLE POINT ENERGY      -714.795525044354

CARTESIAN COORDINATES (ANGSTROEM)
---------------------------------
  F      2.260273   -0.265443    0.000015
  F      0.819680    1.490050   -0.000015
  B      1.035810    0.203429    0.000001
  C     -1.645020   -0.000081   -0.000007
  N     -2.594188    0.643230    0.000018
  S     -0.304324   -1.033796   -0.000005

 Multiplicity           Mult            ....    1
 Number of Electrons    NEL             ....   52
 Basis Dimension        Dim             ....  484

ORBITAL ENERGIES
----------------

  NO   OCC          E(Eh)            E(eV)
   0   2.0000     -92.038817     -2504.5035
   1   2.0000     -26.355474      -717.1689
   2   2.0000     -26.354684      -717.1474
   3   2.0000     -15.597762      -424.4367
   4   2.0000     -11.312484      -307.8283
   5   2.0000      -9.042306      -246.0537
   6   2.0000      -7.782089      -211.7614
   7   2.0000      -6.724111      -182.9724
   8   2.0000      -6.722606      -182.9314
   9   2.0000      -6.722067      -182.9167
  10   2.0000      -1.689763       -45.9808
  11   2.0000      -1.660660       -45.1889
  12   2.0000      -1.252438       -34.0806
  13   2.0000      -1.085945       -29.5501
  14   2.0000      -0.862170       -23.4608
  15   2.0000      -0.812031       -22.0965
  16   2.0000      -0.784140       -21.3375
  17   2.0000      -0.758815       -20.6484
  18   2.0000      -0.704217       -19.1627
  19   2.0000      -0.702788       -19.1238
  20   2.0000      -0.681841       -18.5538
  21   2.0000      -0.586377       -15.9561
  22   2.0000      -0.568526       -15.4704
  23   2.0000      -0.552130       -15.0242
  24   2.0000      -0.478627       -13.0241
  25   2.0000      -0.428548       -11.6614
  26   0.0000       0.025919         0.7053
  27   0.0000       0.035209         0.9581
  28   0.0000       0.036958         1.0057
  29   0.0000       0.039426         1.0728
  30   0.0000       0.068425         1.8619

MULLIKEN ATOMIC CHARGES
-----------------------
   0 F :   -0.733690
   1 F :   -0.706030
   2 B :    1.527549
   3 C :   -0.078658
   4 N :   -0.470364
   5 S :    0.461193
Sum of atomic charges:    0.0000000

LOEWDIN ATOMIC CHARGES
----------------------
   0 F :    0.756934
   1 F :    0.796253
   2 B :   -2.238915
   3 C :   -0.899743
   4 N :    0.291984
   5 S :    1.293488

  Mayer bond orders larger than 0.100000
B(  0-F ,  2-B ) :   0.4161 B(  1-F ,  2-B ) :   0.4589 B(  2-B ,  5-S ) :   1.1592
B(  3-C ,  4-N ) :   2.6588 B(  3-C ,  5-S ) :   0.8970

MP2 TOTAL ENERGY:     -714.899586246 Eh
FINAL SINGLE POINT ENERGY      -714.899586245520

DIPOLE MOMENT
-------------
                                X             Y             Z
Electronic contribution:      4.47512       0.50720      -0.00001
Nuclear contribution   :     -3.54718      -1.22222      -0.00000
                        -----------------------------------------
Total Dipole Moment    :      0.92793      -0.71502      -0.00001
                        -----------------------------------------
Magnitude (a.u.)       :      1.17146
Magnitude (Debye)      :      2.97760

Rotational constants in cm-1:     0.200674     0.067156     0.050317
Rotational constants in MHz :  6016.044112  2013.298968  1508.478998

                             ****ORCA TERMINATED NORMALLY****
TOTAL RUN TIME: 0 days 0 hours 10 minutes 11 seconds 140 msec
