                         Program Version 5.0.4 -  RELEASE  -
|  1> ! ri-mp2 aug-cc-pvdz aug-cc-pvdz/c tightscf
|  2> %pal nprocs 16 end
|  3> %maxcore 3800
|  4> %base "DZ_Si-Si_27_AB"
|  5> %scf
|  6> STABPerform true
|  7> STABRestartUHFifUnstable true
|  8> end
|  9>
| 10> *xyz 0 1
| 11> Si         1.604673   -0.000002    0.000009
| 12> Si        -0.717534   -0.000002    0.000001
| 13> Cl        -1.390381    0.239347   -1.901735
| 14> Cl        -1.390407    1.527278    1.158139
| 15> F         2.166324   -0.183353    1.459534
| 16> F         2.166322   -1.172318   -0.888543
| 17> Cl        -1.390419   -1.766618    0.743580
| 18> F         2.166309    1.355664   -0.570975
| 19> *
| 20>
| 21> $new_job
| 22> ! ri-mp2 aug-cc-pvtz aug-cc-pvtz/c tightscf
| 23> %pal nprocs 16 end
| 24> %maxcore 3800
| 25> %base "TZ_Si-Si_27_AB"
| 26>
| 27> *xyz 0 1
| 28> Si         1.604673   -0.000002    0.000009
| 29> Si        -0.717534   -0.000002    0.000001
| 30> Cl        -1.390381    0.239347   -1.901735
| 31> Cl        -1.390407    1.527278    1.158139
| 32> F         2.166324   -0.183353    1.459534
| 33> F         2.166322   -1.172318   -0.888543
| 34> Cl        -1.390419   -1.766618    0.743580
| 35> F         2.166309    1.355664   -0.570975
| 36> *
| 37>
| 38> $new_job
| 39> ! ri-mp2 aug-cc-pvqz aug-cc-pvqz/c tightscf
| 40> %pal nprocs 16 end
| 41> %maxcore 3800
| 42> %base "QZ_Si-Si_27_AB"
| 43>
| 44> *xyz 0 1
| 45> Si         1.604673   -0.000002    0.000009
| 46> Si        -0.717534   -0.000002    0.000001
| 47> Cl        -1.390381    0.239347   -1.901735
| 48> Cl        -1.390407    1.527278    1.158139
| 49> F         2.166324   -0.183353    1.459534
| 50> F         2.166322   -1.172318   -0.888543
| 51> Cl        -1.390419   -1.766618    0.743580
| 52> F         2.166309    1.355664   -0.570975
| 53> *
| 54>
| 55>
| 56>
| 57>
| 58>                          ****END OF INPUT****
 Total Charge           Charge          ....    0
 Multiplicity           Mult            ....    1
 Number of Electrons    NEL             ....  106
MP2 TOTAL ENERGY:    -2256.315097149 Eh
FINAL SINGLE POINT ENERGY     -2256.315097149013
MP2 TOTAL ENERGY:    -2256.839083447 Eh
FINAL SINGLE POINT ENERGY     -2256.839083446549

CARTESIAN COORDINATES (ANGSTROEM)
---------------------------------
  Si     1.604673   -0.000002    0.000009
  Si    -0.717534   -0.000002    0.000001
  Cl    -1.390381    0.239347   -1.901735
  Cl    -1.390407    1.527278    1.158139
  F      2.166324   -0.183353    1.459534
  F      2.166322   -1.172318   -0.888543
  Cl    -1.390419   -1.766618    0.743580
  F      2.166309    1.355664   -0.570975

 Multiplicity           Mult            ....    1
 Number of Electrons    NEL             ....  106
 Basis Dimension        Dim             ....  660

ORBITAL ENERGIES
----------------

  NO   OCC          E(Eh)            E(eV)
   0   2.0000    -104.865529     -2853.5361
   1   2.0000    -104.865529     -2853.5361
   2   2.0000    -104.865529     -2853.5361
   3   2.0000     -68.918805     -1875.3760
   4   2.0000     -68.904686     -1874.9918
   5   2.0000     -26.327108      -716.3970
   6   2.0000     -26.327107      -716.3970
   7   2.0000     -26.327094      -716.3967
   8   2.0000     -10.593037      -288.2512
   9   2.0000     -10.593037      -288.2512
  10   2.0000     -10.593028      -288.2509
  11   2.0000      -8.059774      -219.3176
  12   2.0000      -8.059774      -219.3176
  13   2.0000      -8.059772      -219.3175
  14   2.0000      -8.058547      -219.2842
  15   2.0000      -8.058547      -219.2842
  16   2.0000      -8.058546      -219.2842
  17   2.0000      -8.058540      -219.2840
  18   2.0000      -8.058539      -219.2840
  19   2.0000      -8.058539      -219.2840
  20   2.0000      -6.254982      -170.2067
  21   2.0000      -6.239793      -169.7934
  22   2.0000      -4.362177      -118.7009
  23   2.0000      -4.362177      -118.7009
  24   2.0000      -4.360988      -118.6685
  25   2.0000      -4.348304      -118.3234
  26   2.0000      -4.348304      -118.3234
  27   2.0000      -4.346939      -118.2862
  28   2.0000      -1.652446       -44.9654
  29   2.0000      -1.624289       -44.1991
  30   2.0000      -1.624287       -44.1991
  31   2.0000      -1.166163       -31.7329
  32   2.0000      -1.123602       -30.5748
  33   2.0000      -1.123601       -30.5747
  34   2.0000      -0.844184       -22.9714
  35   2.0000      -0.762951       -20.7610
  36   2.0000      -0.762950       -20.7609
  37   2.0000      -0.756950       -20.5977
  38   2.0000      -0.711915       -19.3722
  39   2.0000      -0.711915       -19.3722
  40   2.0000      -0.710188       -19.3252
  41   2.0000      -0.685858       -18.6632
  42   2.0000      -0.685857       -18.6631
  43   2.0000      -0.668708       -18.1965
  44   2.0000      -0.592886       -16.1332
  45   2.0000      -0.592886       -16.1332
  46   2.0000      -0.576757       -15.6944
  47   2.0000      -0.521029       -14.1779
  48   2.0000      -0.521028       -14.1779
  49   2.0000      -0.495657       -13.4875
  50   2.0000      -0.495657       -13.4875
  51   2.0000      -0.479691       -13.0531
  52   2.0000      -0.456921       -12.4334
  53   0.0000       0.031982         0.8703
  54   0.0000       0.033572         0.9135
  55   0.0000       0.040081         1.0907
  56   0.0000       0.040081         1.0907
  57   0.0000       0.054772         1.4904

MULLIKEN ATOMIC CHARGES
-----------------------
   0 Si:    2.225110
   1 Si:    1.668812
   2 Cl:   -0.582955
   3 Cl:   -0.582956
   4 F :   -0.715018
   5 F :   -0.715018
   6 Cl:   -0.582957
   7 F :   -0.715018
Sum of atomic charges:    0.0000000

LOEWDIN ATOMIC CHARGES
----------------------
   0 Si:   -1.487834
   1 Si:   -2.346555
   2 Cl:    0.866546
   3 Cl:    0.866541
   4 F :    0.411587
   5 F :    0.411584
   6 Cl:    0.866543
   7 F :    0.411587

  Mayer bond orders larger than 0.100000
B(  0-Si,  1-Si) :   0.9694 B(  0-Si,  4-F ) :   0.4272 B(  0-Si,  5-F ) :   0.4272
B(  0-Si,  7-F ) :   0.4272 B(  1-Si,  2-Cl) :   0.5679 B(  1-Si,  3-Cl) :   0.5679
B(  1-Si,  6-Cl) :   0.5679

MP2 TOTAL ENERGY:    -2257.016140192 Eh
FINAL SINGLE POINT ENERGY     -2257.016140191555

DIPOLE MOMENT
-------------
                                X             Y             Z
Electronic contribution:      0.11321       0.00000       0.00000
Nuclear contribution   :     -0.45759      -0.00000       0.00001
                        -----------------------------------------
Total Dipole Moment    :     -0.34438      -0.00000       0.00001
                        -----------------------------------------
Magnitude (a.u.)       :      0.34438
Magnitude (Debye)      :      0.87535

Rotational constants in cm-1:     0.032792     0.020636     0.020636
Rotational constants in MHz :   983.085415   618.654282   618.653808

                             ****ORCA TERMINATED NORMALLY****
TOTAL RUN TIME: 0 days 0 hours 29 minutes 17 seconds 811 msec
