                         Program Version 5.0.4 -  RELEASE  -
|  1> ! ri-mp2 aug-cc-pvdz aug-cc-pvdz/c tightscf
|  2> %pal nprocs 16 end
|  3> %maxcore 3800
|  4> %base "DZ_P-Si_27_A"
|  5> %scf
|  6> STABPerform true
|  7> STABRestartUHFifUnstable true
|  8> end
|  9>
| 10> *xyz 0 2
| 11> Si        -0.879611    0.000000   -0.128047
| 12> C         0.786410    0.777592    0.036193
| 13> C         0.786410   -0.777592    0.036192
| 14> H         1.261368   -1.237096   -0.821828
| 15> H         1.056301   -1.266230    0.965084
| 16> H         1.056306    1.266230    0.965083
| 17> H         1.261365    1.237095   -0.821829
| 18> H        -1.757706   -0.000002    1.071833
| 19> *
| 20>
| 21> $new_job
| 22> ! ri-mp2 aug-cc-pvtz aug-cc-pvtz/c tightscf
| 23> %pal nprocs 16 end
| 24> %maxcore 3800
| 25> %base "TZ_P-Si_27_A"
| 26>
| 27> *xyz 0 2
| 28> Si        -0.879611    0.000000   -0.128047
| 29> C         0.786410    0.777592    0.036193
| 30> C         0.786410   -0.777592    0.036192
| 31> H         1.261368   -1.237096   -0.821828
| 32> H         1.056301   -1.266230    0.965084
| 33> H         1.056306    1.266230    0.965083
| 34> H         1.261365    1.237095   -0.821829
| 35> H        -1.757706   -0.000002    1.071833
| 36> *
| 37>
| 38> $new_job
| 39> ! ri-mp2 aug-cc-pvqz aug-cc-pvqz/c tightscf
| 40> %pal nprocs 16 end
| 41> %maxcore 3800
| 42> %base "QZ_P-Si_27_A"
| 43>
| 44> *xyz 0 2
| 45> Si        -0.879611    0.000000   -0.128047
| 46> C         0.786410    0.777592    0.036193
| 47> C         0.786410   -0.777592    0.036192
| 48> H         1.261368   -1.237096   -0.821828
| 49> H         1.056301   -1.266230    0.965084
| 50> H         1.056306    1.266230    0.965083
| 51> H         1.261365    1.237095   -0.821829
| 52> H        -1.757706   -0.000002    1.071833
| 53> *
| 54>
| 55>
| 56>
| 57>
| 58>                          ****END OF INPUT****
 Total Charge           Charge          ....    0
 Multiplicity           Mult            ....    2
 Number of Electrons    NEL             ....   31
MP2 TOTAL ENERGY:     -367.872493262 Eh
FINAL SINGLE POINT ENERGY      -367.872493262489
MP2 TOTAL ENERGY:     -367.982715962 Eh
FINAL SINGLE POINT ENERGY      -367.982715962323

CARTESIAN COORDINATES (ANGSTROEM)
---------------------------------
  Si    -0.879611    0.000000   -0.128047
  C      0.786410    0.777592    0.036193
  C      0.786410   -0.777592    0.036192
  H      1.261368   -1.237096   -0.821828
  H      1.056301   -1.266230    0.965084
  H      1.056306    1.266230    0.965083
  H      1.261365    1.237095   -0.821829
  H     -1.757706   -0.000002    1.071833

 Multiplicity           Mult            ....    2
 Number of Electrons    NEL             ....   31
 Basis Dimension        Dim             ....  474

ORBITAL ENERGIES
----------------
                 SPIN UP ORBITALS
  NO   OCC          E(Eh)            E(eV)
   0   1.0000     -68.775983     -1871.4896
   1   1.0000     -11.216587      -305.2188
   2   1.0000     -11.216028      -305.2036
   3   1.0000      -6.126883      -166.7210
   4   1.0000      -4.238341      -115.3311
   5   1.0000      -4.229933      -115.1023
   6   1.0000      -4.229301      -115.0851
   7   1.0000      -1.037833       -28.2409
   8   1.0000      -0.812125       -22.0991
   9   1.0000      -0.682956       -18.5842
  10   1.0000      -0.622892       -16.9498
  11   1.0000      -0.564694       -15.3661
  12   1.0000      -0.510135       -13.8815
  13   1.0000      -0.437353       -11.9010
  14   1.0000      -0.356174        -9.6920
  15   1.0000      -0.342820        -9.3286
  16   0.0000       0.025132         0.6839
  17   0.0000       0.033544         0.9128
  18   0.0000       0.035754         0.9729
  19   0.0000       0.037355         1.0165
  20   0.0000       0.053405         1.4532

                 SPIN DOWN ORBITALS
  NO   OCC          E(Eh)            E(eV)
   0   1.0000     -68.769968     -1871.3260
   1   1.0000     -11.216056      -305.2044
   2   1.0000     -11.215523      -305.1899
   3   1.0000      -6.117164      -166.4565
   4   1.0000      -4.225771      -114.9891
   5   1.0000      -4.224939      -114.9664
   6   1.0000      -4.217293      -114.7584
   7   1.0000      -1.032495       -28.0956
   8   1.0000      -0.809352       -22.0236
   9   1.0000      -0.651464       -17.7272
  10   1.0000      -0.616830       -16.7848
  11   1.0000      -0.544549       -14.8179
  12   1.0000      -0.507657       -13.8141
  13   1.0000      -0.416019       -11.3204
  14   1.0000      -0.349871        -9.5205
  15   0.0000       0.018489         0.5031
  16   0.0000       0.030840         0.8392
  17   0.0000       0.034306         0.9335
  18   0.0000       0.037415         1.0181
  19   0.0000       0.043638         1.1874

MULLIKEN ATOMIC CHARGES AND SPIN POPULATIONS
--------------------------------------------
   0 Si:    0.833877    0.908037
   1 C :   -0.946372    0.000976
   2 C :   -0.946371    0.000976
   3 H :    0.318217    0.003301
   4 H :    0.315339    0.001819
   5 H :    0.315339    0.001819
   6 H :    0.318218    0.003301
   7 H :   -0.208247    0.079771
Sum of atomic charges         :   -0.0000000

LOEWDIN ATOMIC CHARGES AND SPIN POPULATIONS
-------------------------------------------
   0 Si:    0.935226    0.578815
   1 C :    0.423642    0.118160
   2 C :    0.423642    0.118160
   3 H :   -0.368713    0.010836
   4 H :   -0.359318    0.008977
   5 H :   -0.359318    0.008977
   6 H :   -0.368714    0.010836
   7 H :   -0.326447    0.145239

  Mayer bond orders larger than 0.100000
B(  0-Si,  1-C ) :   0.8353 B(  0-Si,  2-C ) :   0.8353 B(  0-Si,  7-H ) :   0.9344
B(  1-C ,  2-C ) :   1.1037 B(  1-C ,  5-H ) :   0.8828 B(  1-C ,  6-H ) :   0.8941
B(  2-C ,  3-H ) :   0.8941 B(  2-C ,  4-H ) :   0.8828

MP2 TOTAL ENERGY:     -368.016222873 Eh
FINAL SINGLE POINT ENERGY      -368.016222873023

DIPOLE MOMENT
-------------
                                X             Y             Z
Electronic contribution:     -2.99561       0.00000      -1.41208
Nuclear contribution   :      2.98603      -0.00000       1.39175
                        -----------------------------------------
Total Dipole Moment    :     -0.00958      -0.00000      -0.02033
                        -----------------------------------------
Magnitude (a.u.)       :      0.02248
Magnitude (Debye)      :      0.05714

Rotational constants in cm-1:     0.658116     0.338056     0.255665
Rotational constants in MHz : 19729.823622 10134.651485  7664.637727

                             ****ORCA TERMINATED NORMALLY****
TOTAL RUN TIME: 0 days 0 hours 21 minutes 9 seconds 106 msec
