                         Program Version 5.0.4 -  RELEASE  -
|  1> ! ri-mp2 aug-cc-pvdz aug-cc-pvdz/c tightscf
|  2> %pal nprocs 16 end
|  3> %maxcore 3800
|  4> %base "DZ_P-Si_59_AB"
|  5> %scf
|  6> STABPerform true
|  7> STABRestartUHFifUnstable true
|  8> end
|  9>
| 10> *xyz 0 1
| 11> C         3.507993    0.322482   -0.173149
| 12> C         2.066054    0.388562    0.306559
| 13> H         3.879009   -0.704019   -0.154695
| 14> H         4.165452    0.925983    0.453988
| 15> H         3.596850    0.686727   -1.198477
| 16> C         1.115149   -0.442194   -0.554364
| 17> H         1.736247    1.430612    0.312193
| 18> H         2.006987    0.046470    1.341817
| 19> Si        -0.658975   -0.453195   -0.002820
| 20> H         1.454708   -1.484852   -0.569648
| 21> H         1.149288   -0.098900   -1.592800
| 22> O        -0.613978   -1.019455    1.541811
| 23> P        -1.763646    1.502969   -0.030967
| 24> H        -1.436069    1.801666   -1.373503
| 25> H        -0.687751    2.244151    0.511374
| 26> H        -1.435172   -1.075317    2.034569
| 27> O        -1.585714   -1.393661   -0.984237
| 28> H        -1.286846   -2.280500   -1.195716
| 29> *
| 30>
| 31> $new_job
| 32> ! ri-mp2 aug-cc-pvtz aug-cc-pvtz/c tightscf
| 33> %pal nprocs 16 end
| 34> %maxcore 3800
| 35> %base "TZ_P-Si_59_AB"
| 36>
| 37> *xyz 0 1
| 38> C         3.507993    0.322482   -0.173149
| 39> C         2.066054    0.388562    0.306559
| 40> H         3.879009   -0.704019   -0.154695
| 41> H         4.165452    0.925983    0.453988
| 42> H         3.596850    0.686727   -1.198477
| 43> C         1.115149   -0.442194   -0.554364
| 44> H         1.736247    1.430612    0.312193
| 45> H         2.006987    0.046470    1.341817
| 46> Si        -0.658975   -0.453195   -0.002820
| 47> H         1.454708   -1.484852   -0.569648
| 48> H         1.149288   -0.098900   -1.592800
| 49> O        -0.613978   -1.019455    1.541811
| 50> P        -1.763646    1.502969   -0.030967
| 51> H        -1.436069    1.801666   -1.373503
| 52> H        -0.687751    2.244151    0.511374
| 53> H        -1.435172   -1.075317    2.034569
| 54> O        -1.585714   -1.393661   -0.984237
| 55> H        -1.286846   -2.280500   -1.195716
| 56> *
| 57>
| 58> $new_job
| 59> ! ri-mp2 aug-cc-pvqz aug-cc-pvqz/c tightscf
| 60> %pal nprocs 16 end
| 61> %maxcore 3800
| 62> %base "QZ_P-Si_59_AB"
| 63>
| 64> *xyz 0 1
| 65> C         3.507993    0.322482   -0.173149
| 66> C         2.066054    0.388562    0.306559
| 67> H         3.879009   -0.704019   -0.154695
| 68> H         4.165452    0.925983    0.453988
| 69> H         3.596850    0.686727   -1.198477
| 70> C         1.115149   -0.442194   -0.554364
| 71> H         1.736247    1.430612    0.312193
| 72> H         2.006987    0.046470    1.341817
| 73> Si        -0.658975   -0.453195   -0.002820
| 74> H         1.454708   -1.484852   -0.569648
| 75> H         1.149288   -0.098900   -1.592800
| 76> O        -0.613978   -1.019455    1.541811
| 77> P        -1.763646    1.502969   -0.030967
| 78> H        -1.436069    1.801666   -1.373503
| 79> H        -0.687751    2.244151    0.511374
| 80> H        -1.435172   -1.075317    2.034569
| 81> O        -1.585714   -1.393661   -0.984237
| 82> H        -1.286846   -2.280500   -1.195716
| 83> *
| 84>
| 85>
| 86>
| 87>
| 88>                          ****END OF INPUT****
 Total Charge           Charge          ....    0
 Multiplicity           Mult            ....    1
 Number of Electrons    NEL             ....   74
MP2 TOTAL ENERGY:     -900.645196750 Eh
FINAL SINGLE POINT ENERGY      -900.645196749591
MP2 TOTAL ENERGY:     -900.983333285 Eh
FINAL SINGLE POINT ENERGY      -900.983333285059

CARTESIAN COORDINATES (ANGSTROEM)
---------------------------------
  C      3.507993    0.322482   -0.173149
  C      2.066054    0.388562    0.306559
  H      3.879009   -0.704019   -0.154695
  H      4.165452    0.925983    0.453988
  H      3.596850    0.686727   -1.198477
  C      1.115149   -0.442194   -0.554364
  H      1.736247    1.430612    0.312193
  H      2.006987    0.046470    1.341817
  Si    -0.658975   -0.453195   -0.002820
  H      1.454708   -1.484852   -0.569648
  H      1.149288   -0.098900   -1.592800
  O     -0.613978   -1.019455    1.541811
  P     -1.763646    1.502969   -0.030967
  H     -1.436069    1.801666   -1.373503
  H     -0.687751    2.244151    0.511374
  H     -1.435172   -1.075317    2.034569
  O     -1.585714   -1.393661   -0.984237
  H     -1.286846   -2.280500   -1.195716

 Multiplicity           Mult            ....    1
 Number of Electrons    NEL             ....   74
 Basis Dimension        Dim             .... 1074

ORBITAL ENERGIES
----------------

  NO   OCC          E(Eh)            E(eV)
   0   2.0000     -79.922765     -2174.8090
   1   2.0000     -68.802419     -1872.2090
   2   2.0000     -20.556271      -559.3646
   3   2.0000     -20.555414      -559.3412
   4   2.0000     -11.222208      -305.3718
   5   2.0000     -11.210560      -305.0548
   6   2.0000     -11.206661      -304.9488
   7   2.0000      -7.468187      -203.2197
   8   2.0000      -6.144000      -167.1867
   9   2.0000      -5.362149      -145.9115
  10   2.0000      -5.361744      -145.9005
  11   2.0000      -5.361208      -145.8859
  12   2.0000      -4.251543      -115.6904
  13   2.0000      -4.251352      -115.6852
  14   2.0000      -4.250496      -115.6619
  15   2.0000      -1.354167       -36.8487
  16   2.0000      -1.332367       -36.2555
  17   2.0000      -1.059485       -28.8300
  18   2.0000      -0.932065       -25.3628
  19   2.0000      -0.847653       -23.0658
  20   2.0000      -0.807999       -21.9868
  21   2.0000      -0.745439       -20.2844
  22   2.0000      -0.711865       -19.3708
  23   2.0000      -0.631742       -17.1906
  24   2.0000      -0.598694       -16.2913
  25   2.0000      -0.587169       -15.9777
  26   2.0000      -0.570056       -15.5120
  27   2.0000      -0.554613       -15.0918
  28   2.0000      -0.540048       -14.6955
  29   2.0000      -0.534543       -14.5457
  30   2.0000      -0.519804       -14.1446
  31   2.0000      -0.501203       -13.6384
  32   2.0000      -0.479563       -13.0496
  33   2.0000      -0.473331       -12.8800
  34   2.0000      -0.459711       -12.5094
  35   2.0000      -0.429146       -11.6776
  36   2.0000      -0.357486        -9.7277
  37   0.0000       0.021279         0.5790
  38   0.0000       0.030221         0.8224
  39   0.0000       0.032695         0.8897
  40   0.0000       0.035149         0.9565
  41   0.0000       0.045876         1.2484

MULLIKEN ATOMIC CHARGES
-----------------------
   0 C :   -0.839544
   1 C :   -0.337957
   2 H :    0.207737
   3 H :    0.263543
   4 H :    0.221207
   5 C :   -0.530775
   6 H :    0.260641
   7 H :    0.220208
   8 Si:    1.695841
   9 H :    0.222956
  10 H :    0.235541
  11 O :   -1.033383
  12 P :   -0.045691
  13 H :   -0.061509
  14 H :   -0.070017
  15 H :    0.367184
  16 O :   -1.141266
  17 H :    0.365285
Sum of atomic charges:    0.0000000

LOEWDIN ATOMIC CHARGES
----------------------
   0 C :    0.924617
   1 C :    0.435672
   2 H :   -0.285136
   3 H :   -0.281468
   4 H :   -0.284951
   5 C :    0.534517
   6 H :   -0.299820
   7 H :   -0.286076
   8 Si:   -0.692045
   9 H :   -0.327259
  10 H :   -0.332255
  11 O :    1.122323
  12 P :    1.516713
  13 H :   -0.542258
  14 H :   -0.552946
  15 H :   -0.881608
  16 O :    1.103165
  17 H :   -0.871184

  Mayer bond orders larger than 0.100000
B(  0-C ,  1-C ) :   0.9280 B(  0-C ,  2-H ) :   0.9846 B(  0-C ,  3-H ) :   1.0072
B(  0-C ,  4-H ) :   0.9560 B(  1-C ,  5-C ) :   0.8192 B(  1-C ,  6-H ) :   0.8443
B(  1-C ,  7-H ) :   0.8897 B(  5-C ,  8-Si) :   0.9167 B(  5-C ,  9-H ) :   0.9503
B(  5-C , 10-H ) :   0.9391 B(  5-C , 16-O ) :  -0.1721 B(  8-Si, 11-O ) :   0.6390
B(  8-Si, 12-P ) :   0.9198 B(  8-Si, 16-O ) :   0.4404 B( 11-O , 15-H ) :   0.9273
B( 12-P , 13-H ) :   0.9182 B( 12-P , 14-H ) :   0.9352 B( 16-O , 17-H ) :   0.9092

MP2 TOTAL ENERGY:     -901.089863753 Eh
FINAL SINGLE POINT ENERGY      -901.089863753148

DIPOLE MOMENT
-------------
                                X             Y             Z
Electronic contribution:    -14.48876      -0.48395       1.32357
Nuclear contribution   :     14.91335       0.05040      -1.40049
                        -----------------------------------------
Total Dipole Moment    :      0.42460      -0.43356      -0.07692
                        -----------------------------------------
Magnitude (a.u.)       :      0.61170
Magnitude (Debye)      :      1.55481

Rotational constants in cm-1:     0.075749     0.033518     0.029087
Rotational constants in MHz :  2270.890204  1004.833451   871.998115

                             ****ORCA TERMINATED NORMALLY****
TOTAL RUN TIME: 0 days 2 hours 15 minutes 11 seconds 965 msec
