                         Program Version 5.0.4 -  RELEASE  -
|  1> ! ri-mp2 aug-cc-pvdz aug-cc-pvdz/c tightscf
|  2> %pal nprocs 16 end
|  3> %maxcore 3800
|  4> %base "DZ_P-P_7_AB"
|  5> %scf
|  6> STABPerform true
|  7> STABRestartUHFifUnstable true
|  8> end
|  9>
| 10> *xyz 0 1
| 11> C         2.992392    0.344485   -0.604257
| 12> N         1.912849    0.306193    0.361704
| 13> H         2.653407    0.634775   -1.607774
| 14> H         3.463171   -0.634591   -0.674063
| 15> H         3.747850    1.066482   -0.284592
| 16> C         1.283270    1.590315    0.570030
| 17> H         2.037024    2.333255    0.842298
| 18> H         0.561662    1.527124    1.382986
| 19> H         0.761073    1.956312   -0.325164
| 20> P         1.020770   -1.138145    0.449960
| 21> P        -0.737786   -0.879239   -0.891469
| 22> N        -1.953684    0.062023   -0.173352
| 23> C        -2.203197    1.384172   -0.701721
| 24> H        -1.676922    2.169769   -0.143316
| 25> H        -3.272668    1.608577   -0.660763
| 26> H        -1.884292    1.435519   -1.741278
| 27> C        -2.394797   -0.123410    1.188235
| 28> H        -2.327479   -1.173440    1.468365
| 29> H        -3.438476    0.187152    1.284238
| 30> H        -1.807322    0.459217    1.910005
| 31> H         0.380363   -0.894983    1.687503
| 32> H        -1.222317   -2.165280   -0.547993
| 33> *
| 34>
| 35> $new_job
| 36> ! ri-mp2 aug-cc-pvtz aug-cc-pvtz/c tightscf
| 37> %pal nprocs 16 end
| 38> %maxcore 3800
| 39> %base "TZ_P-P_7_AB"
| 40>
| 41> *xyz 0 1
| 42> C         2.992392    0.344485   -0.604257
| 43> N         1.912849    0.306193    0.361704
| 44> H         2.653407    0.634775   -1.607774
| 45> H         3.463171   -0.634591   -0.674063
| 46> H         3.747850    1.066482   -0.284592
| 47> C         1.283270    1.590315    0.570030
| 48> H         2.037024    2.333255    0.842298
| 49> H         0.561662    1.527124    1.382986
| 50> H         0.761073    1.956312   -0.325164
| 51> P         1.020770   -1.138145    0.449960
| 52> P        -0.737786   -0.879239   -0.891469
| 53> N        -1.953684    0.062023   -0.173352
| 54> C        -2.203197    1.384172   -0.701721
| 55> H        -1.676922    2.169769   -0.143316
| 56> H        -3.272668    1.608577   -0.660763
| 57> H        -1.884292    1.435519   -1.741278
| 58> C        -2.394797   -0.123410    1.188235
| 59> H        -2.327479   -1.173440    1.468365
| 60> H        -3.438476    0.187152    1.284238
| 61> H        -1.807322    0.459217    1.910005
| 62> H         0.380363   -0.894983    1.687503
| 63> H        -1.222317   -2.165280   -0.547993
| 64> *
| 65>
| 66> $new_job
| 67> ! ri-mp2 aug-cc-pvqz aug-cc-pvqz/c tightscf
| 68> %pal nprocs 16 end
| 69> %maxcore 3800
| 70> %base "QZ_P-P_7_AB"
| 71>
| 72> *xyz 0 1
| 73> C         2.992392    0.344485   -0.604257
| 74> N         1.912849    0.306193    0.361704
| 75> H         2.653407    0.634775   -1.607774
| 76> H         3.463171   -0.634591   -0.674063
| 77> H         3.747850    1.066482   -0.284592
| 78> C         1.283270    1.590315    0.570030
| 79> H         2.037024    2.333255    0.842298
| 80> H         0.561662    1.527124    1.382986
| 81> H         0.761073    1.956312   -0.325164
| 82> P         1.020770   -1.138145    0.449960
| 83> P        -0.737786   -0.879239   -0.891469
| 84> N        -1.953684    0.062023   -0.173352
| 85> C        -2.203197    1.384172   -0.701721
| 86> H        -1.676922    2.169769   -0.143316
| 87> H        -3.272668    1.608577   -0.660763
| 88> H        -1.884292    1.435519   -1.741278
| 89> C        -2.394797   -0.123410    1.188235
| 90> H        -2.327479   -1.173440    1.468365
| 91> H        -3.438476    0.187152    1.284238
| 92> H        -1.807322    0.459217    1.910005
| 93> H         0.380363   -0.894983    1.687503
| 94> H        -1.222317   -2.165280   -0.547993
| 95> *
| 96>
| 97>
| 98>
| 99>
|100>                          ****END OF INPUT****
 Total Charge           Charge          ....    0
 Multiplicity           Mult            ....    1
 Number of Electrons    NEL             ....   82
MP2 TOTAL ENERGY:     -951.220732133 Eh
FINAL SINGLE POINT ENERGY      -951.220732132514
MP2 TOTAL ENERGY:     -951.570085524 Eh
FINAL SINGLE POINT ENERGY      -951.570085523816

CARTESIAN COORDINATES (ANGSTROEM)
---------------------------------
  C      2.992392    0.344485   -0.604257
  N      1.912849    0.306193    0.361704
  H      2.653407    0.634775   -1.607774
  H      3.463171   -0.634591   -0.674063
  H      3.747850    1.066482   -0.284592
  C      1.283270    1.590315    0.570030
  H      2.037024    2.333255    0.842298
  H      0.561662    1.527124    1.382986
  H      0.761073    1.956312   -0.325164
  P      1.020770   -1.138145    0.449960
  P     -0.737786   -0.879239   -0.891469
  N     -1.953684    0.062023   -0.173352
  C     -2.203197    1.384172   -0.701721
  H     -1.676922    2.169769   -0.143316
  H     -3.272668    1.608577   -0.660763
  H     -1.884292    1.435519   -1.741278
  C     -2.394797   -0.123410    1.188235
  H     -2.327479   -1.173440    1.468365
  H     -3.438476    0.187152    1.284238
  H     -1.807322    0.459217    1.910005
  H      0.380363   -0.894983    1.687503
  H     -1.222317   -2.165280   -0.547993

 Multiplicity           Mult            ....    1
 Number of Electrons    NEL             ....   82
 Basis Dimension        Dim             .... 1292

ORBITAL ENERGIES
----------------

  NO   OCC          E(Eh)            E(eV)
   0   2.0000     -79.948056     -2175.4972
   1   2.0000     -79.946963     -2175.4675
   2   2.0000     -15.553631      -423.2358
   3   2.0000     -15.550949      -423.1628
   4   2.0000     -11.253388      -306.2203
   5   2.0000     -11.251834      -306.1780
   6   2.0000     -11.251724      -306.1750
   7   2.0000     -11.247638      -306.0638
   8   2.0000      -7.487217      -203.7375
   9   2.0000      -7.486521      -203.7186
  10   2.0000      -5.381223      -146.4305
  11   2.0000      -5.380788      -146.4187
  12   2.0000      -5.380484      -146.4104
  13   2.0000      -5.380390      -146.4079
  14   2.0000      -5.380063      -146.3989
  15   2.0000      -5.379613      -146.3867
  16   2.0000      -1.221801       -33.2469
  17   2.0000      -1.216279       -33.0966
  18   2.0000      -0.964864       -26.2553
  19   2.0000      -0.961130       -26.1537
  20   2.0000      -0.920295       -25.0425
  21   2.0000      -0.886012       -24.1096
  22   2.0000      -0.800967       -21.7954
  23   2.0000      -0.730970       -19.8907
  24   2.0000      -0.644175       -17.5289
  25   2.0000      -0.638840       -17.3837
  26   2.0000      -0.633360       -17.2346
  27   2.0000      -0.621122       -16.9016
  28   2.0000      -0.617056       -16.7910
  29   2.0000      -0.603480       -16.4215
  30   2.0000      -0.554461       -15.0876
  31   2.0000      -0.544609       -14.8196
  32   2.0000      -0.525022       -14.2866
  33   2.0000      -0.520801       -14.1717
  34   2.0000      -0.516662       -14.0591
  35   2.0000      -0.506843       -13.7919
  36   2.0000      -0.492664       -13.4061
  37   2.0000      -0.390195       -10.6178
  38   2.0000      -0.372665       -10.1407
  39   2.0000      -0.363973        -9.9042
  40   2.0000      -0.302568        -8.2333
  41   0.0000       0.023477         0.6388
  42   0.0000       0.029460         0.8017
  43   0.0000       0.033438         0.9099
  44   0.0000       0.036038         0.9806
  45   0.0000       0.043516         1.1841

MULLIKEN ATOMIC CHARGES
-----------------------
   0 C :   -0.879664
   1 N :   -0.470092
   2 H :    0.299117
   3 H :    0.340465
   4 H :    0.312593
   5 C :   -0.815685
   6 H :    0.361067
   7 H :    0.277403
   8 H :    0.326573
   9 P :    0.405948
  10 P :    0.450522
  11 N :   -0.344741
  12 C :   -0.866522
  13 H :    0.304175
  14 H :    0.371587
  15 H :    0.279611
  16 C :   -0.910714
  17 H :    0.296321
  18 H :    0.312967
  19 H :    0.321930
  20 H :   -0.155312
  21 H :   -0.217550
Sum of atomic charges:   -0.0000000

LOEWDIN ATOMIC CHARGES
----------------------
   0 C :    0.626730
   1 N :    0.142552
   2 H :   -0.284473
   3 H :   -0.338687
   4 H :   -0.299682
   5 C :    0.638019
   6 H :   -0.288358
   7 H :   -0.327902
   8 H :   -0.300543
   9 P :    0.903515
  10 P :    0.915457
  11 N :    0.149450
  12 C :    0.629824
  13 H :   -0.302028
  14 H :   -0.293916
  15 H :   -0.337412
  16 C :    0.638760
  17 H :   -0.325149
  18 H :   -0.293966
  19 H :   -0.295061
  20 H :   -0.470519
  21 H :   -0.486610

  Mayer bond orders larger than 0.100000
B(  0-C ,  1-N ) :   0.9109 B(  0-C ,  2-H ) :   0.9249 B(  0-C ,  3-H ) :   0.9208
B(  0-C ,  4-H ) :   0.9218 B(  1-N ,  5-C ) :   0.9106 B(  1-N ,  9-P ) :   0.6750
B(  5-C ,  6-H ) :   0.8979 B(  5-C ,  7-H ) :   0.8925 B(  5-C ,  8-H ) :   0.8651
B(  9-P , 10-P ) :   1.0076 B(  9-P , 20-H ) :   0.9547 B( 10-P , 11-N ) :   0.6262
B( 10-P , 21-H ) :   1.0062 B( 11-N , 12-C ) :   0.8997 B( 11-N , 16-C ) :   0.8202
B( 11-N , 21-H ) :  -0.1001 B( 12-C , 13-H ) :   0.9092 B( 12-C , 14-H ) :   0.8727
B( 12-C , 15-H ) :   0.9670 B( 16-C , 17-H ) :   0.9531 B( 16-C , 18-H ) :   0.9322
B( 16-C , 19-H ) :   0.8999

MP2 TOTAL ENERGY:     -951.677238075 Eh
FINAL SINGLE POINT ENERGY      -951.677238074703

DIPOLE MOMENT
-------------
                                X             Y             Z
Electronic contribution:      2.01566      -9.78636      -2.69696
Nuclear contribution   :     -2.32309      10.56257       3.04934
                        -----------------------------------------
Total Dipole Moment    :     -0.30744       0.77620       0.35238
                        -----------------------------------------
Magnitude (a.u.)       :      0.90619
Magnitude (Debye)      :      2.30335

Rotational constants in cm-1:     0.072038     0.029545     0.026479
Rotational constants in MHz :  2159.642685   885.742343   793.815355

                             ****ORCA TERMINATED NORMALLY****
TOTAL RUN TIME: 0 days 4 hours 50 minutes 36 seconds 720 msec
