                         Program Version 5.0.4 -  RELEASE  -
|  1> ! ri-mp2 aug-cc-pvdz aug-cc-pvdz/c tightscf
|  2> %pal nprocs 16 end
|  3> %maxcore 3800
|  4> %base "DZ_B-S_47_AB"
|  5> %scf
|  6> STABPerform true
|  7> STABRestartUHFifUnstable true
|  8> end
|  9>
| 10> *xyz 0 1
| 11> S         0.990609   -1.090980   -0.738268
| 12> B         2.280714    0.047852   -0.128548
| 13> S         3.786251   -0.747528    0.457991
| 14> S         2.230649    1.830823   -0.097832
| 15> S        -0.593645    0.054110   -1.327150
| 16> C        -1.717712   -0.021268    0.110003
| 17> Cl        -2.242959   -1.674024    0.457791
| 18> Cl        -3.104766    0.953813   -0.409535
| 19> Cl        -1.011403    0.673503    1.574211
| 20> H         0.987726    1.957655   -0.588809
| 21> H         3.398345   -2.018041    0.273727
| 22> *
| 23>
| 24> $new_job
| 25> ! ri-mp2 aug-cc-pvtz aug-cc-pvtz/c tightscf
| 26> %pal nprocs 16 end
| 27> %maxcore 3800
| 28> %base "TZ_B-S_47_AB"
| 29>
| 30> *xyz 0 1
| 31> S         0.990609   -1.090980   -0.738268
| 32> B         2.280714    0.047852   -0.128548
| 33> S         3.786251   -0.747528    0.457991
| 34> S         2.230649    1.830823   -0.097832
| 35> S        -0.593645    0.054110   -1.327150
| 36> C        -1.717712   -0.021268    0.110003
| 37> Cl        -2.242959   -1.674024    0.457791
| 38> Cl        -3.104766    0.953813   -0.409535
| 39> Cl        -1.011403    0.673503    1.574211
| 40> H         0.987726    1.957655   -0.588809
| 41> H         3.398345   -2.018041    0.273727
| 42> *
| 43>
| 44> $new_job
| 45> ! ri-mp2 aug-cc-pvqz aug-cc-pvqz/c tightscf
| 46> %pal nprocs 16 end
| 47> %maxcore 3800
| 48> %base "QZ_B-S_47_AB"
| 49>
| 50> *xyz 0 1
| 51> S         0.990609   -1.090980   -0.738268
| 52> B         2.280714    0.047852   -0.128548
| 53> S         3.786251   -0.747528    0.457991
| 54> S         2.230649    1.830823   -0.097832
| 55> S        -0.593645    0.054110   -1.327150
| 56> C        -1.717712   -0.021268    0.110003
| 57> Cl        -2.242959   -1.674024    0.457791
| 58> Cl        -3.104766    0.953813   -0.409535
| 59> Cl        -1.011403    0.673503    1.574211
| 60> H         0.987726    1.957655   -0.588809
| 61> H         3.398345   -2.018041    0.273727
| 62> *
| 63>
| 64>
| 65>
| 66>
| 67>                          ****END OF INPUT****
 Total Charge           Charge          ....    0
 Multiplicity           Mult            ....    1
 Number of Electrons    NEL             ....  128
MP2 TOTAL ENERGY:    -3033.680403486 Eh
FINAL SINGLE POINT ENERGY     -3033.680403486412
MP2 TOTAL ENERGY:    -3034.118881870 Eh
FINAL SINGLE POINT ENERGY     -3034.118881870243

CARTESIAN COORDINATES (ANGSTROEM)
---------------------------------
  S      0.990609   -1.090980   -0.738268
  B      2.280714    0.047852   -0.128548
  S      3.786251   -0.747528    0.457991
  S      2.230649    1.830823   -0.097832
  S     -0.593645    0.054110   -1.327150
  C     -1.717712   -0.021268    0.110003
  Cl    -2.242959   -1.674024    0.457791
  Cl    -3.104766    0.953813   -0.409535
  Cl    -1.011403    0.673503    1.574211
  H      0.987726    1.957655   -0.588809
  H      3.398345   -2.018041    0.273727

 Multiplicity           Mult            ....    1
 Number of Electrons    NEL             ....  128
 Basis Dimension        Dim             ....  840

ORBITAL ENERGIES
----------------

  NO   OCC          E(Eh)            E(eV)
   0   2.0000    -104.877401     -2853.8592
   1   2.0000    -104.872660     -2853.7302
   2   2.0000    -104.871311     -2853.6934
   3   2.0000     -92.024762     -2504.1211
   4   2.0000     -92.000458     -2503.4597
   5   2.0000     -91.972284     -2502.6931
   6   2.0000     -91.968254     -2502.5834
   7   2.0000     -11.469180      -312.0923
   8   2.0000     -10.603105      -288.5252
   9   2.0000     -10.598541      -288.4010
  10   2.0000     -10.597090      -288.3615
  11   2.0000      -9.025089      -245.5852
  12   2.0000      -9.003170      -244.9887
  13   2.0000      -8.977190      -244.2818
  14   2.0000      -8.973599      -244.1840
  15   2.0000      -8.070067      -219.5977
  16   2.0000      -8.068043      -219.5426
  17   2.0000      -8.068019      -219.5420
  18   2.0000      -8.065500      -219.4734
  19   2.0000      -8.064061      -219.4342
  20   2.0000      -8.063471      -219.4182
  21   2.0000      -8.063466      -219.4181
  22   2.0000      -8.062022      -219.3788
  23   2.0000      -8.062009      -219.3784
  24   2.0000      -7.693108      -209.3401
  25   2.0000      -6.706004      -182.4797
  26   2.0000      -6.704864      -182.4486
  27   2.0000      -6.703815      -182.4201
  28   2.0000      -6.684553      -181.8959
  29   2.0000      -6.683038      -181.8547
  30   2.0000      -6.682758      -181.8471
  31   2.0000      -6.658683      -181.1920
  32   2.0000      -6.657807      -181.1681
  33   2.0000      -6.657219      -181.1522
  34   2.0000      -6.655087      -181.0941
  35   2.0000      -6.654273      -181.0720
  36   2.0000      -6.653717      -181.0568
  37   2.0000      -1.264177       -34.4000
  38   2.0000      -1.127987       -30.6941
  39   2.0000      -1.123139       -30.5622
  40   2.0000      -1.093788       -29.7635
  41   2.0000      -1.026607       -27.9354
  42   2.0000      -0.981896       -26.7188
  43   2.0000      -0.932445       -25.3731
  44   2.0000      -0.804883       -21.9020
  45   2.0000      -0.675107       -18.3706
  46   2.0000      -0.652616       -17.7586
  47   2.0000      -0.647951       -17.6316
  48   2.0000      -0.641323       -17.4513
  49   2.0000      -0.594240       -16.1701
  50   2.0000      -0.547266       -14.8919
  51   2.0000      -0.539751       -14.6874
  52   2.0000      -0.517957       -14.0943
  53   2.0000      -0.510008       -13.8780
  54   2.0000      -0.491534       -13.3753
  55   2.0000      -0.477802       -13.0017
  56   2.0000      -0.471038       -12.8176
  57   2.0000      -0.464450       -12.6383
  58   2.0000      -0.459765       -12.5108
  59   2.0000      -0.456554       -12.4235
  60   2.0000      -0.455483       -12.3943
  61   2.0000      -0.399981       -10.8840
  62   2.0000      -0.388390       -10.5686
  63   2.0000      -0.382254       -10.4017
  64   0.0000       0.027236         0.7411
  65   0.0000       0.034395         0.9359
  66   0.0000       0.038471         1.0468
  67   0.0000       0.039999         1.0884
  68   0.0000       0.054916         1.4943

MULLIKEN ATOMIC CHARGES
-----------------------
   0 S :    0.065648
   1 B :    0.026025
   2 S :   -0.061286
   3 S :    0.004119
   4 S :   -0.015495
   5 C :    0.434127
   6 Cl:   -0.186277
   7 Cl:   -0.205740
   8 Cl:   -0.157179
   9 H :    0.053690
  10 H :    0.042368
Sum of atomic charges:    0.0000000

LOEWDIN ATOMIC CHARGES
----------------------
   0 S :    0.762164
   1 B :   -2.308833
   2 S :    1.549050
   3 S :    1.576231
   4 S :    0.414462
   5 C :   -3.057470
   6 Cl:    0.927517
   7 Cl:    0.921906
   8 Cl:    0.954803
   9 H :   -0.912856
  10 H :   -0.826974

  Mayer bond orders larger than 0.100000
B(  0-S ,  1-B ) :   1.1970 B(  0-S ,  4-S ) :   1.1181 B(  1-B ,  2-S ) :   1.0788
B(  1-B ,  3-S ) :   1.1959 B(  2-S , 10-H ) :   1.0712 B(  3-S ,  9-H ) :   1.0249
B(  4-S ,  5-C ) :   0.8976 B(  5-C ,  6-Cl) :   0.7342 B(  5-C ,  7-Cl) :   0.7251
B(  5-C ,  8-Cl) :   0.7634

MP2 TOTAL ENERGY:    -3034.266100655 Eh
FINAL SINGLE POINT ENERGY     -3034.266100654928

DIPOLE MOMENT
-------------
                                X             Y             Z
Electronic contribution:    -10.75047      -0.14440       2.15879
Nuclear contribution   :     10.60778      -0.03109      -2.29803
                        -----------------------------------------
Total Dipole Moment    :     -0.14268      -0.17549      -0.13924
                        -----------------------------------------
Magnitude (a.u.)       :      0.26560
Magnitude (Debye)      :      0.67510

Rotational constants in cm-1:     0.033566     0.011201     0.010270
Rotational constants in MHz :  1006.295734   335.800704   307.896167

                             ****ORCA TERMINATED NORMALLY****
TOTAL RUN TIME: 0 days 1 hours 29 minutes 31 seconds 549 msec
