                         Program Version 5.0.4 -  RELEASE  -
|  1> ! ri-mp2 aug-cc-pvdz aug-cc-pvdz/c tightscf
|  2> %pal nprocs 16 end
|  3> %maxcore 3800
|  4> %base "DZ_B-Si_58_AB"
|  5>
|  6> *xyz 0 1
|  7> C         2.669092   -1.306480    0.445514
|  8> C         1.391849   -1.476833   -0.061100
|  9> C         3.179120   -0.029319    0.583387
| 10> C         2.411472    1.062028    0.213863
| 11> C         1.129478    0.902878   -0.294752
| 12> C         0.602647   -0.391222   -0.437510
| 13> H         3.261354   -2.166750    0.727717
| 14> H         1.000276   -2.481005   -0.170430
| 15> B        -2.419663   -0.092999    0.435691
| 16> O        -1.956602    0.290003    1.662028
| 17> O        -3.759287   -0.060742    0.225455
| 18> H         2.817066    2.060751    0.319606
| 19> H         4.175979    0.121138    0.976697
| 20> C         0.333571    2.113539   -0.696179
| 21> H         0.887022    3.029780   -0.498659
| 22> H        -0.611152    2.175611   -0.151726
| 23> H         0.088580    2.090784   -1.759140
| 24> H        -4.253909    0.231736    1.001066
| 25> H        -1.000397    0.238675    1.755110
| 26> Si        -1.152635   -0.698159   -1.029891
| 27> H        -1.419902    0.010603   -2.303406
| 28> H        -1.285974   -2.153726   -1.276025
| 29> *
| 30>
| 31> $new_job
| 32> ! ri-mp2 aug-cc-pvtz aug-cc-pvtz/c tightscf
| 33> %pal nprocs 16 end
| 34> %maxcore 3800
| 35> %base "TZ_B-Si_58_AB"
| 36>
| 37> *xyz 0 1
| 38> C         2.669092   -1.306480    0.445514
| 39> C         1.391849   -1.476833   -0.061100
| 40> C         3.179120   -0.029319    0.583387
| 41> C         2.411472    1.062028    0.213863
| 42> C         1.129478    0.902878   -0.294752
| 43> C         0.602647   -0.391222   -0.437510
| 44> H         3.261354   -2.166750    0.727717
| 45> H         1.000276   -2.481005   -0.170430
| 46> B        -2.419663   -0.092999    0.435691
| 47> O        -1.956602    0.290003    1.662028
| 48> O        -3.759287   -0.060742    0.225455
| 49> H         2.817066    2.060751    0.319606
| 50> H         4.175979    0.121138    0.976697
| 51> C         0.333571    2.113539   -0.696179
| 52> H         0.887022    3.029780   -0.498659
| 53> H        -0.611152    2.175611   -0.151726
| 54> H         0.088580    2.090784   -1.759140
| 55> H        -4.253909    0.231736    1.001066
| 56> H        -1.000397    0.238675    1.755110
| 57> Si        -1.152635   -0.698159   -1.029891
| 58> H        -1.419902    0.010603   -2.303406
| 59> H        -1.285974   -2.153726   -1.276025
| 60> *
| 61>
| 62> $new_job
| 63> ! ri-mp2 aug-cc-pvqz aug-cc-pvqz/c tightscf
| 64> %pal nprocs 16 end
| 65> %maxcore 3800
| 66> %base "QZ_B-Si_58_AB"
| 67>
| 68> *xyz 0 1
| 69> C         2.669092   -1.306480    0.445514
| 70> C         1.391849   -1.476833   -0.061100
| 71> C         3.179120   -0.029319    0.583387
| 72> C         2.411472    1.062028    0.213863
| 73> C         1.129478    0.902878   -0.294752
| 74> C         0.602647   -0.391222   -0.437510
| 75> H         3.261354   -2.166750    0.727717
| 76> H         1.000276   -2.481005   -0.170430
| 77> B        -2.419663   -0.092999    0.435691
| 78> O        -1.956602    0.290003    1.662028
| 79> O        -3.759287   -0.060742    0.225455
| 80> H         2.817066    2.060751    0.319606
| 81> H         4.175979    0.121138    0.976697
| 82> C         0.333571    2.113539   -0.696179
| 83> H         0.887022    3.029780   -0.498659
| 84> H        -0.611152    2.175611   -0.151726
| 85> H         0.088580    2.090784   -1.759140
| 86> H        -4.253909    0.231736    1.001066
| 87> H        -1.000397    0.238675    1.755110
| 88> Si        -1.152635   -0.698159   -1.029891
| 89> H        -1.419902    0.010603   -2.303406
| 90> H        -1.285974   -2.153726   -1.276025
| 91> *
| 92>
| 93>
| 94>
| 95>
| 96>                          ****END OF INPUT****
 Total Charge           Charge          ....    0
 Multiplicity           Mult            ....    1
 Number of Electrons    NEL             ....   88
MP2 TOTAL ENERGY:     -736.540491524 Eh
FINAL SINGLE POINT ENERGY      -736.540491524246
MP2 TOTAL ENERGY:     -736.969542466 Eh
FINAL SINGLE POINT ENERGY      -736.969542465738

CARTESIAN COORDINATES (ANGSTROEM)
---------------------------------
  C      2.669092   -1.306480    0.445514
  C      1.391849   -1.476833   -0.061100
  C      3.179120   -0.029319    0.583387
  C      2.411472    1.062028    0.213863
  C      1.129478    0.902878   -0.294752
  C      0.602647   -0.391222   -0.437510
  H      3.261354   -2.166750    0.727717
  H      1.000276   -2.481005   -0.170430
  B     -2.419663   -0.092999    0.435691
  O     -1.956602    0.290003    1.662028
  O     -3.759287   -0.060742    0.225455
  H      2.817066    2.060751    0.319606
  H      4.175979    0.121138    0.976697
  C      0.333571    2.113539   -0.696179
  H      0.887022    3.029780   -0.498659
  H     -0.611152    2.175611   -0.151726
  H      0.088580    2.090784   -1.759140
  H     -4.253909    0.231736    1.001066
  H     -1.000397    0.238675    1.755110
  Si    -1.152635   -0.698159   -1.029891
  H     -1.419902    0.010603   -2.303406
  H     -1.285974   -2.153726   -1.276025

 Multiplicity           Mult            ....    1
 Number of Electrons    NEL             ....   88
 Basis Dimension        Dim             .... 1390

ORBITAL ENERGIES
----------------

  NO   OCC          E(Eh)            E(eV)
   0   2.0000     -68.751142     -1870.8137
   1   2.0000     -20.571350      -559.7749
   2   2.0000     -20.565891      -559.6264
   3   2.0000     -11.249012      -306.1012
   4   2.0000     -11.239205      -305.8343
   5   2.0000     -11.239041      -305.8299
   6   2.0000     -11.232138      -305.6420
   7   2.0000     -11.231937      -305.6365
   8   2.0000     -11.228147      -305.5334
   9   2.0000     -11.220763      -305.3325
  10   2.0000      -7.635638      -207.7763
  11   2.0000      -6.102872      -166.0676
  12   2.0000      -4.209310      -114.5411
  13   2.0000      -4.208999      -114.5327
  14   2.0000      -4.208695      -114.5244
  15   2.0000      -1.387319       -37.7509
  16   2.0000      -1.346411       -36.6377
  17   2.0000      -1.162849       -31.6427
  18   2.0000      -1.055152       -28.7121
  19   2.0000      -1.019686       -27.7471
  20   2.0000      -0.940685       -25.5973
  21   2.0000      -0.833632       -22.6843
  22   2.0000      -0.808041       -21.9879
  23   2.0000      -0.774733       -21.0815
  24   2.0000      -0.741281       -20.1713
  25   2.0000      -0.711943       -19.3730
  26   2.0000      -0.672525       -18.3003
  27   2.0000      -0.646601       -17.5949
  28   2.0000      -0.621720       -16.9179
  29   2.0000      -0.612298       -16.6615
  30   2.0000      -0.587308       -15.9815
  31   2.0000      -0.578686       -15.7468
  32   2.0000      -0.573869       -15.6158
  33   2.0000      -0.564709       -15.3665
  34   2.0000      -0.554379       -15.0854
  35   2.0000      -0.537516       -14.6266
  36   2.0000      -0.503835       -13.7100
  37   2.0000      -0.500105       -13.6085
  38   2.0000      -0.493351       -13.4248
  39   2.0000      -0.470927       -12.8146
  40   2.0000      -0.448286       -12.1985
  41   2.0000      -0.415041       -11.2938
  42   2.0000      -0.341439        -9.2910
  43   2.0000      -0.333414        -9.0726
  44   0.0000       0.020720         0.5638
  45   0.0000       0.026219         0.7135
  46   0.0000       0.027789         0.7562
  47   0.0000       0.032438         0.8827
  48   0.0000       0.039020         1.0618

MULLIKEN ATOMIC CHARGES
-----------------------
   0 C :   -0.377117
   1 C :   -0.638070
   2 C :   -0.379737
   3 C :   -0.551845
   4 C :    0.731334
   5 C :    0.050772
   6 H :    0.269758
   7 H :    0.331164
   8 B :    1.498330
   9 O :   -1.251347
  10 O :   -1.110716
  11 H :    0.205649
  12 H :    0.278132
  13 C :   -0.845027
  14 H :    0.312586
  15 H :    0.214962
  16 H :    0.229719
  17 H :    0.323981
  18 H :    0.401337
  19 Si:    0.912688
  20 H :   -0.222081
  21 H :   -0.384471
Sum of atomic charges:    0.0000000

LOEWDIN ATOMIC CHARGES
----------------------
   0 C :    0.344825
   1 C :    0.258495
   2 C :    0.347024
   3 C :    0.344144
   4 C :   -0.141373
   5 C :   -0.100909
   6 H :   -0.319994
   7 H :   -0.345848
   8 B :   -1.188228
   9 O :    1.330046
  10 O :    1.282460
  11 H :   -0.321551
  12 H :   -0.316147
  13 C :    0.883100
  14 H :   -0.296521
  15 H :   -0.298952
  16 H :   -0.285704
  17 H :   -0.805756
  18 H :   -0.826137
  19 Si:    0.888081
  20 H :   -0.213481
  21 H :   -0.217575

  Mayer bond orders larger than 0.100000
B(  0-C ,  1-C ) :   1.3245 B(  0-C ,  2-C ) :   1.1887 B(  0-C ,  4-C ) :   0.1051
B(  0-C ,  5-C ) :  -0.3121 B(  0-C ,  6-H ) :   1.1072 B(  0-C , 12-H ) :  -0.1108
B(  1-C ,  2-C ) :   0.1447 B(  1-C ,  3-C ) :   0.1755 B(  1-C ,  4-C ) :  -0.1207
B(  1-C ,  5-C ) :   0.8676 B(  1-C ,  6-H ) :  -0.1650 B(  1-C ,  7-H ) :   0.9333
B(  1-C , 19-Si) :  -0.1240 B(  2-C ,  3-C ) :   1.2844 B(  2-C ,  4-C ) :  -0.3312
B(  2-C , 12-H ) :   1.1139 B(  3-C ,  4-C ) :   1.0141 B(  3-C ,  5-C ) :  -0.2507
B(  3-C , 11-H ) :   1.0563 B(  3-C , 12-H ) :  -0.1802 B(  3-C , 13-C ) :  -0.1428
B(  4-C ,  5-C ) :   1.1319 B(  4-C , 13-C ) :   0.4907 B(  4-C , 14-H ) :  -0.1160
B(  4-C , 15-H ) :  -0.1042 B(  4-C , 19-Si) :  -0.1248 B(  5-C ,  7-H ) :  -0.1087
B(  5-C , 19-Si) :   0.8753 B(  5-C , 21-H ) :  -0.1807 B(  8-B ,  9-O ) :   0.3531
B(  8-B , 10-O ) :   0.3804 B(  8-B , 19-Si) :   0.7093 B(  9-O , 10-O ) :  -0.1394
B(  9-O , 18-H ) :   0.8425 B( 10-O , 17-H ) :   0.9584 B( 10-O , 19-Si) :  -0.1476
B( 13-C , 14-H ) :   0.9964 B( 13-C , 15-H ) :   1.0324 B( 13-C , 16-H ) :   1.0245
B( 19-Si, 20-H ) :   0.6527 B( 19-Si, 21-H ) :   0.6549

MP2 TOTAL ENERGY:     -737.107122416 Eh
FINAL SINGLE POINT ENERGY      -737.107122416156

DIPOLE MOMENT
-------------
                                X             Y             Z
Electronic contribution:     -4.98209      -2.96888       2.04878
Nuclear contribution   :      5.56204       3.26296      -1.63022
                        -----------------------------------------
Total Dipole Moment    :      0.57996       0.29408       0.41856
                        -----------------------------------------
Magnitude (a.u.)       :      0.77332
Magnitude (Debye)      :      1.96563

Rotational constants in cm-1:     0.058484     0.019170     0.017753
Rotational constants in MHz :  1753.303270   574.689598   532.223919

                             ****ORCA TERMINATED NORMALLY****
TOTAL RUN TIME: 0 days 1 hours 12 minutes 5 seconds 321 msec
