                         Program Version 5.0.4 -  RELEASE  -
|  1> ! ri-mp2 aug-cc-pvdz aug-cc-pvdz/c tightscf
|  2> %pal nprocs 16 end
|  3> %maxcore 3800
|  4> %base "DZ_Si-S_56_AB"
|  5>
|  6> *xyz 0 1
|  7> C        -3.405494    0.029771    0.000000
|  8> C        -1.968791    0.516571    0.000000
|  9> H        -4.092747    0.877145    0.000000
| 10> H        -3.611821   -0.576903    0.881610
| 11> H        -3.611822   -0.576903   -0.881609
| 12> S        -0.827963   -0.910358    0.000000
| 13> H        -1.776614    1.125919    0.881962
| 14> H        -1.776614    1.125919   -0.881962
| 15> Si         1.087137    0.055030    0.000000
| 16> C         2.324967   -1.339548   -0.000001
| 17> H         2.209203   -1.969788    0.882274
| 18> H         3.342817   -0.944753    0.000000
| 19> C         1.286273    1.117767   -1.524089
| 20> H         1.173567    0.523971   -2.431465
| 21> H         2.275629    1.580136   -1.540410
| 22> H         0.549060    1.921143   -1.554286
| 23> C         1.286273    1.117766    1.524090
| 24> H         2.275629    1.580135    1.540410
| 25> H         1.173567    0.523969    2.431465
| 26> H         0.549061    1.921142    1.554287
| 27> H         2.209203   -1.969787   -0.882275
| 28> *
| 29>
| 30> $new_job
| 31> ! ri-mp2 aug-cc-pvtz aug-cc-pvtz/c tightscf
| 32> %pal nprocs 16 end
| 33> %maxcore 3800
| 34> %base "TZ_Si-S_56_AB"
| 35>
| 36> *xyz 0 1
| 37> C        -3.405494    0.029771    0.000000
| 38> C        -1.968791    0.516571    0.000000
| 39> H        -4.092747    0.877145    0.000000
| 40> H        -3.611821   -0.576903    0.881610
| 41> H        -3.611822   -0.576903   -0.881609
| 42> S        -0.827963   -0.910358    0.000000
| 43> H        -1.776614    1.125919    0.881962
| 44> H        -1.776614    1.125919   -0.881962
| 45> Si         1.087137    0.055030    0.000000
| 46> C         2.324967   -1.339548   -0.000001
| 47> H         2.209203   -1.969788    0.882274
| 48> H         3.342817   -0.944753    0.000000
| 49> C         1.286273    1.117767   -1.524089
| 50> H         1.173567    0.523971   -2.431465
| 51> H         2.275629    1.580136   -1.540410
| 52> H         0.549060    1.921143   -1.554286
| 53> C         1.286273    1.117766    1.524090
| 54> H         2.275629    1.580135    1.540410
| 55> H         1.173567    0.523969    2.431465
| 56> H         0.549061    1.921142    1.554287
| 57> H         2.209203   -1.969787   -0.882275
| 58> *
| 59>
| 60> $new_job
| 61> ! ri-mp2 aug-cc-pvqz aug-cc-pvqz/c tightscf
| 62> %pal nprocs 16 end
| 63> %maxcore 3800
| 64> %base "QZ_Si-S_56_AB"
| 65>
| 66> *xyz 0 1
| 67> C        -3.405494    0.029771    0.000000
| 68> C        -1.968791    0.516571    0.000000
| 69> H        -4.092747    0.877145    0.000000
| 70> H        -3.611821   -0.576903    0.881610
| 71> H        -3.611822   -0.576903   -0.881609
| 72> S        -0.827963   -0.910358    0.000000
| 73> H        -1.776614    1.125919    0.881962
| 74> H        -1.776614    1.125919   -0.881962
| 75> Si         1.087137    0.055030    0.000000
| 76> C         2.324967   -1.339548   -0.000001
| 77> H         2.209203   -1.969788    0.882274
| 78> H         3.342817   -0.944753    0.000000
| 79> C         1.286273    1.117767   -1.524089
| 80> H         1.173567    0.523971   -2.431465
| 81> H         2.275629    1.580136   -1.540410
| 82> H         0.549060    1.921143   -1.554286
| 83> C         1.286273    1.117766    1.524090
| 84> H         2.275629    1.580135    1.540410
| 85> H         1.173567    0.523969    2.431465
| 86> H         0.549061    1.921142    1.554287
| 87> H         2.209203   -1.969787   -0.882275
| 88> *
| 89>
| 90>
| 91>
| 92>
| 93>                          ****END OF INPUT****
 Total Charge           Charge          ....    0
 Multiplicity           Mult            ....    1
 Number of Electrons    NEL             ....   74
MP2 TOTAL ENERGY:     -885.050699372 Eh
FINAL SINGLE POINT ENERGY      -885.050699371668
MP2 TOTAL ENERGY:     -885.341682536 Eh
FINAL SINGLE POINT ENERGY      -885.341682535544

CARTESIAN COORDINATES (ANGSTROEM)
---------------------------------
  C     -3.405494    0.029771    0.000000
  C     -1.968791    0.516571    0.000000
  H     -4.092747    0.877145    0.000000
  H     -3.611821   -0.576903    0.881610
  H     -3.611822   -0.576903   -0.881609
  S     -0.827963   -0.910358    0.000000
  H     -1.776614    1.125919    0.881962
  H     -1.776614    1.125919   -0.881962
  Si     1.087137    0.055030    0.000000
  C      2.324967   -1.339548   -0.000001
  H      2.209203   -1.969788    0.882274
  H      3.342817   -0.944753    0.000000
  C      1.286273    1.117767   -1.524089
  H      1.173567    0.523971   -2.431465
  H      2.275629    1.580136   -1.540410
  H      0.549060    1.921143   -1.554286
  C      1.286273    1.117766    1.524090
  H      2.275629    1.580135    1.540410
  H      1.173567    0.523969    2.431465
  H      0.549061    1.921142    1.554287
  H      2.209203   -1.969787   -0.882275

 Multiplicity           Mult            ....    1
 Number of Electrons    NEL             ....   74
 Basis Dimension        Dim             .... 1212

ORBITAL ENERGIES
----------------

  NO   OCC          E(Eh)            E(eV)
   0   2.0000     -91.917527     -2501.2031
   1   2.0000     -68.766161     -1871.2224
   2   2.0000     -11.255179      -306.2690
   3   2.0000     -11.219043      -305.2857
   4   2.0000     -11.198603      -304.7295
   5   2.0000     -11.198595      -304.7293
   6   2.0000     -11.197472      -304.6987
   7   2.0000      -8.922292      -242.7879
   8   2.0000      -6.603810      -179.6988
   9   2.0000      -6.603081      -179.6790
  10   2.0000      -6.602384      -179.6600
  11   2.0000      -6.113669      -166.3614
  12   2.0000      -4.220663      -114.8501
  13   2.0000      -4.219825      -114.8273
  14   2.0000      -4.219622      -114.8218
  15   2.0000      -1.063032       -28.9266
  16   2.0000      -0.977434       -26.5973
  17   2.0000      -0.928193       -25.2574
  18   2.0000      -0.928084       -25.2545
  19   2.0000      -0.919908       -25.0320
  20   2.0000      -0.807244       -21.9662
  21   2.0000      -0.636668       -17.3246
  22   2.0000      -0.627306       -17.0699
  23   2.0000      -0.587988       -16.0000
  24   2.0000      -0.567965       -15.4551
  25   2.0000      -0.566128       -15.4051
  26   2.0000      -0.561443       -15.2777
  27   2.0000      -0.547893       -14.9089
  28   2.0000      -0.546528       -14.8718
  29   2.0000      -0.534515       -14.5449
  30   2.0000      -0.527693       -14.3593
  31   2.0000      -0.506847       -13.7920
  32   2.0000      -0.464504       -12.6398
  33   2.0000      -0.440837       -11.9958
  34   2.0000      -0.429640       -11.6911
  35   2.0000      -0.398017       -10.8306
  36   2.0000      -0.340689        -9.2706
  37   0.0000       0.020236         0.5507
  38   0.0000       0.028804         0.7838
  39   0.0000       0.033399         0.9088
  40   0.0000       0.033760         0.9186
  41   0.0000       0.044542         1.2120

MULLIKEN ATOMIC CHARGES
-----------------------
   0 C :   -0.823588
   1 C :   -0.423413
   2 H :    0.298878
   3 H :    0.236091
   4 H :    0.236091
   5 S :   -0.521477
   6 H :    0.257929
   7 H :    0.257929
   8 Si:    1.681889
   9 C :   -1.260738
  10 H :    0.274410
  11 H :    0.267010
  12 C :   -1.231532
  13 H :    0.290236
  14 H :    0.317038
  15 H :    0.246547
  16 C :   -1.231532
  17 H :    0.317038
  18 H :    0.290236
  19 H :    0.246547
  20 H :    0.274412
Sum of atomic charges:    0.0000000

LOEWDIN ATOMIC CHARGES
----------------------
   0 C :    0.822509
   1 C :    0.074907
   2 H :   -0.288601
   3 H :   -0.306200
   4 H :   -0.306201
   5 S :    1.293294
   6 H :   -0.367218
   7 H :   -0.367219
   8 Si:   -0.277986
   9 C :    0.928774
  10 H :   -0.348283
  11 H :   -0.340798
  12 C :    0.950460
  13 H :   -0.344435
  14 H :   -0.338435
  15 H :   -0.351937
  16 C :    0.950460
  17 H :   -0.338435
  18 H :   -0.344435
  19 H :   -0.351937
  20 H :   -0.348285

  Mayer bond orders larger than 0.100000
B(  0-C ,  1-C ) :   0.7823 B(  0-C ,  2-H ) :   0.9666 B(  0-C ,  3-H ) :   0.9807
B(  0-C ,  4-H ) :   0.9807 B(  1-C ,  5-S ) :   0.7736 B(  1-C ,  6-H ) :   0.8693
B(  1-C ,  7-H ) :   0.8693 B(  5-S ,  8-Si) :   0.5350 B(  8-Si,  9-C ) :   0.8227
B(  8-Si, 12-C ) :   0.7300 B(  8-Si, 16-C ) :   0.7300 B(  9-C , 10-H ) :   0.9677
B(  9-C , 11-H ) :   0.9774 B(  9-C , 20-H ) :   0.9677 B( 12-C , 13-H ) :   0.9373
B( 12-C , 14-H ) :   0.9142 B( 12-C , 15-H ) :   0.9990 B( 16-C , 17-H ) :   0.9142
B( 16-C , 18-H ) :   0.9373 B( 16-C , 19-H ) :   0.9990

MP2 TOTAL ENERGY:     -885.429533827 Eh
FINAL SINGLE POINT ENERGY      -885.429533827258

DIPOLE MOMENT
-------------
                                X             Y             Z
Electronic contribution:     -0.72211      -4.64303      -0.00000
Nuclear contribution   :      0.87711       5.34550       0.00000
                        -----------------------------------------
Total Dipole Moment    :      0.15500       0.70247      -0.00000
                        -----------------------------------------
Magnitude (a.u.)       :      0.71937
Magnitude (Debye)      :      1.82850

Rotational constants in cm-1:     0.089194     0.032905     0.031383
Rotational constants in MHz :  2673.977596   986.475803   940.845888

                             ****ORCA TERMINATED NORMALLY****
TOTAL RUN TIME: 0 days 0 hours 43 minutes 23 seconds 789 msec
