                         Program Version 5.0.4 -  RELEASE  -
|  1> ! ri-mp2 aug-cc-pvdz aug-cc-pvdz/c tightscf
|  2> %pal nprocs 16 end
|  3> %maxcore 3800
|  4> %base "DZ_B-Cl_11_AB"
|  5> %scf
|  6> STABPerform true
|  7> STABRestartUHFifUnstable true
|  8> end
|  9>
| 10> *xyz 0 1
| 11> Cl        -2.311863   -0.867274   -0.000009
| 12> Cl        -0.847891    1.756689   -0.000006
| 13> B        -0.810452    0.022935    0.000018
| 14> Si         0.897650   -1.042955    0.000010
| 15> Cl         2.547025    0.185654    0.000000
| 16> H         0.950788   -1.894745    1.204163
| 17> H         0.950776   -1.894748   -1.204141
| 18> *
| 19>
| 20> $new_job
| 21> ! ri-mp2 aug-cc-pvtz aug-cc-pvtz/c tightscf
| 22> %pal nprocs 16 end
| 23> %maxcore 3800
| 24> %base "TZ_B-Cl_11_AB"
| 25>
| 26> *xyz 0 1
| 27> Cl        -2.311863   -0.867274   -0.000009
| 28> Cl        -0.847891    1.756689   -0.000006
| 29> B        -0.810452    0.022935    0.000018
| 30> Si         0.897650   -1.042955    0.000010
| 31> Cl         2.547025    0.185654    0.000000
| 32> H         0.950788   -1.894745    1.204163
| 33> H         0.950776   -1.894748   -1.204141
| 34> *
| 35>
| 36> $new_job
| 37> ! ri-mp2 aug-cc-pvqz aug-cc-pvqz/c tightscf
| 38> %pal nprocs 16 end
| 39> %maxcore 3800
| 40> %base "QZ_B-Cl_11_AB"
| 41>
| 42> *xyz 0 1
| 43> Cl        -2.311863   -0.867274   -0.000009
| 44> Cl        -0.847891    1.756689   -0.000006
| 45> B        -0.810452    0.022935    0.000018
| 46> Si         0.897650   -1.042955    0.000010
| 47> Cl         2.547025    0.185654    0.000000
| 48> H         0.950788   -1.894745    1.204163
| 49> H         0.950776   -1.894748   -1.204141
| 50> *
| 51>
| 52>
| 53>
| 54>
| 55>                          ****END OF INPUT****
 Total Charge           Charge          ....    0
 Multiplicity           Mult            ....    1
 Number of Electrons    NEL             ....   72
MP2 TOTAL ENERGY:    -1694.045684966 Eh
FINAL SINGLE POINT ENERGY     -1694.045684966235
MP2 TOTAL ENERGY:    -1694.283357683 Eh
FINAL SINGLE POINT ENERGY     -1694.283357682834

CARTESIAN COORDINATES (ANGSTROEM)
---------------------------------
  Cl    -2.311863   -0.867274   -0.000009
  Cl    -0.847891    1.756689   -0.000006
  B     -0.810452    0.022935    0.000018
  Si     0.897650   -1.042955    0.000010
  Cl     2.547025    0.185654    0.000000
  H      0.950788   -1.894745    1.204163
  H      0.950776   -1.894748   -1.204141

 Multiplicity           Mult            ....    1
 Number of Electrons    NEL             ....   72
 Basis Dimension        Dim             ....  508

ORBITAL ENERGIES
----------------

  NO   OCC          E(Eh)            E(eV)
   0   2.0000    -104.858159     -2853.3356
   1   2.0000    -104.856480     -2853.2899
   2   2.0000    -104.832406     -2852.6348
   3   2.0000     -68.819862     -1872.6837
   4   2.0000     -10.585828      -288.0550
   5   2.0000     -10.584214      -288.0111
   6   2.0000     -10.559793      -287.3466
   7   2.0000      -8.052577      -219.1218
   8   2.0000      -8.051555      -219.0939
   9   2.0000      -8.051252      -219.0857
  10   2.0000      -8.050971      -219.0781
  11   2.0000      -8.049953      -219.0503
  12   2.0000      -8.049601      -219.0408
  13   2.0000      -8.026603      -218.4150
  14   2.0000      -8.025463      -218.3840
  15   2.0000      -8.025457      -218.3838
  16   2.0000      -7.722912      -210.1511
  17   2.0000      -6.166607      -167.8019
  18   2.0000      -4.273431      -116.2860
  19   2.0000      -4.272468      -116.2598
  20   2.0000      -4.272361      -116.2569
  21   2.0000      -1.159606       -31.5545
  22   2.0000      -1.116096       -30.3705
  23   2.0000      -1.101719       -29.9793
  24   2.0000      -0.756725       -20.5915
  25   2.0000      -0.674059       -18.3421
  26   2.0000      -0.590788       -16.0762
  27   2.0000      -0.567309       -15.4373
  28   2.0000      -0.545776       -14.8513
  29   2.0000      -0.532375       -14.4867
  30   2.0000      -0.522301       -14.2125
  31   2.0000      -0.483450       -13.1553
  32   2.0000      -0.481290       -13.0966
  33   2.0000      -0.467003       -12.7078
  34   2.0000      -0.456048       -12.4097
  35   2.0000      -0.419712       -11.4210
  36   0.0000       0.026727         0.7273
  37   0.0000       0.031546         0.8584
  38   0.0000       0.038989         1.0610
  39   0.0000       0.039044         1.0624
  40   0.0000       0.042170         1.1475

MULLIKEN ATOMIC CHARGES
-----------------------
   0 Cl:   -0.166462
   1 Cl:   -0.214896
   2 B :    0.341553
   3 Si:    0.906201
   4 Cl:   -0.557500
   5 H :   -0.154448
   6 H :   -0.154448
Sum of atomic charges:    0.0000000

LOEWDIN ATOMIC CHARGES
----------------------
   0 Cl:    1.195002
   1 Cl:    1.196889
   2 B :   -2.447944
   3 Si:   -0.174074
   4 Cl:    0.862495
   5 H :   -0.316184
   6 H :   -0.316184

  Mayer bond orders larger than 0.100000
B(  0-Cl,  2-B ) :   1.0764 B(  1-Cl,  2-B ) :   1.1039 B(  2-B ,  3-Si) :   0.7180
B(  3-Si,  4-Cl) :   0.5542 B(  3-Si,  5-H ) :   0.8564 B(  3-Si,  6-H ) :   0.8564

MP2 TOTAL ENERGY:    -1694.364924438 Eh
FINAL SINGLE POINT ENERGY     -1694.364924438073

DIPOLE MOMENT
-------------
                                X             Y             Z
Electronic contribution:     -3.34134       4.49278      -0.00001
Nuclear contribution   :      3.10045      -4.85048       0.00003
                        -----------------------------------------
Total Dipole Moment    :     -0.24089      -0.35770       0.00001
                        -----------------------------------------
Magnitude (a.u.)       :      0.43125
Magnitude (Debye)      :      1.09615

Rotational constants in cm-1:     0.094844     0.035160     0.025881
Rotational constants in MHz :  2843.351362  1054.073088   775.897353

                             ****ORCA TERMINATED NORMALLY****
TOTAL RUN TIME: 0 days 0 hours 16 minutes 10 seconds 907 msec
