                         Program Version 5.0.4 -  RELEASE  -
|  1> ! ri-mp2 aug-cc-pvdz aug-cc-pvdz/c tightscf
|  2> %pal nprocs 16 end
|  3> %maxcore 3800
|  4> %base "DZ_B-B_13_AB"
|  5> %scf
|  6> STABPerform true
|  7> STABRestartUHFifUnstable true
|  8> end
|  9>
| 10> *xyz 0 1
| 11> B        -0.000012    2.034704    0.000029
| 12> B         0.000000    0.375243    0.000006
| 13> Cl        -1.508511   -0.510316   -0.000026
| 14> Cl         1.508516   -0.510307    0.000011
| 15> H        -0.000003    2.650409    1.019390
| 16> H        -0.000028    2.650439   -1.019314
| 17> *
| 18>
| 19> $new_job
| 20> ! ri-mp2 aug-cc-pvtz aug-cc-pvtz/c tightscf
| 21> %pal nprocs 16 end
| 22> %maxcore 3800
| 23> %base "TZ_B-B_13_AB"
| 24>
| 25> *xyz 0 1
| 26> B        -0.000012    2.034704    0.000029
| 27> B         0.000000    0.375243    0.000006
| 28> Cl        -1.508511   -0.510316   -0.000026
| 29> Cl         1.508516   -0.510307    0.000011
| 30> H        -0.000003    2.650409    1.019390
| 31> H        -0.000028    2.650439   -1.019314
| 32> *
| 33>
| 34> $new_job
| 35> ! ri-mp2 aug-cc-pvqz aug-cc-pvqz/c tightscf
| 36> %pal nprocs 16 end
| 37> %maxcore 3800
| 38> %base "QZ_B-B_13_AB"
| 39>
| 40> *xyz 0 1
| 41> B        -0.000012    2.034704    0.000029
| 42> B         0.000000    0.375243    0.000006
| 43> Cl        -1.508511   -0.510316   -0.000026
| 44> Cl         1.508516   -0.510307    0.000011
| 45> H        -0.000003    2.650409    1.019390
| 46> H        -0.000028    2.650439   -1.019314
| 47> *
| 48>
| 49>
| 50>
| 51>
| 52>                          ****END OF INPUT****
 Total Charge           Charge          ....    0
 Multiplicity           Mult            ....    1
 Number of Electrons    NEL             ....   46
MP2 TOTAL ENERGY:     -970.053175719 Eh
FINAL SINGLE POINT ENERGY      -970.053175719337
MP2 TOTAL ENERGY:     -970.216728590 Eh
FINAL SINGLE POINT ENERGY      -970.216728590092

CARTESIAN COORDINATES (ANGSTROEM)
---------------------------------
  B     -0.000012    2.034704    0.000029
  B      0.000000    0.375243    0.000006
  Cl    -1.508511   -0.510316   -0.000026
  Cl     1.508516   -0.510307    0.000011
  H     -0.000003    2.650409    1.019390
  H     -0.000028    2.650439   -1.019314

 Multiplicity           Mult            ....    1
 Number of Electrons    NEL             ....   46
 Basis Dimension        Dim             ....  420

ORBITAL ENERGIES
----------------

  NO   OCC          E(Eh)            E(eV)
   0   2.0000    -104.847696     -2853.0508
   1   2.0000    -104.847696     -2853.0508
   2   2.0000     -10.575364      -287.7703
   3   2.0000     -10.575357      -287.7701
   4   2.0000      -8.042140      -218.8378
   5   2.0000      -8.042139      -218.8377
   6   2.0000      -8.041105      -218.8096
   7   2.0000      -8.041103      -218.8095
   8   2.0000      -8.040832      -218.8022
   9   2.0000      -8.040832      -218.8022
  10   2.0000      -7.699932      -209.5258
  11   2.0000      -7.615613      -207.2314
  12   2.0000      -1.147852       -31.2346
  13   2.0000      -1.105310       -30.0770
  14   2.0000      -0.751777       -20.4569
  15   2.0000      -0.654315       -17.8048
  16   2.0000      -0.576519       -15.6879
  17   2.0000      -0.550501       -14.9799
  18   2.0000      -0.537190       -14.6177
  19   2.0000      -0.498100       -13.5540
  20   2.0000      -0.473145       -12.8749
  21   2.0000      -0.462812       -12.5938
  22   2.0000      -0.431695       -11.7470
  23   0.0000       0.026952         0.7334
  24   0.0000       0.028147         0.7659
  25   0.0000       0.032141         0.8746
  26   0.0000       0.033603         0.9144
  27   0.0000       0.052180         1.4199

MULLIKEN ATOMIC CHARGES
-----------------------
   0 B :    0.472731
   1 B :    0.337582
   2 Cl:   -0.227644
   3 Cl:   -0.227644
   4 H :   -0.177513
   5 H :   -0.177513
Sum of atomic charges:    0.0000000

LOEWDIN ATOMIC CHARGES
----------------------
   0 B :    0.184660
   1 B :   -2.193505
   2 Cl:    1.235966
   3 Cl:    1.235965
   4 H :   -0.231543
   5 H :   -0.231542

  Mayer bond orders larger than 0.100000
B(  0-B ,  1-B ) :   0.9920 B(  0-B ,  4-H ) :   0.9473 B(  0-B ,  5-H ) :   0.9473
B(  1-B ,  2-Cl) :   1.0737 B(  1-B ,  3-Cl) :   1.0737

MP2 TOTAL ENERGY:     -970.271877749 Eh
FINAL SINGLE POINT ENERGY      -970.271877749269

DIPOLE MOMENT
-------------
                                X             Y             Z
Electronic contribution:      0.00003      -4.02235      -0.00006
Nuclear contribution   :     -0.00003       4.40361       0.00006
                        -----------------------------------------
Total Dipole Moment    :     -0.00000       0.38125       0.00001
                        -----------------------------------------
Magnitude (a.u.)       :      0.38125
Magnitude (Debye)      :      0.96906

Rotational constants in cm-1:     0.208751     0.103137     0.070236
Rotational constants in MHz :  6258.183139  3091.962965  2105.617847

                             ****ORCA TERMINATED NORMALLY****
TOTAL RUN TIME: 0 days 0 hours 10 minutes 57 seconds 185 msec
