                         Program Version 5.0.4 -  RELEASE  -
|  1> ! ri-mp2 aug-cc-pvdz aug-cc-pvdz/c tightscf
|  2> %pal nprocs 16 end
|  3> %maxcore 3800
|  4> %base "DZ_B-P_7_AB"
|  5> %scf
|  6> STABPerform true
|  7> STABRestartUHFifUnstable true
|  8> end
|  9>
| 10> *xyz 0 1
| 11> B        -1.388489   -1.486398    0.491383
| 12> P        -0.622427   -0.124770   -0.408356
| 13> C         1.189763   -0.250736   -0.638619
| 14> C         2.037710    0.038324    0.593909
| 15> H         1.472005    0.413213   -1.458089
| 16> H         1.365505   -1.267216   -0.994385
| 17> H         1.872269    1.049344    0.966657
| 18> H         3.100115   -0.054649    0.362560
| 19> C        -1.004012    1.550521    0.211319
| 20> H        -2.069848    1.594402    0.428895
| 21> H        -0.781012    2.297168   -0.549687
| 22> H        -0.455250    1.796623    1.118665
| 23> H         1.801820   -0.657079    1.399085
| 24> H        -0.916334   -2.574442    0.394866
| 25> H        -2.451182   -1.322480    1.000199
| 26> *
| 27>
| 28> $new_job
| 29> ! ri-mp2 aug-cc-pvtz aug-cc-pvtz/c tightscf
| 30> %pal nprocs 16 end
| 31> %maxcore 3800
| 32> %base "TZ_B-P_7_AB"
| 33>
| 34> *xyz 0 1
| 35> B        -1.388489   -1.486398    0.491383
| 36> P        -0.622427   -0.124770   -0.408356
| 37> C         1.189763   -0.250736   -0.638619
| 38> C         2.037710    0.038324    0.593909
| 39> H         1.472005    0.413213   -1.458089
| 40> H         1.365505   -1.267216   -0.994385
| 41> H         1.872269    1.049344    0.966657
| 42> H         3.100115   -0.054649    0.362560
| 43> C        -1.004012    1.550521    0.211319
| 44> H        -2.069848    1.594402    0.428895
| 45> H        -0.781012    2.297168   -0.549687
| 46> H        -0.455250    1.796623    1.118665
| 47> H         1.801820   -0.657079    1.399085
| 48> H        -0.916334   -2.574442    0.394866
| 49> H        -2.451182   -1.322480    1.000199
| 50> *
| 51>
| 52> $new_job
| 53> ! ri-mp2 aug-cc-pvqz aug-cc-pvqz/c tightscf
| 54> %pal nprocs 16 end
| 55> %maxcore 3800
| 56> %base "QZ_B-P_7_AB"
| 57>
| 58> *xyz 0 1
| 59> B        -1.388489   -1.486398    0.491383
| 60> P        -0.622427   -0.124770   -0.408356
| 61> C         1.189763   -0.250736   -0.638619
| 62> C         2.037710    0.038324    0.593909
| 63> H         1.472005    0.413213   -1.458089
| 64> H         1.365505   -1.267216   -0.994385
| 65> H         1.872269    1.049344    0.966657
| 66> H         3.100115   -0.054649    0.362560
| 67> C        -1.004012    1.550521    0.211319
| 68> H        -2.069848    1.594402    0.428895
| 69> H        -0.781012    2.297168   -0.549687
| 70> H        -0.455250    1.796623    1.118665
| 71> H         1.801820   -0.657079    1.399085
| 72> H        -0.916334   -2.574442    0.394866
| 73> H        -2.451182   -1.322480    1.000199
| 74> *
| 75>
| 76>
| 77>
| 78>
| 79>                          ****END OF INPUT****
 Total Charge           Charge          ....    0
 Multiplicity           Mult            ....    1
 Number of Electrons    NEL             ....   48
MP2 TOTAL ENERGY:     -485.517501620 Eh
FINAL SINGLE POINT ENERGY      -485.517501620436
MP2 TOTAL ENERGY:     -485.705788707 Eh
FINAL SINGLE POINT ENERGY      -485.705788707088

CARTESIAN COORDINATES (ANGSTROEM)
---------------------------------
  B     -1.388489   -1.486398    0.491383
  P     -0.622427   -0.124770   -0.408356
  C      1.189763   -0.250736   -0.638619
  C      2.037710    0.038324    0.593909
  H      1.472005    0.413213   -1.458089
  H      1.365505   -1.267216   -0.994385
  H      1.872269    1.049344    0.966657
  H      3.100115   -0.054649    0.362560
  C     -1.004012    1.550521    0.211319
  H     -2.069848    1.594402    0.428895
  H     -0.781012    2.297168   -0.549687
  H     -0.455250    1.796623    1.118665
  H      1.801820   -0.657079    1.399085
  H     -0.916334   -2.574442    0.394866
  H     -2.451182   -1.322480    1.000199

 Multiplicity           Mult            ....    1
 Number of Electrons    NEL             ....   48
 Basis Dimension        Dim             ....  864

ORBITAL ENERGIES
----------------

  NO   OCC          E(Eh)            E(eV)
   0   2.0000     -79.916391     -2174.6356
   1   2.0000     -11.236588      -305.7631
   2   2.0000     -11.230927      -305.6091
   3   2.0000     -11.223074      -305.3954
   4   2.0000      -7.586827      -206.4481
   5   2.0000      -7.463210      -203.0843
   6   2.0000      -5.358277      -145.8061
   7   2.0000      -5.357955      -145.7974
   8   2.0000      -5.357491      -145.7847
   9   2.0000      -1.049242       -28.5513
  10   2.0000      -0.977119       -26.5888
  11   2.0000      -0.873312       -23.7640
  12   2.0000      -0.774232       -21.0679
  13   2.0000      -0.647936       -17.6312
  14   2.0000      -0.618688       -16.8354
  15   2.0000      -0.594497       -16.1771
  16   2.0000      -0.576398       -15.6846
  17   2.0000      -0.558358       -15.1937
  18   2.0000      -0.535119       -14.5613
  19   2.0000      -0.513048       -13.9607
  20   2.0000      -0.492468       -13.4007
  21   2.0000      -0.455066       -12.3830
  22   2.0000      -0.440902       -11.9976
  23   2.0000      -0.309558        -8.4235
  24   0.0000       0.021975         0.5980
  25   0.0000       0.029318         0.7978
  26   0.0000       0.032817         0.8930
  27   0.0000       0.035303         0.9606
  28   0.0000       0.043497         1.1836

MULLIKEN ATOMIC CHARGES
-----------------------
   0 B :    0.180926
   1 P :    0.517198
   2 C :   -0.591367
   3 C :   -0.875041
   4 H :    0.284701
   5 H :    0.294303
   6 H :    0.247727
   7 H :    0.309771
   8 C :   -1.138040
   9 H :    0.364309
  10 H :    0.284987
  11 H :    0.331225
  12 H :    0.240595
  13 H :   -0.187513
  14 H :   -0.263782
Sum of atomic charges:    0.0000000

LOEWDIN ATOMIC CHARGES
----------------------
   0 B :    0.128431
   1 P :    1.014905
   2 C :    0.368216
   3 C :    0.866239
   4 H :   -0.341961
   5 H :   -0.355681
   6 H :   -0.305599
   7 H :   -0.281106
   8 C :    0.785487
   9 H :   -0.362106
  10 H :   -0.347957
  11 H :   -0.349044
  12 H :   -0.293411
  13 H :   -0.261937
  14 H :   -0.264475

  Mayer bond orders larger than 0.100000
B(  0-B ,  1-P ) :   1.4506 B(  0-B , 13-H ) :   0.9182 B(  0-B , 14-H ) :   0.9042
B(  1-P ,  2-C ) :   0.8648 B(  1-P ,  8-C ) :   0.9166 B(  2-C ,  3-C ) :   0.9657
B(  2-C ,  4-H ) :   0.8873 B(  2-C ,  5-H ) :   0.8717 B(  3-C ,  6-H ) :   0.9408
B(  3-C ,  7-H ) :   0.9068 B(  3-C , 12-H ) :   0.9525 B(  8-C ,  9-H ) :   0.8783
B(  8-C , 10-H ) :   0.9407 B(  8-C , 11-H ) :   0.8574

MP2 TOTAL ENERGY:     -485.762356853 Eh
FINAL SINGLE POINT ENERGY      -485.762356853145

DIPOLE MOMENT
-------------
                                X             Y             Z
Electronic contribution:     -4.18143      -2.08740      -2.55511
Nuclear contribution   :      4.76877       2.65781       2.72987
                        -----------------------------------------
Total Dipole Moment    :      0.58733       0.57041       0.17475
                        -----------------------------------------
Magnitude (a.u.)       :      0.83718
Magnitude (Debye)      :      2.12793

Rotational constants in cm-1:     0.163308     0.098736     0.076259
Rotational constants in MHz :  4895.839932  2960.027373  2286.172325

                             ****ORCA TERMINATED NORMALLY****
TOTAL RUN TIME: 0 days 1 hours 6 minutes 56 seconds 143 msec
