                         Program Version 5.0.4 -  RELEASE  -
|  1> ! ri-mp2 aug-cc-pvdz aug-cc-pvdz/c tightscf
|  2> %pal nprocs 16 end
|  3> %maxcore 3800
|  4> %base "DZ_B-S_22_AB"
|  5>
|  6> *xyz 0 1
|  7> S        -2.971692   -1.443170    0.234388
|  8> S        -2.723619    1.700539   -0.203359
|  9> O         3.679682   -0.494895   -0.081144
| 10> C         1.549072   -1.410773   -0.264260
| 11> C         1.749584    0.942721    0.186753
| 12> C         0.369142    1.037536    0.196381
| 13> C         0.180379   -1.294144   -0.244175
| 14> C        -0.456042   -0.065640   -0.015055
| 15> C         2.346315   -0.289522   -0.046955
| 16> C         4.538737    0.605447    0.127198
| 17> B        -1.997766    0.059822    0.005032
| 18> H        -0.072880    2.006749    0.389768
| 19> H        -0.415339   -2.179886   -0.424570
| 20> H         2.032429   -2.360423   -0.447639
| 21> H         2.344439    1.825920    0.362041
| 22> H         5.550253    0.216308    0.054392
| 23> H         4.391112    1.374281   -0.634843
| 24> H         4.390168    1.043463    1.117002
| 25> H        -4.197137   -0.931373    0.072844
| 26> H        -4.009814    1.393368   -0.000786
| 27> *
| 28>
| 29> $new_job
| 30> ! ri-mp2 aug-cc-pvtz aug-cc-pvtz/c tightscf
| 31> %pal nprocs 16 end
| 32> %maxcore 3800
| 33> %base "TZ_B-S_22_AB"
| 34>
| 35> *xyz 0 1
| 36> S        -2.971692   -1.443170    0.234388
| 37> S        -2.723619    1.700539   -0.203359
| 38> O         3.679682   -0.494895   -0.081144
| 39> C         1.549072   -1.410773   -0.264260
| 40> C         1.749584    0.942721    0.186753
| 41> C         0.369142    1.037536    0.196381
| 42> C         0.180379   -1.294144   -0.244175
| 43> C        -0.456042   -0.065640   -0.015055
| 44> C         2.346315   -0.289522   -0.046955
| 45> C         4.538737    0.605447    0.127198
| 46> B        -1.997766    0.059822    0.005032
| 47> H        -0.072880    2.006749    0.389768
| 48> H        -0.415339   -2.179886   -0.424570
| 49> H         2.032429   -2.360423   -0.447639
| 50> H         2.344439    1.825920    0.362041
| 51> H         5.550253    0.216308    0.054392
| 52> H         4.391112    1.374281   -0.634843
| 53> H         4.390168    1.043463    1.117002
| 54> H        -4.197137   -0.931373    0.072844
| 55> H        -4.009814    1.393368   -0.000786
| 56> *
| 57>
| 58> $new_job
| 59> ! ri-mp2 aug-cc-pvqz aug-cc-pvqz/c tightscf
| 60> %pal nprocs 16 end
| 61> %maxcore 3800
| 62> %base "QZ_B-S_22_AB"
| 63>
| 64> *xyz 0 1
| 65> S        -2.971692   -1.443170    0.234388
| 66> S        -2.723619    1.700539   -0.203359
| 67> O         3.679682   -0.494895   -0.081144
| 68> C         1.549072   -1.410773   -0.264260
| 69> C         1.749584    0.942721    0.186753
| 70> C         0.369142    1.037536    0.196381
| 71> C         0.180379   -1.294144   -0.244175
| 72> C        -0.456042   -0.065640   -0.015055
| 73> C         2.346315   -0.289522   -0.046955
| 74> C         4.538737    0.605447    0.127198
| 75> B        -1.997766    0.059822    0.005032
| 76> H        -0.072880    2.006749    0.389768
| 77> H        -0.415339   -2.179886   -0.424570
| 78> H         2.032429   -2.360423   -0.447639
| 79> H         2.344439    1.825920    0.362041
| 80> H         5.550253    0.216308    0.054392
| 81> H         4.391112    1.374281   -0.634843
| 82> H         4.390168    1.043463    1.117002
| 83> H        -4.197137   -0.931373    0.072844
| 84> H        -4.009814    1.393368   -0.000786
| 85> *
| 86>
| 87>
| 88>
| 89>
| 90>                          ****END OF INPUT****
 Total Charge           Charge          ....    0
 Multiplicity           Mult            ....    1
 Number of Electrons    NEL             ....   96
MP2 TOTAL ENERGY:    -1166.558843038 Eh
FINAL SINGLE POINT ENERGY     -1166.558843038033
MP2 TOTAL ENERGY:    -1166.984111341 Eh
FINAL SINGLE POINT ENERGY     -1166.984111340786

CARTESIAN COORDINATES (ANGSTROEM)
---------------------------------
  S     -2.971692   -1.443170    0.234388
  S     -2.723619    1.700539   -0.203359
  O      3.679682   -0.494895   -0.081144
  C      1.549072   -1.410773   -0.264260
  C      1.749584    0.942721    0.186753
  C      0.369142    1.037536    0.196381
  C      0.180379   -1.294144   -0.244175
  C     -0.456042   -0.065640   -0.015055
  C      2.346315   -0.289522   -0.046955
  C      4.538737    0.605447    0.127198
  B     -1.997766    0.059822    0.005032
  H     -0.072880    2.006749    0.389768
  H     -0.415339   -2.179886   -0.424570
  H      2.032429   -2.360423   -0.447639
  H      2.344439    1.825920    0.362041
  H      5.550253    0.216308    0.054392
  H      4.391112    1.374281   -0.634843
  H      4.390168    1.043463    1.117002
  H     -4.197137   -0.931373    0.072844
  H     -4.009814    1.393368   -0.000786

 Multiplicity           Mult            ....    1
 Number of Electrons    NEL             ....   96
 Basis Dimension        Dim             .... 1302

ORBITAL ENERGIES
----------------

  NO   OCC          E(Eh)            E(eV)
   0   2.0000     -91.952508     -2502.1549
   1   2.0000     -91.952380     -2502.1515
   2   2.0000     -20.592879      -560.3607
   3   2.0000     -11.310962      -307.7869
   4   2.0000     -11.289631      -307.2065
   5   2.0000     -11.247592      -306.0625
   6   2.0000     -11.244652      -305.9825
   7   2.0000     -11.231579      -305.6268
   8   2.0000     -11.226900      -305.4995
   9   2.0000     -11.214020      -305.1490
  10   2.0000      -8.957688      -243.7511
  11   2.0000      -8.957558      -243.7475
  12   2.0000      -7.645133      -208.0346
  13   2.0000      -6.639318      -180.6650
  14   2.0000      -6.639182      -180.6613
  15   2.0000      -6.638262      -180.6363
  16   2.0000      -6.638126      -180.6326
  17   2.0000      -6.637837      -180.6247
  18   2.0000      -6.637703      -180.6211
  19   2.0000      -1.426414       -38.8147
  20   2.0000      -1.158864       -31.5343
  21   2.0000      -1.039513       -28.2866
  22   2.0000      -1.029216       -28.0064
  23   2.0000      -1.000768       -27.2323
  24   2.0000      -0.958509       -26.0824
  25   2.0000      -0.949131       -25.8272
  26   2.0000      -0.842076       -22.9141
  27   2.0000      -0.818834       -22.2816
  28   2.0000      -0.735700       -20.0194
  29   2.0000      -0.692909       -18.8550
  30   2.0000      -0.678112       -18.4524
  31   2.0000      -0.666805       -18.1447
  32   2.0000      -0.631984       -17.1972
  33   2.0000      -0.600639       -16.3442
  34   2.0000      -0.596262       -16.2251
  35   2.0000      -0.587412       -15.9843
  36   2.0000      -0.560424       -15.2499
  37   2.0000      -0.536448       -14.5975
  38   2.0000      -0.529924       -14.4200
  39   2.0000      -0.524047       -14.2600
  40   2.0000      -0.488370       -13.2892
  41   2.0000      -0.481941       -13.1143
  42   2.0000      -0.480300       -13.0696
  43   2.0000      -0.429110       -11.6767
  44   2.0000      -0.421494       -11.4694
  45   2.0000      -0.369832       -10.0636
  46   2.0000      -0.349064        -9.4985
  47   2.0000      -0.318239        -8.6597
  48   0.0000       0.020684         0.5628
  49   0.0000       0.026844         0.7305
  50   0.0000       0.030237         0.8228
  51   0.0000       0.036313         0.9881
  52   0.0000       0.037361         1.0167

MULLIKEN ATOMIC CHARGES
-----------------------
   0 S :   -0.093272
   1 S :   -0.098569
   2 O :   -0.827071
   3 C :   -0.505162
   4 C :   -0.508628
   5 C :   -0.313114
   6 C :   -0.365127
   7 C :    0.184805
   8 C :    1.165974
   9 C :   -0.693575
  10 B :    0.524231
  11 H :    0.100475
  12 H :    0.119030
  13 H :    0.227417
  14 H :    0.149599
  15 H :    0.506227
  16 H :    0.252594
  17 H :    0.258342
  18 H :   -0.043715
  19 H :   -0.040462
Sum of atomic charges:    0.0000000

LOEWDIN ATOMIC CHARGES
----------------------
   0 S :    1.724806
   1 S :    1.723453
   2 O :    0.888584
   3 C :    0.342829
   4 C :    0.349678
   5 C :    0.279710
   6 C :    0.272692
   7 C :   -0.130497
   8 C :   -0.456793
   9 C :    0.579531
  10 B :   -1.627683
  11 H :   -0.365160
  12 H :   -0.365652
  13 H :   -0.322743
  14 H :   -0.356238
  15 H :   -0.315484
  16 H :   -0.305001
  17 H :   -0.305110
  18 H :   -0.805371
  19 H :   -0.805551

  Mayer bond orders larger than 0.100000
B(  0-S , 10-B ) :   1.0435 B(  0-S , 18-H ) :   1.1170 B(  1-S , 10-B ) :   1.0473
B(  1-S , 19-H ) :   1.1168 B(  2-O ,  3-C ) :   0.2597 B(  2-O ,  4-C ) :   0.2000
B(  2-O ,  9-C ) :   0.9249 B(  3-C ,  5-C ) :   0.1548 B(  3-C ,  6-C ) :   1.2419
B(  3-C ,  7-C ) :  -0.2623 B(  3-C ,  8-C ) :   1.1705 B(  3-C , 12-H ) :  -0.1393
B(  3-C , 13-H ) :   1.0317 B(  4-C ,  5-C ) :   0.9064 B(  4-C ,  7-C ) :  -0.4040
B(  4-C ,  8-C ) :   1.3525 B(  4-C ,  9-C ) :   0.1716 B(  4-C , 11-H ) :  -0.1557
B(  4-C , 14-H ) :   1.1972 B(  5-C ,  7-C ) :   1.0313 B(  5-C ,  8-C ) :  -0.1249
B(  5-C , 11-H ) :   1.1318 B(  5-C , 14-H ) :  -0.1995 B(  6-C ,  7-C ) :   1.0092
B(  6-C ,  8-C ) :  -0.2350 B(  6-C , 12-H ) :   1.1816 B(  6-C , 13-H ) :  -0.1268
B(  7-C , 10-B ) :   1.1166 B(  7-C , 11-H ) :  -0.1145 B(  7-C , 12-H ) :  -0.1200
B(  8-C ,  9-C ) :  -0.1670 B(  8-C , 13-H ) :  -0.1064 B(  8-C , 14-H ) :  -0.1124
B(  9-C , 15-H ) :   0.7395 B(  9-C , 16-H ) :   0.9221 B(  9-C , 17-H ) :   0.9187
B( 10-B , 18-H ) :  -0.1110 B( 10-B , 19-H ) :  -0.1093

MP2 TOTAL ENERGY:    -1167.120498765 Eh
FINAL SINGLE POINT ENERGY     -1167.120498765434

DIPOLE MOMENT
-------------
                                X             Y             Z
Electronic contribution:    -11.16583      -1.80170      -0.37815
Nuclear contribution   :     11.61311       2.27669       0.47201
                        -----------------------------------------
Total Dipole Moment    :      0.44728       0.47499       0.09387
                        -----------------------------------------
Magnitude (a.u.)       :      0.65915
Magnitude (Debye)      :      1.67544

Rotational constants in cm-1:     0.062835     0.013112     0.010963
Rotational constants in MHz :  1883.734988   393.096403   328.669508

                             ****ORCA TERMINATED NORMALLY****
TOTAL RUN TIME: 0 days 0 hours 59 minutes 3 seconds 37 msec
