                         Program Version 5.0.4 -  RELEASE  -
|  1> ! ri-mp2 aug-cc-pvdz aug-cc-pvdz/c tightscf
|  2> %pal nprocs 16 end
|  3> %maxcore 3800
|  4> %base "DZ_Si-F_11_A"
|  5> %scf
|  6> STABPerform true
|  7> STABRestartUHFifUnstable true
|  8> end
|  9>
| 10> *xyz 0 2
| 11> Si         0.000000    0.755522    0.000000
| 12> O         1.456878    1.174327    0.000000
| 13> Cl        -0.685589   -1.174819    0.000000
| 14> *
| 15>
| 16> $new_job
| 17> ! ri-mp2 aug-cc-pvtz aug-cc-pvtz/c tightscf
| 18> %pal nprocs 16 end
| 19> %maxcore 3800
| 20> %base "TZ_Si-F_11_A"
| 21>
| 22> *xyz 0 2
| 23> Si         0.000000    0.755522    0.000000
| 24> O         1.456878    1.174327    0.000000
| 25> Cl        -0.685589   -1.174819    0.000000
| 26> *
| 27>
| 28> $new_job
| 29> ! ri-mp2 aug-cc-pvqz aug-cc-pvqz/c tightscf
| 30> %pal nprocs 16 end
| 31> %maxcore 3800
| 32> %base "QZ_Si-F_11_A"
| 33>
| 34> *xyz 0 2
| 35> Si         0.000000    0.755522    0.000000
| 36> O         1.456878    1.174327    0.000000
| 37> Cl        -0.685589   -1.174819    0.000000
| 38> *
| 39>
| 40>
| 41>
| 42>
| 43>                          ****END OF INPUT****
 Total Charge           Charge          ....    0
 Multiplicity           Mult            ....    2
 Number of Electrons    NEL             ....   39
MP2 TOTAL ENERGY:     -823.742627242 Eh
FINAL SINGLE POINT ENERGY      -823.742627241853
MP2 TOTAL ENERGY:     -823.902706213 Eh
FINAL SINGLE POINT ENERGY      -823.902706212831

CARTESIAN COORDINATES (ANGSTROEM)
---------------------------------
  Si     0.000000    0.755522    0.000000
  O      1.456878    1.174327    0.000000
  Cl    -0.685589   -1.174819    0.000000

 Multiplicity           Mult            ....    2
 Number of Electrons    NEL             ....   39
 Basis Dimension        Dim             ....  248

ORBITAL ENERGIES
----------------
                 SPIN UP ORBITALS
  NO   OCC          E(Eh)            E(eV)
   0   1.0000    -104.878911     -2853.9003
   1   1.0000     -68.872971     -1874.1288
   2   1.0000     -20.542145      -558.9802
   3   1.0000     -10.605659      -288.5947
   4   1.0000      -8.075583      -219.7478
   5   1.0000      -8.070407      -219.6069
   6   1.0000      -8.070376      -219.6061
   7   1.0000      -6.218496      -169.2139
   8   1.0000      -4.325338      -117.6984
   9   1.0000      -4.321896      -117.6048
  10   1.0000      -4.318323      -117.5075
  11   1.0000      -1.287037       -35.0221
  12   1.0000      -1.148763       -31.2594
  13   1.0000      -0.689523       -18.7629
  14   1.0000      -0.584479       -15.9045
  15   1.0000      -0.545675       -14.8486
  16   1.0000      -0.530838       -14.4448
  17   1.0000      -0.489874       -13.3301
  18   1.0000      -0.475656       -12.9433
  19   1.0000      -0.415914       -11.3176
  20   0.0000       0.013881         0.3777
  21   0.0000       0.032059         0.8724
  22   0.0000       0.039037         1.0623
  23   0.0000       0.052263         1.4222
  24   0.0000       0.054596         1.4856

                 SPIN DOWN ORBITALS
  NO   OCC          E(Eh)            E(eV)
   0   1.0000    -104.876556     -2853.8362
   1   1.0000     -68.867606     -1873.9828
   2   1.0000     -20.533089      -558.7338
   3   1.0000     -10.603070      -288.5242
   4   1.0000      -8.069199      -219.5741
   5   1.0000      -8.069168      -219.5732
   6   1.0000      -8.066068      -219.4889
   7   1.0000      -6.208778      -168.9494
   8   1.0000      -4.317375      -117.4817
   9   1.0000      -4.316483      -117.4575
  10   1.0000      -4.308759      -117.2473
  11   1.0000      -1.254653       -34.1409
  12   1.0000      -1.129150       -30.7257
  13   1.0000      -0.643085       -17.4992
  14   1.0000      -0.533040       -14.5047
  15   1.0000      -0.526844       -14.3361
  16   1.0000      -0.517836       -14.0910
  17   1.0000      -0.476964       -12.9789
  18   1.0000      -0.462248       -12.5784
  19   0.0000      -0.031108        -0.8465
  20   0.0000       0.033304         0.9063
  21   0.0000       0.040117         1.0916
  22   0.0000       0.040486         1.1017
  23   0.0000       0.058939         1.6038

MULLIKEN ATOMIC CHARGES AND SPIN POPULATIONS
--------------------------------------------
   0 Si:    1.415274    0.735522
   1 O :   -0.996731    0.161443
   2 Cl:   -0.418543    0.103035
Sum of atomic charges         :    0.0000000

LOEWDIN ATOMIC CHARGES AND SPIN POPULATIONS
-------------------------------------------
   0 Si:   -0.604476    0.588733
   1 O :   -0.072005    0.208536
   2 Cl:    0.676481    0.202731

  Mayer bond orders larger than 0.100000
B(  0-Si,  1-O ) :   1.5442 B(  0-Si,  2-Cl) :   0.8384

MP2 TOTAL ENERGY:     -823.956232632 Eh
FINAL SINGLE POINT ENERGY      -823.956232632298

DIPOLE MOMENT
-------------
                                X             Y             Z
Electronic contribution:     -2.32101      -1.72940      -0.00000
Nuclear contribution   :      0.92439       1.52259       0.00000
                        -----------------------------------------
Total Dipole Moment    :     -1.39662      -0.20681      -0.00000
                        -----------------------------------------
Magnitude (a.u.)       :      1.41185
Magnitude (Debye)      :      3.58864

Rotational constants in cm-1:     1.684194     0.132120     0.122509
Rotational constants in MHz : 50490.877024  3960.857370  3672.741825

                             ****ORCA TERMINATED NORMALLY****
TOTAL RUN TIME: 0 days 0 hours 2 minutes 49 seconds 759 msec
