                         Program Version 5.0.4 -  RELEASE  -
|  1> ! ri-mp2 aug-cc-pvdz aug-cc-pvdz/c tightscf
|  2> %pal nprocs 16 end
|  3> %maxcore 3800
|  4> %base "DZ_Si-Si_117_A"
|  5> %scf
|  6> STABPerform true
|  7> STABRestartUHFifUnstable true
|  8> end
|  9>
| 10> *xyz 0 2
| 11> Si        -1.859977    0.584087    0.031304
| 12> S        -0.450980   -0.961665   -0.402849
| 13> H        -2.230736    0.593042    1.464917
| 14> H        -1.316128    1.905954   -0.360839
| 15> S         1.143692   -0.191666    0.672400
| 16> C         1.993739    0.796455   -0.573496
| 17> H         2.863644    1.226811   -0.077410
| 18> H         1.355730    1.598934   -0.935687
| 19> H         2.321350    0.172597   -1.401088
| 20> *
| 21>
| 22> $new_job
| 23> ! ri-mp2 aug-cc-pvtz aug-cc-pvtz/c tightscf
| 24> %pal nprocs 16 end
| 25> %maxcore 3800
| 26> %base "TZ_Si-Si_117_A"
| 27>
| 28> *xyz 0 2
| 29> Si        -1.859977    0.584087    0.031304
| 30> S        -0.450980   -0.961665   -0.402849
| 31> H        -2.230736    0.593042    1.464917
| 32> H        -1.316128    1.905954   -0.360839
| 33> S         1.143692   -0.191666    0.672400
| 34> C         1.993739    0.796455   -0.573496
| 35> H         2.863644    1.226811   -0.077410
| 36> H         1.355730    1.598934   -0.935687
| 37> H         2.321350    0.172597   -1.401088
| 38> *
| 39>
| 40> $new_job
| 41> ! ri-mp2 aug-cc-pvqz aug-cc-pvqz/c tightscf
| 42> %pal nprocs 16 end
| 43> %maxcore 3800
| 44> %base "QZ_Si-Si_117_A"
| 45>
| 46> *xyz 0 2
| 47> Si        -1.859977    0.584087    0.031304
| 48> S        -0.450980   -0.961665   -0.402849
| 49> H        -2.230736    0.593042    1.464917
| 50> H        -1.316128    1.905954   -0.360839
| 51> S         1.143692   -0.191666    0.672400
| 52> C         1.993739    0.796455   -0.573496
| 53> H         2.863644    1.226811   -0.077410
| 54> H         1.355730    1.598934   -0.935687
| 55> H         2.321350    0.172597   -1.401088
| 56> *
| 57>
| 58>
| 59>
| 60>
| 61>                          ****END OF INPUT****
 Total Charge           Charge          ....    0
 Multiplicity           Mult            ....    2
 Number of Electrons    NEL             ....   57
MP2 TOTAL ENERGY:    -1125.285736264 Eh
FINAL SINGLE POINT ENERGY     -1125.285736264497
MP2 TOTAL ENERGY:    -1125.465985358 Eh
FINAL SINGLE POINT ENERGY     -1125.465985358474

CARTESIAN COORDINATES (ANGSTROEM)
---------------------------------
  Si    -1.859977    0.584087    0.031304
  S     -0.450980   -0.961665   -0.402849
  H     -2.230736    0.593042    1.464917
  H     -1.316128    1.905954   -0.360839
  S      1.143692   -0.191666    0.672400
  C      1.993739    0.796455   -0.573496
  H      2.863644    1.226811   -0.077410
  H      1.355730    1.598934   -0.935687
  H      2.321350    0.172597   -1.401088

 Multiplicity           Mult            ....    2
 Number of Electrons    NEL             ....   57
 Basis Dimension        Dim             ....  562

ORBITAL ENERGIES
----------------
                 SPIN UP ORBITALS
  NO   OCC          E(Eh)            E(eV)
   0   1.0000     -91.981994     -2502.9573
   1   1.0000     -91.969109     -2502.6067
   2   1.0000     -68.808161     -1872.3652
   3   1.0000     -11.262059      -306.4562
   4   1.0000      -8.981989      -244.4123
   5   1.0000      -8.971397      -244.1241
   6   1.0000      -6.664305      -181.3450
   7   1.0000      -6.661992      -181.2820
   8   1.0000      -6.661143      -181.2589
   9   1.0000      -6.652221      -181.0161
  10   1.0000      -6.651641      -181.0004
  11   1.0000      -6.650753      -180.9762
  12   1.0000      -6.155847      -167.5091
  13   1.0000      -4.268481      -116.1513
  14   1.0000      -4.258753      -115.8866
  15   1.0000      -4.258107      -115.8690
  16   1.0000      -1.079329       -29.3700
  17   1.0000      -0.966041       -26.2873
  18   1.0000      -0.825831       -22.4720
  19   1.0000      -0.702899       -19.1269
  20   1.0000      -0.605934       -16.4883
  21   1.0000      -0.602134       -16.3849
  22   1.0000      -0.538304       -14.6480
  23   1.0000      -0.508211       -13.8291
  24   1.0000      -0.484964       -13.1965
  25   1.0000      -0.462313       -12.5802
  26   1.0000      -0.379263       -10.3203
  27   1.0000      -0.370822       -10.0906
  28   1.0000      -0.323668        -8.8075
  29   0.0000       0.024737         0.6731
  30   0.0000       0.032668         0.8890
  31   0.0000       0.036406         0.9906
  32   0.0000       0.040017         1.0889
  33   0.0000       0.049556         1.3485

                 SPIN DOWN ORBITALS
  NO   OCC          E(Eh)            E(eV)
   0   1.0000     -91.981211     -2502.9360
   1   1.0000     -91.969024     -2502.6044
   2   1.0000     -68.802442     -1872.2096
   3   1.0000     -11.262160      -306.4590
   4   1.0000      -8.981093      -244.3880
   5   1.0000      -8.971152      -244.1174
   6   1.0000      -6.662362      -181.2921
   7   1.0000      -6.661370      -181.2651
   8   1.0000      -6.659446      -181.2127
   9   1.0000      -6.652770      -181.0311
  10   1.0000      -6.651186      -180.9880
  11   1.0000      -6.650680      -180.9742
  12   1.0000      -6.147013      -167.2687
  13   1.0000      -4.254946      -115.7830
  14   1.0000      -4.254360      -115.7670
  15   1.0000      -4.246183      -115.5445
  16   1.0000      -1.075341       -29.2615
  17   1.0000      -0.962874       -26.2011
  18   1.0000      -0.817435       -22.2435
  19   1.0000      -0.667418       -18.1614
  20   1.0000      -0.603557       -16.4236
  21   1.0000      -0.600734       -16.3468
  22   1.0000      -0.534865       -14.5544
  23   1.0000      -0.499436       -13.5903
  24   1.0000      -0.480225       -13.0676
  25   1.0000      -0.452107       -12.3025
  26   1.0000      -0.373225       -10.1560
  27   1.0000      -0.352682        -9.5970
  28   0.0000       0.018232         0.4961
  29   0.0000       0.025619         0.6971
  30   0.0000       0.034975         0.9517
  31   0.0000       0.040159         1.0928
  32   0.0000       0.043552         1.1851

MULLIKEN ATOMIC CHARGES AND SPIN POPULATIONS
--------------------------------------------
   0 Si:    0.705573    0.942859
   1 S :   -0.403365   -0.034842
   2 H :   -0.172058    0.020803
   3 H :   -0.191808    0.013840
   4 S :    0.050579    0.060250
   5 C :   -0.895993   -0.008193
   6 H :    0.331323    0.000167
   7 H :    0.297649    0.006163
   8 H :    0.278101   -0.001047
Sum of atomic charges         :   -0.0000000

LOEWDIN ATOMIC CHARGES AND SPIN POPULATIONS
-------------------------------------------
   0 Si:    0.420687    0.559943
   1 S :    0.461197    0.119832
   2 H :   -0.399060    0.128615
   3 H :   -0.392155    0.124424
   4 S :    0.669577    0.052206
   5 C :    0.435480    0.010405
   6 H :   -0.399875    0.001988
   7 H :   -0.405522    0.002197
   8 H :   -0.390329    0.000388

  Mayer bond orders larger than 0.100000
B(  0-Si,  1-S ) :   0.8097 B(  0-Si,  2-H ) :   0.8840 B(  0-Si,  3-H ) :   0.8798
B(  1-S ,  4-S ) :   1.0801 B(  4-S ,  5-C ) :   0.9911 B(  5-C ,  6-H ) :   0.8537
B(  5-C ,  7-H ) :   0.8913 B(  5-C ,  8-H ) :   0.9184

MP2 TOTAL ENERGY:    -1125.523694477 Eh
FINAL SINGLE POINT ENERGY     -1125.523694476598

DIPOLE MOMENT
-------------
                                X             Y             Z
Electronic contribution:     -2.81226      -4.75616       1.00558
Nuclear contribution   :      3.02308       5.38643      -1.29366
                        -----------------------------------------
Total Dipole Moment    :      0.21082       0.63027      -0.28807
                        -----------------------------------------
Magnitude (a.u.)       :      0.72434
Magnitude (Debye)      :      1.84113

Rotational constants in cm-1:     0.199791     0.068996     0.061997
Rotational constants in MHz :  5989.576639  2068.451630  1858.631246

                             ****ORCA TERMINATED NORMALLY****
TOTAL RUN TIME: 0 days 0 hours 41 minutes 2 seconds 20 msec
