                         Program Version 5.0.4 -  RELEASE  -
|  1> ! ri-mp2 aug-cc-pvdz aug-cc-pvdz/c tightscf
|  2> %pal nprocs 16 end
|  3> %maxcore 3800
|  4> %base "DZ_B-Cl_25_AB"
|  5> %scf
|  6> STABPerform true
|  7> STABRestartUHFifUnstable true
|  8> end
|  9>
| 10> *xyz 0 1
| 11> Cl         1.549641   -1.510276   -0.119902
| 12> Cl         1.549644    1.510275   -0.119900
| 13> B         0.713594    0.000000    0.020538
| 14> C        -0.836469    0.000001    0.351481
| 15> O        -1.242838   -0.000003    1.483548
| 16> O        -1.620535    0.000003   -0.727179
| 17> C        -3.032637    0.000001   -0.481449
| 18> H        -3.500567    0.000002   -1.460232
| 19> H        -3.316813    0.886730    0.081525
| 20> H        -3.316811   -0.886728    0.081524
| 21> *
| 22>
| 23> $new_job
| 24> ! ri-mp2 aug-cc-pvtz aug-cc-pvtz/c tightscf
| 25> %pal nprocs 16 end
| 26> %maxcore 3800
| 27> %base "TZ_B-Cl_25_AB"
| 28>
| 29> *xyz 0 1
| 30> Cl         1.549641   -1.510276   -0.119902
| 31> Cl         1.549644    1.510275   -0.119900
| 32> B         0.713594    0.000000    0.020538
| 33> C        -0.836469    0.000001    0.351481
| 34> O        -1.242838   -0.000003    1.483548
| 35> O        -1.620535    0.000003   -0.727179
| 36> C        -3.032637    0.000001   -0.481449
| 37> H        -3.500567    0.000002   -1.460232
| 38> H        -3.316813    0.886730    0.081525
| 39> H        -3.316811   -0.886728    0.081524
| 40> *
| 41>
| 42> $new_job
| 43> ! ri-mp2 aug-cc-pvqz aug-cc-pvqz/c tightscf
| 44> %pal nprocs 16 end
| 45> %maxcore 3800
| 46> %base "QZ_B-Cl_25_AB"
| 47>
| 48> *xyz 0 1
| 49> Cl         1.549641   -1.510276   -0.119902
| 50> Cl         1.549644    1.510275   -0.119900
| 51> B         0.713594    0.000000    0.020538
| 52> C        -0.836469    0.000001    0.351481
| 53> O        -1.242838   -0.000003    1.483548
| 54> O        -1.620535    0.000003   -0.727179
| 55> C        -3.032637    0.000001   -0.481449
| 56> H        -3.500567    0.000002   -1.460232
| 57> H        -3.316813    0.886730    0.081525
| 58> H        -3.316811   -0.886728    0.081524
| 59> *
| 60>
| 61>
| 62>
| 63>
| 64>                          ****END OF INPUT****
 Total Charge           Charge          ....    0
 Multiplicity           Mult            ....    1
 Number of Electrons    NEL             ....   70
MP2 TOTAL ENERGY:    -1172.061813412 Eh
FINAL SINGLE POINT ENERGY     -1172.061813411590
MP2 TOTAL ENERGY:    -1172.396359510 Eh
FINAL SINGLE POINT ENERGY     -1172.396359509744

CARTESIAN COORDINATES (ANGSTROEM)
---------------------------------
  Cl     1.549641   -1.510276   -0.119902
  Cl     1.549644    1.510275   -0.119900
  B      0.713594    0.000000    0.020538
  C     -0.836469    0.000001    0.351481
  O     -1.242838   -0.000003    1.483548
  O     -1.620535    0.000003   -0.727179
  C     -3.032637    0.000001   -0.481449
  H     -3.500567    0.000002   -1.460232
  H     -3.316813    0.886730    0.081525
  H     -3.316811   -0.886728    0.081524

 Multiplicity           Mult            ....    1
 Number of Electrons    NEL             ....   70
 Basis Dimension        Dim             ....  706

ORBITAL ENERGIES
----------------

  NO   OCC          E(Eh)            E(eV)
   0   2.0000    -104.861371     -2853.4230
   1   2.0000    -104.861370     -2853.4230
   2   2.0000     -20.618860      -561.0677
   3   2.0000     -20.561404      -559.5043
   4   2.0000     -11.379518      -309.6524
   5   2.0000     -11.295193      -307.3578
   6   2.0000     -10.589066      -288.1431
   7   2.0000     -10.589058      -288.1429
   8   2.0000      -8.055890      -219.2119
   9   2.0000      -8.055890      -219.2119
  10   2.0000      -8.054768      -219.1814
  11   2.0000      -8.054766      -219.1813
  12   2.0000      -8.054481      -219.1736
  13   2.0000      -8.054480      -219.1736
  14   2.0000      -7.736604      -210.5237
  15   2.0000      -1.479343       -40.2550
  16   2.0000      -1.377915       -37.4950
  17   2.0000      -1.165581       -31.7171
  18   2.0000      -1.121870       -30.5276
  19   2.0000      -0.997958       -27.1558
  20   2.0000      -0.833514       -22.6811
  21   2.0000      -0.760292       -20.6886
  22   2.0000      -0.691232       -18.8094
  23   2.0000      -0.688039       -18.7225
  24   2.0000      -0.665016       -18.0960
  25   2.0000      -0.602659       -16.3992
  26   2.0000      -0.602111       -16.3843
  27   2.0000      -0.553518       -15.0620
  28   2.0000      -0.545729       -14.8500
  29   2.0000      -0.536321       -14.5940
  30   2.0000      -0.511437       -13.9169
  31   2.0000      -0.487326       -13.2608
  32   2.0000      -0.476656       -12.9705
  33   2.0000      -0.473143       -12.8749
  34   2.0000      -0.442328       -12.0363
  35   0.0000       0.024327         0.6620
  36   0.0000       0.034911         0.9500
  37   0.0000       0.035974         0.9789
  38   0.0000       0.038033         1.0349
  39   0.0000       0.049478         1.3464

MULLIKEN ATOMIC CHARGES
-----------------------
   0 Cl:   -0.201679
   1 Cl:   -0.201679
   2 B :    0.679594
   3 C :    0.929236
   4 O :   -0.798207
   5 O :   -0.735905
   6 C :   -0.692296
   7 H :    0.426924
   8 H :    0.297005
   9 H :    0.297006
Sum of atomic charges:   -0.0000000

LOEWDIN ATOMIC CHARGES
----------------------
   0 Cl:    1.278806
   1 Cl:    1.278806
   2 B :   -2.449185
   3 C :   -1.209030
   4 O :    0.674701
   5 O :    0.799400
   6 C :    0.578983
   7 H :   -0.322080
   8 H :   -0.315200
   9 H :   -0.315202

  Mayer bond orders larger than 0.100000
B(  0-Cl,  2-B ) :   1.0668 B(  1-Cl,  2-B ) :   1.0668 B(  2-B ,  3-C ) :   0.8948
B(  3-C ,  4-O ) :   1.4503 B(  3-C ,  5-O ) :   0.9169 B(  5-O ,  6-C ) :   0.9012
B(  6-C ,  7-H ) :   0.8249 B(  6-C ,  8-H ) :   0.9111 B(  6-C ,  9-H ) :   0.9111

MP2 TOTAL ENERGY:    -1172.508053481 Eh
FINAL SINGLE POINT ENERGY     -1172.508053481110

DIPOLE MOMENT
-------------
                                X             Y             Z
Electronic contribution:     13.75113      -0.00000       0.18980
Nuclear contribution   :    -14.18541       0.00001      -0.89543
                        -----------------------------------------
Total Dipole Moment    :     -0.43428       0.00000      -0.70562
                        -----------------------------------------
Magnitude (a.u.)       :      0.82856
Magnitude (Debye)      :      2.10602

Rotational constants in cm-1:     0.078642     0.037848     0.030228
Rotational constants in MHz :  2357.617406  1134.648688   906.218135

                             ****ORCA TERMINATED NORMALLY****
TOTAL RUN TIME: 0 days 0 hours 36 minutes 43 seconds 790 msec
