                         Program Version 5.0.4 -  RELEASE  -
|  1> ! ri-mp2 aug-cc-pvdz aug-cc-pvdz/c tightscf
|  2> %pal nprocs 16 end
|  3> %maxcore 3800
|  4> %base "DZ_Si-Si_151_A"
|  5> %scf
|  6> STABPerform true
|  7> STABRestartUHFifUnstable true
|  8> end
|  9>
| 10> *xyz 0 2
| 11> Si         1.487933    0.000000   -0.073502
| 12> B        -0.510606    0.000000    0.010763
| 13> H         2.173314    1.219259    0.405410
| 14> H         2.173314   -1.219259    0.405409
| 15> O        -1.149983   -1.204433    0.009332
| 16> O        -1.149982    1.204433    0.009332
| 17> H        -2.112466   -1.182722    0.007539
| 18> H        -2.112465    1.182723    0.007540
| 19> *
| 20>
| 21> $new_job
| 22> ! ri-mp2 aug-cc-pvtz aug-cc-pvtz/c tightscf
| 23> %pal nprocs 16 end
| 24> %maxcore 3800
| 25> %base "TZ_Si-Si_151_A"
| 26>
| 27> *xyz 0 2
| 28> Si         1.487933    0.000000   -0.073502
| 29> B        -0.510606    0.000000    0.010763
| 30> H         2.173314    1.219259    0.405410
| 31> H         2.173314   -1.219259    0.405409
| 32> O        -1.149983   -1.204433    0.009332
| 33> O        -1.149982    1.204433    0.009332
| 34> H        -2.112466   -1.182722    0.007539
| 35> H        -2.112465    1.182723    0.007540
| 36> *
| 37>
| 38> $new_job
| 39> ! ri-mp2 aug-cc-pvqz aug-cc-pvqz/c tightscf
| 40> %pal nprocs 16 end
| 41> %maxcore 3800
| 42> %base "QZ_Si-Si_151_A"
| 43>
| 44> *xyz 0 2
| 45> Si         1.487933    0.000000   -0.073502
| 46> B        -0.510606    0.000000    0.010763
| 47> H         2.173314    1.219259    0.405410
| 48> H         2.173314   -1.219259    0.405409
| 49> O        -1.149983   -1.204433    0.009332
| 50> O        -1.149982    1.204433    0.009332
| 51> H        -2.112466   -1.182722    0.007539
| 52> H        -2.112465    1.182723    0.007540
| 53> *
| 54>
| 55>
| 56>
| 57>
| 58>                          ****END OF INPUT****
 Total Charge           Charge          ....    0
 Multiplicity           Mult            ....    2
 Number of Electrons    NEL             ....   39
MP2 TOTAL ENERGY:     -466.329938737 Eh
FINAL SINGLE POINT ENERGY      -466.329938736935
MP2 TOTAL ENERGY:     -466.515410580 Eh
FINAL SINGLE POINT ENERGY      -466.515410579695

CARTESIAN COORDINATES (ANGSTROEM)
---------------------------------
  Si     1.487933    0.000000   -0.073502
  B     -0.510606    0.000000    0.010763
  H      2.173314    1.219259    0.405410
  H      2.173314   -1.219259    0.405409
  O     -1.149983   -1.204433    0.009332
  O     -1.149982    1.204433    0.009332
  H     -2.112466   -1.182722    0.007539
  H     -2.112465    1.182723    0.007540

 Multiplicity           Mult            ....    2
 Number of Electrons    NEL             ....   39
 Basis Dimension        Dim             ....  508

ORBITAL ENERGIES
----------------
                 SPIN UP ORBITALS
  NO   OCC          E(Eh)            E(eV)
   0   1.0000     -68.757476     -1870.9860
   1   1.0000     -20.581096      -560.0401
   2   1.0000     -20.581075      -560.0395
   3   1.0000      -7.652387      -208.2320
   4   1.0000      -6.110215      -166.2674
   5   1.0000      -4.223744      -114.9339
   6   1.0000      -4.213348      -114.6510
   7   1.0000      -4.212836      -114.6371
   8   1.0000      -1.397907       -38.0390
   9   1.0000      -1.358811       -36.9751
  10   1.0000      -0.799972       -21.7683
  11   1.0000      -0.750047       -20.4098
  12   1.0000      -0.696107       -18.9420
  13   1.0000      -0.642741       -17.4899
  14   1.0000      -0.588022       -16.0009
  15   1.0000      -0.543925       -14.8009
  16   1.0000      -0.519781       -14.1440
  17   1.0000      -0.476027       -12.9533
  18   1.0000      -0.439788       -11.9672
  19   1.0000      -0.306234        -8.3330
  20   0.0000       0.015572         0.4237
  21   0.0000       0.033798         0.9197
  22   0.0000       0.039301         1.0694
  23   0.0000       0.040546         1.1033
  24   0.0000       0.053980         1.4689

                 SPIN DOWN ORBITALS
  NO   OCC          E(Eh)            E(eV)
   0   1.0000     -68.752084     -1870.8393
   1   1.0000     -20.580562      -560.0256
   2   1.0000     -20.580540      -560.0250
   3   1.0000      -7.652721      -208.2411
   4   1.0000      -6.102319      -166.0525
   5   1.0000      -4.209480      -114.5458
   6   1.0000      -4.209221      -114.5387
   7   1.0000      -4.201050      -114.3164
   8   1.0000      -1.396593       -38.0032
   9   1.0000      -1.357356       -36.9355
  10   1.0000      -0.793585       -21.5945
  11   1.0000      -0.749778       -20.4025
  12   1.0000      -0.664024       -18.0690
  13   1.0000      -0.633295       -17.2328
  14   1.0000      -0.582738       -15.8571
  15   1.0000      -0.543402       -14.7867
  16   1.0000      -0.514683       -14.0052
  17   1.0000      -0.473403       -12.8820
  18   1.0000      -0.432994       -11.7824
  19   0.0000       0.015621         0.4251
  20   0.0000       0.029152         0.7933
  21   0.0000       0.035490         0.9657
  22   0.0000       0.039354         1.0709
  23   0.0000       0.046149         1.2558

MULLIKEN ATOMIC CHARGES AND SPIN POPULATIONS
--------------------------------------------
   0 Si:    0.397109    1.052281
   1 B :    1.271166   -0.026788
   2 H :   -0.185124   -0.016105
   3 H :   -0.185124   -0.016105
   4 O :   -1.001586    0.004075
   5 O :   -1.001586    0.004075
   6 H :    0.352573   -0.000716
   7 H :    0.352573   -0.000716
Sum of atomic charges         :    0.0000000

LOEWDIN ATOMIC CHARGES AND SPIN POPULATIONS
-------------------------------------------
   0 Si:    1.173387    0.499446
   1 B :   -1.349096    0.198194
   2 H :   -0.379828    0.131031
   3 H :   -0.379828    0.131031
   4 O :    1.265041    0.019359
   5 O :    1.265041    0.019359
   6 H :   -0.797359    0.000791
   7 H :   -0.797359    0.000791

  Mayer bond orders larger than 0.100000
B(  0-Si,  1-B ) :   0.9139 B(  0-Si,  2-H ) :   0.9157 B(  0-Si,  3-H ) :   0.9157
B(  1-B ,  4-O ) :   0.4332 B(  1-B ,  5-O ) :   0.4332 B(  4-O ,  6-H ) :   0.9399
B(  5-O ,  7-H ) :   0.9399

MP2 TOTAL ENERGY:     -466.576763968 Eh
FINAL SINGLE POINT ENERGY      -466.576763967889

DIPOLE MOMENT
-------------
                                X             Y             Z
Electronic contribution:     -1.62734       0.00000      -0.74486
Nuclear contribution   :      0.39744       0.00000       0.80354
                        -----------------------------------------
Total Dipole Moment    :     -1.22990       0.00000       0.05867
                        -----------------------------------------
Magnitude (a.u.)       :      1.23130
Magnitude (Debye)      :      3.12971

Rotational constants in cm-1:     0.319943     0.133462     0.094658
Rotational constants in MHz :  9591.650231  4001.103923  2837.761630

                             ****ORCA TERMINATED NORMALLY****
TOTAL RUN TIME: 0 days 0 hours 24 minutes 59 seconds 123 msec
