                         Program Version 5.0.4 -  RELEASE  -
|  1> ! ri-mp2 aug-cc-pvdz aug-cc-pvdz/c tightscf
|  2> %pal nprocs 16 end
|  3> %maxcore 3800
|  4> %base "DZ_Si-Cl_40_AB"
|  5>
|  6> *xyz 0 1
|  7> C         3.385418    0.258233   -0.028685
|  8> C         2.842451   -0.997235   -0.243368
|  9> C         1.469826   -1.171571   -0.216888
| 10> C         2.553412    1.339816    0.207631
| 11> C         1.181301    1.163865    0.230454
| 12> C         0.618480   -0.093637    0.022540
| 13> H         4.458626    0.395392   -0.050770
| 14> H         3.489884   -1.842677   -0.435113
| 15> H         1.052699   -2.154091   -0.394880
| 16> H         2.974403    2.323473    0.368333
| 17> H         0.541342    2.020842    0.399125
| 18> Si        -1.200184   -0.374505    0.117771
| 19> Cl        -2.182767    1.315344   -0.551661
| 20> O        -1.776649   -0.680111    1.613912
| 21> H        -2.024125    0.050360    2.183259
| 22> O        -1.536311   -1.670354   -0.799331
| 23> H        -2.384850   -2.104188   -0.687266
| 24> *
| 25>
| 26> $new_job
| 27> ! ri-mp2 aug-cc-pvtz aug-cc-pvtz/c tightscf
| 28> %pal nprocs 16 end
| 29> %maxcore 3800
| 30> %base "TZ_Si-Cl_40_AB"
| 31>
| 32> *xyz 0 1
| 33> C         3.385418    0.258233   -0.028685
| 34> C         2.842451   -0.997235   -0.243368
| 35> C         1.469826   -1.171571   -0.216888
| 36> C         2.553412    1.339816    0.207631
| 37> C         1.181301    1.163865    0.230454
| 38> C         0.618480   -0.093637    0.022540
| 39> H         4.458626    0.395392   -0.050770
| 40> H         3.489884   -1.842677   -0.435113
| 41> H         1.052699   -2.154091   -0.394880
| 42> H         2.974403    2.323473    0.368333
| 43> H         0.541342    2.020842    0.399125
| 44> Si        -1.200184   -0.374505    0.117771
| 45> Cl        -2.182767    1.315344   -0.551661
| 46> O        -1.776649   -0.680111    1.613912
| 47> H        -2.024125    0.050360    2.183259
| 48> O        -1.536311   -1.670354   -0.799331
| 49> H        -2.384850   -2.104188   -0.687266
| 50> *
| 51>
| 52> $new_job
| 53> ! ri-mp2 aug-cc-pvqz aug-cc-pvqz/c tightscf
| 54> %pal nprocs 16 end
| 55> %maxcore 3800
| 56> %base "QZ_Si-Cl_40_AB"
| 57>
| 58> *xyz 0 1
| 59> C         3.385418    0.258233   -0.028685
| 60> C         2.842451   -0.997235   -0.243368
| 61> C         1.469826   -1.171571   -0.216888
| 62> C         2.553412    1.339816    0.207631
| 63> C         1.181301    1.163865    0.230454
| 64> C         0.618480   -0.093637    0.022540
| 65> H         4.458626    0.395392   -0.050770
| 66> H         3.489884   -1.842677   -0.435113
| 67> H         1.052699   -2.154091   -0.394880
| 68> H         2.974403    2.323473    0.368333
| 69> H         0.541342    2.020842    0.399125
| 70> Si        -1.200184   -0.374505    0.117771
| 71> Cl        -2.182767    1.315344   -0.551661
| 72> O        -1.776649   -0.680111    1.613912
| 73> H        -2.024125    0.050360    2.183259
| 74> O        -1.536311   -1.670354   -0.799331
| 75> H        -2.384850   -2.104188   -0.687266
| 76> *
| 77>
| 78>
| 79>
| 80>
| 81>                          ****END OF INPUT****
 Total Charge           Charge          ....    0
 Multiplicity           Mult            ....    1
 Number of Electrons    NEL             ....   90
MP2 TOTAL ENERGY:    -1131.116477129 Eh
FINAL SINGLE POINT ENERGY     -1131.116477128691
MP2 TOTAL ENERGY:    -1131.558995403 Eh
FINAL SINGLE POINT ENERGY     -1131.558995403112

CARTESIAN COORDINATES (ANGSTROEM)
---------------------------------
  C      3.385418    0.258233   -0.028685
  C      2.842451   -0.997235   -0.243368
  C      1.469826   -1.171571   -0.216888
  C      2.553412    1.339816    0.207631
  C      1.181301    1.163865    0.230454
  C      0.618480   -0.093637    0.022540
  H      4.458626    0.395392   -0.050770
  H      3.489884   -1.842677   -0.435113
  H      1.052699   -2.154091   -0.394880
  H      2.974403    2.323473    0.368333
  H      0.541342    2.020842    0.399125
  Si    -1.200184   -0.374505    0.117771
  Cl    -2.182767    1.315344   -0.551661
  O     -1.776649   -0.680111    1.613912
  H     -2.024125    0.050360    2.183259
  O     -1.536311   -1.670354   -0.799331
  H     -2.384850   -2.104188   -0.687266

 Multiplicity           Mult            ....    1
 Number of Electrons    NEL             ....   90
 Basis Dimension        Dim             .... 1130

ORBITAL ENERGIES
----------------

  NO   OCC          E(Eh)            E(eV)
   0   2.0000    -104.822113     -2852.3547
   1   2.0000     -68.840239     -1873.2381
   2   2.0000     -20.567514      -559.6705
   3   2.0000     -20.567162      -559.6609
   4   2.0000     -11.242710      -305.9297
   5   2.0000     -11.241838      -305.9060
   6   2.0000     -11.241379      -305.8935
   7   2.0000     -11.235741      -305.7401
   8   2.0000     -11.235142      -305.7237
   9   2.0000     -11.224796      -305.4422
  10   2.0000     -10.549982      -287.0796
  11   2.0000      -8.016752      -218.1469
  12   2.0000      -8.015754      -218.1198
  13   2.0000      -8.015729      -218.1191
  14   2.0000      -6.178760      -168.1326
  15   2.0000      -4.287273      -116.6626
  16   2.0000      -4.286475      -116.6409
  17   2.0000      -4.285443      -116.6128
  18   2.0000      -1.371567       -37.3222
  19   2.0000      -1.345279       -36.6069
  20   2.0000      -1.160954       -31.5912
  21   2.0000      -1.093023       -29.7427
  22   2.0000      -1.023574       -27.8529
  23   2.0000      -1.022190       -27.8152
  24   2.0000      -0.835866       -22.7451
  25   2.0000      -0.831968       -22.6390
  26   2.0000      -0.773168       -21.0390
  27   2.0000      -0.723377       -19.6841
  28   2.0000      -0.707042       -19.2396
  29   2.0000      -0.644925       -17.5493
  30   2.0000      -0.632735       -17.2176
  31   2.0000      -0.616789       -16.7837
  32   2.0000      -0.596462       -16.2306
  33   2.0000      -0.593478       -16.1494
  34   2.0000      -0.566731       -15.4215
  35   2.0000      -0.552196       -15.0260
  36   2.0000      -0.540217       -14.7001
  37   2.0000      -0.517896       -14.0927
  38   2.0000      -0.510339       -13.8870
  39   2.0000      -0.498659       -13.5692
  40   2.0000      -0.470583       -12.8052
  41   2.0000      -0.464267       -12.6333
  42   2.0000      -0.452459       -12.3120
  43   2.0000      -0.348073        -9.4715
  44   2.0000      -0.344072        -9.3627
  45   0.0000       0.020866         0.5678
  46   0.0000       0.028081         0.7641
  47   0.0000       0.029273         0.7966
  48   0.0000       0.038944         1.0597
  49   0.0000       0.041376         1.1259

MULLIKEN ATOMIC CHARGES
-----------------------
   0 C :   -0.324902
   1 C :   -0.295444
   2 C :   -0.405910
   3 C :   -0.265744
   4 C :   -0.494665
   5 C :   -0.090098
   6 H :    0.362121
   7 H :    0.251647
   8 H :    0.319037
   9 H :    0.246579
  10 H :    0.362680
  11 Si:    2.368380
  12 Cl:   -0.710680
  13 O :   -1.054815
  14 H :    0.393922
  15 O :   -1.041297
  16 H :    0.379188
Sum of atomic charges:    0.0000000

LOEWDIN ATOMIC CHARGES
----------------------
   0 C :    0.337875
   1 C :    0.345831
   2 C :    0.269385
   3 C :    0.341724
   4 C :    0.237581
   5 C :   -0.093166
   6 H :   -0.317487
   7 H :   -0.319414
   8 H :   -0.339577
   9 H :   -0.320141
  10 H :   -0.363137
  11 Si:   -1.229793
  12 Cl:    1.001396
  13 O :    1.102679
  14 H :   -0.896467
  15 O :    1.110085
  16 H :   -0.867375

  Mayer bond orders larger than 0.100000
B(  0-C ,  1-C ) :   1.1696 B(  0-C ,  3-C ) :   1.1311 B(  0-C ,  6-H ) :   0.9668
B(  1-C ,  2-C ) :   1.2989 B(  1-C ,  4-C ) :   0.1452 B(  1-C ,  5-C ) :  -0.2864
B(  1-C ,  7-H ) :   1.1106 B(  2-C ,  3-C ) :   0.1380 B(  2-C ,  5-C ) :   0.8592
B(  2-C ,  7-H ) :  -0.1357 B(  2-C ,  8-H ) :   0.9234 B(  2-C , 11-Si) :  -0.1116
B(  3-C ,  4-C ) :   1.2722 B(  3-C ,  5-C ) :  -0.2631 B(  3-C ,  9-H ) :   1.1186
B(  4-C ,  5-C ) :   1.0351 B(  4-C ,  9-H ) :  -0.1355 B(  4-C , 10-H ) :   0.9163
B(  5-C ,  8-H ) :  -0.1235 B(  5-C , 10-H ) :  -0.1185 B(  5-C , 11-Si) :   1.0667
B( 11-Si, 12-Cl) :   0.2768 B( 11-Si, 13-O ) :   0.6163 B( 11-Si, 15-O ) :   0.4306
B( 13-O , 14-H ) :   0.8544 B( 15-O , 16-H ) :   0.8895

MP2 TOTAL ENERGY:    -1131.702791588 Eh
FINAL SINGLE POINT ENERGY     -1131.702791587676

DIPOLE MOMENT
-------------
                                X             Y             Z
Electronic contribution:    -10.68633       3.09478      -1.64944
Nuclear contribution   :     10.88856      -3.10359       2.10739
                        -----------------------------------------
Total Dipole Moment    :      0.20224      -0.00881       0.45796
                        -----------------------------------------
Magnitude (a.u.)       :      0.50070
Magnitude (Debye)      :      1.27268

Rotational constants in cm-1:     0.060662     0.021581     0.018389
Rotational constants in MHz :  1818.605163   646.995101   551.282014

                             ****ORCA TERMINATED NORMALLY****
TOTAL RUN TIME: 0 days 0 hours 39 minutes 41 seconds 980 msec
