                         Program Version 5.0.4 -  RELEASE  -
|  1> ! ri-mp2 aug-cc-pvdz aug-cc-pvdz/c tightscf
|  2> %pal nprocs 16 end
|  3> %maxcore 3800
|  4> %base "DZ_Si-Si_65_AB"
|  5> %scf
|  6> STABPerform true
|  7> STABRestartUHFifUnstable true
|  8> end
|  9>
| 10> *xyz 0 1
| 11> Si         0.391937    0.746662    0.128730
| 12> Si         2.424862   -0.400943    0.021723
| 13> O        -0.729809   -0.370951   -0.419590
| 14> H         0.389001    1.950845   -0.729514
| 15> H         0.060709    1.158585    1.512028
| 16> H         3.500196    0.496093    0.504411
| 17> H         2.728805   -0.803755   -1.368193
| 18> H         2.389661   -1.604334    0.881104
| 19> O        -2.011077    0.297006   -0.392780
| 20> C        -2.874416   -0.540140    0.339726
| 21> H        -3.839490   -0.034915    0.316093
| 22> H        -2.536999   -0.650385    1.372687
| 23> H        -2.953477   -1.519796   -0.134353
| 24> *
| 25>
| 26> $new_job
| 27> ! ri-mp2 aug-cc-pvtz aug-cc-pvtz/c tightscf
| 28> %pal nprocs 16 end
| 29> %maxcore 3800
| 30> %base "TZ_Si-Si_65_AB"
| 31>
| 32> *xyz 0 1
| 33> Si         0.391937    0.746662    0.128730
| 34> Si         2.424862   -0.400943    0.021723
| 35> O        -0.729809   -0.370951   -0.419590
| 36> H         0.389001    1.950845   -0.729514
| 37> H         0.060709    1.158585    1.512028
| 38> H         3.500196    0.496093    0.504411
| 39> H         2.728805   -0.803755   -1.368193
| 40> H         2.389661   -1.604334    0.881104
| 41> O        -2.011077    0.297006   -0.392780
| 42> C        -2.874416   -0.540140    0.339726
| 43> H        -3.839490   -0.034915    0.316093
| 44> H        -2.536999   -0.650385    1.372687
| 45> H        -2.953477   -1.519796   -0.134353
| 46> *
| 47>
| 48> $new_job
| 49> ! ri-mp2 aug-cc-pvqz aug-cc-pvqz/c tightscf
| 50> %pal nprocs 16 end
| 51> %maxcore 3800
| 52> %base "QZ_Si-Si_65_AB"
| 53>
| 54> *xyz 0 1
| 55> Si         0.391937    0.746662    0.128730
| 56> Si         2.424862   -0.400943    0.021723
| 57> O        -0.729809   -0.370951   -0.419590
| 58> H         0.389001    1.950845   -0.729514
| 59> H         0.060709    1.158585    1.512028
| 60> H         3.500196    0.496093    0.504411
| 61> H         2.728805   -0.803755   -1.368193
| 62> H         2.389661   -1.604334    0.881104
| 63> O        -2.011077    0.297006   -0.392780
| 64> C        -2.874416   -0.540140    0.339726
| 65> H        -3.839490   -0.034915    0.316093
| 66> H        -2.536999   -0.650385    1.372687
| 67> H        -2.953477   -1.519796   -0.134353
| 68> *
| 69>
| 70>
| 71>
| 72>
| 73>                          ****END OF INPUT****
 Total Charge           Charge          ....    0
 Multiplicity           Mult            ....    1
 Number of Electrons    NEL             ....   58
MP2 TOTAL ENERGY:     -770.812784733 Eh
FINAL SINGLE POINT ENERGY      -770.812784733471
MP2 TOTAL ENERGY:     -771.059086421 Eh
FINAL SINGLE POINT ENERGY      -771.059086421115

CARTESIAN COORDINATES (ANGSTROEM)
---------------------------------
  Si     0.391937    0.746662    0.128730
  Si     2.424862   -0.400943    0.021723
  O     -0.729809   -0.370951   -0.419590
  H      0.389001    1.950845   -0.729514
  H      0.060709    1.158585    1.512028
  H      3.500196    0.496093    0.504411
  H      2.728805   -0.803755   -1.368193
  H      2.389661   -1.604334    0.881104
  O     -2.011077    0.297006   -0.392780
  C     -2.874416   -0.540140    0.339726
  H     -3.839490   -0.034915    0.316093
  H     -2.536999   -0.650385    1.372687
  H     -2.953477   -1.519796   -0.134353

 Multiplicity           Mult            ....    1
 Number of Electrons    NEL             ....   58
 Basis Dimension        Dim             ....  776

ORBITAL ENERGIES
----------------

  NO   OCC          E(Eh)            E(eV)
   0   2.0000     -68.793749     -1871.9731
   1   2.0000     -68.767871     -1871.2689
   2   2.0000     -20.629846      -561.3666
   3   2.0000     -20.604756      -560.6839
   4   2.0000     -11.281871      -306.9953
   5   2.0000      -6.140008      -167.0781
   6   2.0000      -6.119011      -166.5068
   7   2.0000      -4.246745      -115.5598
   8   2.0000      -4.246309      -115.5479
   9   2.0000      -4.246014      -115.5399
  10   2.0000      -4.225152      -114.9722
  11   2.0000      -4.225052      -114.9695
  12   2.0000      -4.225033      -114.9690
  13   2.0000      -1.474426       -40.1212
  14   2.0000      -1.219308       -33.1791
  15   2.0000      -0.922982       -25.1156
  16   2.0000      -0.763113       -20.7654
  17   2.0000      -0.709705       -19.3121
  18   2.0000      -0.675129       -18.3712
  19   2.0000      -0.661194       -17.9920
  20   2.0000      -0.632697       -17.2165
  21   2.0000      -0.562241       -15.2994
  22   2.0000      -0.542950       -14.7744
  23   2.0000      -0.517242       -14.0749
  24   2.0000      -0.488514       -13.2932
  25   2.0000      -0.486562       -13.2400
  26   2.0000      -0.469931       -12.7875
  27   2.0000      -0.442643       -12.0449
  28   2.0000      -0.404909       -11.0181
  29   0.0000       0.025518         0.6944
  30   0.0000       0.030460         0.8289
  31   0.0000       0.035425         0.9640
  32   0.0000       0.039999         1.0884
  33   0.0000       0.044443         1.2093

MULLIKEN ATOMIC CHARGES
-----------------------
   0 Si:    1.081822
   1 Si:    0.343891
   2 O :   -0.618675
   3 H :   -0.197480
   4 H :   -0.207542
   5 H :   -0.154650
   6 H :   -0.129703
   7 H :   -0.137222
   8 O :   -0.427331
   9 C :   -0.561641
  10 H :    0.414736
  11 H :    0.303766
  12 H :    0.290029
Sum of atomic charges:    0.0000000

LOEWDIN ATOMIC CHARGES
----------------------
   0 Si:    0.294779
   1 Si:    1.045836
   2 O :    0.256619
   3 H :   -0.277599
   4 H :   -0.273995
   5 H :   -0.325998
   6 H :   -0.320161
   7 H :   -0.320436
   8 O :    0.442251
   9 C :    0.478809
  10 H :   -0.343867
  11 H :   -0.328652
  12 H :   -0.327585

  Mayer bond orders larger than 0.100000
B(  0-Si,  1-Si) :   0.8202 B(  0-Si,  2-O ) :   0.4006 B(  0-Si,  3-H ) :   0.8744
B(  0-Si,  4-H ) :   0.8566 B(  1-Si,  5-H ) :   0.8031 B(  1-Si,  6-H ) :   0.7858
B(  1-Si,  7-H ) :   0.7807 B(  2-O ,  8-O ) :   0.7372 B(  8-O ,  9-C ) :   0.8361
B(  9-C , 10-H ) :   0.8263 B(  9-C , 11-H ) :   0.8870 B(  9-C , 12-H ) :   0.9129

MP2 TOTAL ENERGY:     -771.137933935 Eh
FINAL SINGLE POINT ENERGY      -771.137933934618

DIPOLE MOMENT
-------------
                                X             Y             Z
Electronic contribution:      0.24950       0.96543      -1.86660
Nuclear contribution   :     -0.47881      -1.03632       2.34704
                        -----------------------------------------
Total Dipole Moment    :     -0.22931      -0.07089       0.48044
                        -----------------------------------------
Magnitude (a.u.)       :      0.53706
Magnitude (Debye)      :      1.36510

Rotational constants in cm-1:     0.314898     0.040844     0.038610
Rotational constants in MHz :  9440.411813  1224.483228  1157.509247

                             ****ORCA TERMINATED NORMALLY****
TOTAL RUN TIME: 0 days 0 hours 48 minutes 26 seconds 904 msec
