                         Program Version 5.0.4 -  RELEASE  -
|  1> ! ri-mp2 aug-cc-pvdz aug-cc-pvdz/c tightscf
|  2> %pal nprocs 16 end
|  3> %maxcore 3800
|  4> %base "DZ_P-Si_24_A"
|  5> %scf
|  6> STABPerform true
|  7> STABRestartUHFifUnstable true
|  8> end
|  9>
| 10> *xyz 0 2
| 11> Si        -1.322829   -0.034925   -0.094618
| 12> C        -0.027715   -1.404033    0.103498
| 13> C        -0.084818    1.397301   -0.157810
| 14> C         1.229240    0.744320    0.306992
| 15> H        -0.374838    2.247438    0.458984
| 16> H         0.019432    1.766468   -1.180206
| 17> C         1.291285   -0.688319   -0.231690
| 18> H         1.249759    0.711211    1.399972
| 19> H         2.100489    1.321517   -0.008537
| 20> H         1.418894   -0.653665   -1.317488
| 21> H         2.154098   -1.222711    0.169675
| 22> H        -0.191504   -2.284683   -0.515235
| 23> H        -0.028022   -1.739453    1.144414
| 24> H        -2.276654    0.047218    1.047136
| 25> *
| 26>
| 27> $new_job
| 28> ! ri-mp2 aug-cc-pvtz aug-cc-pvtz/c tightscf
| 29> %pal nprocs 16 end
| 30> %maxcore 3800
| 31> %base "TZ_P-Si_24_A"
| 32>
| 33> *xyz 0 2
| 34> Si        -1.322829   -0.034925   -0.094618
| 35> C        -0.027715   -1.404033    0.103498
| 36> C        -0.084818    1.397301   -0.157810
| 37> C         1.229240    0.744320    0.306992
| 38> H        -0.374838    2.247438    0.458984
| 39> H         0.019432    1.766468   -1.180206
| 40> C         1.291285   -0.688319   -0.231690
| 41> H         1.249759    0.711211    1.399972
| 42> H         2.100489    1.321517   -0.008537
| 43> H         1.418894   -0.653665   -1.317488
| 44> H         2.154098   -1.222711    0.169675
| 45> H        -0.191504   -2.284683   -0.515235
| 46> H        -0.028022   -1.739453    1.144414
| 47> H        -2.276654    0.047218    1.047136
| 48> *
| 49>
| 50> $new_job
| 51> ! ri-mp2 aug-cc-pvqz aug-cc-pvqz/c tightscf
| 52> %pal nprocs 16 end
| 53> %maxcore 3800
| 54> %base "QZ_P-Si_24_A"
| 55>
| 56> *xyz 0 2
| 57> Si        -1.322829   -0.034925   -0.094618
| 58> C        -0.027715   -1.404033    0.103498
| 59> C        -0.084818    1.397301   -0.157810
| 60> C         1.229240    0.744320    0.306992
| 61> H        -0.374838    2.247438    0.458984
| 62> H         0.019432    1.766468   -1.180206
| 63> C         1.291285   -0.688319   -0.231690
| 64> H         1.249759    0.711211    1.399972
| 65> H         2.100489    1.321517   -0.008537
| 66> H         1.418894   -0.653665   -1.317488
| 67> H         2.154098   -1.222711    0.169675
| 68> H        -0.191504   -2.284683   -0.515235
| 69> H        -0.028022   -1.739453    1.144414
| 70> H        -2.276654    0.047218    1.047136
| 71> *
| 72>
| 73>
| 74>
| 75>
| 76>                          ****END OF INPUT****
 Total Charge           Charge          ....    0
 Multiplicity           Mult            ....    2
 Number of Electrons    NEL             ....   47
MP2 TOTAL ENERGY:     -446.300157800 Eh
FINAL SINGLE POINT ENERGY      -446.300157800221
MP2 TOTAL ENERGY:     -446.484158216 Eh
FINAL SINGLE POINT ENERGY      -446.484158216256

CARTESIAN COORDINATES (ANGSTROEM)
---------------------------------
  Si    -1.322829   -0.034925   -0.094618
  C     -0.027715   -1.404033    0.103498
  C     -0.084818    1.397301   -0.157810
  C      1.229240    0.744320    0.306992
  H     -0.374838    2.247438    0.458984
  H      0.019432    1.766468   -1.180206
  C      1.291285   -0.688319   -0.231690
  H      1.249759    0.711211    1.399972
  H      2.100489    1.321517   -0.008537
  H      1.418894   -0.653665   -1.317488
  H      2.154098   -1.222711    0.169675
  H     -0.191504   -2.284683   -0.515235
  H     -0.028022   -1.739453    1.144414
  H     -2.276654    0.047218    1.047136

 Multiplicity           Mult            ....    2
 Number of Electrons    NEL             ....   47
 Basis Dimension        Dim             ....  818

ORBITAL ENERGIES
----------------
                 SPIN UP ORBITALS
  NO   OCC          E(Eh)            E(eV)
   0   1.0000     -68.760329     -1871.0637
   1   1.0000     -11.221625      -305.3559
   2   1.0000     -11.220933      -305.3371
   3   1.0000     -11.204352      -304.8859
   4   1.0000     -11.204080      -304.8785
   5   1.0000      -6.110941      -166.2872
   6   1.0000      -4.223478      -114.9267
   7   1.0000      -4.213667      -114.6597
   8   1.0000      -4.213491      -114.6549
   9   1.0000      -1.084839       -29.5200
  10   1.0000      -0.962973       -26.2038
  11   1.0000      -0.879553       -23.9339
  12   1.0000      -0.774443       -21.0737
  13   1.0000      -0.672358       -18.2958
  14   1.0000      -0.631890       -17.1946
  15   1.0000      -0.607965       -16.5436
  16   1.0000      -0.578768       -15.7491
  17   1.0000      -0.523258       -14.2386
  18   1.0000      -0.491947       -13.3866
  19   1.0000      -0.476673       -12.9709
  20   1.0000      -0.465785       -12.6747
  21   1.0000      -0.439921       -11.9709
  22   1.0000      -0.409692       -11.1483
  23   1.0000      -0.310171        -8.4402
  24   0.0000       0.023699         0.6449
  25   0.0000       0.032565         0.8861
  26   0.0000       0.033434         0.9098
  27   0.0000       0.033725         0.9177
  28   0.0000       0.047307         1.2873

                 SPIN DOWN ORBITALS
  NO   OCC          E(Eh)            E(eV)
   0   1.0000     -68.754800     -1870.9132
   1   1.0000     -11.221380      -305.3493
   2   1.0000     -11.220770      -305.3327
   3   1.0000     -11.203482      -304.8623
   4   1.0000     -11.203364      -304.8590
   5   1.0000      -6.102421      -166.0553
   6   1.0000      -4.210183      -114.5649
   7   1.0000      -4.209769      -114.5536
   8   1.0000      -4.201560      -114.3303
   9   1.0000      -1.082110       -29.4457
  10   1.0000      -0.960333       -26.1320
  11   1.0000      -0.872903       -23.7529
  12   1.0000      -0.772857       -21.0305
  13   1.0000      -0.651992       -17.7416
  14   1.0000      -0.629566       -17.1314
  15   1.0000      -0.585999       -15.9458
  16   1.0000      -0.575547       -15.6614
  17   1.0000      -0.514555       -14.0018
  18   1.0000      -0.489990       -13.3333
  19   1.0000      -0.474823       -12.9206
  20   1.0000      -0.464440       -12.6381
  21   1.0000      -0.430015       -11.7013
  22   1.0000      -0.401571       -10.9273
  23   0.0000       0.023117         0.6291
  24   0.0000       0.030462         0.8289
  25   0.0000       0.032873         0.8945
  26   0.0000       0.033537         0.9126
  27   0.0000       0.047597         1.2952

MULLIKEN ATOMIC CHARGES AND SPIN POPULATIONS
--------------------------------------------
   0 Si:    0.559140    0.975670
   1 C :   -0.810036   -0.015517
   2 C :   -0.761450   -0.033138
   3 C :   -0.425038    0.012135
   4 H :    0.301131    0.000927
   5 H :    0.235156    0.012313
   6 C :   -0.443678    0.008358
   7 H :    0.210612   -0.002125
   8 H :    0.328446    0.005333
   9 H :    0.195645   -0.000916
  10 H :    0.329302    0.000928
  11 H :    0.325851   -0.002919
  12 H :    0.211908    0.013862
  13 H :   -0.256988    0.025089
Sum of atomic charges         :   -0.0000000

LOEWDIN ATOMIC CHARGES AND SPIN POPULATIONS
-------------------------------------------
   0 Si:    0.876278    0.532096
   1 C :    0.495089    0.120986
   2 C :    0.496218    0.119802
   3 C :    0.435904    0.016990
   4 H :   -0.338060    0.008170
   5 H :   -0.346965    0.018870
   6 C :    0.432591    0.016490
   7 H :   -0.278170    0.003314
   8 H :   -0.263580    0.002904
   9 H :   -0.279169    0.001289
  10 H :   -0.263682    0.001219
  11 H :   -0.341473    0.014691
  12 H :   -0.340076    0.012613
  13 H :   -0.284906    0.130566

  Mayer bond orders larger than 0.100000
B(  0-Si,  1-C ) :   0.7906 B(  0-Si,  2-C ) :   0.7550 B(  0-Si, 13-H ) :   0.9184
B(  1-C ,  3-C ) :  -0.1157 B(  1-C ,  6-C ) :   0.9409 B(  1-C , 11-H ) :   0.9386
B(  1-C , 12-H ) :   0.9486 B(  2-C ,  3-C ) :   0.9621 B(  2-C ,  4-H ) :   0.9368
B(  2-C ,  5-H ) :   0.9490 B(  2-C ,  6-C ) :  -0.1001 B(  3-C ,  6-C ) :   0.9309
B(  3-C ,  7-H ) :   0.9521 B(  3-C ,  8-H ) :   0.8316 B(  6-C ,  9-H ) :   0.9515
B(  6-C , 10-H ) :   0.8267

MP2 TOTAL ENERGY:     -446.539774363 Eh
FINAL SINGLE POINT ENERGY      -446.539774363168

DIPOLE MOMENT
-------------
                                X             Y             Z
Electronic contribution:     -3.98865      -0.19541      -1.22032
Nuclear contribution   :      4.30144       0.20250       1.24782
                        -----------------------------------------
Total Dipole Moment    :      0.31279       0.00709       0.02750
                        -----------------------------------------
Magnitude (a.u.)       :      0.31408
Magnitude (Debye)      :      0.79833

Rotational constants in cm-1:     0.185837     0.145502     0.090794
Rotational constants in MHz :  5571.244324  4362.040562  2721.929734

                             ****ORCA TERMINATED NORMALLY****
TOTAL RUN TIME: 0 days 2 hours 43 minutes 5 seconds 450 msec
