                         Program Version 5.0.4 -  RELEASE  -
|  1> ! ri-mp2 aug-cc-pvdz aug-cc-pvdz/c tightscf
|  2> %pal nprocs 16 end
|  3> %maxcore 3800
|  4> %base "DZ_S-F_63_AB"
|  5> %scf
|  6> STABPerform true
|  7> STABRestartUHFifUnstable true
|  8> end
|  9>
| 10> *xyz 0 1
| 11> F         2.320758   -0.229107   -0.063703
| 12> S         1.109486   -0.313510   -1.150739
| 13> C        -0.320565    0.094723   -0.043278
| 14> O        -1.337050   -0.399096   -0.830032
| 15> O        -0.512252    1.435822    0.148159
| 16> O        -0.223747   -0.494019    1.197053
| 17> C        -2.655516    0.026678   -0.492241
| 18> H        -3.323737   -0.594151   -1.082302
| 19> H        -2.799880    1.075736   -0.741561
| 20> H        -2.848804   -0.127145    0.569600
| 21> C         0.505663    2.142605    0.840378
| 22> H         0.132135    3.154851    0.966025
| 23> H         1.424614    2.164384    0.252497
| 24> H         0.701345    1.694675    1.813199
| 25> C        -0.069523   -1.905302    1.240471
| 26> H        -0.242411   -2.190727    2.274624
| 27> H         0.938245   -2.195791    0.944727
| 28> H        -0.796063   -2.397587    0.594920
| 29> *
| 30>
| 31> $new_job
| 32> ! ri-mp2 aug-cc-pvtz aug-cc-pvtz/c tightscf
| 33> %pal nprocs 16 end
| 34> %maxcore 3800
| 35> %base "TZ_S-F_63_AB"
| 36>
| 37> *xyz 0 1
| 38> F         2.320758   -0.229107   -0.063703
| 39> S         1.109486   -0.313510   -1.150739
| 40> C        -0.320565    0.094723   -0.043278
| 41> O        -1.337050   -0.399096   -0.830032
| 42> O        -0.512252    1.435822    0.148159
| 43> O        -0.223747   -0.494019    1.197053
| 44> C        -2.655516    0.026678   -0.492241
| 45> H        -3.323737   -0.594151   -1.082302
| 46> H        -2.799880    1.075736   -0.741561
| 47> H        -2.848804   -0.127145    0.569600
| 48> C         0.505663    2.142605    0.840378
| 49> H         0.132135    3.154851    0.966025
| 50> H         1.424614    2.164384    0.252497
| 51> H         0.701345    1.694675    1.813199
| 52> C        -0.069523   -1.905302    1.240471
| 53> H        -0.242411   -2.190727    2.274624
| 54> H         0.938245   -2.195791    0.944727
| 55> H        -0.796063   -2.397587    0.594920
| 56> *
| 57>
| 58> $new_job
| 59> ! ri-mp2 aug-cc-pvqz aug-cc-pvqz/c tightscf
| 60> %pal nprocs 16 end
| 61> %maxcore 3800
| 62> %base "QZ_S-F_63_AB"
| 63>
| 64> *xyz 0 1
| 65> F         2.320758   -0.229107   -0.063703
| 66> S         1.109486   -0.313510   -1.150739
| 67> C        -0.320565    0.094723   -0.043278
| 68> O        -1.337050   -0.399096   -0.830032
| 69> O        -0.512252    1.435822    0.148159
| 70> O        -0.223747   -0.494019    1.197053
| 71> C        -2.655516    0.026678   -0.492241
| 72> H        -3.323737   -0.594151   -1.082302
| 73> H        -2.799880    1.075736   -0.741561
| 74> H        -2.848804   -0.127145    0.569600
| 75> C         0.505663    2.142605    0.840378
| 76> H         0.132135    3.154851    0.966025
| 77> H         1.424614    2.164384    0.252497
| 78> H         0.701345    1.694675    1.813199
| 79> C        -0.069523   -1.905302    1.240471
| 80> H        -0.242411   -2.190727    2.274624
| 81> H         0.938245   -2.195791    0.944727
| 82> H        -0.796063   -2.397587    0.594920
| 83> *
| 84>
| 85>
| 86>
| 87>
| 88>                          ****END OF INPUT****
 Total Charge           Charge          ....    0
 Multiplicity           Mult            ....    1
 Number of Electrons    NEL             ....   82
MP2 TOTAL ENERGY:     -879.790229817 Eh
FINAL SINGLE POINT ENERGY      -879.790229817049
MP2 TOTAL ENERGY:     -880.266393726 Eh
FINAL SINGLE POINT ENERGY      -880.266393726075

CARTESIAN COORDINATES (ANGSTROEM)
---------------------------------
  F      2.320758   -0.229107   -0.063703
  S      1.109486   -0.313510   -1.150739
  C     -0.320565    0.094723   -0.043278
  O     -1.337050   -0.399096   -0.830032
  O     -0.512252    1.435822    0.148159
  O     -0.223747   -0.494019    1.197053
  C     -2.655516    0.026678   -0.492241
  H     -3.323737   -0.594151   -1.082302
  H     -2.799880    1.075736   -0.741561
  H     -2.848804   -0.127145    0.569600
  C      0.505663    2.142605    0.840378
  H      0.132135    3.154851    0.966025
  H      1.424614    2.164384    0.252497
  H      0.701345    1.694675    1.813199
  C     -0.069523   -1.905302    1.240471
  H     -0.242411   -2.190727    2.274624
  H      0.938245   -2.195791    0.944727
  H     -0.796063   -2.397587    0.594920

 Multiplicity           Mult            ....    1
 Number of Electrons    NEL             ....   82
 Basis Dimension        Dim             .... 1138

ORBITAL ENERGIES
----------------

  NO   OCC          E(Eh)            E(eV)
   0   2.0000     -92.021837     -2504.0415
   1   2.0000     -26.302502      -715.7275
   2   2.0000     -20.585436      -560.1582
   3   2.0000     -20.582817      -560.0869
   4   2.0000     -20.579335      -559.9922
   5   2.0000     -11.434584      -311.1509
   6   2.0000     -11.281068      -306.9735
   7   2.0000     -11.278959      -306.9161
   8   2.0000     -11.276006      -306.8357
   9   2.0000      -9.017293      -245.3730
  10   2.0000      -6.698755      -182.2824
  11   2.0000      -6.696492      -182.2208
  12   2.0000      -6.695355      -182.1899
  13   2.0000      -1.601291       -43.5734
  14   2.0000      -1.489981       -40.5444
  15   2.0000      -1.380962       -37.5779
  16   2.0000      -1.376049       -37.4442
  17   2.0000      -1.032043       -28.0833
  18   2.0000      -0.969614       -26.3845
  19   2.0000      -0.944867       -25.7111
  20   2.0000      -0.934727       -25.4352
  21   2.0000      -0.802784       -21.8449
  22   2.0000      -0.738061       -20.0837
  23   2.0000      -0.732707       -19.9380
  24   2.0000      -0.728480       -19.8230
  25   2.0000      -0.688331       -18.7304
  26   2.0000      -0.672577       -18.3018
  27   2.0000      -0.645679       -17.5698
  28   2.0000      -0.642958       -17.4958
  29   2.0000      -0.619614       -16.8606
  30   2.0000      -0.610237       -16.6054
  31   2.0000      -0.602305       -16.3896
  32   2.0000      -0.594636       -16.1809
  33   2.0000      -0.551498       -15.0070
  34   2.0000      -0.534184       -14.5359
  35   2.0000      -0.516468       -14.0538
  36   2.0000      -0.498580       -13.5670
  37   2.0000      -0.469734       -12.7821
  38   2.0000      -0.463311       -12.6073
  39   2.0000      -0.426873       -11.6158
  40   2.0000      -0.374918       -10.2020
  41   0.0000       0.024951         0.6790
  42   0.0000       0.032009         0.8710
  43   0.0000       0.033839         0.9208
  44   0.0000       0.039178         1.0661
  45   0.0000       0.048292         1.3141

MULLIKEN ATOMIC CHARGES
-----------------------
   0 F :   -0.683026
   1 S :    0.341645
   2 C :    2.209295
   3 O :   -0.915354
   4 O :   -0.930206
   5 O :   -0.825321
   6 C :   -0.758443
   7 H :    0.433952
   8 H :    0.330084
   9 H :    0.265341
  10 C :   -0.761211
  11 H :    0.419868
  12 H :    0.299160
  13 H :    0.320737
  14 C :   -0.830850
  15 H :    0.374154
  16 H :    0.337613
  17 H :    0.372563
Sum of atomic charges:   -0.0000000

LOEWDIN ATOMIC CHARGES
----------------------
   0 F :    0.107646
   1 S :    0.692892
   2 C :   -1.886096
   3 O :    0.747704
   4 O :    0.789984
   5 O :    0.806967
   6 C :    0.586507
   7 H :   -0.320465
   8 H :   -0.321304
   9 H :   -0.309400
  10 C :    0.557676
  11 H :   -0.319020
  12 H :   -0.352921
  13 H :   -0.326322
  14 C :    0.542940
  15 H :   -0.317351
  16 H :   -0.353542
  17 H :   -0.325896

  Mayer bond orders larger than 0.100000
B(  0-F ,  1-S ) :   0.5990 B(  0-F ,  2-C ) :  -0.1691 B(  1-S ,  2-C ) :   0.5721
B(  1-S ,  3-O ) :   0.1271 B(  2-C ,  3-O ) :   0.4851 B(  2-C ,  4-O ) :   0.3649
B(  2-C ,  5-O ) :   0.3726 B(  2-C ,  6-C ) :  -0.1016 B(  2-C , 10-C ) :  -0.1128
B(  2-C , 14-C ) :  -0.1230 B(  3-O ,  6-C ) :   0.8561 B(  4-O , 10-C ) :   0.9554
B(  5-O , 14-C ) :   0.9403 B(  6-C ,  7-H ) :   0.8394 B(  6-C ,  8-H ) :   0.8991
B(  6-C ,  9-H ) :   0.9406 B( 10-C , 11-H ) :   0.8557 B( 10-C , 12-H ) :   0.8996
B( 10-C , 13-H ) :   0.8923 B( 14-C , 15-H ) :   0.8842 B( 14-C , 16-H ) :   0.8951
B( 14-C , 17-H ) :   0.8481

MP2 TOTAL ENERGY:     -880.419234630 Eh
FINAL SINGLE POINT ENERGY      -880.419234630368

DIPOLE MOMENT
-------------
                                X             Y             Z
Electronic contribution:      8.36375      -0.88359      -5.21187
Nuclear contribution   :     -9.04602       0.81723       5.61913
                        -----------------------------------------
Total Dipole Moment    :     -0.68227      -0.06636       0.40726
                        -----------------------------------------
Magnitude (a.u.)       :      0.79734
Magnitude (Debye)      :      2.02668

Rotational constants in cm-1:     0.056929     0.040641     0.035668
Rotational constants in MHz :  1706.680875  1218.376671  1069.290035

                             ****ORCA TERMINATED NORMALLY****
TOTAL RUN TIME: 0 days 3 hours 7 minutes 23 seconds 628 msec
