                         Program Version 5.0.4 -  RELEASE  -
|  1> ! ri-mp2 aug-cc-pvdz aug-cc-pvdz/c tightscf
|  2> %pal nprocs 16 end
|  3> %maxcore 3800
|  4> %base "DZ_P-N_93_AB"
|  5>
|  6> *xyz 0 1
|  7> C         0.137328   -0.022600   -0.214847
|  8> C         0.916996   -1.172867   -0.319286
|  9> C         2.284164   -1.124432   -0.121557
| 10> C         2.901540    0.080814    0.174971
| 11> C         2.140039    1.231928    0.265648
| 12> C         0.768759    1.181292    0.069370
| 13> N        -2.212598    1.363396    0.015820
| 14> H         2.872038   -2.029359   -0.203809
| 15> H         3.971891    0.120953    0.327524
| 16> H         2.614627    2.178793    0.488940
| 17> H         0.178331    2.085252    0.129865
| 18> H         0.453554   -2.120880   -0.566057
| 19> P        -1.661008   -0.133506   -0.544339
| 20> C        -2.120829   -1.274204    0.824819
| 21> H        -1.798960   -0.893338    1.795774
| 22> H        -1.664599   -2.251309    0.669387
| 23> H        -3.203029   -1.403255    0.827895
| 24> H        -2.217799    1.586591    0.999749
| 25> H        -2.970733    1.785787   -0.489643
| 26> *
| 27>
| 28> $new_job
| 29> ! ri-mp2 aug-cc-pvtz aug-cc-pvtz/c tightscf
| 30> %pal nprocs 16 end
| 31> %maxcore 3800
| 32> %base "TZ_P-N_93_AB"
| 33>
| 34> *xyz 0 1
| 35> C         0.137328   -0.022600   -0.214847
| 36> C         0.916996   -1.172867   -0.319286
| 37> C         2.284164   -1.124432   -0.121557
| 38> C         2.901540    0.080814    0.174971
| 39> C         2.140039    1.231928    0.265648
| 40> C         0.768759    1.181292    0.069370
| 41> N        -2.212598    1.363396    0.015820
| 42> H         2.872038   -2.029359   -0.203809
| 43> H         3.971891    0.120953    0.327524
| 44> H         2.614627    2.178793    0.488940
| 45> H         0.178331    2.085252    0.129865
| 46> H         0.453554   -2.120880   -0.566057
| 47> P        -1.661008   -0.133506   -0.544339
| 48> C        -2.120829   -1.274204    0.824819
| 49> H        -1.798960   -0.893338    1.795774
| 50> H        -1.664599   -2.251309    0.669387
| 51> H        -3.203029   -1.403255    0.827895
| 52> H        -2.217799    1.586591    0.999749
| 53> H        -2.970733    1.785787   -0.489643
| 54> *
| 55>
| 56> $new_job
| 57> ! ri-mp2 aug-cc-pvqz aug-cc-pvqz/c tightscf
| 58> %pal nprocs 16 end
| 59> %maxcore 3800
| 60> %base "QZ_P-N_93_AB"
| 61>
| 62> *xyz 0 1
| 63> C         0.137328   -0.022600   -0.214847
| 64> C         0.916996   -1.172867   -0.319286
| 65> C         2.284164   -1.124432   -0.121557
| 66> C         2.901540    0.080814    0.174971
| 67> C         2.140039    1.231928    0.265648
| 68> C         0.768759    1.181292    0.069370
| 69> N        -2.212598    1.363396    0.015820
| 70> H         2.872038   -2.029359   -0.203809
| 71> H         3.971891    0.120953    0.327524
| 72> H         2.614627    2.178793    0.488940
| 73> H         0.178331    2.085252    0.129865
| 74> H         0.453554   -2.120880   -0.566057
| 75> P        -1.661008   -0.133506   -0.544339
| 76> C        -2.120829   -1.274204    0.824819
| 77> H        -1.798960   -0.893338    1.795774
| 78> H        -1.664599   -2.251309    0.669387
| 79> H        -3.203029   -1.403255    0.827895
| 80> H        -2.217799    1.586591    0.999749
| 81> H        -2.970733    1.785787   -0.489643
| 82> *
| 83>
| 84>
| 85>
| 86>
| 87>                          ****END OF INPUT****
 Total Charge           Charge          ....    0
 Multiplicity           Mult            ....    1
 Number of Electrons    NEL             ....   74
MP2 TOTAL ENERGY:     -667.404931908 Eh
FINAL SINGLE POINT ENERGY      -667.404931908287
MP2 TOTAL ENERGY:     -667.747176568 Eh
FINAL SINGLE POINT ENERGY      -667.747176568000

CARTESIAN COORDINATES (ANGSTROEM)
---------------------------------
  C      0.137328   -0.022600   -0.214847
  C      0.916996   -1.172867   -0.319286
  C      2.284164   -1.124432   -0.121557
  C      2.901540    0.080814    0.174971
  C      2.140039    1.231928    0.265648
  C      0.768759    1.181292    0.069370
  N     -2.212598    1.363396    0.015820
  H      2.872038   -2.029359   -0.203809
  H      3.971891    0.120953    0.327524
  H      2.614627    2.178793    0.488940
  H      0.178331    2.085252    0.129865
  H      0.453554   -2.120880   -0.566057
  P     -1.661008   -0.133506   -0.544339
  C     -2.120829   -1.274204    0.824819
  H     -1.798960   -0.893338    1.795774
  H     -1.664599   -2.251309    0.669387
  H     -3.203029   -1.403255    0.827895
  H     -2.217799    1.586591    0.999749
  H     -2.970733    1.785787   -0.489643

 Multiplicity           Mult            ....    1
 Number of Electrons    NEL             ....   74
 Basis Dimension        Dim             .... 1184

ORBITAL ENERGIES
----------------

  NO   OCC          E(Eh)            E(eV)
   0   2.0000     -79.950374     -2175.5603
   1   2.0000     -15.546291      -423.0361
   2   2.0000     -11.231156      -305.6153
   3   2.0000     -11.229812      -305.5787
   4   2.0000     -11.229051      -305.5580
   5   2.0000     -11.228281      -305.5371
   6   2.0000     -11.227823      -305.5246
   7   2.0000     -11.225828      -305.4703
   8   2.0000     -11.216437      -305.2148
   9   2.0000      -7.488204      -203.7644
  10   2.0000      -5.382839      -146.4745
  11   2.0000      -5.382177      -146.4565
  12   2.0000      -5.381580      -146.4402
  13   2.0000      -1.169532       -31.8246
  14   2.0000      -1.148859       -31.2621
  15   2.0000      -1.022199       -27.8154
  16   2.0000      -1.014088       -27.5947
  17   2.0000      -0.963560       -26.2198
  18   2.0000      -0.834836       -22.7170
  19   2.0000      -0.824226       -22.4283
  20   2.0000      -0.758504       -20.6399
  21   2.0000      -0.695662       -18.9299
  22   2.0000      -0.672890       -18.3103
  23   2.0000      -0.630783       -17.1645
  24   2.0000      -0.622393       -16.9362
  25   2.0000      -0.588526       -16.0146
  26   2.0000      -0.582724       -15.8567
  27   2.0000      -0.570888       -15.5346
  28   2.0000      -0.546108       -14.8604
  29   2.0000      -0.537822       -14.6349
  30   2.0000      -0.506570       -13.7845
  31   2.0000      -0.490441       -13.3456
  32   2.0000      -0.473197       -12.8763
  33   2.0000      -0.403085       -10.9685
  34   2.0000      -0.369600       -10.0573
  35   2.0000      -0.336564        -9.1584
  36   2.0000      -0.307531        -8.3683
  37   0.0000       0.023633         0.6431
  38   0.0000       0.027385         0.7452
  39   0.0000       0.029721         0.8088
  40   0.0000       0.038094         1.0366
  41   0.0000       0.040101         1.0912

MULLIKEN ATOMIC CHARGES
-----------------------
   0 C :   -0.078021
   1 C :   -0.378279
   2 C :   -0.274727
   3 C :   -0.366486
   4 C :   -0.263270
   5 C :   -0.424483
   6 N :   -0.983465
   7 H :    0.229305
   8 H :    0.362444
   9 H :    0.231869
  10 H :    0.389422
  11 H :    0.317519
  12 P :    0.925815
  13 C :   -1.152414
  14 H :    0.294728
  15 H :    0.319259
  16 H :    0.374540
  17 H :    0.264928
  18 H :    0.211317
Sum of atomic charges:   -0.0000000

LOEWDIN ATOMIC CHARGES
----------------------
   0 C :   -0.235371
   1 C :    0.239138
   2 C :    0.335209
   3 C :    0.331213
   4 C :    0.336554
   5 C :    0.256896
   6 N :    1.041953
   7 H :   -0.320837
   8 H :   -0.323054
   9 H :   -0.321822
  10 H :   -0.369133
  11 H :   -0.341635
  12 P :    0.811176
  13 C :    0.790068
  14 H :   -0.341832
  15 H :   -0.370101
  16 H :   -0.360986
  17 H :   -0.565543
  18 H :   -0.591894

  Mayer bond orders larger than 0.100000
B(  0-C ,  1-C ) :   0.9382 B(  0-C ,  2-C ) :  -0.2852 B(  0-C ,  4-C ) :  -0.3345
B(  0-C ,  5-C ) :   0.8287 B(  0-C ,  6-N ) :  -0.1275 B(  0-C , 10-H ) :  -0.1164
B(  0-C , 11-H ) :  -0.1361 B(  0-C , 12-P ) :   0.7871 B(  1-C ,  2-C ) :   1.3459
B(  1-C ,  4-C ) :   0.1379 B(  1-C ,  7-H ) :  -0.1356 B(  1-C , 11-H ) :   0.9319
B(  1-C , 12-P ) :  -0.1632 B(  2-C ,  3-C ) :   1.1288 B(  2-C ,  5-C ) :   0.1464
B(  2-C ,  7-H ) :   1.1402 B(  3-C ,  4-C ) :   1.1501 B(  3-C ,  7-H ) :  -0.1007
B(  3-C ,  8-H ) :   0.9775 B(  3-C ,  9-H ) :  -0.1016 B(  4-C ,  5-C ) :   1.2637
B(  4-C ,  9-H ) :   1.1405 B(  5-C ,  9-H ) :  -0.1433 B(  5-C , 10-H ) :   0.8881
B(  6-N , 12-P ) :   0.6892 B(  6-N , 17-H ) :   0.9353 B(  6-N , 18-H ) :   1.0780
B( 12-P , 13-C ) :   0.8103 B( 13-C , 14-H ) :   0.8910 B( 13-C , 15-H ) :   0.9103
B( 13-C , 16-H ) :   0.8707

MP2 TOTAL ENERGY:     -667.854617574 Eh
FINAL SINGLE POINT ENERGY      -667.854617574422

DIPOLE MOMENT
-------------
                                X             Y             Z
Electronic contribution:     -0.02797       0.93919      -3.86852
Nuclear contribution   :     -0.19554      -0.80469       4.49294
                        -----------------------------------------
Total Dipole Moment    :     -0.22351       0.13450       0.62442
                        -----------------------------------------
Magnitude (a.u.)       :      0.67672
Magnitude (Debye)      :      1.72009

Rotational constants in cm-1:     0.098525     0.031647     0.025921
Rotational constants in MHz :  2953.707816   948.753877   777.081735

                             ****ORCA TERMINATED NORMALLY****
TOTAL RUN TIME: 0 days 0 hours 48 minutes 33 seconds 146 msec
