                         Program Version 5.0.4 -  RELEASE  -
|  1> ! ri-mp2 aug-cc-pvdz aug-cc-pvdz/c tightscf
|  2> %pal nprocs 16 end
|  3> %maxcore 3800
|  4> %base "DZ_P-P_16_AB"
|  5> %scf
|  6> STABPerform true
|  7> STABRestartUHFifUnstable true
|  8> end
|  9>
| 10> *xyz 0 1
| 11> P        -0.924429   -0.000003   -0.606849
| 12> P         0.924429   -0.000004    0.606849
| 13> C        -1.787360    1.405609    0.218098
| 14> C        -1.787368   -1.405604    0.218110
| 15> C         1.787360    1.405609   -0.218098
| 16> C         1.787368   -1.405604   -0.218110
| 17> H         1.320131   -2.347300    0.068007
| 18> H         2.821189   -1.434796    0.127389
| 19> H         1.780232   -1.321702   -1.305466
| 20> H        -1.320115    2.347300   -0.068025
| 21> H        -1.780228    1.321714    1.305455
| 22> H        -2.821180    1.434806   -0.127405
| 23> H        -1.320131   -2.347300   -0.068008
| 24> H        -2.821189   -1.434796   -0.127390
| 25> H        -1.780232   -1.321702    1.305466
| 26> H         1.320115    2.347300    0.068025
| 27> H         1.780228    1.321714   -1.305454
| 28> H         2.821180    1.434806    0.127405
| 29> *
| 30>
| 31> $new_job
| 32> ! ri-mp2 aug-cc-pvtz aug-cc-pvtz/c tightscf
| 33> %pal nprocs 16 end
| 34> %maxcore 3800
| 35> %base "TZ_P-P_16_AB"
| 36>
| 37> *xyz 0 1
| 38> P        -0.924429   -0.000003   -0.606849
| 39> P         0.924429   -0.000004    0.606849
| 40> C        -1.787360    1.405609    0.218098
| 41> C        -1.787368   -1.405604    0.218110
| 42> C         1.787360    1.405609   -0.218098
| 43> C         1.787368   -1.405604   -0.218110
| 44> H         1.320131   -2.347300    0.068007
| 45> H         2.821189   -1.434796    0.127389
| 46> H         1.780232   -1.321702   -1.305466
| 47> H        -1.320115    2.347300   -0.068025
| 48> H        -1.780228    1.321714    1.305455
| 49> H        -2.821180    1.434806   -0.127405
| 50> H        -1.320131   -2.347300   -0.068008
| 51> H        -2.821189   -1.434796   -0.127390
| 52> H        -1.780232   -1.321702    1.305466
| 53> H         1.320115    2.347300    0.068025
| 54> H         1.780228    1.321714   -1.305454
| 55> H         2.821180    1.434806    0.127405
| 56> *
| 57>
| 58> $new_job
| 59> ! ri-mp2 aug-cc-pvqz aug-cc-pvqz/c tightscf
| 60> %pal nprocs 16 end
| 61> %maxcore 3800
| 62> %base "QZ_P-P_16_AB"
| 63>
| 64> *xyz 0 1
| 65> P        -0.924429   -0.000003   -0.606849
| 66> P         0.924429   -0.000004    0.606849
| 67> C        -1.787360    1.405609    0.218098
| 68> C        -1.787368   -1.405604    0.218110
| 69> C         1.787360    1.405609   -0.218098
| 70> C         1.787368   -1.405604   -0.218110
| 71> H         1.320131   -2.347300    0.068007
| 72> H         2.821189   -1.434796    0.127389
| 73> H         1.780232   -1.321702   -1.305466
| 74> H        -1.320115    2.347300   -0.068025
| 75> H        -1.780228    1.321714    1.305455
| 76> H        -2.821180    1.434806   -0.127405
| 77> H        -1.320131   -2.347300   -0.068008
| 78> H        -2.821189   -1.434796   -0.127390
| 79> H        -1.780232   -1.321702    1.305466
| 80> H         1.320115    2.347300    0.068025
| 81> H         1.780228    1.321714   -1.305454
| 82> H         2.821180    1.434806    0.127405
| 83> *
| 84>
| 85>
| 86>
| 87>
| 88>                          ****END OF INPUT****
 Total Charge           Charge          ....    0
 Multiplicity           Mult            ....    1
 Number of Electrons    NEL             ....   66
MP2 TOTAL ENERGY:     -840.834336547 Eh
FINAL SINGLE POINT ENERGY      -840.834336546727
MP2 TOTAL ENERGY:     -841.085541457 Eh
FINAL SINGLE POINT ENERGY      -841.085541456786

CARTESIAN COORDINATES (ANGSTROEM)
---------------------------------
  P     -0.924429   -0.000003   -0.606849
  P      0.924429   -0.000004    0.606849
  C     -1.787360    1.405609    0.218098
  C     -1.787368   -1.405604    0.218110
  C      1.787360    1.405609   -0.218098
  C      1.787368   -1.405604   -0.218110
  H      1.320131   -2.347300    0.068007
  H      2.821189   -1.434796    0.127389
  H      1.780232   -1.321702   -1.305466
  H     -1.320115    2.347300   -0.068025
  H     -1.780228    1.321714    1.305455
  H     -2.821180    1.434806   -0.127405
  H     -1.320131   -2.347300   -0.068008
  H     -2.821189   -1.434796   -0.127390
  H     -1.780232   -1.321702    1.305466
  H      1.320115    2.347300    0.068025
  H      1.780228    1.321714   -1.305454
  H      2.821180    1.434806    0.127405

 Multiplicity           Mult            ....    1
 Number of Electrons    NEL             ....   66
 Basis Dimension        Dim             .... 1040

ORBITAL ENERGIES
----------------

  NO   OCC          E(Eh)            E(eV)
   0   2.0000     -79.928004     -2174.9516
   1   2.0000     -79.928002     -2174.9515
   2   2.0000     -11.220643      -305.3292
   3   2.0000     -11.220640      -305.3291
   4   2.0000     -11.220633      -305.3289
   5   2.0000     -11.220633      -305.3289
   6   2.0000      -7.470100      -203.2717
   7   2.0000      -7.469937      -203.2673
   8   2.0000      -5.364069      -145.9637
   9   2.0000      -5.363883      -145.9587
  10   2.0000      -5.363841      -145.9575
  11   2.0000      -5.363662      -145.9527
  12   2.0000      -5.362767      -145.9283
  13   2.0000      -5.362718      -145.9270
  14   2.0000      -1.020688       -27.7743
  15   2.0000      -0.987731       -26.8775
  16   2.0000      -0.941727       -25.6257
  17   2.0000      -0.932628       -25.3781
  18   2.0000      -0.777713       -21.1626
  19   2.0000      -0.677713       -18.4415
  20   2.0000      -0.598484       -16.2856
  21   2.0000      -0.590813       -16.0768
  22   2.0000      -0.583967       -15.8905
  23   2.0000      -0.569950       -15.5091
  24   2.0000      -0.563932       -15.3454
  25   2.0000      -0.555719       -15.1219
  26   2.0000      -0.551647       -15.0111
  27   2.0000      -0.542298       -14.7567
  28   2.0000      -0.478664       -13.0251
  29   2.0000      -0.449387       -12.2284
  30   2.0000      -0.410672       -11.1749
  31   2.0000      -0.378606       -10.3024
  32   2.0000      -0.299678        -8.1546
  33   0.0000       0.028802         0.7837
  34   0.0000       0.029351         0.7987
  35   0.0000       0.030291         0.8243
  36   0.0000       0.038065         1.0358
  37   0.0000       0.044590         1.2133

MULLIKEN ATOMIC CHARGES
-----------------------
   0 P :    0.476096
   1 P :    0.476096
   2 C :   -1.283771
   3 C :   -1.283771
   4 C :   -1.283771
   5 C :   -1.283772
   6 H :    0.362266
   7 H :    0.366330
   8 H :    0.317127
   9 H :    0.362266
  10 H :    0.317125
  11 H :    0.366330
  12 H :    0.362266
  13 H :    0.366330
  14 H :    0.317127
  15 H :    0.362266
  16 H :    0.317126
  17 H :    0.366330
Sum of atomic charges:    0.0000000

LOEWDIN ATOMIC CHARGES
----------------------
   0 P :    0.757550
   1 P :    0.757550
   2 C :    0.713042
   3 C :    0.713042
   4 C :    0.713042
   5 C :    0.713042
   6 H :   -0.372063
   7 H :   -0.360872
   8 H :   -0.358883
   9 H :   -0.372063
  10 H :   -0.358882
  11 H :   -0.360872
  12 H :   -0.372063
  13 H :   -0.360872
  14 H :   -0.358883
  15 H :   -0.372063
  16 H :   -0.358883
  17 H :   -0.360872

  Mayer bond orders larger than 0.100000
B(  0-P ,  1-P ) :   1.0296 B(  0-P ,  2-C ) :   0.8909 B(  0-P ,  3-C ) :   0.8909
B(  1-P ,  4-C ) :   0.8909 B(  1-P ,  5-C ) :   0.8909 B(  2-C ,  9-H ) :   0.8679
B(  2-C , 10-H ) :   0.8706 B(  2-C , 11-H ) :   0.8701 B(  3-C , 12-H ) :   0.8679
B(  3-C , 13-H ) :   0.8701 B(  3-C , 14-H ) :   0.8706 B(  4-C , 15-H ) :   0.8679
B(  4-C , 16-H ) :   0.8706 B(  4-C , 17-H ) :   0.8701 B(  5-C ,  6-H ) :   0.8679
B(  5-C ,  7-H ) :   0.8701 B(  5-C ,  8-H ) :   0.8706

MP2 TOTAL ENERGY:     -841.160537257 Eh
FINAL SINGLE POINT ENERGY      -841.160537256598

DIPOLE MOMENT
-------------
                                X             Y             Z
Electronic contribution:      0.00000      -0.00005       0.00000
Nuclear contribution   :      0.00000       0.00005      -0.00000
                        -----------------------------------------
Total Dipole Moment    :      0.00000       0.00000      -0.00000
                        -----------------------------------------
Magnitude (a.u.)       :      0.00000
Magnitude (Debye)      :      0.00001

Rotational constants in cm-1:     0.102653     0.058055     0.043101
Rotational constants in MHz :  3077.459548  1740.444353  1292.143051

                             ****ORCA TERMINATED NORMALLY****
TOTAL RUN TIME: 0 days 1 hours 53 minutes 13 seconds 510 msec
