                         Program Version 5.0.4 -  RELEASE  -
|  1> ! ri-mp2 aug-cc-pvdz aug-cc-pvdz/c tightscf
|  2> %pal nprocs 16 end
|  3> %maxcore 3800
|  4> %base "DZ_B-S_14_A"
|  5> %scf
|  6> STABPerform true
|  7> STABRestartUHFifUnstable true
|  8> end
|  9>
| 10> *xyz 0 2
| 11> S         1.517881   -0.594913    0.085029
| 12> S         0.284645    0.883568   -0.214666
| 13> C        -1.310745    0.361186    0.483261
| 14> C        -1.935220   -0.808815   -0.248987
| 15> H        -1.936524    1.253565    0.423143
| 16> H        -1.142302    0.134057    1.534946
| 17> H        -2.124235   -0.564405   -1.294122
| 18> H        -2.883441   -1.079268    0.216917
| 19> H        -1.278121   -1.676651   -0.212340
| 20> *
| 21>
| 22> $new_job
| 23> ! ri-mp2 aug-cc-pvtz aug-cc-pvtz/c tightscf
| 24> %pal nprocs 16 end
| 25> %maxcore 3800
| 26> %base "TZ_B-S_14_A"
| 27>
| 28> *xyz 0 2
| 29> S         1.517881   -0.594913    0.085029
| 30> S         0.284645    0.883568   -0.214666
| 31> C        -1.310745    0.361186    0.483261
| 32> C        -1.935220   -0.808815   -0.248987
| 33> H        -1.936524    1.253565    0.423143
| 34> H        -1.142302    0.134057    1.534946
| 35> H        -2.124235   -0.564405   -1.294122
| 36> H        -2.883441   -1.079268    0.216917
| 37> H        -1.278121   -1.676651   -0.212340
| 38> *
| 39>
| 40> $new_job
| 41> ! ri-mp2 aug-cc-pvqz aug-cc-pvqz/c tightscf
| 42> %pal nprocs 16 end
| 43> %maxcore 3800
| 44> %base "QZ_B-S_14_A"
| 45>
| 46> *xyz 0 2
| 47> S         1.517881   -0.594913    0.085029
| 48> S         0.284645    0.883568   -0.214666
| 49> C        -1.310745    0.361186    0.483261
| 50> C        -1.935220   -0.808815   -0.248987
| 51> H        -1.936524    1.253565    0.423143
| 52> H        -1.142302    0.134057    1.534946
| 53> H        -2.124235   -0.564405   -1.294122
| 54> H        -2.883441   -1.079268    0.216917
| 55> H        -1.278121   -1.676651   -0.212340
| 56> *
| 57>
| 58>
| 59>
| 60>
| 61>                          ****END OF INPUT****
 Total Charge           Charge          ....    0
 Multiplicity           Mult            ....    2
 Number of Electrons    NEL             ....   49
MP2 TOTAL ENERGY:     -874.281948706 Eh
FINAL SINGLE POINT ENERGY      -874.281948706209
MP2 TOTAL ENERGY:     -874.463843749 Eh
FINAL SINGLE POINT ENERGY      -874.463843749138

CARTESIAN COORDINATES (ANGSTROEM)
---------------------------------
  S      1.517881   -0.594913    0.085029
  S      0.284645    0.883568   -0.214666
  C     -1.310745    0.361186    0.483261
  C     -1.935220   -0.808815   -0.248987
  H     -1.936524    1.253565    0.423143
  H     -1.142302    0.134057    1.534946
  H     -2.124235   -0.564405   -1.294122
  H     -2.883441   -1.079268    0.216917
  H     -1.278121   -1.676651   -0.212340

 Multiplicity           Mult            ....    2
 Number of Electrons    NEL             ....   49
 Basis Dimension        Dim             ....  558

ORBITAL ENERGIES
----------------
                 SPIN UP ORBITALS
  NO   OCC          E(Eh)            E(eV)
   0   1.0000     -91.999238     -2503.4266
   1   1.0000     -91.976348     -2502.8037
   2   1.0000     -11.270401      -306.6832
   3   1.0000     -11.231013      -305.6114
   4   1.0000      -8.999086      -244.8776
   5   1.0000      -8.977791      -244.2981
   6   1.0000      -6.684052      -181.8823
   7   1.0000      -6.679367      -181.7548
   8   1.0000      -6.677931      -181.7157
   9   1.0000      -6.670530      -181.5144
  10   1.0000      -6.656021      -181.1195
  11   1.0000      -6.654233      -181.0709
  12   1.0000      -1.115922       -30.3658
  13   1.0000      -1.022438       -27.8219
  14   1.0000      -0.898857       -24.4592
  15   1.0000      -0.793282       -21.5863
  16   1.0000      -0.644644       -17.5416
  17   1.0000      -0.609568       -16.5872
  18   1.0000      -0.562321       -15.3015
  19   1.0000      -0.532772       -14.4975
  20   1.0000      -0.507681       -13.8147
  21   1.0000      -0.490854       -13.3568
  22   1.0000      -0.472335       -12.8529
  23   1.0000      -0.368248       -10.0205
  24   1.0000      -0.353787        -9.6270
  25   0.0000       0.025020         0.6808
  26   0.0000       0.035505         0.9662
  27   0.0000       0.036330         0.9886
  28   0.0000       0.044611         1.2139
  29   0.0000       0.055387         1.5072

                 SPIN DOWN ORBITALS
  NO   OCC          E(Eh)            E(eV)
   0   1.0000     -91.996168     -2503.3430
   1   1.0000     -91.968616     -2502.5933
   2   1.0000     -11.270975      -306.6988
   3   1.0000     -11.230657      -305.6017
   4   1.0000      -8.995639      -244.7838
   5   1.0000      -8.969296      -244.0669
   6   1.0000      -6.677844      -181.7134
   7   1.0000      -6.676657      -181.6811
   8   1.0000      -6.670299      -181.5081
   9   1.0000      -6.651984      -181.0097
  10   1.0000      -6.649617      -180.9453
  11   1.0000      -6.635932      -180.5729
  12   1.0000      -1.101327       -29.9686
  13   1.0000      -1.003369       -27.3031
  14   1.0000      -0.877214       -23.8702
  15   1.0000      -0.750226       -20.4147
  16   1.0000      -0.642045       -17.4709
  17   1.0000      -0.604291       -16.4436
  18   1.0000      -0.554026       -15.0758
  19   1.0000      -0.527620       -14.3573
  20   1.0000      -0.502510       -13.6740
  21   1.0000      -0.461098       -12.5471
  22   1.0000      -0.390965       -10.6387
  23   1.0000      -0.353497        -9.6191
  24   0.0000       0.016662         0.4534
  25   0.0000       0.025726         0.7000
  26   0.0000       0.035705         0.9716
  27   0.0000       0.036884         1.0037
  28   0.0000       0.044813         1.2194

MULLIKEN ATOMIC CHARGES AND SPIN POPULATIONS
--------------------------------------------
   0 S :   -0.195934    0.818858
   1 S :    0.014899    0.201434
   2 C :   -0.407219   -0.044416
   3 C :   -0.806933    0.017457
   4 H :    0.323465   -0.003586
   5 H :    0.263787    0.013526
   6 H :    0.270265   -0.000553
   7 H :    0.268484    0.000164
   8 H :    0.269185   -0.002883
Sum of atomic charges         :   -0.0000000

LOEWDIN ATOMIC CHARGES AND SPIN POPULATIONS
-------------------------------------------
   0 S :    0.387584    0.643328
   1 S :    0.489652    0.304841
   2 C :    0.040938    0.035503
   3 C :    0.797096    0.005235
   4 H :   -0.387174    0.003973
   5 H :   -0.386597    0.003053
   6 H :   -0.305994    0.002083
   7 H :   -0.290176    0.000838
   8 H :   -0.345330    0.001146

  Mayer bond orders larger than 0.100000
B(  0-S ,  1-S ) :   1.4815 B(  1-S ,  2-C ) :   0.8658 B(  2-C ,  3-C ) :   0.9860
B(  2-C ,  4-H ) :   0.8371 B(  2-C ,  5-H ) :   0.8928 B(  3-C ,  6-H ) :   0.9314
B(  3-C ,  7-H ) :   0.9157 B(  3-C ,  8-H ) :   0.9202

MP2 TOTAL ENERGY:     -874.521087848 Eh
FINAL SINGLE POINT ENERGY      -874.521087847753

DIPOLE MOMENT
-------------
                                X             Y             Z
Electronic contribution:      8.35542       1.94136      -0.45970
Nuclear contribution   :     -9.30333      -1.91751       0.66420
                        -----------------------------------------
Total Dipole Moment    :     -0.94791       0.02384       0.20449
                        -----------------------------------------
Magnitude (a.u.)       :      0.97001
Magnitude (Debye)      :      2.46557

Rotational constants in cm-1:     0.275768     0.098875     0.079307
Rotational constants in MHz :  8267.316729  2964.199623  2377.577527

                             ****ORCA TERMINATED NORMALLY****
TOTAL RUN TIME: 0 days 0 hours 41 minutes 36 seconds 582 msec
