                         Program Version 5.0.4 -  RELEASE  -
|  1> ! ri-mp2 aug-cc-pvdz aug-cc-pvdz/c tightscf
|  2> %pal nprocs 16 end
|  3> %maxcore 3800
|  4> %base "DZ_B-Cl_13_AB"
|  5> %scf
|  6> STABPerform true
|  7> STABRestartUHFifUnstable true
|  8> end
|  9>
| 10> *xyz 0 1
| 11> Cl         1.493013   -1.503831    0.059599
| 12> Cl         1.493013    1.503831    0.059598
| 13> B         0.604398    0.000000   -0.083004
| 14> P        -1.216589    0.000000   -0.565141
| 15> C        -1.923539    1.443682    0.326293
| 16> C        -1.923539   -1.443682    0.326292
| 17> H        -1.440038    2.352652   -0.025765
| 18> H        -1.801231    1.374660    1.406611
| 19> H        -2.985292    1.516210    0.094296
| 20> H        -1.440039   -2.352651   -0.025765
| 21> H        -2.985292   -1.516210    0.094296
| 22> H        -1.801231   -1.374660    1.406610
| 23> *
| 24>
| 25> $new_job
| 26> ! ri-mp2 aug-cc-pvtz aug-cc-pvtz/c tightscf
| 27> %pal nprocs 16 end
| 28> %maxcore 3800
| 29> %base "TZ_B-Cl_13_AB"
| 30>
| 31> *xyz 0 1
| 32> Cl         1.493013   -1.503831    0.059599
| 33> Cl         1.493013    1.503831    0.059598
| 34> B         0.604398    0.000000   -0.083004
| 35> P        -1.216589    0.000000   -0.565141
| 36> C        -1.923539    1.443682    0.326293
| 37> C        -1.923539   -1.443682    0.326292
| 38> H        -1.440038    2.352652   -0.025765
| 39> H        -1.801231    1.374660    1.406611
| 40> H        -2.985292    1.516210    0.094296
| 41> H        -1.440039   -2.352651   -0.025765
| 42> H        -2.985292   -1.516210    0.094296
| 43> H        -1.801231   -1.374660    1.406610
| 44> *
| 45>
| 46> $new_job
| 47> ! ri-mp2 aug-cc-pvqz aug-cc-pvqz/c tightscf
| 48> %pal nprocs 16 end
| 49> %maxcore 3800
| 50> %base "QZ_B-Cl_13_AB"
| 51>
| 52> *xyz 0 1
| 53> Cl         1.493013   -1.503831    0.059599
| 54> Cl         1.493013    1.503831    0.059598
| 55> B         0.604398    0.000000   -0.083004
| 56> P        -1.216589    0.000000   -0.565141
| 57> C        -1.923539    1.443682    0.326293
| 58> C        -1.923539   -1.443682    0.326292
| 59> H        -1.440038    2.352652   -0.025765
| 60> H        -1.801231    1.374660    1.406611
| 61> H        -2.985292    1.516210    0.094296
| 62> H        -1.440039   -2.352651   -0.025765
| 63> H        -2.985292   -1.516210    0.094296
| 64> H        -1.801231   -1.374660    1.406610
| 65> *
| 66>
| 67>
| 68>
| 69>
| 70>                          ****END OF INPUT****
 Total Charge           Charge          ....    0
 Multiplicity           Mult            ....    1
 Number of Electrons    NEL             ....   72
MP2 TOTAL ENERGY:    -1364.574305268 Eh
FINAL SINGLE POINT ENERGY     -1364.574305267586
MP2 TOTAL ENERGY:    -1364.837963293 Eh
FINAL SINGLE POINT ENERGY     -1364.837963293239

CARTESIAN COORDINATES (ANGSTROEM)
---------------------------------
  Cl     1.493013   -1.503831    0.059599
  Cl     1.493013    1.503831    0.059598
  B      0.604398    0.000000   -0.083004
  P     -1.216589    0.000000   -0.565141
  C     -1.923539    1.443682    0.326293
  C     -1.923539   -1.443682    0.326292
  H     -1.440038    2.352652   -0.025765
  H     -1.801231    1.374660    1.406611
  H     -2.985292    1.516210    0.094296
  H     -1.440039   -2.352651   -0.025765
  H     -2.985292   -1.516210    0.094296
  H     -1.801231   -1.374660    1.406610

 Multiplicity           Mult            ....    1
 Number of Electrons    NEL             ....   72
 Basis Dimension        Dim             ....  768

ORBITAL ENERGIES
----------------

  NO   OCC          E(Eh)            E(eV)
   0   2.0000    -104.842407     -2852.9069
   1   2.0000    -104.842407     -2852.9069
   2   2.0000     -79.933562     -2175.1028
   3   2.0000     -11.234106      -305.6956
   4   2.0000     -11.234096      -305.6953
   5   2.0000     -10.570121      -287.6276
   6   2.0000     -10.570112      -287.6274
   7   2.0000      -8.036924      -218.6958
   8   2.0000      -8.036923      -218.6958
   9   2.0000      -8.035867      -218.6670
  10   2.0000      -8.035865      -218.6670
  11   2.0000      -8.035618      -218.6603
  12   2.0000      -8.035617      -218.6603
  13   2.0000      -7.710107      -209.8027
  14   2.0000      -7.478179      -203.4916
  15   2.0000      -5.372646      -146.1971
  16   2.0000      -5.372541      -146.1943
  17   2.0000      -5.371810      -146.1744
  18   2.0000      -1.144802       -31.1516
  19   2.0000      -1.100707       -29.9518
  20   2.0000      -1.014770       -27.6133
  21   2.0000      -0.951096       -25.8806
  22   2.0000      -0.782081       -21.2815
  23   2.0000      -0.659376       -17.9425
  24   2.0000      -0.605424       -16.4744
  25   2.0000      -0.597449       -16.2574
  26   2.0000      -0.586882       -15.9699
  27   2.0000      -0.568088       -15.4585
  28   2.0000      -0.558408       -15.1951
  29   2.0000      -0.529578       -14.4106
  30   2.0000      -0.516954       -14.0670
  31   2.0000      -0.476834       -12.9753
  32   2.0000      -0.468483       -12.7481
  33   2.0000      -0.454927       -12.3792
  34   2.0000      -0.438744       -11.9388
  35   2.0000      -0.337576        -9.1859
  36   0.0000       0.021860         0.5949
  37   0.0000       0.031962         0.8697
  38   0.0000       0.033342         0.9073
  39   0.0000       0.038277         1.0416
  40   0.0000       0.049197         1.3387

MULLIKEN ATOMIC CHARGES
-----------------------
   0 Cl:   -0.251276
   1 Cl:   -0.251275
   2 B :    0.230030
   3 P :    0.620042
   4 C :   -1.164245
   5 C :   -1.164246
   6 H :    0.371677
   7 H :    0.285653
   8 H :    0.333155
   9 H :    0.371678
  10 H :    0.333155
  11 H :    0.285653
Sum of atomic charges:    0.0000000

LOEWDIN ATOMIC CHARGES
----------------------
   0 Cl:    1.219956
   1 Cl:    1.219957
   2 B :   -2.536890
   3 P :    0.811621
   4 C :    0.728105
   5 C :    0.728106
   6 H :   -0.384898
   7 H :   -0.344515
   8 H :   -0.356014
   9 H :   -0.384900
  10 H :   -0.356013
  11 H :   -0.344515

  Mayer bond orders larger than 0.100000
B(  0-Cl,  2-B ) :   0.9942 B(  1-Cl,  2-B ) :   0.9942 B(  2-B ,  3-P ) :   1.1505
B(  3-P ,  4-C ) :   0.8986 B(  3-P ,  5-C ) :   0.8986 B(  4-C ,  6-H ) :   0.8720
B(  4-C ,  7-H ) :   0.8920 B(  4-C ,  8-H ) :   0.8924 B(  5-C ,  9-H ) :   0.8720
B(  5-C , 10-H ) :   0.8924 B(  5-C , 11-H ) :   0.8920

MP2 TOTAL ENERGY:    -1364.923361471 Eh
FINAL SINGLE POINT ENERGY     -1364.923361470608

DIPOLE MOMENT
-------------
                                X             Y             Z
Electronic contribution:     14.46236      -0.00000      -2.74998
Nuclear contribution   :    -15.20574       0.00000       3.20612
                        -----------------------------------------
Total Dipole Moment    :     -0.74338      -0.00000       0.45613
                        -----------------------------------------
Magnitude (a.u.)       :      0.87217
Magnitude (Debye)      :      2.21687

Rotational constants in cm-1:     0.068366     0.049532     0.030439
Rotational constants in MHz :  2049.550878  1484.923528   912.553172

                             ****ORCA TERMINATED NORMALLY****
TOTAL RUN TIME: 0 days 0 hours 51 minutes 46 seconds 738 msec
