                         Program Version 5.0.4 -  RELEASE  -
|  1> ! ri-mp2 aug-cc-pvdz aug-cc-pvdz/c tightscf
|  2> %pal nprocs 16 end
|  3> %maxcore 3800
|  4> %base "DZ_B-Cl_76_A"
|  5> %scf
|  6> STABPerform true
|  7> STABRestartUHFifUnstable true
|  8> end
|  9>
| 10> *xyz 0 2
| 11> B         0.676240    0.151754    0.000024
| 12> Cl         2.343620   -0.145582    0.000010
| 13> N        -0.547389    0.379310   -0.000010
| 14> C        -1.862108    0.580606   -0.000030
| 15> C        -2.806635   -0.566493   -0.000005
| 16> H        -2.660245   -1.203032    0.878690
| 17> H        -2.660075   -1.203203   -0.878545
| 18> H        -3.838595   -0.219617   -0.000134
| 19> H        -2.219654    1.602138   -0.000010
| 20> *
| 21>
| 22> $new_job
| 23> ! ri-mp2 aug-cc-pvtz aug-cc-pvtz/c tightscf
| 24> %pal nprocs 16 end
| 25> %maxcore 3800
| 26> %base "TZ_B-Cl_76_A"
| 27>
| 28> *xyz 0 2
| 29> B         0.676240    0.151754    0.000024
| 30> Cl         2.343620   -0.145582    0.000010
| 31> N        -0.547389    0.379310   -0.000010
| 32> C        -1.862108    0.580606   -0.000030
| 33> C        -2.806635   -0.566493   -0.000005
| 34> H        -2.660245   -1.203032    0.878690
| 35> H        -2.660075   -1.203203   -0.878545
| 36> H        -3.838595   -0.219617   -0.000134
| 37> H        -2.219654    1.602138   -0.000010
| 38> *
| 39>
| 40> $new_job
| 41> ! ri-mp2 aug-cc-pvqz aug-cc-pvqz/c tightscf
| 42> %pal nprocs 16 end
| 43> %maxcore 3800
| 44> %base "QZ_B-Cl_76_A"
| 45>
| 46> *xyz 0 2
| 47> B         0.676240    0.151754    0.000024
| 48> Cl         2.343620   -0.145582    0.000010
| 49> N        -0.547389    0.379310   -0.000010
| 50> C        -1.862108    0.580606   -0.000030
| 51> C        -2.806635   -0.566493   -0.000005
| 52> H        -2.660245   -1.203032    0.878690
| 53> H        -2.660075   -1.203203   -0.878545
| 54> H        -3.838595   -0.219617   -0.000134
| 55> H        -2.219654    1.602138   -0.000010
| 56> *
| 57>
| 58>
| 59>
| 60>
| 61>                          ****END OF INPUT****
 Total Charge           Charge          ....    0
 Multiplicity           Mult            ....    2
 Number of Electrons    NEL             ....   45
MP2 TOTAL ENERGY:     -617.389451321 Eh
FINAL SINGLE POINT ENERGY      -617.389451320793
MP2 TOTAL ENERGY:     -617.588786374 Eh
FINAL SINGLE POINT ENERGY      -617.588786374111

CARTESIAN COORDINATES (ANGSTROEM)
---------------------------------
  B      0.676240    0.151754    0.000024
  Cl     2.343620   -0.145582    0.000010
  N     -0.547389    0.379310   -0.000010
  C     -1.862108    0.580606   -0.000030
  C     -2.806635   -0.566493   -0.000005
  H     -2.660245   -1.203032    0.878690
  H     -2.660075   -1.203203   -0.878545
  H     -3.838595   -0.219617   -0.000134
  H     -2.219654    1.602138   -0.000010

 Multiplicity           Mult            ....    2
 Number of Electrons    NEL             ....   45
 Basis Dimension        Dim             ....  588

ORBITAL ENERGIES
----------------
                 SPIN UP ORBITALS
  NO   OCC          E(Eh)            E(eV)
   0   1.0000    -104.868567     -2853.6188
   1   1.0000     -15.549069      -423.1117
   2   1.0000     -11.263644      -306.4993
   3   1.0000     -11.217962      -305.2563
   4   1.0000     -10.595420      -288.3160
   5   1.0000      -8.061941      -219.3766
   6   1.0000      -8.061627      -219.3680
   7   1.0000      -8.061076      -219.3530
   8   1.0000      -7.658677      -208.4032
   9   1.0000      -1.194253       -32.4973
  10   1.0000      -1.144448       -31.1420
  11   1.0000      -1.001778       -27.2598
  12   1.0000      -0.861177       -23.4338
  13   1.0000      -0.689023       -18.7493
  14   1.0000      -0.633619       -17.2417
  15   1.0000      -0.597567       -16.2606
  16   1.0000      -0.596845       -16.2410
  17   1.0000      -0.536012       -14.5856
  18   1.0000      -0.535437       -14.5700
  19   1.0000      -0.521215       -14.1830
  20   1.0000      -0.471978       -12.8432
  21   1.0000      -0.397217       -10.8088
  22   1.0000      -0.279950        -7.6178
  23   0.0000       0.024837         0.6759
  24   0.0000       0.034302         0.9334
  25   0.0000       0.035398         0.9632
  26   0.0000       0.039076         1.0633
  27   0.0000       0.048998         1.3333

                 SPIN DOWN ORBITALS
  NO   OCC          E(Eh)            E(eV)
   0   1.0000    -104.868445     -2853.6155
   1   1.0000     -15.560369      -423.4192
   2   1.0000     -11.240971      -305.8824
   3   1.0000     -11.221172      -305.3436
   4   1.0000     -10.595285      -288.3124
   5   1.0000      -8.062967      -219.4045
   6   1.0000      -8.060848      -219.3468
   7   1.0000      -8.060179      -219.3286
   8   1.0000      -7.651664      -208.2124
   9   1.0000      -1.194319       -32.4991
  10   1.0000      -1.142801       -31.0972
  11   1.0000      -0.987403       -26.8686
  12   1.0000      -0.831143       -22.6166
  13   1.0000      -0.672921       -18.3111
  14   1.0000      -0.629329       -17.1249
  15   1.0000      -0.591097       -16.0846
  16   1.0000      -0.560904       -15.2630
  17   1.0000      -0.533808       -14.5256
  18   1.0000      -0.521662       -14.1951
  19   1.0000      -0.517581       -14.0841
  20   1.0000      -0.460861       -12.5407
  21   1.0000      -0.410666       -11.1748
  22   0.0000       0.025242         0.6869
  23   0.0000       0.034515         0.9392
  24   0.0000       0.035559         0.9676
  25   0.0000       0.039122         1.0646
  26   0.0000       0.049161         1.3377

MULLIKEN ATOMIC CHARGES AND SPIN POPULATIONS
--------------------------------------------
   0 B :    0.582235    0.362164
   1 Cl:   -0.255546    0.017219
   2 N :   -0.581927   -0.261292
   3 C :   -0.296187    1.009760
   4 C :   -0.744765   -0.154896
   5 H :    0.264097    0.047659
   6 H :    0.264086    0.047644
   7 H :    0.277512    0.002404
   8 H :    0.490497   -0.070662
Sum of atomic charges         :   -0.0000000

LOEWDIN ATOMIC CHARGES AND SPIN POPULATIONS
-------------------------------------------
   0 B :   -1.381990    0.160768
   1 Cl:    1.263299    0.071751
   2 N :    0.452949    0.091728
   3 C :    0.088239    0.384268
   4 C :    0.857266    0.117296
   5 H :   -0.305409    0.022084
   6 H :   -0.305415    0.022079
   7 H :   -0.317128    0.006723
   8 H :   -0.351811    0.123302

  Mayer bond orders larger than 0.100000
B(  0-B ,  1-Cl) :   1.0102 B(  0-B ,  2-N ) :   2.0604 B(  1-Cl,  2-N ) :   0.1310
B(  2-N ,  3-C ) :   0.7690 B(  3-C ,  4-C ) :   1.0180 B(  3-C ,  8-H ) :   0.7913
B(  4-C ,  5-H ) :   0.9062 B(  4-C ,  6-H ) :   0.9063 B(  4-C ,  7-H ) :   0.9719

MP2 TOTAL ENERGY:     -617.653619799 Eh
FINAL SINGLE POINT ENERGY      -617.653619799470

DIPOLE MOMENT
-------------
                                X             Y             Z
Electronic contribution:     14.52560       0.85025       0.00005
Nuclear contribution   :    -14.62037      -0.89513      -0.00003
                        -----------------------------------------
Total Dipole Moment    :     -0.09477      -0.04488       0.00002
                        -----------------------------------------
Magnitude (a.u.)       :      0.10487
Magnitude (Debye)      :      0.26655

Rotational constants in cm-1:     0.938130     0.045169     0.043440
Rotational constants in MHz : 28124.429147  1354.144640  1302.302189

                             ****ORCA TERMINATED NORMALLY****
TOTAL RUN TIME: 0 days 0 hours 48 minutes 51 seconds 108 msec
