                         Program Version 5.0.4 -  RELEASE  -
|  1> ! ri-mp2 aug-cc-pvdz aug-cc-pvdz/c tightscf
|  2> %pal nprocs 16 end
|  3> %maxcore 3800
|  4> %base "DZ_Si-Cl_80_A"
|  5> %scf
|  6> STABPerform true
|  7> STABRestartUHFifUnstable true
|  8> end
|  9>
| 10> *xyz 0 2
| 11> Si         1.026471    0.000000   -0.100584
| 12> Cl        -1.025793    0.000000    0.016422
| 13> H         1.533941   -1.221089    0.564502
| 14> H         1.533938    1.221090    0.564501
| 15> *
| 16>
| 17> $new_job
| 18> ! ri-mp2 aug-cc-pvtz aug-cc-pvtz/c tightscf
| 19> %pal nprocs 16 end
| 20> %maxcore 3800
| 21> %base "TZ_Si-Cl_80_A"
| 22>
| 23> *xyz 0 2
| 24> Si         1.026471    0.000000   -0.100584
| 25> Cl        -1.025793    0.000000    0.016422
| 26> H         1.533941   -1.221089    0.564502
| 27> H         1.533938    1.221090    0.564501
| 28> *
| 29>
| 30> $new_job
| 31> ! ri-mp2 aug-cc-pvqz aug-cc-pvqz/c tightscf
| 32> %pal nprocs 16 end
| 33> %maxcore 3800
| 34> %base "QZ_Si-Cl_80_A"
| 35>
| 36> *xyz 0 2
| 37> Si         1.026471    0.000000   -0.100584
| 38> Cl        -1.025793    0.000000    0.016422
| 39> H         1.533941   -1.221089    0.564502
| 40> H         1.533938    1.221090    0.564501
| 41> *
| 42>
| 43>
| 44>
| 45>
| 46>                          ****END OF INPUT****
 Total Charge           Charge          ....    0
 Multiplicity           Mult            ....    2
 Number of Electrons    NEL             ....   33
MP2 TOTAL ENERGY:     -749.841167704 Eh
FINAL SINGLE POINT ENERGY      -749.841167704270
MP2 TOTAL ENERGY:     -749.936929525 Eh
FINAL SINGLE POINT ENERGY      -749.936929524798

CARTESIAN COORDINATES (ANGSTROEM)
---------------------------------
  Si     1.026471    0.000000   -0.100584
  Cl    -1.025793    0.000000    0.016422
  H      1.533941   -1.221089    0.564502
  H      1.533938    1.221090    0.564501

 Multiplicity           Mult            ....    2
 Number of Electrons    NEL             ....   33
 Basis Dimension        Dim             ....  260

ORBITAL ENERGIES
----------------
                 SPIN UP ORBITALS
  NO   OCC          E(Eh)            E(eV)
   0   1.0000    -104.833411     -2852.6621
   1   1.0000     -68.830434     -1872.9713
   2   1.0000     -10.560585      -287.3681
   3   1.0000      -8.028306      -218.4613
   4   1.0000      -8.026413      -218.4098
   5   1.0000      -8.025947      -218.3971
   6   1.0000      -6.176463      -168.0701
   7   1.0000      -4.288279      -116.6900
   8   1.0000      -4.279553      -116.4526
   9   1.0000      -4.278427      -116.4219
  10   1.0000      -1.104041       -30.0425
  11   1.0000      -0.728340       -19.8191
  12   1.0000      -0.537160       -14.6169
  13   1.0000      -0.536690       -14.6041
  14   1.0000      -0.495772       -13.4906
  15   1.0000      -0.457277       -12.4431
  16   1.0000      -0.350102        -9.5268
  17   0.0000       0.027939         0.7603
  18   0.0000       0.039266         1.0685
  19   0.0000       0.041753         1.1362
  20   0.0000       0.045180         1.2294
  21   0.0000       0.063315         1.7229

                 SPIN DOWN ORBITALS
  NO   OCC          E(Eh)            E(eV)
   0   1.0000    -104.832468     -2852.6365
   1   1.0000     -68.824506     -1872.8100
   2   1.0000     -10.559566      -287.3404
   3   1.0000      -8.026504      -218.4123
   4   1.0000      -8.025441      -218.3834
   5   1.0000      -8.023917      -218.3419
   6   1.0000      -6.167038      -167.8136
   7   1.0000      -4.275706      -116.3479
   8   1.0000      -4.274689      -116.3202
   9   1.0000      -4.266242      -116.0904
  10   1.0000      -1.096450       -29.8359
  11   1.0000      -0.686741       -18.6872
  12   1.0000      -0.527196       -14.3457
  13   1.0000      -0.524442       -14.2708
  14   1.0000      -0.474930       -12.9235
  15   1.0000      -0.452089       -12.3020
  16   0.0000       0.018797         0.5115
  17   0.0000       0.030807         0.8383
  18   0.0000       0.041026         1.1164
  19   0.0000       0.042075         1.1449
  20   0.0000       0.058784         1.5996

MULLIKEN ATOMIC CHARGES AND SPIN POPULATIONS
--------------------------------------------
   0 Si:    0.911143    0.893255
   1 Cl:   -0.508797    0.032960
   2 H :   -0.201173    0.036893
   3 H :   -0.201173    0.036893
Sum of atomic charges         :    0.0000000

LOEWDIN ATOMIC CHARGES AND SPIN POPULATIONS
-------------------------------------------
   0 Si:    0.201463    0.587102
   1 Cl:    0.679927    0.139498
   2 H :   -0.440695    0.136700
   3 H :   -0.440695    0.136700

  Mayer bond orders larger than 0.100000
B(  0-Si,  1-Cl) :   0.7152 B(  0-Si,  2-H ) :   0.9184 B(  0-Si,  3-H ) :   0.9184

MP2 TOTAL ENERGY:     -749.969338301 Eh
FINAL SINGLE POINT ENERGY      -749.969338300620

DIPOLE MOMENT
-------------
                                X             Y             Z
Electronic contribution:     -3.68087      -0.00000      -1.06297
Nuclear contribution   :      4.22894       0.00000       1.05093
                        -----------------------------------------
Total Dipole Moment    :      0.54807      -0.00000      -0.01203
                        -----------------------------------------
Magnitude (a.u.)       :      0.54820
Magnitude (Debye)      :      1.39342

Rotational constants in cm-1:     4.349054     0.233299     0.226601
Rotational constants in MHz : 130381.345153  6994.125640  6793.328908

                             ****ORCA TERMINATED NORMALLY****
TOTAL RUN TIME: 0 days 0 hours 4 minutes 50 seconds 866 msec
