                         Program Version 5.0.4 -  RELEASE  -
|  1> ! ri-mp2 aug-cc-pvdz aug-cc-pvdz/c tightscf
|  2> %pal nprocs 16 end
|  3> %maxcore 3800
|  4> %base "DZ_B-P_22_B"
|  5> %scf
|  6> STABPerform true
|  7> STABRestartUHFifUnstable true
|  8> end
|  9>
| 10> *xyz 0 2
| 11> P        -0.000000    0.000000    0.115971
| 12> H        -0.000000   -1.019772   -0.869784
| 13> H         0.000000    1.019772   -0.869784
| 14> *
| 15>
| 16> $new_job
| 17> ! ri-mp2 aug-cc-pvtz aug-cc-pvtz/c tightscf
| 18> %pal nprocs 16 end
| 19> %maxcore 3800
| 20> %base "TZ_B-P_22_B"
| 21>
| 22> *xyz 0 2
| 23> P        -0.000000    0.000000    0.115971
| 24> H        -0.000000   -1.019772   -0.869784
| 25> H         0.000000    1.019772   -0.869784
| 26> *
| 27>
| 28> $new_job
| 29> ! ri-mp2 aug-cc-pvqz aug-cc-pvqz/c tightscf
| 30> %pal nprocs 16 end
| 31> %maxcore 3800
| 32> %base "QZ_B-P_22_B"
| 33>
| 34> *xyz 0 2
| 35> P        -0.000000    0.000000    0.115971
| 36> H        -0.000000   -1.019772   -0.869784
| 37> H         0.000000    1.019772   -0.869784
| 38> *
| 39>
| 40>
| 41>
| 42>
| 43>                          ****END OF INPUT****
 Total Charge           Charge          ....    0
 Multiplicity           Mult            ....    2
 Number of Electrons    NEL             ....   17
MP2 TOTAL ENERGY:     -341.987330126 Eh
FINAL SINGLE POINT ENERGY      -341.987330126235
MP2 TOTAL ENERGY:     -342.027405560 Eh
FINAL SINGLE POINT ENERGY      -342.027405559785

CARTESIAN COORDINATES (ANGSTROEM)
---------------------------------
  P     -0.000000    0.000000    0.115971
  H     -0.000000   -1.019772   -0.869784
  H      0.000000    1.019772   -0.869784

 Multiplicity           Mult            ....    2
 Number of Electrons    NEL             ....   17
 Basis Dimension        Dim             ....  176

ORBITAL ENERGIES
----------------
                 SPIN UP ORBITALS
  NO   OCC          E(Eh)            E(eV)
   0   1.0000     -79.957712     -2175.7600
   1   1.0000      -7.500965      -204.1116
   2   1.0000      -5.405687      -147.0962
   3   1.0000      -5.391637      -146.7139
   4   1.0000      -5.390084      -146.6717
   5   1.0000      -0.856217       -23.2988
   6   1.0000      -0.524757       -14.2794
   7   1.0000      -0.430282       -11.7086
   8   1.0000      -0.377064       -10.2604
   9   0.0000       0.026413         0.7187
  10   0.0000       0.047785         1.3003
  11   0.0000       0.065407         1.7798
  12   0.0000       0.070344         1.9141
  13   0.0000       0.079328         2.1586

                 SPIN DOWN ORBITALS
  NO   OCC          E(Eh)            E(eV)
   0   1.0000     -79.950752     -2175.5706
   1   1.0000      -7.492433      -203.8795
   2   1.0000      -5.386850      -146.5836
   3   1.0000      -5.386801      -146.5823
   4   1.0000      -5.372765      -146.2004
   5   1.0000      -0.787838       -21.4382
   6   1.0000      -0.519122       -14.1260
   7   1.0000      -0.408221       -11.1083
   8   0.0000       0.020164         0.5487
   9   0.0000       0.027652         0.7524
  10   0.0000       0.047950         1.3048
  11   0.0000       0.066296         1.8040
  12   0.0000       0.079618         2.1665

MULLIKEN ATOMIC CHARGES AND SPIN POPULATIONS
--------------------------------------------
   0 P :    0.161809    1.102394
   1 H :   -0.080905   -0.051197
   2 H :   -0.080905   -0.051197
Sum of atomic charges         :   -0.0000000

LOEWDIN ATOMIC CHARGES AND SPIN POPULATIONS
-------------------------------------------
   0 P :    1.417910    0.624296
   1 H :   -0.708955    0.187852
   2 H :   -0.708955    0.187852

  Mayer bond orders larger than 0.100000
B(  0-P ,  1-H ) :   0.9153 B(  0-P ,  2-H ) :   0.9153

MP2 TOTAL ENERGY:     -342.039936208 Eh
FINAL SINGLE POINT ENERGY      -342.039936207794

DIPOLE MOMENT
-------------
                                X             Y             Z
Electronic contribution:     -0.00000       0.00000       1.53678
Nuclear contribution   :      0.00000       0.00000      -1.79042
                        -----------------------------------------
Total Dipole Moment    :     -0.00000       0.00000      -0.25364
                        -----------------------------------------
Magnitude (a.u.)       :      0.25364
Magnitude (Debye)      :      0.64470

Rotational constants in cm-1:     9.165442     8.040818     4.283188
Rotational constants in MHz : 274773.041165 241057.645059 128406.750505

                             ****ORCA TERMINATED NORMALLY****
TOTAL RUN TIME: 0 days 0 hours 1 minutes 32 seconds 115 msec
