                         Program Version 5.0.4 -  RELEASE  -
|  1> ! ri-mp2 aug-cc-pvdz aug-cc-pvdz/c tightscf
|  2> %pal nprocs 16 end
|  3> %maxcore 3800
|  4> %base "DZ_B-P_40_AB"
|  5>
|  6> *xyz 0 1
|  7> B        -2.010970   -0.290004    0.072005
|  8> C         0.585082   -0.684713    0.295442
|  9> C         1.287816   -1.014823   -0.857115
| 10> C         1.185503    0.176723    1.206165
| 11> C         2.445752    0.698529    0.970323
| 12> C         3.132896    0.365104   -0.184442
| 13> C         2.548667   -0.496504   -1.097419
| 14> H         4.118197    0.771130   -0.369990
| 15> H         3.077733   -0.768319   -2.001561
| 16> H         0.838725   -1.687053   -1.578489
| 17> H         0.655918    0.446166    2.112125
| 18> H         2.893155    1.368050    1.693269
| 19> P        -1.755107    1.538356   -0.357187
| 20> C        -3.458134   -0.883872    0.111119
| 21> H        -3.582858   -1.664218    0.864729
| 22> H        -3.627858   -1.364153   -0.860635
| 23> H        -4.250870   -0.144952    0.229532
| 24> C        -0.805460   -1.197734    0.522537
| 25> H        -0.935586   -2.179158    0.054116
| 26> H        -0.969027   -1.382808    1.592302
| 27> H        -2.744563    1.712079   -1.345244
| 28> H        -0.624229    1.491647   -1.192041
| 29> *
| 30>
| 31> $new_job
| 32> ! ri-mp2 aug-cc-pvtz aug-cc-pvtz/c tightscf
| 33> %pal nprocs 16 end
| 34> %maxcore 3800
| 35> %base "TZ_B-P_40_AB"
| 36>
| 37> *xyz 0 1
| 38> B        -2.010970   -0.290004    0.072005
| 39> C         0.585082   -0.684713    0.295442
| 40> C         1.287816   -1.014823   -0.857115
| 41> C         1.185503    0.176723    1.206165
| 42> C         2.445752    0.698529    0.970323
| 43> C         3.132896    0.365104   -0.184442
| 44> C         2.548667   -0.496504   -1.097419
| 45> H         4.118197    0.771130   -0.369990
| 46> H         3.077733   -0.768319   -2.001561
| 47> H         0.838725   -1.687053   -1.578489
| 48> H         0.655918    0.446166    2.112125
| 49> H         2.893155    1.368050    1.693269
| 50> P        -1.755107    1.538356   -0.357187
| 51> C        -3.458134   -0.883872    0.111119
| 52> H        -3.582858   -1.664218    0.864729
| 53> H        -3.627858   -1.364153   -0.860635
| 54> H        -4.250870   -0.144952    0.229532
| 55> C        -0.805460   -1.197734    0.522537
| 56> H        -0.935586   -2.179158    0.054116
| 57> H        -0.969027   -1.382808    1.592302
| 58> H        -2.744563    1.712079   -1.345244
| 59> H        -0.624229    1.491647   -1.192041
| 60> *
| 61>
| 62> $new_job
| 63> ! ri-mp2 aug-cc-pvqz aug-cc-pvqz/c tightscf
| 64> %pal nprocs 16 end
| 65> %maxcore 3800
| 66> %base "QZ_B-P_40_AB"
| 67>
| 68> *xyz 0 1
| 69> B        -2.010970   -0.290004    0.072005
| 70> C         0.585082   -0.684713    0.295442
| 71> C         1.287816   -1.014823   -0.857115
| 72> C         1.185503    0.176723    1.206165
| 73> C         2.445752    0.698529    0.970323
| 74> C         3.132896    0.365104   -0.184442
| 75> C         2.548667   -0.496504   -1.097419
| 76> H         4.118197    0.771130   -0.369990
| 77> H         3.077733   -0.768319   -2.001561
| 78> H         0.838725   -1.687053   -1.578489
| 79> H         0.655918    0.446166    2.112125
| 80> H         2.893155    1.368050    1.693269
| 81> P        -1.755107    1.538356   -0.357187
| 82> C        -3.458134   -0.883872    0.111119
| 83> H        -3.582858   -1.664218    0.864729
| 84> H        -3.627858   -1.364153   -0.860635
| 85> H        -4.250870   -0.144952    0.229532
| 86> C        -0.805460   -1.197734    0.522537
| 87> H        -0.935586   -2.179158    0.054116
| 88> H        -0.969027   -1.382808    1.592302
| 89> H        -2.744563    1.712079   -1.345244
| 90> H        -0.624229    1.491647   -1.192041
| 91> *
| 92>
| 93>
| 94>
| 95>
| 96>                          ****END OF INPUT****
 Total Charge           Charge          ....    0
 Multiplicity           Mult            ....    1
 Number of Electrons    NEL             ....   80
MP2 TOTAL ENERGY:     -676.727383507 Eh
FINAL SINGLE POINT ENERGY      -676.727383506844
MP2 TOTAL ENERGY:     -677.070934043 Eh
FINAL SINGLE POINT ENERGY      -677.070934042835

CARTESIAN COORDINATES (ANGSTROEM)
---------------------------------
  B     -2.010970   -0.290004    0.072005
  C      0.585082   -0.684713    0.295442
  C      1.287816   -1.014823   -0.857115
  C      1.185503    0.176723    1.206165
  C      2.445752    0.698529    0.970323
  C      3.132896    0.365104   -0.184442
  C      2.548667   -0.496504   -1.097419
  H      4.118197    0.771130   -0.369990
  H      3.077733   -0.768319   -2.001561
  H      0.838725   -1.687053   -1.578489
  H      0.655918    0.446166    2.112125
  H      2.893155    1.368050    1.693269
  P     -1.755107    1.538356   -0.357187
  C     -3.458134   -0.883872    0.111119
  H     -3.582858   -1.664218    0.864729
  H     -3.627858   -1.364153   -0.860635
  H     -4.250870   -0.144952    0.229532
  C     -0.805460   -1.197734    0.522537
  H     -0.935586   -2.179158    0.054116
  H     -0.969027   -1.382808    1.592302
  H     -2.744563    1.712079   -1.345244
  H     -0.624229    1.491647   -1.192041

 Multiplicity           Mult            ....    1
 Number of Electrons    NEL             ....   80
 Basis Dimension        Dim             .... 1356

ORBITAL ENERGIES
----------------

  NO   OCC          E(Eh)            E(eV)
   0   2.0000     -79.913689     -2174.5620
   1   2.0000     -11.237847      -305.7974
   2   2.0000     -11.230689      -305.6026
   3   2.0000     -11.230295      -305.5919
   4   2.0000     -11.225123      -305.4511
   5   2.0000     -11.224954      -305.4465
   6   2.0000     -11.224439      -305.4325
   7   2.0000     -11.211334      -305.0759
   8   2.0000     -11.199831      -304.7629
   9   2.0000      -7.603953      -206.9141
  10   2.0000      -7.460287      -203.0047
  11   2.0000      -5.354644      -145.7073
  12   2.0000      -5.354182      -145.6947
  13   2.0000      -5.353949      -145.6884
  14   2.0000      -1.158287       -31.5186
  15   2.0000      -1.050588       -28.5880
  16   2.0000      -1.014513       -27.6063
  17   2.0000      -0.969175       -26.3726
  18   2.0000      -0.925757       -25.1911
  19   2.0000      -0.841160       -22.8891
  20   2.0000      -0.827011       -22.5041
  21   2.0000      -0.800613       -21.7858
  22   2.0000      -0.697674       -18.9847
  23   2.0000      -0.638115       -17.3640
  24   2.0000      -0.635168       -17.2838
  25   2.0000      -0.615286       -16.7428
  26   2.0000      -0.585025       -15.9193
  27   2.0000      -0.580382       -15.7930
  28   2.0000      -0.569580       -15.4991
  29   2.0000      -0.562189       -15.2979
  30   2.0000      -0.532857       -14.4998
  31   2.0000      -0.531156       -14.4535
  32   2.0000      -0.500178       -13.6105
  33   2.0000      -0.493055       -13.4167
  34   2.0000      -0.486284       -13.2325
  35   2.0000      -0.459329       -12.4990
  36   2.0000      -0.440477       -11.9860
  37   2.0000      -0.352772        -9.5994
  38   2.0000      -0.335095        -9.1184
  39   2.0000      -0.322138        -8.7658
  40   0.0000       0.020372         0.5543
  41   0.0000       0.027568         0.7502
  42   0.0000       0.029340         0.7984
  43   0.0000       0.033420         0.9094
  44   0.0000       0.039029         1.0620

MULLIKEN ATOMIC CHARGES
-----------------------
   0 B :    0.230663
   1 C :    0.268563
   2 C :   -0.520517
   3 C :   -0.389167
   4 C :   -0.322554
   5 C :   -0.315307
   6 C :   -0.332388
   7 H :    0.347309
   8 H :    0.231834
   9 H :    0.286538
  10 H :    0.287322
  11 H :    0.220607
  12 P :    0.220543
  13 C :   -1.082537
  14 H :    0.317919
  15 H :    0.275388
  16 H :    0.329690
  17 C :   -0.292548
  18 H :    0.265510
  19 H :    0.212242
  20 H :   -0.178894
  21 H :   -0.060216
Sum of atomic charges:   -0.0000000

LOEWDIN ATOMIC CHARGES
----------------------
   0 B :   -0.758789
   1 C :   -0.145280
   2 C :    0.334337
   3 C :    0.317845
   4 C :    0.342895
   5 C :    0.334375
   6 C :    0.341085
   7 H :   -0.323840
   8 H :   -0.318641
   9 H :   -0.310134
  10 H :   -0.309427
  11 H :   -0.317121
  12 P :    1.684800
  13 C :    0.994943
  14 H :   -0.299581
  15 H :   -0.296318
  16 H :   -0.316744
  17 C :    0.570224
  18 H :   -0.295881
  19 H :   -0.291176
  20 H :   -0.473953
  21 H :   -0.463618

  Mayer bond orders larger than 0.100000
B(  0-B , 12-P ) :   0.9545 B(  0-B , 13-C ) :   0.9988 B(  0-B , 17-C ) :   0.9362
B(  1-C ,  2-C ) :   1.0829 B(  1-C ,  3-C ) :   1.0821 B(  1-C ,  4-C ) :  -0.3021
B(  1-C ,  6-C ) :  -0.3540 B(  1-C , 17-C ) :   0.9493 B(  2-C ,  4-C ) :   0.1770
B(  2-C ,  6-C ) :   1.3621 B(  2-C ,  8-H ) :  -0.1474 B(  2-C ,  9-H ) :   0.9559
B(  2-C , 17-C ) :  -0.2392 B(  3-C ,  4-C ) :   1.3254 B(  3-C ,  6-C ) :   0.1666
B(  3-C , 10-H ) :   0.9562 B(  3-C , 11-H ) :  -0.1422 B(  3-C , 17-C ) :  -0.2511
B(  4-C ,  5-C ) :   1.1329 B(  4-C , 11-H ) :   1.1700 B(  5-C ,  6-C ) :   1.1329
B(  5-C ,  7-H ) :   0.9800 B(  5-C ,  8-H ) :  -0.1024 B(  6-C ,  8-H ) :   1.1640
B( 12-P , 20-H ) :   0.9637 B( 12-P , 21-H ) :   0.9259 B( 13-C , 14-H ) :   0.8823
B( 13-C , 15-H ) :   0.9265 B( 13-C , 16-H ) :   0.8787 B( 17-C , 18-H ) :   0.9314
B( 17-C , 19-H ) :   0.9073

MP2 TOTAL ENERGY:     -677.178253263 Eh
FINAL SINGLE POINT ENERGY      -677.178253262979

DIPOLE MOMENT
-------------
                                X             Y             Z
Electronic contribution:      1.70985       4.17577       0.36440
Nuclear contribution   :     -1.86275      -4.64157      -0.52070
                        -----------------------------------------
Total Dipole Moment    :     -0.15289      -0.46581      -0.15629
                        -----------------------------------------
Magnitude (a.u.)       :      0.51457
Magnitude (Debye)      :      1.30792

Rotational constants in cm-1:     0.071974     0.021823     0.020023
Rotational constants in MHz :  2157.733408   654.239951   600.278743

                             ****ORCA TERMINATED NORMALLY****
TOTAL RUN TIME: 0 days 1 hours 4 minutes 28 seconds 788 msec
