                         Program Version 5.0.4 -  RELEASE  -
|  1> ! ri-mp2 aug-cc-pvdz aug-cc-pvdz/c tightscf
|  2> %pal nprocs 16 end
|  3> %maxcore 3800
|  4> %base "DZ_B-Cl_26_AB"
|  5> %scf
|  6> STABPerform true
|  7> STABRestartUHFifUnstable true
|  8> end
|  9>
| 10> *xyz 0 1
| 11> Cl         2.602808   -1.137536   -0.006681
| 12> Cl         1.383269    1.629918    0.022140
| 13> B         1.193554   -0.115134   -0.000741
| 14> P        -1.506160   -0.115347    0.099366
| 15> O        -1.825599    0.467335    1.390646
| 16> O        -1.661831    0.832832   -1.153523
| 17> H        -1.484463    1.758097   -0.945640
| 18> O        -2.312226   -1.390680   -0.336716
| 19> H        -3.095123   -1.536731    0.206082
| 20> O        -0.020231   -0.695236   -0.026662
| 21> *
| 22>
| 23> $new_job
| 24> ! ri-mp2 aug-cc-pvtz aug-cc-pvtz/c tightscf
| 25> %pal nprocs 16 end
| 26> %maxcore 3800
| 27> %base "TZ_B-Cl_26_AB"
| 28>
| 29> *xyz 0 1
| 30> Cl         2.602808   -1.137536   -0.006681
| 31> Cl         1.383269    1.629918    0.022140
| 32> B         1.193554   -0.115134   -0.000741
| 33> P        -1.506160   -0.115347    0.099366
| 34> O        -1.825599    0.467335    1.390646
| 35> O        -1.661831    0.832832   -1.153523
| 36> H        -1.484463    1.758097   -0.945640
| 37> O        -2.312226   -1.390680   -0.336716
| 38> H        -3.095123   -1.536731    0.206082
| 39> O        -0.020231   -0.695236   -0.026662
| 40> *
| 41>
| 42> $new_job
| 43> ! ri-mp2 aug-cc-pvqz aug-cc-pvqz/c tightscf
| 44> %pal nprocs 16 end
| 45> %maxcore 3800
| 46> %base "QZ_B-Cl_26_AB"
| 47>
| 48> *xyz 0 1
| 49> Cl         2.602808   -1.137536   -0.006681
| 50> Cl         1.383269    1.629918    0.022140
| 51> B         1.193554   -0.115134   -0.000741
| 52> P        -1.506160   -0.115347    0.099366
| 53> O        -1.825599    0.467335    1.390646
| 54> O        -1.661831    0.832832   -1.153523
| 55> H        -1.484463    1.758097   -0.945640
| 56> O        -2.312226   -1.390680   -0.336716
| 57> H        -3.095123   -1.536731    0.206082
| 58> O        -0.020231   -0.695236   -0.026662
| 59> *
| 60>
| 61>
| 62>
| 63>
| 64>                          ****END OF INPUT****
 Total Charge           Charge          ....    0
 Multiplicity           Mult            ....    1
 Number of Electrons    NEL             ....   88
MP2 TOTAL ENERGY:    -1586.618496388 Eh
FINAL SINGLE POINT ENERGY     -1586.618496387604
MP2 TOTAL ENERGY:    -1587.100496433 Eh
FINAL SINGLE POINT ENERGY     -1587.100496433099

CARTESIAN COORDINATES (ANGSTROEM)
---------------------------------
  Cl     2.602808   -1.137536   -0.006681
  Cl     1.383269    1.629918    0.022140
  B      1.193554   -0.115134   -0.000741
  P     -1.506160   -0.115347    0.099366
  O     -1.825599    0.467335    1.390646
  O     -1.661831    0.832832   -1.153523
  H     -1.484463    1.758097   -0.945640
  O     -2.312226   -1.390680   -0.336716
  H     -3.095123   -1.536731    0.206082
  O     -0.020231   -0.695236   -0.026662

 Multiplicity           Mult            ....    1
 Number of Electrons    NEL             ....   88
 Basis Dimension        Dim             ....  744

ORBITAL ENERGIES
----------------

  NO   OCC          E(Eh)            E(eV)
   0   2.0000    -104.860361     -2853.3955
   1   2.0000    -104.853191     -2853.2004
   2   2.0000     -80.121817     -2180.2255
   3   2.0000     -20.627227      -561.2954
   4   2.0000     -20.622276      -561.1606
   5   2.0000     -20.621349      -561.1354
   6   2.0000     -20.529161      -558.6269
   7   2.0000     -10.588293      -288.1221
   8   2.0000     -10.581053      -287.9251
   9   2.0000      -8.055150      -219.1918
  10   2.0000      -8.053980      -219.1599
  11   2.0000      -8.053829      -219.1558
  12   2.0000      -8.047941      -218.9956
  13   2.0000      -8.046746      -218.9631
  14   2.0000      -8.046537      -218.9574
  15   2.0000      -7.764941      -211.2948
  16   2.0000      -7.639374      -207.8779
  17   2.0000      -5.538331      -150.7056
  18   2.0000      -5.538054      -150.6981
  19   2.0000      -5.536931      -150.6675
  20   2.0000      -1.491168       -40.5767
  21   2.0000      -1.424165       -38.7535
  22   2.0000      -1.413073       -38.4517
  23   2.0000      -1.324933       -36.0533
  24   2.0000      -1.157011       -31.4839
  25   2.0000      -1.119130       -30.4531
  26   2.0000      -0.915211       -24.9041
  27   2.0000      -0.810404       -22.0522
  28   2.0000      -0.763318       -20.7709
  29   2.0000      -0.705781       -19.2053
  30   2.0000      -0.690423       -18.7874
  31   2.0000      -0.663010       -18.0414
  32   2.0000      -0.649082       -17.6624
  33   2.0000      -0.644479       -17.5372
  34   2.0000      -0.606394       -16.5008
  35   2.0000      -0.579951       -15.7813
  36   2.0000      -0.576152       -15.6779
  37   2.0000      -0.540501       -14.7078
  38   2.0000      -0.518353       -14.1051
  39   2.0000      -0.510122       -13.8811
  40   2.0000      -0.493149       -13.4193
  41   2.0000      -0.490639       -13.3510
  42   2.0000      -0.481450       -13.1009
  43   2.0000      -0.469827       -12.7846
  44   0.0000       0.022831         0.6213
  45   0.0000       0.030411         0.8275
  46   0.0000       0.037154         1.0110
  47   0.0000       0.044069         1.1992
  48   0.0000       0.049990         1.3603

MULLIKEN ATOMIC CHARGES
-----------------------
   0 Cl:   -0.123982
   1 Cl:   -0.244203
   2 B :    1.023080
   3 P :    2.702228
   4 O :   -1.104423
   5 O :   -0.881078
   6 H :    0.404366
   7 O :   -0.946529
   8 H :    0.352674
   9 O :   -1.182134
Sum of atomic charges:   -0.0000000

LOEWDIN ATOMIC CHARGES
----------------------
   0 Cl:    1.230723
   1 Cl:    1.263325
   2 B :   -2.816724
   3 P :   -1.046567
   4 O :    0.316070
   5 O :    1.100362
   6 H :   -0.879837
   7 O :    1.101359
   8 H :   -0.850921
   9 O :    0.582211

  Mayer bond orders larger than 0.100000
B(  0-Cl,  2-B ) :   1.0907 B(  1-Cl,  2-B ) :   1.0409 B(  2-B ,  9-O ) :   0.4253
B(  3-P ,  4-O ) :   1.3870 B(  3-P ,  5-O ) :   0.6551 B(  3-P ,  7-O ) :   0.5340
B(  3-P ,  9-O ) :   0.6655 B(  5-O ,  6-H ) :   0.8626 B(  7-O ,  8-H ) :   0.9337

MP2 TOTAL ENERGY:    -1587.259119502 Eh
FINAL SINGLE POINT ENERGY     -1587.259119502193

DIPOLE MOMENT
-------------
                                X             Y             Z
Electronic contribution:      8.80525       0.32398       0.25214
Nuclear contribution   :     -9.15717      -0.27081      -0.79323
                        -----------------------------------------
Total Dipole Moment    :     -0.35192       0.05317      -0.54110
                        -----------------------------------------
Magnitude (a.u.)       :      0.64766
Magnitude (Debye)      :      1.64622

Rotational constants in cm-1:     0.066194     0.026202     0.021407
Rotational constants in MHz :  1984.439026   785.503224   641.771869

                             ****ORCA TERMINATED NORMALLY****
TOTAL RUN TIME: 0 days 1 hours 3 minutes 53 seconds 205 msec
