                         Program Version 5.0.4 -  RELEASE  -
|  1> ! ri-mp2 aug-cc-pvdz aug-cc-pvdz/c tightscf
|  2> %pal nprocs 16 end
|  3> %maxcore 3800
|  4> %base "DZ_P-Si_23_AB"
|  5>
|  6> *xyz 0 1
|  7> P         2.529485   -0.000001   -0.071362
|  8> C         1.988715    1.417454   -1.128674
|  9> C        -0.832680   -0.000002    0.644540
| 10> C         1.988713   -1.417447   -1.128684
| 11> H         2.637366   -1.469675   -2.003337
| 12> H         0.955443   -1.331382   -1.466063
| 13> H         2.104194   -2.350684   -0.577657
| 14> H         0.955445    1.331392   -1.466054
| 15> H         2.637368    1.469687   -2.003327
| 16> H         2.104197    2.350686   -0.577641
| 17> C        -1.466343    1.195039    0.305928
| 18> C        -1.466345   -1.195040    0.305924
| 19> C        -2.687181   -1.198011   -0.346754
| 20> C        -3.299161    0.000002   -0.675402
| 21> C        -2.687179    1.198014   -0.346750
| 22> H        -3.163842    2.136833   -0.596770
| 23> H        -1.003872    2.141079    0.561541
| 24> H        -3.163845   -2.136829   -0.596777
| 25> H        -4.254329    0.000004   -1.183816
| 26> H        -1.003875   -2.141081    0.561534
| 27> Si         0.857901   -0.000004    1.434977
| 28> H         1.005811   -1.211802    2.274166
| 29> H         1.005813    1.211788    2.274174
| 30> *
| 31>
| 32> $new_job
| 33> ! ri-mp2 aug-cc-pvtz aug-cc-pvtz/c tightscf
| 34> %pal nprocs 16 end
| 35> %maxcore 3800
| 36> %base "TZ_P-Si_23_AB"
| 37>
| 38> *xyz 0 1
| 39> P         2.529485   -0.000001   -0.071362
| 40> C         1.988715    1.417454   -1.128674
| 41> C        -0.832680   -0.000002    0.644540
| 42> C         1.988713   -1.417447   -1.128684
| 43> H         2.637366   -1.469675   -2.003337
| 44> H         0.955443   -1.331382   -1.466063
| 45> H         2.104194   -2.350684   -0.577657
| 46> H         0.955445    1.331392   -1.466054
| 47> H         2.637368    1.469687   -2.003327
| 48> H         2.104197    2.350686   -0.577641
| 49> C        -1.466343    1.195039    0.305928
| 50> C        -1.466345   -1.195040    0.305924
| 51> C        -2.687181   -1.198011   -0.346754
| 52> C        -3.299161    0.000002   -0.675402
| 53> C        -2.687179    1.198014   -0.346750
| 54> H        -3.163842    2.136833   -0.596770
| 55> H        -1.003872    2.141079    0.561541
| 56> H        -3.163845   -2.136829   -0.596777
| 57> H        -4.254329    0.000004   -1.183816
| 58> H        -1.003875   -2.141081    0.561534
| 59> Si         0.857901   -0.000004    1.434977
| 60> H         1.005811   -1.211802    2.274166
| 61> H         1.005813    1.211788    2.274174
| 62> *
| 63>
| 64> $new_job
| 65> ! ri-mp2 aug-cc-pvqz aug-cc-pvqz/c tightscf
| 66> %pal nprocs 16 end
| 67> %maxcore 3800
| 68> %base "QZ_P-Si_23_AB"
| 69>
| 70> *xyz 0 1
| 71> P         2.529485   -0.000001   -0.071362
| 72> C         1.988715    1.417454   -1.128674
| 73> C        -0.832680   -0.000002    0.644540
| 74> C         1.988713   -1.417447   -1.128684
| 75> H         2.637366   -1.469675   -2.003337
| 76> H         0.955443   -1.331382   -1.466063
| 77> H         2.104194   -2.350684   -0.577657
| 78> H         0.955445    1.331392   -1.466054
| 79> H         2.637368    1.469687   -2.003327
| 80> H         2.104197    2.350686   -0.577641
| 81> C        -1.466343    1.195039    0.305928
| 82> C        -1.466345   -1.195040    0.305924
| 83> C        -2.687181   -1.198011   -0.346754
| 84> C        -3.299161    0.000002   -0.675402
| 85> C        -2.687179    1.198014   -0.346750
| 86> H        -3.163842    2.136833   -0.596770
| 87> H        -1.003872    2.141079    0.561541
| 88> H        -3.163845   -2.136829   -0.596777
| 89> H        -4.254329    0.000004   -1.183816
| 90> H        -1.003875   -2.141081    0.561534
| 91> Si         0.857901   -0.000004    1.434977
| 92> H         1.005811   -1.211802    2.274166
| 93> H         1.005813    1.211788    2.274174
| 94> *
| 95>
| 96>
| 97>
| 98>
| 99>                          ****END OF INPUT****
 Total Charge           Charge          ....    0
 Multiplicity           Mult            ....    1
 Number of Electrons    NEL             ....   90
MP2 TOTAL ENERGY:     -941.580828664 Eh
FINAL SINGLE POINT ENERGY      -941.580828664430
MP2 TOTAL ENERGY:     -941.944435027 Eh
FINAL SINGLE POINT ENERGY      -941.944435026959

CARTESIAN COORDINATES (ANGSTROEM)
---------------------------------
  P      2.529485   -0.000001   -0.071362
  C      1.988715    1.417454   -1.128674
  C     -0.832680   -0.000002    0.644540
  C      1.988713   -1.417447   -1.128684
  H      2.637366   -1.469675   -2.003337
  H      0.955443   -1.331382   -1.466063
  H      2.104194   -2.350684   -0.577657
  H      0.955445    1.331392   -1.466054
  H      2.637368    1.469687   -2.003327
  H      2.104197    2.350686   -0.577641
  C     -1.466343    1.195039    0.305928
  C     -1.466345   -1.195040    0.305924
  C     -2.687181   -1.198011   -0.346754
  C     -3.299161    0.000002   -0.675402
  C     -2.687179    1.198014   -0.346750
  H     -3.163842    2.136833   -0.596770
  H     -1.003872    2.141079    0.561541
  H     -3.163845   -2.136829   -0.596777
  H     -4.254329    0.000004   -1.183816
  H     -1.003875   -2.141081    0.561534
  Si     0.857901   -0.000004    1.434977
  H      1.005811   -1.211802    2.274166
  H      1.005813    1.211788    2.274174

 Multiplicity           Mult            ....    1
 Number of Electrons    NEL             ....   90
 Basis Dimension        Dim             .... 1406

ORBITAL ENERGIES
----------------

  NO   OCC          E(Eh)            E(eV)
   0   2.0000     -79.917801     -2174.6739
   1   2.0000     -68.765136     -1871.1945
   2   2.0000     -11.240505      -305.8697
   3   2.0000     -11.240437      -305.8678
   4   2.0000     -11.240022      -305.8565
   5   2.0000     -11.236480      -305.7602
   6   2.0000     -11.236254      -305.7540
   7   2.0000     -11.224137      -305.4243
   8   2.0000     -11.221178      -305.3438
   9   2.0000     -11.221169      -305.3435
  10   2.0000      -7.461025      -203.0248
  11   2.0000      -6.115197      -166.4030
  12   2.0000      -5.355092      -145.7195
  13   2.0000      -5.355031      -145.7178
  14   2.0000      -5.354115      -145.6929
  15   2.0000      -4.221511      -114.8732
  16   2.0000      -4.221343      -114.8686
  17   2.0000      -4.220980      -114.8587
  18   2.0000      -1.159756       -31.5586
  19   2.0000      -1.023075       -27.8393
  20   2.0000      -1.022438       -27.8220
  21   2.0000      -0.999032       -27.1850
  22   2.0000      -0.936304       -25.4781
  23   2.0000      -0.831924       -22.6378
  24   2.0000      -0.831416       -22.6240
  25   2.0000      -0.760596       -20.6969
  26   2.0000      -0.714800       -19.4507
  27   2.0000      -0.661644       -18.0042
  28   2.0000      -0.631473       -17.1833
  29   2.0000      -0.629777       -17.1371
  30   2.0000      -0.593693       -16.1552
  31   2.0000      -0.588153       -16.0045
  32   2.0000      -0.580875       -15.8064
  33   2.0000      -0.558152       -15.1881
  34   2.0000      -0.552825       -15.0431
  35   2.0000      -0.551967       -15.0198
  36   2.0000      -0.511952       -13.9309
  37   2.0000      -0.499082       -13.5807
  38   2.0000      -0.483795       -13.1647
  39   2.0000      -0.455577       -12.3969
  40   2.0000      -0.454789       -12.3754
  41   2.0000      -0.414916       -11.2904
  42   2.0000      -0.349634        -9.5140
  43   2.0000      -0.344827        -9.3832
  44   2.0000      -0.316621        -8.6157
  45   0.0000       0.020503         0.5579
  46   0.0000       0.027236         0.7411
  47   0.0000       0.029447         0.8013
  48   0.0000       0.033577         0.9137
  49   0.0000       0.039845         1.0842

MULLIKEN ATOMIC CHARGES
-----------------------
   0 P :    0.318962
   1 C :   -1.207212
   2 C :    0.097113
   3 C :   -1.207216
   4 H :    0.345065
   5 H :    0.347997
   6 H :    0.308104
   7 H :    0.347995
   8 H :    0.345066
   9 H :    0.308102
  10 C :   -0.455827
  11 C :   -0.455819
  12 C :   -0.300292
  13 C :   -0.450824
  14 C :   -0.300292
  15 H :    0.246702
  16 H :    0.307292
  17 H :    0.246706
  18 H :    0.353345
  19 H :    0.307291
  20 Si:    1.573599
  21 H :   -0.537928
  22 H :   -0.537929
Sum of atomic charges:    0.0000000

LOEWDIN ATOMIC CHARGES
----------------------
   0 P :    0.894361
   1 C :    0.711031
   2 C :   -0.134027
   3 C :    0.711030
   4 H :   -0.357055
   5 H :   -0.365910
   6 H :   -0.361981
   7 H :   -0.365910
   8 H :   -0.357054
   9 H :   -0.361982
  10 C :    0.244207
  11 C :    0.244207
  12 C :    0.342468
  13 C :    0.337492
  14 C :    0.342468
  15 H :   -0.318381
  16 H :   -0.334643
  17 H :   -0.318380
  18 H :   -0.318734
  19 H :   -0.334644
  20 Si:    0.573663
  21 H :   -0.236114
  22 H :   -0.236114

  Mayer bond orders larger than 0.100000
B(  0-P ,  1-C ) :   0.8677 B(  0-P ,  3-C ) :   0.8677 B(  0-P , 20-Si) :   0.7871
B(  1-C ,  7-H ) :   0.8272 B(  1-C ,  8-H ) :   0.9298 B(  1-C ,  9-H ) :   0.8915
B(  2-C , 10-C ) :   0.9416 B(  2-C , 11-C ) :   0.9416 B(  2-C , 12-C ) :  -0.3134
B(  2-C , 14-C ) :  -0.3134 B(  2-C , 16-H ) :  -0.1297 B(  2-C , 19-H ) :  -0.1297
B(  2-C , 20-Si) :   1.0461 B(  3-C ,  4-H ) :   0.9298 B(  3-C ,  5-H ) :   0.8272
B(  3-C ,  6-H ) :   0.8915 B( 10-C , 12-C ) :   0.1505 B( 10-C , 13-C ) :   0.1155
B( 10-C , 14-C ) :   1.3267 B( 10-C , 15-H ) :  -0.1553 B( 10-C , 16-H ) :   0.9320
B( 10-C , 20-Si) :  -0.1771 B( 11-C , 12-C ) :   1.3267 B( 11-C , 13-C ) :   0.1155
B( 11-C , 14-C ) :   0.1505 B( 11-C , 17-H ) :  -0.1553 B( 11-C , 19-H ) :   0.9320
B( 11-C , 20-Si) :  -0.1771 B( 12-C , 13-C ) :   1.1695 B( 12-C , 17-H ) :   1.1235
B( 13-C , 14-C ) :   1.1695 B( 13-C , 18-H ) :   0.9797 B( 14-C , 15-H ) :   1.1235
B( 20-Si, 21-H ) :   0.4111 B( 20-Si, 22-H ) :   0.4111

MP2 TOTAL ENERGY:     -942.057679688 Eh
FINAL SINGLE POINT ENERGY      -942.057679688071

DIPOLE MOMENT
-------------
                                X             Y             Z
Electronic contribution:      0.97338      -0.00001       4.29851
Nuclear contribution   :     -1.65279       0.00002      -4.84136
                        -----------------------------------------
Total Dipole Moment    :     -0.67941       0.00000      -0.54285
                        -----------------------------------------
Magnitude (a.u.)       :      0.86964
Magnitude (Debye)      :      2.21046

Rotational constants in cm-1:     0.058563     0.019252     0.018672
Rotational constants in MHz :  1755.667429   577.146168   559.765022

                             ****ORCA TERMINATED NORMALLY****
TOTAL RUN TIME: 0 days 1 hours 27 minutes 36 seconds 979 msec
