                         Program Version 5.0.4 -  RELEASE  -
|  1> ! ri-mp2 aug-cc-pvdz aug-cc-pvdz/c tightscf
|  2> %pal nprocs 16 end
|  3> %maxcore 3800
|  4> %base "DZ_P-F_6_AB"
|  5> %scf
|  6> STABPerform true
|  7> STABRestartUHFifUnstable true
|  8> end
|  9>
| 10> *xyz 0 1
| 11> F         0.000000   -1.411980   -1.681516
| 12> F        -2.559631    1.427521    0.357195
| 13> F         2.559635    1.427515    0.357195
| 14> P        -0.000003   -2.064738   -0.191729
| 15> P        -1.665525    0.605652   -0.651092
| 16> P         1.665527    0.605648   -0.651092
| 17> C         1.331156   -0.892127    0.459106
| 18> C        -1.331159   -0.892125    0.459104
| 19> C         0.000002    1.383321   -0.182274
| 20> O         1.912455   -1.079699    1.480217
| 21> O        -1.912461   -1.079697    1.480214
| 22> O         0.000003    2.436852    0.376721
| 23> *
| 24>
| 25> $new_job
| 26> ! ri-mp2 aug-cc-pvtz aug-cc-pvtz/c tightscf
| 27> %pal nprocs 16 end
| 28> %maxcore 3800
| 29> %base "TZ_P-F_6_AB"
| 30>
| 31> *xyz 0 1
| 32> F         0.000000   -1.411980   -1.681516
| 33> F        -2.559631    1.427521    0.357195
| 34> F         2.559635    1.427515    0.357195
| 35> P        -0.000003   -2.064738   -0.191729
| 36> P        -1.665525    0.605652   -0.651092
| 37> P         1.665527    0.605648   -0.651092
| 38> C         1.331156   -0.892127    0.459106
| 39> C        -1.331159   -0.892125    0.459104
| 40> C         0.000002    1.383321   -0.182274
| 41> O         1.912455   -1.079699    1.480217
| 42> O        -1.912461   -1.079697    1.480214
| 43> O         0.000003    2.436852    0.376721
| 44> *
| 45>
| 46> $new_job
| 47> ! ri-mp2 aug-cc-pvqz aug-cc-pvqz/c tightscf
| 48> %pal nprocs 16 end
| 49> %maxcore 3800
| 50> %base "QZ_P-F_6_AB"
| 51>
| 52> *xyz 0 1
| 53> F         0.000000   -1.411980   -1.681516
| 54> F        -2.559631    1.427521    0.357195
| 55> F         2.559635    1.427515    0.357195
| 56> P        -0.000003   -2.064738   -0.191729
| 57> P        -1.665525    0.605652   -0.651092
| 58> P         1.665527    0.605648   -0.651092
| 59> C         1.331156   -0.892127    0.459106
| 60> C        -1.331159   -0.892125    0.459104
| 61> C         0.000002    1.383321   -0.182274
| 62> O         1.912455   -1.079699    1.480217
| 63> O        -1.912461   -1.079697    1.480214
| 64> O         0.000003    2.436852    0.376721
| 65> *
| 66>
| 67>
| 68>
| 69>
| 70>                          ****END OF INPUT****
 Total Charge           Charge          ....    0
 Multiplicity           Mult            ....    1
 Number of Electrons    NEL             ....  114
MP2 TOTAL ENERGY:    -1660.726057494 Eh
FINAL SINGLE POINT ENERGY     -1660.726057493715
MP2 TOTAL ENERGY:    -1661.378716724 Eh
FINAL SINGLE POINT ENERGY     -1661.378716724246

CARTESIAN COORDINATES (ANGSTROEM)
---------------------------------
  F      0.000000   -1.411980   -1.681516
  F     -2.559631    1.427521    0.357195
  F      2.559635    1.427515    0.357195
  P     -0.000003   -2.064738   -0.191729
  P     -1.665525    0.605652   -0.651092
  P      1.665527    0.605648   -0.651092
  C      1.331156   -0.892127    0.459106
  C     -1.331159   -0.892125    0.459104
  C      0.000002    1.383321   -0.182274
  O      1.912455   -1.079699    1.480217
  O     -1.912461   -1.079697    1.480214
  O      0.000003    2.436852    0.376721

 Multiplicity           Mult            ....    1
 Number of Electrons    NEL             ....  114
 Basis Dimension        Dim             ....  972

ORBITAL ENERGIES
----------------

  NO   OCC          E(Eh)            E(eV)
   0   2.0000     -80.072155     -2178.8741
   1   2.0000     -80.060203     -2178.5489
   2   2.0000     -80.060202     -2178.5489
   3   2.0000     -26.362573      -717.3621
   4   2.0000     -26.336337      -716.6482
   5   2.0000     -26.336337      -716.6482
   6   2.0000     -20.625991      -561.2617
   7   2.0000     -20.625990      -561.2617
   8   2.0000     -20.615218      -560.9686
   9   2.0000     -11.393275      -310.0268
  10   2.0000     -11.393273      -310.0267
  11   2.0000     -11.387126      -309.8595
  12   2.0000      -7.607515      -207.0110
  13   2.0000      -7.594918      -206.6682
  14   2.0000      -7.594911      -206.6680
  15   2.0000      -5.500890      -149.6868
  16   2.0000      -5.499493      -149.6488
  17   2.0000      -5.498883      -149.6322
  18   2.0000      -5.488730      -149.3559
  19   2.0000      -5.488729      -149.3559
  20   2.0000      -5.487541      -149.3236
  21   2.0000      -5.487536      -149.3234
  22   2.0000      -5.486761      -149.3024
  23   2.0000      -5.486756      -149.3022
  24   2.0000      -1.669884       -45.4398
  25   2.0000      -1.647846       -44.8402
  26   2.0000      -1.647520       -44.8313
  27   2.0000      -1.469299       -39.9816
  28   2.0000      -1.466261       -39.8990
  29   2.0000      -1.457766       -39.6678
  30   2.0000      -1.039100       -28.2754
  31   2.0000      -0.956201       -26.0196
  32   2.0000      -0.955497       -26.0004
  33   2.0000      -0.829484       -22.5714
  34   2.0000      -0.821253       -22.3474
  35   2.0000      -0.801587       -21.8123
  36   2.0000      -0.755412       -20.5558
  37   2.0000      -0.754902       -20.5419
  38   2.0000      -0.754742       -20.5376
  39   2.0000      -0.749657       -20.3992
  40   2.0000      -0.736869       -20.0512
  41   2.0000      -0.717912       -19.5354
  42   2.0000      -0.706577       -19.2269
  43   2.0000      -0.704068       -19.1587
  44   2.0000      -0.695187       -18.9170
  45   2.0000      -0.666215       -18.1286
  46   2.0000      -0.651414       -17.7259
  47   2.0000      -0.644995       -17.5512
  48   2.0000      -0.625858       -17.0305
  49   2.0000      -0.587811       -15.9952
  50   2.0000      -0.585815       -15.9408
  51   2.0000      -0.546411       -14.8686
  52   2.0000      -0.538689       -14.6585
  53   2.0000      -0.484892       -13.1946
  54   2.0000      -0.406375       -11.0580
  55   2.0000      -0.394189       -10.7264
  56   2.0000      -0.389228       -10.5914
  57   0.0000       0.002966         0.0807
  58   0.0000       0.023144         0.6298
  59   0.0000       0.030498         0.8299
  60   0.0000       0.035680         0.9709
  61   0.0000       0.036190         0.9848

MULLIKEN ATOMIC CHARGES
-----------------------
   0 F :   -0.702294
   1 F :   -0.701645
   2 F :   -0.701645
   3 P :    1.284698
   4 P :    1.233559
   5 P :    1.233559
   6 C :    0.220810
   7 C :    0.220808
   8 C :    0.242470
   9 O :   -0.773518
  10 O :   -0.773519
  11 O :   -0.783285
Sum of atomic charges:   -0.0000000

LOEWDIN ATOMIC CHARGES
----------------------
   0 F :    0.288953
   1 F :    0.319698
   2 F :    0.319698
   3 P :    0.284468
   4 P :    0.201091
   5 P :    0.201091
   6 C :   -1.099965
   7 C :   -1.099966
   8 C :   -1.073973
   9 O :    0.553587
  10 O :    0.553587
  11 O :    0.551730

  Mayer bond orders larger than 0.100000
B(  0-F ,  3-P ) :   0.3965 B(  1-F ,  4-P ) :   0.5508 B(  2-F ,  5-P ) :   0.5508
B(  3-P ,  6-C ) :   0.8822 B(  3-P ,  7-C ) :   0.8822 B(  4-P ,  7-C ) :   0.8437
B(  4-P ,  8-C ) :   0.8337 B(  5-P ,  6-C ) :   0.8437 B(  5-P ,  8-C ) :   0.8337
B(  6-C ,  9-O ) :   1.3787 B(  7-C , 10-O ) :   1.3787 B(  8-C , 11-O ) :   1.3846

MP2 TOTAL ENERGY:    -1661.598180241 Eh
FINAL SINGLE POINT ENERGY     -1661.598180240683

DIPOLE MOMENT
-------------
                                X             Y             Z
Electronic contribution:      0.00000      -0.41967      -3.75563
Nuclear contribution   :     -0.00000      -0.55641       2.22431
                        -----------------------------------------
Total Dipole Moment    :      0.00000      -0.97607      -1.53131
                        -----------------------------------------
Magnitude (a.u.)       :      1.81594
Magnitude (Debye)      :      4.61575

Rotational constants in cm-1:     0.027714     0.022654     0.016448
Rotational constants in MHz :   830.854930   679.155247   493.103181

                             ****ORCA TERMINATED NORMALLY****
TOTAL RUN TIME: 0 days 1 hours 47 minutes 9 seconds 748 msec
