                         Program Version 5.0.4 -  RELEASE  -
|  1> ! ri-mp2 aug-cc-pvdz aug-cc-pvdz/c tightscf
|  2> %pal nprocs 16 end
|  3> %maxcore 3800
|  4> %base "DZ_Si-Si_142_AB"
|  5> %scf
|  6> STABPerform true
|  7> STABRestartUHFifUnstable true
|  8> end
|  9>
| 10> *xyz 0 1
| 11> Si        -2.218693   -0.607559    0.000036
| 12> Si        -0.637913    1.118492   -0.000073
| 13> P         1.510263    0.442038   -0.000029
| 14> H        -0.847682    1.964425    1.199856
| 15> H        -0.847682    1.964272   -1.200111
| 16> H        -2.057242   -1.463524   -1.197964
| 17> H        -3.595203   -0.061985    0.000008
| 18> C         1.480584   -0.739263    1.421768
| 19> H         0.713781   -1.509039    1.334247
| 20> H         1.321106   -0.189784    2.349200
| 21> H         2.453407   -1.226388    1.491457
| 22> C         1.480582   -0.739458   -1.421664
| 23> H         1.321102   -0.190106   -2.349171
| 24> H         0.713781   -1.509223   -1.334035
| 25> H         2.453406   -1.226591   -1.491288
| 26> H        -2.057235   -1.463381    1.198137
| 27> *
| 28>
| 29> $new_job
| 30> ! ri-mp2 aug-cc-pvtz aug-cc-pvtz/c tightscf
| 31> %pal nprocs 16 end
| 32> %maxcore 3800
| 33> %base "TZ_Si-Si_142_AB"
| 34>
| 35> *xyz 0 1
| 36> Si        -2.218693   -0.607559    0.000036
| 37> Si        -0.637913    1.118492   -0.000073
| 38> P         1.510263    0.442038   -0.000029
| 39> H        -0.847682    1.964425    1.199856
| 40> H        -0.847682    1.964272   -1.200111
| 41> H        -2.057242   -1.463524   -1.197964
| 42> H        -3.595203   -0.061985    0.000008
| 43> C         1.480584   -0.739263    1.421768
| 44> H         0.713781   -1.509039    1.334247
| 45> H         1.321106   -0.189784    2.349200
| 46> H         2.453407   -1.226388    1.491457
| 47> C         1.480582   -0.739458   -1.421664
| 48> H         1.321102   -0.190106   -2.349171
| 49> H         0.713781   -1.509223   -1.334035
| 50> H         2.453406   -1.226591   -1.491288
| 51> H        -2.057235   -1.463381    1.198137
| 52> *
| 53>
| 54> $new_job
| 55> ! ri-mp2 aug-cc-pvqz aug-cc-pvqz/c tightscf
| 56> %pal nprocs 16 end
| 57> %maxcore 3800
| 58> %base "QZ_Si-Si_142_AB"
| 59>
| 60> *xyz 0 1
| 61> Si        -2.218693   -0.607559    0.000036
| 62> Si        -0.637913    1.118492   -0.000073
| 63> P         1.510263    0.442038   -0.000029
| 64> H        -0.847682    1.964425    1.199856
| 65> H        -0.847682    1.964272   -1.200111
| 66> H        -2.057242   -1.463524   -1.197964
| 67> H        -3.595203   -0.061985    0.000008
| 68> C         1.480584   -0.739263    1.421768
| 69> H         0.713781   -1.509039    1.334247
| 70> H         1.321106   -0.189784    2.349200
| 71> H         2.453407   -1.226388    1.491457
| 72> C         1.480582   -0.739458   -1.421664
| 73> H         1.321102   -0.190106   -2.349171
| 74> H         0.713781   -1.509223   -1.334035
| 75> H         2.453406   -1.226591   -1.491288
| 76> H        -2.057235   -1.463381    1.198137
| 77> *
| 78>
| 79>
| 80>
| 81>
| 82>                          ****END OF INPUT****
 Total Charge           Charge          ....    0
 Multiplicity           Mult            ....    1
 Number of Electrons    NEL             ....   66
MP2 TOTAL ENERGY:    -1001.403300157 Eh
FINAL SINGLE POINT ENERGY     -1001.403300156655
MP2 TOTAL ENERGY:    -1001.601906944 Eh
FINAL SINGLE POINT ENERGY     -1001.601906944279

CARTESIAN COORDINATES (ANGSTROEM)
---------------------------------
  Si    -2.218693   -0.607559    0.000036
  Si    -0.637913    1.118492   -0.000073
  P      1.510263    0.442038   -0.000029
  H     -0.847682    1.964425    1.199856
  H     -0.847682    1.964272   -1.200111
  H     -2.057242   -1.463524   -1.197964
  H     -3.595203   -0.061985    0.000008
  C      1.480584   -0.739263    1.421768
  H      0.713781   -1.509039    1.334247
  H      1.321106   -0.189784    2.349200
  H      2.453407   -1.226388    1.491457
  C      1.480582   -0.739458   -1.421664
  H      1.321102   -0.190106   -2.349171
  H      0.713781   -1.509223   -1.334035
  H      2.453406   -1.226591   -1.491288
  H     -2.057235   -1.463381    1.198137

 Multiplicity           Mult            ....    1
 Number of Electrons    NEL             ....   66
 Basis Dimension        Dim             ....  918

ORBITAL ENERGIES
----------------

  NO   OCC          E(Eh)            E(eV)
   0   2.0000     -79.926823     -2174.9194
   1   2.0000     -68.767653     -1871.2630
   2   2.0000     -68.767572     -1871.2608
   3   2.0000     -11.227913      -305.5270
   4   2.0000     -11.227904      -305.5268
   5   2.0000      -7.469680      -203.2603
   6   2.0000      -6.118511      -166.4931
   7   2.0000      -6.118295      -166.4873
   8   2.0000      -5.363689      -145.9534
   9   2.0000      -5.363679      -145.9531
  10   2.0000      -5.362694      -145.9263
  11   2.0000      -4.224742      -114.9611
  12   2.0000      -4.224563      -114.9562
  13   2.0000      -4.224543      -114.9557
  14   2.0000      -4.224266      -114.9481
  15   2.0000      -4.224187      -114.9460
  16   2.0000      -4.223937      -114.9392
  17   2.0000      -1.006913       -27.3995
  18   2.0000      -0.943211       -25.6661
  19   2.0000      -0.776559       -21.1312
  20   2.0000      -0.726322       -19.7642
  21   2.0000      -0.652036       -17.7428
  22   2.0000      -0.593077       -16.1385
  23   2.0000      -0.584771       -15.9124
  24   2.0000      -0.565033       -15.3753
  25   2.0000      -0.561384       -15.2760
  26   2.0000      -0.499698       -13.5975
  27   2.0000      -0.486809       -13.2467
  28   2.0000      -0.477525       -12.9941
  29   2.0000      -0.460493       -12.5306
  30   2.0000      -0.419732       -11.4215
  31   2.0000      -0.415411       -11.3039
  32   2.0000      -0.322727        -8.7819
  33   0.0000       0.023485         0.6391
  34   0.0000       0.031666         0.8617
  35   0.0000       0.032614         0.8875
  36   0.0000       0.033132         0.9016
  37   0.0000       0.045229         1.2307

MULLIKEN ATOMIC CHARGES
-----------------------
   0 Si:    0.528123
   1 Si:    0.784011
   2 P :    0.333180
   3 H :   -0.334292
   4 H :   -0.334293
   5 H :   -0.160432
   6 H :   -0.282904
   7 C :   -1.201605
   8 H :    0.326713
   9 H :    0.307930
  10 H :    0.380481
  11 C :   -1.201606
  12 H :    0.307930
  13 H :    0.326712
  14 H :    0.380482
  15 H :   -0.160433
Sum of atomic charges:   -0.0000000

LOEWDIN ATOMIC CHARGES
----------------------
   0 Si:    0.998744
   1 Si:    0.513258
   2 P :    0.826316
   3 H :   -0.302278
   4 H :   -0.302277
   5 H :   -0.306051
   6 H :   -0.316504
   7 C :    0.695320
   8 H :   -0.374919
   9 H :   -0.364667
  10 H :   -0.358312
  11 C :    0.695321
  12 H :   -0.364667
  13 H :   -0.374920
  14 H :   -0.358312
  15 H :   -0.306052

  Mayer bond orders larger than 0.100000
B(  0-Si,  1-Si) :   0.7513 B(  0-Si,  5-H ) :   0.7803 B(  0-Si,  6-H ) :   0.7200
B(  0-Si, 15-H ) :   0.7803 B(  1-Si,  2-P ) :   0.8874 B(  1-Si,  3-H ) :   0.7296
B(  1-Si,  4-H ) :   0.7296 B(  2-P ,  7-C ) :   0.8623 B(  2-P , 11-C ) :   0.8623
B(  7-C ,  8-H ) :   0.8753 B(  7-C ,  9-H ) :   0.9098 B(  7-C , 10-H ) :   0.8665
B( 11-C , 12-H ) :   0.9098 B( 11-C , 13-H ) :   0.8753 B( 11-C , 14-H ) :   0.8665

MP2 TOTAL ENERGY:    -1001.663361472 Eh
FINAL SINGLE POINT ENERGY     -1001.663361471582

DIPOLE MOMENT
-------------
                                X             Y             Z
Electronic contribution:      1.67813       4.95414      -0.00034
Nuclear contribution   :     -1.71688      -5.43776       0.00037
                        -----------------------------------------
Total Dipole Moment    :     -0.03875      -0.48362       0.00003
                        -----------------------------------------
Magnitude (a.u.)       :      0.48517
Magnitude (Debye)      :      1.23321

Rotational constants in cm-1:     0.106946     0.043629     0.042472
Rotational constants in MHz :  3206.166892  1307.971110  1273.277355

                             ****ORCA TERMINATED NORMALLY****
TOTAL RUN TIME: 0 days 0 hours 56 minutes 10 seconds 681 msec
