                         Program Version 5.0.4 -  RELEASE  -
|  1> ! ri-mp2 aug-cc-pvdz aug-cc-pvdz/c tightscf
|  2> %pal nprocs 16 end
|  3> %maxcore 3800
|  4> %base "DZ_Si-Si_136_AB"
|  5>
|  6> *xyz 0 1
|  7> Si         2.824335    0.076489    0.662525
|  8> Si         1.172296   -0.761049   -0.757881
|  9> C        -0.472500    0.052004   -0.285972
| 10> H         1.046323   -2.232337   -0.621007
| 11> H         1.436677   -0.436803   -2.174361
| 12> S        -0.565254    1.679541   -0.325249
| 13> S        -1.713858   -1.034024    0.164896
| 14> H         4.063843   -0.718262    0.502822
| 15> H         2.359971   -0.042520    2.062377
| 16> H         3.113453    1.491497    0.356986
| 17> C        -3.093089    0.030591    0.581659
| 18> H        -3.905553   -0.623572    0.890218
| 19> H        -3.389707    0.620088   -0.282646
| 20> H        -2.818499    0.701903    1.392137
| 21> *
| 22>
| 23> $new_job
| 24> ! ri-mp2 aug-cc-pvtz aug-cc-pvtz/c tightscf
| 25> %pal nprocs 16 end
| 26> %maxcore 3800
| 27> %base "TZ_Si-Si_136_AB"
| 28>
| 29> *xyz 0 1
| 30> Si         2.824335    0.076489    0.662525
| 31> Si         1.172296   -0.761049   -0.757881
| 32> C        -0.472500    0.052004   -0.285972
| 33> H         1.046323   -2.232337   -0.621007
| 34> H         1.436677   -0.436803   -2.174361
| 35> S        -0.565254    1.679541   -0.325249
| 36> S        -1.713858   -1.034024    0.164896
| 37> H         4.063843   -0.718262    0.502822
| 38> H         2.359971   -0.042520    2.062377
| 39> H         3.113453    1.491497    0.356986
| 40> C        -3.093089    0.030591    0.581659
| 41> H        -3.905553   -0.623572    0.890218
| 42> H        -3.389707    0.620088   -0.282646
| 43> H        -2.818499    0.701903    1.392137
| 44> *
| 45>
| 46> $new_job
| 47> ! ri-mp2 aug-cc-pvqz aug-cc-pvqz/c tightscf
| 48> %pal nprocs 16 end
| 49> %maxcore 3800
| 50> %base "QZ_Si-Si_136_AB"
| 51>
| 52> *xyz 0 1
| 53> Si         2.824335    0.076489    0.662525
| 54> Si         1.172296   -0.761049   -0.757881
| 55> C        -0.472500    0.052004   -0.285972
| 56> H         1.046323   -2.232337   -0.621007
| 57> H         1.436677   -0.436803   -2.174361
| 58> S        -0.565254    1.679541   -0.325249
| 59> S        -1.713858   -1.034024    0.164896
| 60> H         4.063843   -0.718262    0.502822
| 61> H         2.359971   -0.042520    2.062377
| 62> H         3.113453    1.491497    0.356986
| 63> C        -3.093089    0.030591    0.581659
| 64> H        -3.905553   -0.623572    0.890218
| 65> H        -3.389707    0.620088   -0.282646
| 66> H        -2.818499    0.701903    1.392137
| 67> *
| 68>
| 69>
| 70>
| 71>
| 72>                          ****END OF INPUT****
 Total Charge           Charge          ....    0
 Multiplicity           Mult            ....    1
 Number of Electrons    NEL             ....   80
MP2 TOTAL ENERGY:    -1454.096642764 Eh
FINAL SINGLE POINT ENERGY     -1454.096642763661
MP2 TOTAL ENERGY:    -1454.343265716 Eh
FINAL SINGLE POINT ENERGY     -1454.343265715768

CARTESIAN COORDINATES (ANGSTROEM)
---------------------------------
  Si     2.824335    0.076489    0.662525
  Si     1.172296   -0.761049   -0.757881
  C     -0.472500    0.052004   -0.285972
  H      1.046323   -2.232337   -0.621007
  H      1.436677   -0.436803   -2.174361
  S     -0.565254    1.679541   -0.325249
  S     -1.713858   -1.034024    0.164896
  H      4.063843   -0.718262    0.502822
  H      2.359971   -0.042520    2.062377
  H      3.113453    1.491497    0.356986
  C     -3.093089    0.030591    0.581659
  H     -3.905553   -0.623572    0.890218
  H     -3.389707    0.620088   -0.282646
  H     -2.818499    0.701903    1.392137

 Multiplicity           Mult            ....    1
 Number of Electrons    NEL             ....   80
 Basis Dimension        Dim             ....  864

ORBITAL ENERGIES
----------------

  NO   OCC          E(Eh)            E(eV)
   0   2.0000     -91.991368     -2503.2124
   1   2.0000     -91.934080     -2501.6535
   2   2.0000     -68.783430     -1871.6923
   3   2.0000     -68.770395     -1871.3376
   4   2.0000     -11.327816      -308.2455
   5   2.0000     -11.265182      -306.5412
   6   2.0000      -8.993791      -244.7335
   7   2.0000      -8.937942      -243.2138
   8   2.0000      -6.675262      -181.6431
   9   2.0000      -6.673970      -181.6079
  10   2.0000      -6.673696      -181.6005
  11   2.0000      -6.619116      -180.1153
  12   2.0000      -6.618288      -180.0928
  13   2.0000      -6.617002      -180.0578
  14   2.0000      -6.133794      -166.9090
  15   2.0000      -6.121247      -166.5676
  16   2.0000      -4.239907      -115.3737
  17   2.0000      -4.239785      -115.3704
  18   2.0000      -4.239625      -115.3661
  19   2.0000      -4.227405      -115.0335
  20   2.0000      -4.227303      -115.0308
  21   2.0000      -4.227192      -115.0277
  22   2.0000      -1.124177       -30.5904
  23   2.0000      -1.015710       -27.6389
  24   2.0000      -0.909884       -24.7592
  25   2.0000      -0.780585       -21.2408
  26   2.0000      -0.717349       -19.5201
  27   2.0000      -0.660449       -17.9717
  28   2.0000      -0.610931       -16.6243
  29   2.0000      -0.607891       -16.5416
  30   2.0000      -0.562272       -15.3002
  31   2.0000      -0.525509       -14.2998
  32   2.0000      -0.507326       -13.8051
  33   2.0000      -0.486803       -13.2466
  34   2.0000      -0.480519       -13.0756
  35   2.0000      -0.465115       -12.6564
  36   2.0000      -0.454994       -12.3810
  37   2.0000      -0.404655       -11.0112
  38   2.0000      -0.346670        -9.4334
  39   2.0000      -0.333600        -9.0777
  40   0.0000       0.023065         0.6276
  41   0.0000       0.029341         0.7984
  42   0.0000       0.030504         0.8301
  43   0.0000       0.035781         0.9736
  44   0.0000       0.040384         1.0989

MULLIKEN ATOMIC CHARGES
-----------------------
   0 Si:    0.343192
   1 Si:    0.920548
   2 C :   -0.618298
   3 H :   -0.245539
   4 H :   -0.208422
   5 S :   -0.132105
   6 S :    0.352465
   7 H :   -0.167144
   8 H :   -0.135147
   9 H :   -0.110065
  10 C :   -1.025347
  11 H :    0.433091
  12 H :    0.298254
  13 H :    0.294517
Sum of atomic charges:    0.0000000

LOEWDIN ATOMIC CHARGES
----------------------
   0 Si:    1.003536
   1 Si:    0.358796
   2 C :   -1.405507
   3 H :   -0.279223
   4 H :   -0.271489
   5 S :    1.001471
   6 S :    1.189572
   7 H :   -0.318425
   8 H :   -0.307146
   9 H :   -0.310310
  10 C :    0.505843
  11 H :   -0.385325
  12 H :   -0.389921
  13 H :   -0.391872

  Mayer bond orders larger than 0.100000
B(  0-Si,  1-Si) :   0.7133 B(  0-Si,  7-H ) :   0.7714 B(  0-Si,  8-H ) :   0.7484
B(  0-Si,  9-H ) :   0.7771 B(  1-Si,  2-C ) :   0.6647 B(  1-Si,  3-H ) :   0.8136
B(  1-Si,  4-H ) :   0.7932 B(  2-C ,  5-S ) :   1.5257 B(  2-C ,  6-S ) :   1.0523
B(  5-S ,  6-S ) :   0.1075 B(  6-S , 10-C ) :   1.0348 B( 10-C , 11-H ) :   0.7928
B( 10-C , 12-H ) :   0.8996 B( 10-C , 13-H ) :   0.9109

MP2 TOTAL ENERGY:    -1454.423949541 Eh
FINAL SINGLE POINT ENERGY     -1454.423949541318

DIPOLE MOMENT
-------------
                                X             Y             Z
Electronic contribution:     -2.17798       0.64752      -1.89638
Nuclear contribution   :      1.70994      -1.20132       2.10736
                        -----------------------------------------
Total Dipole Moment    :     -0.46804      -0.55380       0.21098
                        -----------------------------------------
Magnitude (a.u.)       :      0.75516
Magnitude (Debye)      :      1.91947

Rotational constants in cm-1:     0.083951     0.027857     0.023901
Rotational constants in MHz :  2516.785418   835.124054   716.524501

                             ****ORCA TERMINATED NORMALLY****
TOTAL RUN TIME: 0 days 0 hours 14 minutes 1 seconds 182 msec
