                         Program Version 5.0.4 -  RELEASE  -
|  1> ! ri-mp2 aug-cc-pvdz aug-cc-pvdz/c tightscf
|  2> %pal nprocs 16 end
|  3> %maxcore 3800
|  4> %base "DZ_B-F_29_A"
|  5> %scf
|  6> STABPerform true
|  7> STABRestartUHFifUnstable true
|  8> end
|  9>
| 10> *xyz 0 2
| 11> F        -1.859423    0.040109   -0.000000
| 12> B        -0.651154   -0.468368   -0.000000
| 13> C         0.625621    0.388745    0.000000
| 14> C         1.833563   -0.167216    0.000000
| 15> H         0.541051    1.474235    0.000000
| 16> H         1.951155   -1.244185    0.000000
| 17> H         2.743270    0.421632    0.000000
| 18> *
| 19>
| 20> $new_job
| 21> ! ri-mp2 aug-cc-pvtz aug-cc-pvtz/c tightscf
| 22> %pal nprocs 16 end
| 23> %maxcore 3800
| 24> %base "TZ_B-F_29_A"
| 25>
| 26> *xyz 0 2
| 27> F        -1.859423    0.040109   -0.000000
| 28> B        -0.651154   -0.468368   -0.000000
| 29> C         0.625621    0.388745    0.000000
| 30> C         1.833563   -0.167216    0.000000
| 31> H         0.541051    1.474235    0.000000
| 32> H         1.951155   -1.244185    0.000000
| 33> H         2.743270    0.421632    0.000000
| 34> *
| 35>
| 36> $new_job
| 37> ! ri-mp2 aug-cc-pvqz aug-cc-pvqz/c tightscf
| 38> %pal nprocs 16 end
| 39> %maxcore 3800
| 40> %base "QZ_B-F_29_A"
| 41>
| 42> *xyz 0 2
| 43> F        -1.859423    0.040109   -0.000000
| 44> B        -0.651154   -0.468368   -0.000000
| 45> C         0.625621    0.388745    0.000000
| 46> C         1.833563   -0.167216    0.000000
| 47> H         0.541051    1.474235    0.000000
| 48> H         1.951155   -1.244185    0.000000
| 49> H         2.743270    0.421632    0.000000
| 50> *
| 51>
| 52>
| 53>
| 54>
| 55>                          ****END OF INPUT****
 Total Charge           Charge          ....    0
 Multiplicity           Mult            ....    2
 Number of Electrons    NEL             ....   29
MP2 TOTAL ENERGY:     -202.132843134 Eh
FINAL SINGLE POINT ENERGY      -202.132843133819
MP2 TOTAL ENERGY:     -202.309503633 Eh
FINAL SINGLE POINT ENERGY      -202.309503633137

CARTESIAN COORDINATES (ANGSTROEM)
---------------------------------
  F     -1.859423    0.040109   -0.000000
  B     -0.651154   -0.468368   -0.000000
  C      0.625621    0.388745    0.000000
  C      1.833563   -0.167216    0.000000
  H      0.541051    1.474235    0.000000
  H      1.951155   -1.244185    0.000000
  H      2.743270    0.421632    0.000000

 Multiplicity           Mult            ....    2
 Number of Electrons    NEL             ....   29
 Basis Dimension        Dim             ....  458

ORBITAL ENERGIES
----------------
                 SPIN UP ORBITALS
  NO   OCC          E(Eh)            E(eV)
   0   1.0000     -26.308691      -715.8959
   1   1.0000     -11.257529      -306.3329
   2   1.0000     -11.229548      -305.5715
   3   1.0000      -7.672147      -208.7697
   4   1.0000      -1.626831       -44.2683
   5   1.0000      -1.059671       -28.8351
   6   1.0000      -0.831696       -22.6316
   7   1.0000      -0.775482       -21.1020
   8   1.0000      -0.704838       -19.1796
   9   1.0000      -0.681386       -18.5414
  10   1.0000      -0.671916       -18.2838
  11   1.0000      -0.595003       -16.1908
  12   1.0000      -0.528152       -14.3718
  13   1.0000      -0.407179       -11.0799
  14   1.0000      -0.347742        -9.4625
  15   0.0000       0.024807         0.6750
  16   0.0000       0.033695         0.9169
  17   0.0000       0.035744         0.9726
  18   0.0000       0.040463         1.1010
  19   0.0000       0.049916         1.3583

                 SPIN DOWN ORBITALS
  NO   OCC          E(Eh)            E(eV)
   0   1.0000     -26.305081      -715.7977
   1   1.0000     -11.262979      -306.4812
   2   1.0000     -11.222203      -305.3717
   3   1.0000      -7.653040      -208.2498
   4   1.0000      -1.616852       -43.9968
   5   1.0000      -1.058273       -28.7971
   6   1.0000      -0.819993       -22.3131
   7   1.0000      -0.763287       -20.7701
   8   1.0000      -0.678781       -18.4706
   9   1.0000      -0.678000       -18.4493
  10   1.0000      -0.659367       -17.9423
  11   1.0000      -0.586588       -15.9619
  12   1.0000      -0.507264       -13.8034
  13   1.0000      -0.407401       -11.0860
  14   0.0000       0.022078         0.6008
  15   0.0000       0.033925         0.9231
  16   0.0000       0.034224         0.9313
  17   0.0000       0.041067         1.1175
  18   0.0000       0.049850         1.3565

MULLIKEN ATOMIC CHARGES AND SPIN POPULATIONS
--------------------------------------------
   0 F :   -0.714175   -0.011754
   1 B :    0.874630    1.043323
   2 C :   -0.669605    0.256695
   3 C :   -0.733303   -0.324138
   4 H :    0.444429    0.014716
   5 H :    0.432168    0.011309
   6 H :    0.365858    0.009849
Sum of atomic charges         :   -0.0000000

LOEWDIN ATOMIC CHARGES AND SPIN POPULATIONS
-------------------------------------------
   0 F :    0.711941    0.156196
   1 B :   -0.699699    0.609902
   2 C :    0.369353    0.234362
   3 C :    0.716933   -0.013744
   4 H :   -0.393553    0.050847
   5 H :   -0.368102   -0.006769
   6 H :   -0.336873   -0.030794

  Mayer bond orders larger than 0.100000
B(  0-F ,  1-B ) :   0.3625 B(  1-B ,  2-C ) :   1.0451 B(  2-C ,  3-C ) :   1.6825
B(  2-C ,  4-H ) :   0.7783 B(  3-C ,  5-H ) :   0.7840 B(  3-C ,  6-H ) :   0.9127

MP2 TOTAL ENERGY:     -202.365324802 Eh
FINAL SINGLE POINT ENERGY      -202.365324801675

DIPOLE MOMENT
-------------
                                X             Y             Z
Electronic contribution:     -6.46755      -0.79760      -0.00000
Nuclear contribution   :      7.27720       0.94789       0.00000
                        -----------------------------------------
Total Dipole Moment    :      0.80965       0.15029      -0.00000
                        -----------------------------------------
Magnitude (a.u.)       :      0.82348
Magnitude (Debye)      :      2.09312

Rotational constants in cm-1:     1.991684     0.133719     0.125306
Rotational constants in MHz : 59709.178267  4008.794965  3756.582971

                             ****ORCA TERMINATED NORMALLY****
TOTAL RUN TIME: 0 days 0 hours 14 minutes 10 seconds 886 msec
