                         Program Version 5.0.4 -  RELEASE  -
|  1> ! ri-mp2 aug-cc-pvdz aug-cc-pvdz/c tightscf
|  2> %pal nprocs 16 end
|  3> %maxcore 3800
|  4> %base "DZ_B-Cl_49_A"
|  5> %scf
|  6> STABPerform true
|  7> STABRestartUHFifUnstable true
|  8> end
|  9>
| 10> *xyz 0 2
| 11> Cl        -2.558236   -0.020603   -0.063350
| 12> B        -1.024876   -0.777075    0.015423
| 13> C         0.303025   -0.040240    0.471639
| 14> O         0.549674    0.980524   -0.455964
| 15> O         1.408657   -0.874621    0.673910
| 16> C         1.505848    1.929671   -0.024649
| 17> H         1.174495    2.419113    0.896921
| 18> H         1.594273    2.671808   -0.814277
| 19> H         2.477208    1.463864    0.151168
| 20> C         1.821270   -1.589729   -0.472913
| 21> H         2.612859   -2.264269   -0.156137
| 22> H         2.201001   -0.919911   -1.247110
| 23> H         0.991563   -2.172971   -0.886275
| 24> H         0.115491    0.392562    1.467507
| 25> *
| 26>
| 27> $new_job
| 28> ! ri-mp2 aug-cc-pvtz aug-cc-pvtz/c tightscf
| 29> %pal nprocs 16 end
| 30> %maxcore 3800
| 31> %base "TZ_B-Cl_49_A"
| 32>
| 33> *xyz 0 2
| 34> Cl        -2.558236   -0.020603   -0.063350
| 35> B        -1.024876   -0.777075    0.015423
| 36> C         0.303025   -0.040240    0.471639
| 37> O         0.549674    0.980524   -0.455964
| 38> O         1.408657   -0.874621    0.673910
| 39> C         1.505848    1.929671   -0.024649
| 40> H         1.174495    2.419113    0.896921
| 41> H         1.594273    2.671808   -0.814277
| 42> H         2.477208    1.463864    0.151168
| 43> C         1.821270   -1.589729   -0.472913
| 44> H         2.612859   -2.264269   -0.156137
| 45> H         2.201001   -0.919911   -1.247110
| 46> H         0.991563   -2.172971   -0.886275
| 47> H         0.115491    0.392562    1.467507
| 48> *
| 49>
| 50> $new_job
| 51> ! ri-mp2 aug-cc-pvqz aug-cc-pvqz/c tightscf
| 52> %pal nprocs 16 end
| 53> %maxcore 3800
| 54> %base "QZ_B-Cl_49_A"
| 55>
| 56> *xyz 0 2
| 57> Cl        -2.558236   -0.020603   -0.063350
| 58> B        -1.024876   -0.777075    0.015423
| 59> C         0.303025   -0.040240    0.471639
| 60> O         0.549674    0.980524   -0.455964
| 61> O         1.408657   -0.874621    0.673910
| 62> C         1.505848    1.929671   -0.024649
| 63> H         1.174495    2.419113    0.896921
| 64> H         1.594273    2.671808   -0.814277
| 65> H         2.477208    1.463864    0.151168
| 66> C         1.821270   -1.589729   -0.472913
| 67> H         2.612859   -2.264269   -0.156137
| 68> H         2.201001   -0.919911   -1.247110
| 69> H         0.991563   -2.172971   -0.886275
| 70> H         0.115491    0.392562    1.467507
| 71> *
| 72>
| 73>
| 74>
| 75>
| 76>                          ****END OF INPUT****
 Total Charge           Charge          ....    0
 Multiplicity           Mult            ....    2
 Number of Electrons    NEL             ....   63
MP2 TOTAL ENERGY:     -752.614971774 Eh
FINAL SINGLE POINT ENERGY      -752.614971774412
MP2 TOTAL ENERGY:     -752.933185787 Eh
FINAL SINGLE POINT ENERGY      -752.933185787060

CARTESIAN COORDINATES (ANGSTROEM)
---------------------------------
  Cl    -2.558236   -0.020603   -0.063350
  B     -1.024876   -0.777075    0.015423
  C      0.303025   -0.040240    0.471639
  O      0.549674    0.980524   -0.455964
  O      1.408657   -0.874621    0.673910
  C      1.505848    1.929671   -0.024649
  H      1.174495    2.419113    0.896921
  H      1.594273    2.671808   -0.814277
  H      2.477208    1.463864    0.151168
  C      1.821270   -1.589729   -0.472913
  H      2.612859   -2.264269   -0.156137
  H      2.201001   -0.919911   -1.247110
  H      0.991563   -2.172971   -0.886275
  H      0.115491    0.392562    1.467507

 Multiplicity           Mult            ....    2
 Number of Electrons    NEL             ....   63
 Basis Dimension        Dim             ....  886

ORBITAL ENERGIES
----------------
                 SPIN UP ORBITALS
  NO   OCC          E(Eh)            E(eV)
   0   1.0000    -104.847016     -2853.0323
   1   1.0000     -20.570299      -559.7463
   2   1.0000     -20.564865      -559.5984
   3   1.0000     -11.327795      -308.2450
   4   1.0000     -11.275193      -306.8136
   5   1.0000     -11.271236      -306.7059
   6   1.0000     -10.574738      -287.7532
   7   1.0000      -8.042457      -218.8464
   8   1.0000      -8.040330      -218.7885
   9   1.0000      -8.039964      -218.7785
  10   1.0000      -7.680294      -208.9914
  11   1.0000      -1.426382       -38.8138
  12   1.0000      -1.355432       -36.8832
  13   1.0000      -1.132583       -30.8191
  14   1.0000      -0.992642       -27.0111
  15   1.0000      -0.940266       -25.5859
  16   1.0000      -0.852245       -23.1908
  17   1.0000      -0.719622       -19.5819
  18   1.0000      -0.703856       -19.1529
  19   1.0000      -0.688029       -18.7222
  20   1.0000      -0.637856       -17.3569
  21   1.0000      -0.618141       -16.8205
  22   1.0000      -0.606584       -16.5060
  23   1.0000      -0.581570       -15.8253
  24   1.0000      -0.534419       -14.5423
  25   1.0000      -0.531183       -14.4542
  26   1.0000      -0.508408       -13.8345
  27   1.0000      -0.493915       -13.4401
  28   1.0000      -0.470857       -12.8127
  29   1.0000      -0.452490       -12.3129
  30   1.0000      -0.446403       -12.1473
  31   1.0000      -0.341380        -9.2894
  32   0.0000       0.024257         0.6601
  33   0.0000       0.031970         0.8699
  34   0.0000       0.033149         0.9020
  35   0.0000       0.034443         0.9373
  36   0.0000       0.046943         1.2774

                 SPIN DOWN ORBITALS
  NO   OCC          E(Eh)            E(eV)
   0   1.0000    -104.846279     -2853.0123
   1   1.0000     -20.569993      -559.7380
   2   1.0000     -20.565120      -559.6054
   3   1.0000     -11.326107      -308.1990
   4   1.0000     -11.275066      -306.8101
   5   1.0000     -11.270832      -306.6949
   6   1.0000     -10.573868      -287.7296
   7   1.0000      -8.040916      -218.8044
   8   1.0000      -8.040274      -218.7870
   9   1.0000      -8.037965      -218.7242
  10   1.0000      -7.660226      -208.4454
  11   1.0000      -1.425491       -38.7896
  12   1.0000      -1.355153       -36.8756
  13   1.0000      -1.123753       -30.5789
  14   1.0000      -0.988816       -26.9070
  15   1.0000      -0.938962       -25.5504
  16   1.0000      -0.845161       -22.9980
  17   1.0000      -0.706543       -19.2260
  18   1.0000      -0.700191       -19.0532
  19   1.0000      -0.685669       -18.6580
  20   1.0000      -0.628462       -17.1013
  21   1.0000      -0.606681       -16.5086
  22   1.0000      -0.606010       -16.4904
  23   1.0000      -0.574432       -15.6311
  24   1.0000      -0.530146       -14.4260
  25   1.0000      -0.529331       -14.4038
  26   1.0000      -0.494764       -13.4632
  27   1.0000      -0.484210       -13.1760
  28   1.0000      -0.464516       -12.6401
  29   1.0000      -0.451206       -12.2779
  30   1.0000      -0.435668       -11.8551
  31   0.0000       0.022212         0.6044
  32   0.0000       0.032205         0.8763
  33   0.0000       0.032560         0.8860
  34   0.0000       0.034649         0.9428
  35   0.0000       0.048011         1.3064

MULLIKEN ATOMIC CHARGES AND SPIN POPULATIONS
--------------------------------------------
   0 Cl:   -0.275858    0.011474
   1 B :    0.290234    1.039744
   2 C :    0.829603   -0.044503
   3 O :   -0.848943    0.012361
   4 O :   -0.858025   -0.014653
   5 C :   -0.675704    0.002550
   6 H :    0.274127   -0.000117
   7 H :    0.407622    0.000138
   8 H :    0.290116   -0.000431
   9 C :   -0.648450    0.012056
  10 H :    0.408327    0.002130
  11 H :    0.267581    0.000367
  12 H :    0.281939   -0.022092
  13 H :    0.257431    0.000975
Sum of atomic charges         :    0.0000000

LOEWDIN ATOMIC CHARGES AND SPIN POPULATIONS
-------------------------------------------
   0 Cl:    1.258201    0.168145
   1 B :   -1.051993    0.552499
   2 C :   -0.686672    0.149846
   3 O :    0.826752    0.014505
   4 O :    0.847408    0.010031
   5 C :    0.575026    0.003635
   6 H :   -0.305948    0.001327
   7 H :   -0.319174    0.001162
   8 H :   -0.314114    0.000952
   9 C :    0.546771    0.032672
  10 H :   -0.316379    0.002653
  11 H :   -0.310533    0.002921
  12 H :   -0.344115    0.042211
  13 H :   -0.405231    0.017442

  Mayer bond orders larger than 0.100000
B(  0-Cl,  1-B ) :   1.1199 B(  1-B ,  2-C ) :   0.7582 B(  2-C ,  3-O ) :   0.5485
B(  2-C ,  4-O ) :   0.6057 B(  2-C , 13-H ) :   0.9091 B(  3-O ,  5-C ) :   0.9257
B(  4-O ,  9-C ) :   0.8569 B(  5-C ,  6-H ) :   0.9232 B(  5-C ,  7-H ) :   0.8567
B(  5-C ,  8-H ) :   0.9009 B(  9-C , 10-H ) :   0.8622 B(  9-C , 11-H ) :   0.9145
B(  9-C , 12-H ) :   0.9116

MP2 TOTAL ENERGY:     -753.035498833 Eh
FINAL SINGLE POINT ENERGY      -753.035498833246

DIPOLE MOMENT
-------------
                                X             Y             Z
Electronic contribution:    -14.83103      -2.00529       0.49584
Nuclear contribution   :     15.29178       2.19137      -0.49391
                        -----------------------------------------
Total Dipole Moment    :      0.46074       0.18607       0.00194
                        -----------------------------------------
Magnitude (a.u.)       :      0.49690
Magnitude (Debye)      :      1.26302

Rotational constants in cm-1:     0.107017     0.043109     0.033404
Rotational constants in MHz :  3208.298886  1292.366561  1001.434854

                             ****ORCA TERMINATED NORMALLY****
TOTAL RUN TIME: 0 days 2 hours 38 minutes 51 seconds 77 msec
