                         Program Version 5.0.4 -  RELEASE  -
|  1> ! ri-mp2 aug-cc-pvdz aug-cc-pvdz/c tightscf
|  2> %pal nprocs 16 end
|  3> %maxcore 3800
|  4> %base "DZ_B-F_12_AB"
|  5> %scf
|  6> STABPerform true
|  7> STABRestartUHFifUnstable true
|  8> end
|  9>
| 10> *xyz 0 1
| 11> F        -1.203099   -1.123587    0.005001
| 12> F        -1.203090    1.123591    0.005000
| 13> B        -0.512330   -0.000001    0.010189
| 14> P         1.400146   -0.000001   -0.116016
| 15> H         1.607586   -1.052120    0.799635
| 16> H         1.607582    1.052108    0.799647
| 17> *
| 18>
| 19> $new_job
| 20> ! ri-mp2 aug-cc-pvtz aug-cc-pvtz/c tightscf
| 21> %pal nprocs 16 end
| 22> %maxcore 3800
| 23> %base "TZ_B-F_12_AB"
| 24>
| 25> *xyz 0 1
| 26> F        -1.203099   -1.123587    0.005001
| 27> F        -1.203090    1.123591    0.005000
| 28> B        -0.512330   -0.000001    0.010189
| 29> P         1.400146   -0.000001   -0.116016
| 30> H         1.607586   -1.052120    0.799635
| 31> H         1.607582    1.052108    0.799647
| 32> *
| 33>
| 34> $new_job
| 35> ! ri-mp2 aug-cc-pvqz aug-cc-pvqz/c tightscf
| 36> %pal nprocs 16 end
| 37> %maxcore 3800
| 38> %base "QZ_B-F_12_AB"
| 39>
| 40> *xyz 0 1
| 41> F        -1.203099   -1.123587    0.005001
| 42> F        -1.203090    1.123591    0.005000
| 43> B        -0.512330   -0.000001    0.010189
| 44> P         1.400146   -0.000001   -0.116016
| 45> H         1.607586   -1.052120    0.799635
| 46> H         1.607582    1.052108    0.799647
| 47> *
| 48>
| 49>
| 50>
| 51>
| 52>                          ****END OF INPUT****
 Total Charge           Charge          ....    0
 Multiplicity           Mult            ....    1
 Number of Electrons    NEL             ....   40
MP2 TOTAL ENERGY:     -566.222469200 Eh
FINAL SINGLE POINT ENERGY      -566.222469200212
MP2 TOTAL ENERGY:     -566.461492810 Eh
FINAL SINGLE POINT ENERGY      -566.461492810173

CARTESIAN COORDINATES (ANGSTROEM)
---------------------------------
  F     -1.203099   -1.123587    0.005001
  F     -1.203090    1.123591    0.005000
  B     -0.512330   -0.000001    0.010189
  P      1.400146   -0.000001   -0.116016
  H      1.607586   -1.052120    0.799635
  H      1.607582    1.052108    0.799647

 Multiplicity           Mult            ....    1
 Number of Electrons    NEL             ....   40
 Basis Dimension        Dim             ....  416

ORBITAL ENERGIES
----------------

  NO   OCC          E(Eh)            E(eV)
   0   2.0000     -79.948636     -2175.5130
   1   2.0000     -26.319816      -716.1986
   2   2.0000     -26.319799      -716.1981
   3   2.0000      -7.727259      -210.2694
   4   2.0000      -7.494458      -203.9346
   5   2.0000      -5.388511      -146.6288
   6   2.0000      -5.388262      -146.6221
   7   2.0000      -5.387735      -146.6077
   8   2.0000      -1.653879       -45.0043
   9   2.0000      -1.621386       -44.1202
  10   2.0000      -0.888628       -24.1808
  11   2.0000      -0.820535       -22.3279
  12   2.0000      -0.769759       -20.9462
  13   2.0000      -0.723992       -19.7008
  14   2.0000      -0.720388       -19.6028
  15   2.0000      -0.667457       -18.1624
  16   2.0000      -0.660793       -17.9811
  17   2.0000      -0.542147       -14.7526
  18   2.0000      -0.504098       -13.7172
  19   2.0000      -0.394898       -10.7457
  20   0.0000       0.023920         0.6509
  21   0.0000       0.037123         1.0102
  22   0.0000       0.040264         1.0956
  23   0.0000       0.042517         1.1569
  24   0.0000       0.058896         1.6026

MULLIKEN ATOMIC CHARGES
-----------------------
   0 F :   -0.721790
   1 F :   -0.721789
   2 B :    1.401150
   3 P :    0.137569
   4 H :   -0.047570
   5 H :   -0.047570
Sum of atomic charges:    0.0000000

LOEWDIN ATOMIC CHARGES
----------------------
   0 F :    0.742339
   1 F :    0.742338
   2 B :   -1.995563
   3 P :    1.566024
   4 H :   -0.527569
   5 H :   -0.527570

  Mayer bond orders larger than 0.100000
B(  0-F ,  2-B ) :   0.4198 B(  1-F ,  2-B ) :   0.4198 B(  2-B ,  3-P ) :   1.0677
B(  3-P ,  4-H ) :   0.9115 B(  3-P ,  5-H ) :   0.9115

MP2 TOTAL ENERGY:     -566.538083519 Eh
FINAL SINGLE POINT ENERGY      -566.538083518510

DIPOLE MOMENT
-------------
                                X             Y             Z
Electronic contribution:     -3.85394       0.00001      -1.27665
Nuclear contribution   :      4.28981      -0.00001       1.55367
                        -----------------------------------------
Total Dipole Moment    :      0.43587      -0.00000       0.27703
                        -----------------------------------------
Magnitude (a.u.)       :      0.51646
Magnitude (Debye)      :      1.31273

Rotational constants in cm-1:     0.325387     0.134672     0.097013
Rotational constants in MHz :  9754.857897  4037.351812  2908.366430

                             ****ORCA TERMINATED NORMALLY****
TOTAL RUN TIME: 0 days 0 hours 5 minutes 9 seconds 427 msec
