                         Program Version 5.0.4 -  RELEASE  -
|  1> ! ri-mp2 aug-cc-pvdz aug-cc-pvdz/c tightscf
|  2> %pal nprocs 16 end
|  3> %maxcore 3800
|  4> %base "DZ_Si-Si_160_AB"
|  5>
|  6> *xyz 0 1
|  7> Si        -0.951937    2.520438   -0.681187
|  8> Si         0.951937    2.520438    0.681187
|  9> C         1.805679    0.878530    0.449855
| 10> H         0.539220    2.668922    2.098078
| 11> H         1.883756    3.621644    0.338394
| 12> C         1.355354   -0.257522    1.118248
| 13> C         2.850930    0.715919   -0.459807
| 14> C         3.426369   -0.517425   -0.694670
| 15> C         2.959643   -1.630214   -0.011938
| 16> C         1.921150   -1.499306    0.897461
| 17> H         3.231849    1.574249   -1.000401
| 18> H         4.239395   -0.635948   -1.397664
| 19> C        -1.805679    0.878530   -0.449855
| 20> H        -0.539219    2.668921   -2.098078
| 21> H        -1.883756    3.621643   -0.338394
| 22> C        -1.355353   -0.257522   -1.118247
| 23> C        -2.850931    0.715919    0.459806
| 24> C        -3.426370   -0.517424    0.694669
| 25> C        -2.959643   -1.630214    0.011938
| 26> C        -1.921149   -1.499307   -0.897460
| 27> H        -3.231851    1.574250    1.000398
| 28> H        -4.239397   -0.635948    1.397661
| 29> O         3.554122   -2.824217   -0.271780
| 30> O        -3.554122   -2.824217    0.271780
| 31> H         0.537814   -0.181824    1.824826
| 32> H        -0.537812   -0.181825   -1.824824
| 33> H         1.553515   -2.368803    1.430570
| 34> H        -1.553513   -2.368804   -1.430568
| 35> H        -3.164458   -3.510523   -0.278418
| 36> H         3.164458   -3.510522    0.278419
| 37> *
| 38>
| 39> $new_job
| 40> ! ri-mp2 aug-cc-pvtz aug-cc-pvtz/c tightscf
| 41> %pal nprocs 16 end
| 42> %maxcore 3800
| 43> %base "TZ_Si-Si_160_AB"
| 44>
| 45> *xyz 0 1
| 46> Si        -0.951937    2.520438   -0.681187
| 47> Si         0.951937    2.520438    0.681187
| 48> C         1.805679    0.878530    0.449855
| 49> H         0.539220    2.668922    2.098078
| 50> H         1.883756    3.621644    0.338394
| 51> C         1.355354   -0.257522    1.118248
| 52> C         2.850930    0.715919   -0.459807
| 53> C         3.426369   -0.517425   -0.694670
| 54> C         2.959643   -1.630214   -0.011938
| 55> C         1.921150   -1.499306    0.897461
| 56> H         3.231849    1.574249   -1.000401
| 57> H         4.239395   -0.635948   -1.397664
| 58> C        -1.805679    0.878530   -0.449855
| 59> H        -0.539219    2.668921   -2.098078
| 60> H        -1.883756    3.621643   -0.338394
| 61> C        -1.355353   -0.257522   -1.118247
| 62> C        -2.850931    0.715919    0.459806
| 63> C        -3.426370   -0.517424    0.694669
| 64> C        -2.959643   -1.630214    0.011938
| 65> C        -1.921149   -1.499307   -0.897460
| 66> H        -3.231851    1.574250    1.000398
| 67> H        -4.239397   -0.635948    1.397661
| 68> O         3.554122   -2.824217   -0.271780
| 69> O        -3.554122   -2.824217    0.271780
| 70> H         0.537814   -0.181824    1.824826
| 71> H        -0.537812   -0.181825   -1.824824
| 72> H         1.553515   -2.368803    1.430570
| 73> H        -1.553513   -2.368804   -1.430568
| 74> H        -3.164458   -3.510523   -0.278418
| 75> H         3.164458   -3.510522    0.278419
| 76> *
| 77>
| 78> $new_job
| 79> ! ri-mp2 aug-cc-pvqz aug-cc-pvqz/c tightscf
| 80> %pal nprocs 16 end
| 81> %maxcore 3800
| 82> %base "QZ_Si-Si_160_AB"
| 83>
| 84> *xyz 0 1
| 85> Si        -0.951937    2.520438   -0.681187
| 86> Si         0.951937    2.520438    0.681187
| 87> C         1.805679    0.878530    0.449855
| 88> H         0.539220    2.668922    2.098078
| 89> H         1.883756    3.621644    0.338394
| 90> C         1.355354   -0.257522    1.118248
| 91> C         2.850930    0.715919   -0.459807
| 92> C         3.426369   -0.517425   -0.694670
| 93> C         2.959643   -1.630214   -0.011938
| 94> C         1.921150   -1.499306    0.897461
| 95> H         3.231849    1.574249   -1.000401
| 96> H         4.239395   -0.635948   -1.397664
| 97> C        -1.805679    0.878530   -0.449855
| 98> H        -0.539219    2.668921   -2.098078
| 99> H        -1.883756    3.621643   -0.338394
|100> C        -1.355353   -0.257522   -1.118247
|101> C        -2.850931    0.715919    0.459806
|102> C        -3.426370   -0.517424    0.694669
|103> C        -2.959643   -1.630214    0.011938
|104> C        -1.921149   -1.499307   -0.897460
|105> H        -3.231851    1.574250    1.000398
|106> H        -4.239397   -0.635948    1.397661
|107> O         3.554122   -2.824217   -0.271780
|108> O        -3.554122   -2.824217    0.271780
|109> H         0.537814   -0.181824    1.824826
|110> H        -0.537812   -0.181825   -1.824824
|111> H         1.553515   -2.368803    1.430570
|112> H        -1.553513   -2.368804   -1.430568
|113> H        -3.164458   -3.510523   -0.278418
|114> H         3.164458   -3.510522    0.278419
|115> *
|116>
|117>
|118>
|119>
|120>                          ****END OF INPUT****
 Total Charge           Charge          ....    0
 Multiplicity           Mult            ....    1
 Number of Electrons    NEL             ....  130
MP2 TOTAL ENERGY:    -1192.462236059 Eh
FINAL SINGLE POINT ENERGY     -1192.462236058964
MP2 TOTAL ENERGY:    -1193.061750746 Eh
FINAL SINGLE POINT ENERGY     -1193.061750746008

CARTESIAN COORDINATES (ANGSTROEM)
---------------------------------
  Si    -0.951937    2.520438   -0.681187
  Si     0.951937    2.520438    0.681187
  C      1.805679    0.878530    0.449855
  H      0.539220    2.668922    2.098078
  H      1.883756    3.621644    0.338394
  C      1.355354   -0.257522    1.118248
  C      2.850930    0.715919   -0.459807
  C      3.426369   -0.517425   -0.694670
  C      2.959643   -1.630214   -0.011938
  C      1.921150   -1.499306    0.897461
  H      3.231849    1.574249   -1.000401
  H      4.239395   -0.635948   -1.397664
  C     -1.805679    0.878530   -0.449855
  H     -0.539219    2.668921   -2.098078
  H     -1.883756    3.621643   -0.338394
  C     -1.355353   -0.257522   -1.118247
  C     -2.850931    0.715919    0.459806
  C     -3.426370   -0.517424    0.694669
  C     -2.959643   -1.630214    0.011938
  C     -1.921149   -1.499307   -0.897460
  H     -3.231851    1.574250    1.000398
  H     -4.239397   -0.635948    1.397661
  O      3.554122   -2.824217   -0.271780
  O     -3.554122   -2.824217    0.271780
  H      0.537814   -0.181824    1.824826
  H     -0.537812   -0.181825   -1.824824
  H      1.553515   -2.368803    1.430570
  H     -1.553513   -2.368804   -1.430568
  H     -3.164458   -3.510523   -0.278418
  H      3.164458   -3.510522    0.278419

 Multiplicity           Mult            ....    1
 Number of Electrons    NEL             ....  130
 Basis Dimension        Dim             .... 1932

ORBITAL ENERGIES
----------------

  NO   OCC          E(Eh)            E(eV)
   0   2.0000     -68.756597     -1870.9621
   1   2.0000     -68.756596     -1870.9621
   2   2.0000     -20.595197      -560.4238
   3   2.0000     -20.595197      -560.4238
   4   2.0000     -11.306956      -307.6779
   5   2.0000     -11.306956      -307.6779
   6   2.0000     -11.244031      -305.9656
   7   2.0000     -11.244030      -305.9656
   8   2.0000     -11.243603      -305.9540
   9   2.0000     -11.243603      -305.9540
  10   2.0000     -11.232914      -305.6631
  11   2.0000     -11.232913      -305.6631
  12   2.0000     -11.227630      -305.5193
  13   2.0000     -11.227630      -305.5193
  14   2.0000     -11.214815      -305.1706
  15   2.0000     -11.214814      -305.1706
  16   2.0000      -6.107434      -166.1917
  17   2.0000      -6.107285      -166.1877
  18   2.0000      -4.213789      -114.6630
  19   2.0000      -4.213721      -114.6612
  20   2.0000      -4.213645      -114.6591
  21   2.0000      -4.213350      -114.6511
  22   2.0000      -4.213288      -114.6494
  23   2.0000      -4.212922      -114.6394
  24   2.0000      -1.415395       -38.5149
  25   2.0000      -1.415393       -38.5148
  26   2.0000      -1.155598       -31.4454
  27   2.0000      -1.154058       -31.4035
  28   2.0000      -1.027462       -27.9587
  29   2.0000      -1.026336       -27.9280
  30   2.0000      -1.011428       -27.5224
  31   2.0000      -1.008359       -27.4388
  32   2.0000      -0.854991       -23.2655
  33   2.0000      -0.852757       -23.2047
  34   2.0000      -0.831603       -22.6291
  35   2.0000      -0.827408       -22.5149
  36   2.0000      -0.746725       -20.3194
  37   2.0000      -0.742809       -20.2129
  38   2.0000      -0.738429       -20.0937
  39   2.0000      -0.697043       -18.9675
  40   2.0000      -0.671244       -18.2655
  41   2.0000      -0.662847       -18.0370
  42   2.0000      -0.635816       -17.3014
  43   2.0000      -0.626510       -17.0482
  44   2.0000      -0.604493       -16.4491
  45   2.0000      -0.600795       -16.3485
  46   2.0000      -0.599995       -16.3267
  47   2.0000      -0.596892       -16.2423
  48   2.0000      -0.594144       -16.1675
  49   2.0000      -0.593978       -16.1630
  50   2.0000      -0.570636       -15.5278
  51   2.0000      -0.567183       -15.4338
  52   2.0000      -0.506779       -13.7901
  53   2.0000      -0.496368       -13.5069
  54   2.0000      -0.495596       -13.4859
  55   2.0000      -0.491242       -13.3674
  56   2.0000      -0.480390       -13.0721
  57   2.0000      -0.470991       -12.8163
  58   2.0000      -0.456200       -12.4138
  59   2.0000      -0.447493       -12.1769
  60   2.0000      -0.400810       -10.9066
  61   2.0000      -0.354105        -9.6357
  62   2.0000      -0.343954        -9.3595
  63   2.0000      -0.318947        -8.6790
  64   2.0000      -0.309944        -8.4340
  65   0.0000       0.016883         0.4594
  66   0.0000       0.025328         0.6892
  67   0.0000       0.027869         0.7584
  68   0.0000       0.028238         0.7684
  69   0.0000       0.035686         0.9711

MULLIKEN ATOMIC CHARGES
-----------------------
   0 Si:    1.182964
   1 Si:    1.182956
   2 C :   -0.271247
   3 H :   -0.346508
   4 H :   -0.502981
   5 C :   -0.233284
   6 C :   -0.453707
   7 C :   -0.549490
   8 C :    1.273918
   9 C :   -0.626563
  10 H :    0.280443
  11 H :    0.323654
  12 C :   -0.271265
  13 H :   -0.346514
  14 H :   -0.502980
  15 C :   -0.233292
  16 C :   -0.453740
  17 C :   -0.549475
  18 C :    1.273905
  19 C :   -0.626551
  20 H :    0.280431
  21 H :    0.323685
  22 O :   -0.907595
  23 O :   -0.907606
  24 H :    0.285339
  25 H :    0.285344
  26 H :    0.151988
  27 H :    0.152003
  28 H :    0.393084
  29 H :    0.393083
Sum of atomic charges:   -0.0000000

LOEWDIN ATOMIC CHARGES
----------------------
   0 Si:    0.753363
   1 Si:    0.753363
   2 C :   -0.151122
   3 H :   -0.242712
   4 H :   -0.248421
   5 C :    0.231756
   6 C :    0.248326
   7 C :    0.328709
   8 C :   -0.441412
   9 C :    0.337531
  10 H :   -0.332537
  11 H :   -0.322944
  12 C :   -0.151122
  13 H :   -0.242711
  14 H :   -0.248421
  15 C :    0.231756
  16 C :    0.248326
  17 C :    0.328709
  18 C :   -0.441411
  19 C :    0.337531
  20 H :   -0.332537
  21 H :   -0.322944
  22 O :    1.281492
  23 O :    1.281492
  24 H :   -0.324251
  25 H :   -0.324251
  26 H :   -0.316860
  27 H :   -0.316860
  28 H :   -0.800919
  29 H :   -0.800920

  Mayer bond orders larger than 0.100000
B(  0-Si,  1-Si) :   0.7759 B(  0-Si, 12-C ) :   1.1178 B(  0-Si, 13-H ) :   0.6180
B(  0-Si, 14-H ) :   0.3576 B(  0-Si, 15-C ) :  -0.1631 B(  0-Si, 16-C ) :  -0.1922
B(  1-Si,  2-C ) :   1.1178 B(  1-Si,  3-H ) :   0.6180 B(  1-Si,  4-H ) :   0.3576
B(  1-Si,  5-C ) :  -0.1631 B(  1-Si,  6-C ) :  -0.1922 B(  2-C ,  5-C ) :   0.9042
B(  2-C ,  6-C ) :   1.0411 B(  2-C ,  7-C ) :  -0.2202 B(  2-C ,  9-C ) :  -0.2222
B(  2-C , 10-H ) :  -0.1082 B(  2-C , 24-H ) :  -0.1490 B(  5-C ,  8-C ) :  -0.1319
B(  5-C ,  9-C ) :   1.2346 B(  5-C , 24-H ) :   0.9243 B(  5-C , 26-H ) :  -0.1532
B(  6-C ,  7-C ) :   1.2513 B(  6-C ,  9-C ) :   0.1195 B(  6-C , 10-H ) :   0.9908
B(  6-C , 11-H ) :  -0.1226 B(  7-C ,  8-C ) :   1.3569 B(  7-C , 10-H ) :  -0.1290
B(  7-C , 11-H ) :   0.9507 B(  7-C , 22-O ) :   0.3265 B(  8-C ,  9-C ) :   1.2310
B(  8-C , 22-O ) :  -0.3606 B(  8-C , 29-H ) :  -0.1448 B(  9-C , 22-O ) :   0.3399
B(  9-C , 24-H ) :  -0.1307 B(  9-C , 26-H ) :   1.1373 B( 12-C , 15-C ) :   0.9042
B( 12-C , 16-C ) :   1.0412 B( 12-C , 17-C ) :  -0.2202 B( 12-C , 19-C ) :  -0.2222
B( 12-C , 20-H ) :  -0.1081 B( 12-C , 25-H ) :  -0.1490 B( 15-C , 18-C ) :  -0.1319
B( 15-C , 19-C ) :   1.2346 B( 15-C , 25-H ) :   0.9242 B( 15-C , 27-H ) :  -0.1532
B( 16-C , 17-C ) :   1.2514 B( 16-C , 19-C ) :   0.1195 B( 16-C , 20-H ) :   0.9908
B( 16-C , 21-H ) :  -0.1226 B( 17-C , 18-C ) :   1.3570 B( 17-C , 20-H ) :  -0.1290
B( 17-C , 21-H ) :   0.9506 B( 17-C , 23-O ) :   0.3265 B( 18-C , 19-C ) :   1.2310
B( 18-C , 23-O ) :  -0.3606 B( 18-C , 28-H ) :  -0.1448 B( 19-C , 23-O ) :   0.3399
B( 19-C , 25-H ) :  -0.1307 B( 19-C , 27-H ) :   1.1373 B( 22-O , 29-H ) :   0.8715
B( 23-O , 28-H ) :   0.8715

MP2 TOTAL ENERGY:    -1193.255184332 Eh
FINAL SINGLE POINT ENERGY     -1193.255184331771

DIPOLE MOMENT
-------------
                                X             Y             Z
Electronic contribution:     -0.00000      -2.82137       0.00000
Nuclear contribution   :      0.00000       1.92254      -0.00000
                        -----------------------------------------
Total Dipole Moment    :     -0.00000      -0.89883       0.00000
                        -----------------------------------------
Magnitude (a.u.)       :      0.89883
Magnitude (Debye)      :      2.28465

Rotational constants in cm-1:     0.017255     0.010738     0.007342
Rotational constants in MHz :   517.290080   321.905154   220.094619

                             ****ORCA TERMINATED NORMALLY****
TOTAL RUN TIME: 0 days 3 hours 24 minutes 22 seconds 782 msec
