                         Program Version 5.0.4 -  RELEASE  -
|  1> ! ri-mp2 aug-cc-pvdz aug-cc-pvdz/c tightscf
|  2> %pal nprocs 16 end
|  3> %maxcore 3800
|  4> %base "DZ_P-O_23_AB"
|  5> %scf
|  6> STABPerform true
|  7> STABRestartUHFifUnstable true
|  8> end
|  9>
| 10> *xyz 0 1
| 11> C        -1.247994   -0.854766    0.186410
| 12> O        -0.315717    0.105978   -0.345561
| 13> P         1.215837   -0.026202   -0.039575
| 14> O         1.853511   -1.305950   -0.331922
| 15> O         1.811060    1.210731   -0.826924
| 16> C        -2.625020   -0.514948   -0.326935
| 17> H        -1.212589   -0.801321    1.277117
| 18> H        -0.936248   -1.850624   -0.129515
| 19> C        -3.117009    0.847189    0.134614
| 20> H        -3.303653   -1.300092    0.015871
| 21> H        -2.611697   -0.564501   -1.417792
| 22> H        -3.163783    0.898049    1.224104
| 23> H        -4.114287    1.054611   -0.252695
| 24> H        -2.450123    1.637283   -0.207880
| 25> O         1.294938    0.423013    1.480502
| 26> H         2.060586    0.049790    1.930772
| 27> H         2.284029    0.934807   -1.619650
| 28> *
| 29>
| 30> $new_job
| 31> ! ri-mp2 aug-cc-pvtz aug-cc-pvtz/c tightscf
| 32> %pal nprocs 16 end
| 33> %maxcore 3800
| 34> %base "TZ_P-O_23_AB"
| 35>
| 36> *xyz 0 1
| 37> C        -1.247994   -0.854766    0.186410
| 38> O        -0.315717    0.105978   -0.345561
| 39> P         1.215837   -0.026202   -0.039575
| 40> O         1.853511   -1.305950   -0.331922
| 41> O         1.811060    1.210731   -0.826924
| 42> C        -2.625020   -0.514948   -0.326935
| 43> H        -1.212589   -0.801321    1.277117
| 44> H        -0.936248   -1.850624   -0.129515
| 45> C        -3.117009    0.847189    0.134614
| 46> H        -3.303653   -1.300092    0.015871
| 47> H        -2.611697   -0.564501   -1.417792
| 48> H        -3.163783    0.898049    1.224104
| 49> H        -4.114287    1.054611   -0.252695
| 50> H        -2.450123    1.637283   -0.207880
| 51> O         1.294938    0.423013    1.480502
| 52> H         2.060586    0.049790    1.930772
| 53> H         2.284029    0.934807   -1.619650
| 54> *
| 55>
| 56> $new_job
| 57> ! ri-mp2 aug-cc-pvqz aug-cc-pvqz/c tightscf
| 58> %pal nprocs 16 end
| 59> %maxcore 3800
| 60> %base "QZ_P-O_23_AB"
| 61>
| 62> *xyz 0 1
| 63> C        -1.247994   -0.854766    0.186410
| 64> O        -0.315717    0.105978   -0.345561
| 65> P         1.215837   -0.026202   -0.039575
| 66> O         1.853511   -1.305950   -0.331922
| 67> O         1.811060    1.210731   -0.826924
| 68> C        -2.625020   -0.514948   -0.326935
| 69> H        -1.212589   -0.801321    1.277117
| 70> H        -0.936248   -1.850624   -0.129515
| 71> C        -3.117009    0.847189    0.134614
| 72> H        -3.303653   -1.300092    0.015871
| 73> H        -2.611697   -0.564501   -1.417792
| 74> H        -3.163783    0.898049    1.224104
| 75> H        -4.114287    1.054611   -0.252695
| 76> H        -2.450123    1.637283   -0.207880
| 77> O         1.294938    0.423013    1.480502
| 78> H         2.060586    0.049790    1.930772
| 79> H         2.284029    0.934807   -1.619650
| 80> *
| 81>
| 82>
| 83>
| 84>
| 85>                          ****END OF INPUT****
 Total Charge           Charge          ....    0
 Multiplicity           Mult            ....    1
 Number of Electrons    NEL             ....   74
MP2 TOTAL ENERGY:     -760.557902783 Eh
FINAL SINGLE POINT ENERGY      -760.557902782988
MP2 TOTAL ENERGY:     -761.014919296 Eh
FINAL SINGLE POINT ENERGY      -761.014919295848

CARTESIAN COORDINATES (ANGSTROEM)
---------------------------------
  C     -1.247994   -0.854766    0.186410
  O     -0.315717    0.105978   -0.345561
  P      1.215837   -0.026202   -0.039575
  O      1.853511   -1.305950   -0.331922
  O      1.811060    1.210731   -0.826924
  C     -2.625020   -0.514948   -0.326935
  H     -1.212589   -0.801321    1.277117
  H     -0.936248   -1.850624   -0.129515
  C     -3.117009    0.847189    0.134614
  H     -3.303653   -1.300092    0.015871
  H     -2.611697   -0.564501   -1.417792
  H     -3.163783    0.898049    1.224104
  H     -4.114287    1.054611   -0.252695
  H     -2.450123    1.637283   -0.207880
  O      1.294938    0.423013    1.480502
  H      2.060586    0.049790    1.930772
  H      2.284029    0.934807   -1.619650

 Multiplicity           Mult            ....    1
 Number of Electrons    NEL             ....   74
 Basis Dimension        Dim             .... 1058

ORBITAL ENERGIES
----------------

  NO   OCC          E(Eh)            E(eV)
   0   2.0000     -80.090116     -2179.3629
   1   2.0000     -20.601558      -560.5969
   2   2.0000     -20.600221      -560.5605
   3   2.0000     -20.587490      -560.2141
   4   2.0000     -20.507578      -558.0396
   5   2.0000     -11.295533      -307.3671
   6   2.0000     -11.230331      -305.5928
   7   2.0000     -11.214834      -305.1711
   8   2.0000      -7.608555      -207.0393
   9   2.0000      -5.507385      -149.8636
  10   2.0000      -5.507218      -149.8590
  11   2.0000      -5.506166      -149.8304
  12   2.0000      -1.462976       -39.8096
  13   2.0000      -1.390959       -37.8499
  14   2.0000      -1.389682       -37.8152
  15   2.0000      -1.300489       -35.3881
  16   2.0000      -1.071661       -29.1614
  17   2.0000      -0.948164       -25.8008
  18   2.0000      -0.856612       -23.3096
  19   2.0000      -0.814327       -22.1590
  20   2.0000      -0.751823       -20.4582
  21   2.0000      -0.731213       -19.8973
  22   2.0000      -0.683688       -18.6041
  23   2.0000      -0.663312       -18.0496
  24   2.0000      -0.643111       -17.4999
  25   2.0000      -0.616472       -16.7751
  26   2.0000      -0.606062       -16.4918
  27   2.0000      -0.585119       -15.9219
  28   2.0000      -0.573487       -15.6054
  29   2.0000      -0.549123       -14.9424
  30   2.0000      -0.547328       -14.8936
  31   2.0000      -0.521209       -14.1828
  32   2.0000      -0.495719       -13.4892
  33   2.0000      -0.490584       -13.3495
  34   2.0000      -0.480787       -13.0829
  35   2.0000      -0.470449       -12.8016
  36   2.0000      -0.463705       -12.6181
  37   0.0000       0.024375         0.6633
  38   0.0000       0.030130         0.8199
  39   0.0000       0.031676         0.8619
  40   0.0000       0.036069         0.9815
  41   0.0000       0.044096         1.1999

MULLIKEN ATOMIC CHARGES
-----------------------
   0 C :    0.064634
   1 O :   -0.919536
   2 P :    2.629700
   3 O :   -1.164164
   4 O :   -0.962218
   5 C :   -0.481164
   6 H :    0.223099
   7 H :    0.300588
   8 C :   -0.807644
   9 H :    0.279420
  10 H :    0.239243
  11 H :    0.190997
  12 H :    0.303680
  13 H :    0.250985
  14 O :   -0.897199
  15 H :    0.373758
  16 H :    0.375821
Sum of atomic charges:   -0.0000000

LOEWDIN ATOMIC CHARGES
----------------------
   0 C :    0.127301
   1 O :    0.688811
   2 P :   -0.999276
   3 O :    0.317099
   4 O :    1.092943
   5 C :    0.488180
   6 H :   -0.301300
   7 H :   -0.303068
   8 C :    0.920320
   9 H :   -0.275775
  10 H :   -0.276805
  11 H :   -0.282816
  12 H :   -0.282085
  13 H :   -0.293793
  14 O :    1.103885
  15 H :   -0.856648
  16 H :   -0.866974

  Mayer bond orders larger than 0.100000
B(  0-C ,  1-O ) :   0.7203 B(  0-C ,  5-C ) :   0.9392 B(  0-C ,  6-H ) :   0.8719
B(  0-C ,  7-H ) :   0.8505 B(  1-O ,  2-P ) :   0.8465 B(  2-P ,  3-O ) :   1.3829
B(  2-P ,  4-O ) :   0.4841 B(  2-P , 14-O ) :   0.6335 B(  4-O , 16-H ) :   0.9177
B(  5-C ,  8-C ) :   0.9457 B(  5-C ,  9-H ) :   0.9084 B(  5-C , 10-H ) :   0.8960
B(  8-C , 11-H ) :   0.9778 B(  8-C , 12-H ) :   0.9573 B(  8-C , 13-H ) :   0.9316
B( 14-O , 15-H ) :   0.9264

MP2 TOTAL ENERGY:     -761.160158402 Eh
FINAL SINGLE POINT ENERGY      -761.160158401695

DIPOLE MOMENT
-------------
                                X             Y             Z
Electronic contribution:     14.00873       0.08655      -0.62891
Nuclear contribution   :    -14.41861       0.08909       0.85092
                        -----------------------------------------
Total Dipole Moment    :     -0.40989       0.17564       0.22201
                        -----------------------------------------
Magnitude (a.u.)       :      0.49814
Magnitude (Debye)      :      1.26618

Rotational constants in cm-1:     0.112852     0.032133     0.030797
Rotational constants in MHz :  3383.218505   963.310379   923.271463

                             ****ORCA TERMINATED NORMALLY****
TOTAL RUN TIME: 0 days 3 hours 15 minutes 34 seconds 894 msec
