                         Program Version 5.0.4 -  RELEASE  -
|  1> ! ri-mp2 aug-cc-pvdz aug-cc-pvdz/c tightscf
|  2> %pal nprocs 16 end
|  3> %maxcore 3800
|  4> %base "DZ_B-S_35_AB"
|  5>
|  6> *xyz 0 1
|  7> C        -4.554752   -0.481835   -0.000002
|  8> C        -4.153711    0.845138   -0.000012
|  9> C        -2.809820    1.159261   -0.000009
| 10> C        -3.608384   -1.492328    0.000011
| 11> C        -2.261142   -1.181284    0.000013
| 12> C        -1.853265    0.147801    0.000004
| 13> H        -5.608199   -0.728562   -0.000004
| 14> H        -4.891947    1.635526   -0.000022
| 15> H        -2.477646    2.187330   -0.000016
| 16> H        -3.919371   -2.528011    0.000019
| 17> H        -1.532428   -1.978332    0.000024
| 18> C        -0.424861    0.568491    0.000006
| 19> S         0.749985   -0.789816    0.000002
| 20> B         2.447343   -0.115990   -0.000002
| 21> S         2.999381    1.578444    0.000008
| 22> O        -0.110038    1.729607    0.000006
| 23> S         3.659154   -1.456851   -0.000018
| 24> H         1.778435    2.138928    0.000017
| 25> H         4.754025   -0.683685   -0.000018
| 26> *
| 27>
| 28> $new_job
| 29> ! ri-mp2 aug-cc-pvtz aug-cc-pvtz/c tightscf
| 30> %pal nprocs 16 end
| 31> %maxcore 3800
| 32> %base "TZ_B-S_35_AB"
| 33>
| 34> *xyz 0 1
| 35> C        -4.554752   -0.481835   -0.000002
| 36> C        -4.153711    0.845138   -0.000012
| 37> C        -2.809820    1.159261   -0.000009
| 38> C        -3.608384   -1.492328    0.000011
| 39> C        -2.261142   -1.181284    0.000013
| 40> C        -1.853265    0.147801    0.000004
| 41> H        -5.608199   -0.728562   -0.000004
| 42> H        -4.891947    1.635526   -0.000022
| 43> H        -2.477646    2.187330   -0.000016
| 44> H        -3.919371   -2.528011    0.000019
| 45> H        -1.532428   -1.978332    0.000024
| 46> C        -0.424861    0.568491    0.000006
| 47> S         0.749985   -0.789816    0.000002
| 48> B         2.447343   -0.115990   -0.000002
| 49> S         2.999381    1.578444    0.000008
| 50> O        -0.110038    1.729607    0.000006
| 51> S         3.659154   -1.456851   -0.000018
| 52> H         1.778435    2.138928    0.000017
| 53> H         4.754025   -0.683685   -0.000018
| 54> *
| 55>
| 56> $new_job
| 57> ! ri-mp2 aug-cc-pvqz aug-cc-pvqz/c tightscf
| 58> %pal nprocs 16 end
| 59> %maxcore 3800
| 60> %base "QZ_B-S_35_AB"
| 61>
| 62> *xyz 0 1
| 63> C        -4.554752   -0.481835   -0.000002
| 64> C        -4.153711    0.845138   -0.000012
| 65> C        -2.809820    1.159261   -0.000009
| 66> C        -3.608384   -1.492328    0.000011
| 67> C        -2.261142   -1.181284    0.000013
| 68> C        -1.853265    0.147801    0.000004
| 69> H        -5.608199   -0.728562   -0.000004
| 70> H        -4.891947    1.635526   -0.000022
| 71> H        -2.477646    2.187330   -0.000016
| 72> H        -3.919371   -2.528011    0.000019
| 73> H        -1.532428   -1.978332    0.000024
| 74> C        -0.424861    0.568491    0.000006
| 75> S         0.749985   -0.789816    0.000002
| 76> B         2.447343   -0.115990   -0.000002
| 77> S         2.999381    1.578444    0.000008
| 78> O        -0.110038    1.729607    0.000006
| 79> S         3.659154   -1.456851   -0.000018
| 80> H         1.778435    2.138928    0.000017
| 81> H         4.754025   -0.683685   -0.000018
| 82> *
| 83>
| 84>
| 85>
| 86>
| 87>                          ****END OF INPUT****
 Total Charge           Charge          ....    0
 Multiplicity           Mult            ....    1
 Number of Electrons    NEL             ....  110
MP2 TOTAL ENERGY:    -1563.081453181 Eh
FINAL SINGLE POINT ENERGY     -1563.081453180913
MP2 TOTAL ENERGY:    -1563.546231245 Eh
FINAL SINGLE POINT ENERGY     -1563.546231245051

CARTESIAN COORDINATES (ANGSTROEM)
---------------------------------
  C     -4.554752   -0.481835   -0.000002
  C     -4.153711    0.845138   -0.000012
  C     -2.809820    1.159261   -0.000009
  C     -3.608384   -1.492328    0.000011
  C     -2.261142   -1.181284    0.000013
  C     -1.853265    0.147801    0.000004
  H     -5.608199   -0.728562   -0.000004
  H     -4.891947    1.635526   -0.000022
  H     -2.477646    2.187330   -0.000016
  H     -3.919371   -2.528011    0.000019
  H     -1.532428   -1.978332    0.000024
  C     -0.424861    0.568491    0.000006
  S      0.749985   -0.789816    0.000002
  B      2.447343   -0.115990   -0.000002
  S      2.999381    1.578444    0.000008
  O     -0.110038    1.729607    0.000006
  S      3.659154   -1.456851   -0.000018
  H      1.778435    2.138928    0.000017
  H      4.754025   -0.683685   -0.000018

 Multiplicity           Mult            ....    1
 Number of Electrons    NEL             ....  110
 Basis Dimension        Dim             .... 1294

ORBITAL ENERGIES
----------------

  NO   OCC          E(Eh)            E(eV)
   0   2.0000     -91.973324     -2502.7214
   1   2.0000     -91.960550     -2502.3738
   2   2.0000     -91.951017     -2502.1144
   3   2.0000     -20.571410      -559.7765
   4   2.0000     -11.384906      -309.7990
   5   2.0000     -11.263270      -306.4892
   6   2.0000     -11.261523      -306.4416
   7   2.0000     -11.259765      -306.3938
   8   2.0000     -11.256893      -306.3156
   9   2.0000     -11.250881      -306.1520
  10   2.0000     -11.249969      -306.1272
  11   2.0000      -8.978865      -244.3273
  12   2.0000      -8.965608      -243.9666
  13   2.0000      -8.956760      -243.7258
  14   2.0000      -7.684041      -209.0934
  15   2.0000      -6.660401      -181.2387
  16   2.0000      -6.659235      -181.2070
  17   2.0000      -6.658961      -181.1995
  18   2.0000      -6.647158      -180.8784
  19   2.0000      -6.646227      -180.8530
  20   2.0000      -6.645678      -180.8381
  21   2.0000      -6.638265      -180.6364
  22   2.0000      -6.637502      -180.6156
  23   2.0000      -6.637034      -180.6029
  24   2.0000      -1.428245       -38.8645
  25   2.0000      -1.184982       -32.2450
  26   2.0000      -1.074413       -29.2363
  27   2.0000      -1.044152       -28.4128
  28   2.0000      -1.036590       -28.2071
  29   2.0000      -0.992353       -27.0033
  30   2.0000      -0.964762       -26.2525
  31   2.0000      -0.884598       -24.0711
  32   2.0000      -0.851617       -23.1737
  33   2.0000      -0.784638       -21.3511
  34   2.0000      -0.727267       -19.7899
  35   2.0000      -0.697352       -18.9759
  36   2.0000      -0.670657       -18.2495
  37   2.0000      -0.644983       -17.5509
  38   2.0000      -0.635594       -17.2954
  39   2.0000      -0.612161       -16.6578
  40   2.0000      -0.596393       -16.2287
  41   2.0000      -0.594320       -16.1723
  42   2.0000      -0.580125       -15.7860
  43   2.0000      -0.540616       -14.7109
  44   2.0000      -0.525751       -14.3064
  45   2.0000      -0.521591       -14.1932
  46   2.0000      -0.516895       -14.0654
  47   2.0000      -0.466631       -12.6977
  48   2.0000      -0.457410       -12.4468
  49   2.0000      -0.441567       -12.0157
  50   2.0000      -0.420132       -11.4324
  51   2.0000      -0.389505       -10.5990
  52   2.0000      -0.369889       -10.0652
  53   2.0000      -0.361133        -9.8269
  54   2.0000      -0.359515        -9.7829
  55   0.0000       0.018846         0.5128
  56   0.0000       0.026553         0.7225
  57   0.0000       0.030078         0.8185
  58   0.0000       0.036475         0.9925
  59   0.0000       0.040551         1.1034

MULLIKEN ATOMIC CHARGES
-----------------------
   0 C :   -0.300164
   1 C :   -0.242476
   2 C :   -0.283173
   3 C :   -0.380292
   4 C :   -0.251141
   5 C :   -0.045788
   6 H :    0.316212
   7 H :    0.256879
   8 H :    0.343285
   9 H :    0.272051
  10 H :    0.324439
  11 C :    0.621120
  12 S :    0.205495
  13 B :    0.109145
  14 S :   -0.049694
  15 O :   -0.819804
  16 S :   -0.031547
  17 H :   -0.064455
  18 H :    0.019906
Sum of atomic charges:    0.0000000

LOEWDIN ATOMIC CHARGES
----------------------
   0 C :    0.350111
   1 C :    0.361166
   2 C :    0.310287
   3 C :    0.358034
   4 C :    0.279797
   5 C :   -0.221290
   6 H :   -0.312630
   7 H :   -0.317512
   8 H :   -0.343736
   9 H :   -0.317342
  10 H :   -0.399378
  11 C :   -1.027088
  12 S :    1.308690
  13 B :   -2.135813
  14 S :    1.652900
  15 O :    0.721624
  16 S :    1.539701
  17 H :   -0.987056
  18 H :   -0.820466

  Mayer bond orders larger than 0.100000
B(  0-C ,  1-C ) :   1.1062 B(  0-C ,  3-C ) :   1.1842 B(  0-C ,  6-H ) :   1.0183
B(  0-C ,  7-H ) :  -0.1050 B(  1-C ,  2-C ) :   1.2603 B(  1-C ,  5-C ) :  -0.3017
B(  1-C ,  7-H ) :   1.1171 B(  2-C ,  3-C ) :   0.1199 B(  2-C ,  5-C ) :   1.0566
B(  2-C ,  7-H ) :  -0.1570 B(  2-C ,  8-H ) :   0.8312 B(  2-C , 11-C ) :  -0.3553
B(  3-C ,  4-C ) :   1.2015 B(  3-C ,  5-C ) :  -0.2610 B(  3-C ,  9-H ) :   1.0977
B(  4-C ,  5-C ) :   1.0388 B(  4-C ,  9-H ) :  -0.1390 B(  4-C , 10-H ) :   0.9164
B(  4-C , 11-C ) :  -0.3527 B(  5-C , 10-H ) :  -0.1419 B(  5-C , 11-C ) :   0.7532
B(  5-C , 12-S ) :  -0.1767 B(  5-C , 15-O ) :   0.4476 B( 10-H , 11-C ) :   0.1143
B( 11-C , 12-S ) :   0.9119 B( 11-C , 13-B ) :  -0.1066 B( 11-C , 15-O ) :   1.0292
B( 12-S , 13-B ) :   1.1573 B( 13-B , 14-S ) :   1.1609 B( 13-B , 16-S ) :   1.1833
B( 13-B , 17-H ) :  -0.1178 B( 13-B , 18-H ) :  -0.1132 B( 14-S , 17-H ) :   1.0356
B( 15-O , 17-H ) :   0.1365 B( 16-S , 18-H ) :   1.0976

MP2 TOTAL ENERGY:    -1563.698575418 Eh
FINAL SINGLE POINT ENERGY     -1563.698575418384

DIPOLE MOMENT
-------------
                                X             Y             Z
Electronic contribution:     12.37771      -0.49148      -0.00000
Nuclear contribution   :    -13.60344       0.17805       0.00000
                        -----------------------------------------
Total Dipole Moment    :     -1.22573      -0.31343       0.00000
                        -----------------------------------------
Magnitude (a.u.)       :      1.26517
Magnitude (Debye)      :      3.21581

Rotational constants in cm-1:     0.053584     0.009812     0.008293
Rotational constants in MHz :  1606.415514   294.159813   248.631496

                             ****ORCA TERMINATED NORMALLY****
TOTAL RUN TIME: 0 days 1 hours 5 minutes 34 seconds 194 msec
