                         Program Version 5.0.4 -  RELEASE  -
|  1> ! ri-mp2 aug-cc-pvdz aug-cc-pvdz/c tightscf
|  2> %pal nprocs 16 end
|  3> %maxcore 3800
|  4> %base "DZ_B-F_14_AB"
|  5> %scf
|  6> STABPerform true
|  7> STABRestartUHFifUnstable true
|  8> end
|  9>
| 10> *xyz 0 1
| 11> F         0.998521    1.324303   -0.000028
| 12> F         2.160810   -0.600843    0.000029
| 13> B         0.992209    0.013608    0.000003
| 14> C        -0.309495   -0.853949    0.000008
| 15> Cl        -1.817719    0.091534   -0.000006
| 16> H        -0.318412   -1.505775    0.873491
| 17> H        -0.318405   -1.505788   -0.873466
| 18> *
| 19>
| 20> $new_job
| 21> ! ri-mp2 aug-cc-pvtz aug-cc-pvtz/c tightscf
| 22> %pal nprocs 16 end
| 23> %maxcore 3800
| 24> %base "TZ_B-F_14_AB"
| 25>
| 26> *xyz 0 1
| 27> F         0.998521    1.324303   -0.000028
| 28> F         2.160810   -0.600843    0.000029
| 29> B         0.992209    0.013608    0.000003
| 30> C        -0.309495   -0.853949    0.000008
| 31> Cl        -1.817719    0.091534   -0.000006
| 32> H        -0.318412   -1.505775    0.873491
| 33> H        -0.318405   -1.505788   -0.873466
| 34> *
| 35>
| 36> $new_job
| 37> ! ri-mp2 aug-cc-pvqz aug-cc-pvqz/c tightscf
| 38> %pal nprocs 16 end
| 39> %maxcore 3800
| 40> %base "QZ_B-F_14_AB"
| 41>
| 42> *xyz 0 1
| 43> F         0.998521    1.324303   -0.000028
| 44> F         2.160810   -0.600843    0.000029
| 45> B         0.992209    0.013608    0.000003
| 46> C        -0.309495   -0.853949    0.000008
| 47> Cl        -1.817719    0.091534   -0.000006
| 48> H        -0.318412   -1.505775    0.873491
| 49> H        -0.318405   -1.505788   -0.873466
| 50> *
| 51>
| 52>
| 53>
| 54>
| 55>                          ****END OF INPUT****
 Total Charge           Charge          ....    0
 Multiplicity           Mult            ....    1
 Number of Electrons    NEL             ....   48
MP2 TOTAL ENERGY:     -723.030840360 Eh
FINAL SINGLE POINT ENERGY      -723.030840360328
MP2 TOTAL ENERGY:     -723.325417157 Eh
FINAL SINGLE POINT ENERGY      -723.325417157148

CARTESIAN COORDINATES (ANGSTROEM)
---------------------------------
  F      0.998521    1.324303   -0.000028
  F      2.160810   -0.600843    0.000029
  B      0.992209    0.013608    0.000003
  C     -0.309495   -0.853949    0.000008
  Cl    -1.817719    0.091534   -0.000006
  H     -0.318412   -1.505775    0.873491
  H     -0.318405   -1.505788   -0.873466

 Multiplicity           Mult            ....    1
 Number of Electrons    NEL             ....   48
 Basis Dimension        Dim             ....  496

ORBITAL ENERGIES
----------------

  NO   OCC          E(Eh)            E(eV)
   0   2.0000    -104.837428     -2852.7714
   1   2.0000     -26.325032      -716.3405
   2   2.0000     -26.323408      -716.2963
   3   2.0000     -11.294729      -307.3452
   4   2.0000     -10.562823      -287.4290
   5   2.0000      -8.029965      -218.5064
   6   2.0000      -8.028170      -218.4576
   7   2.0000      -8.028150      -218.4571
   8   2.0000      -7.725703      -210.2271
   9   2.0000      -1.659132       -45.1473
  10   2.0000      -1.626917       -44.2707
  11   2.0000      -1.143665       -31.1207
  12   2.0000      -0.943377       -25.6706
  13   2.0000      -0.828429       -22.5427
  14   2.0000      -0.775902       -21.1134
  15   2.0000      -0.739219       -20.1152
  16   2.0000      -0.730193       -19.8696
  17   2.0000      -0.672137       -18.2898
  18   2.0000      -0.666323       -18.1316
  19   2.0000      -0.630269       -17.1505
  20   2.0000      -0.589102       -16.0303
  21   2.0000      -0.555493       -15.1157
  22   2.0000      -0.448547       -12.2056
  23   2.0000      -0.443257       -12.0616
  24   0.0000       0.022174         0.6034
  25   0.0000       0.032385         0.8812
  26   0.0000       0.037898         1.0312
  27   0.0000       0.040876         1.1123
  28   0.0000       0.058120         1.5815

MULLIKEN ATOMIC CHARGES
-----------------------
   0 F :   -0.776503
   1 F :   -0.761453
   2 B :    1.655476
   3 C :   -0.461916
   4 Cl:   -0.237442
   5 H :    0.290920
   6 H :    0.290918
Sum of atomic charges:   -0.0000000

LOEWDIN ATOMIC CHARGES
----------------------
   0 F :    0.815956
   1 F :    0.822416
   2 B :   -1.843565
   3 C :   -0.079407
   4 Cl:    1.141670
   5 H :   -0.428535
   6 H :   -0.428535

  Mayer bond orders larger than 0.100000
B(  0-F ,  2-B ) :   0.4296 B(  1-F ,  2-B ) :   0.3906 B(  2-B ,  3-C ) :   0.9371
B(  3-C ,  4-Cl) :   0.9265 B(  3-C ,  5-H ) :   0.8701 B(  3-C ,  6-H ) :   0.8701

MP2 TOTAL ENERGY:     -723.419854316 Eh
FINAL SINGLE POINT ENERGY      -723.419854315852

DIPOLE MOMENT
-------------
                                X             Y             Z
Electronic contribution:      1.92114       2.84113      -0.00002
Nuclear contribution   :     -1.79398      -3.54768       0.00003
                        -----------------------------------------
Total Dipole Moment    :      0.12717      -0.70655       0.00001
                        -----------------------------------------
Magnitude (a.u.)       :      0.71791
Magnitude (Debye)      :      1.82477

Rotational constants in cm-1:     0.305474     0.070744     0.058050
Rotational constants in MHz :  9157.889135  2120.851661  1740.289293

                             ****ORCA TERMINATED NORMALLY****
TOTAL RUN TIME: 0 days 0 hours 10 minutes 5 seconds 318 msec
