                         Program Version 5.0.4 -  RELEASE  -
|  1> ! ri-mp2 aug-cc-pvdz aug-cc-pvdz/c tightscf
|  2> %pal nprocs 16 end
|  3> %maxcore 3800
|  4> %base "DZ_B-B_38_AB"
|  5> %scf
|  6> STABPerform true
|  7> STABRestartUHFifUnstable true
|  8> end
|  9>
| 10> *xyz 0 1
| 11> B        -0.770816    1.173366    0.280600
| 12> B         0.770824    1.173368   -0.280592
| 13> C         1.807370    0.124036    0.228743
| 14> N         1.829287   -1.094294   -0.132335
| 15> H         2.596641    0.436156    0.921898
| 16> H         1.066361   -1.323372   -0.772748
| 17> C        -1.807362    0.124041   -0.228748
| 18> N        -1.829299   -1.094286    0.132335
| 19> H        -2.596616    0.436166   -0.921920
| 20> H        -1.066390   -1.323369    0.772767
| 21> H         1.131146    1.936167   -1.126616
| 22> H        -1.131147    1.936180    1.126607
| 23> *
| 24>
| 25> $new_job
| 26> ! ri-mp2 aug-cc-pvtz aug-cc-pvtz/c tightscf
| 27> %pal nprocs 16 end
| 28> %maxcore 3800
| 29> %base "TZ_B-B_38_AB"
| 30>
| 31> *xyz 0 1
| 32> B        -0.770816    1.173366    0.280600
| 33> B         0.770824    1.173368   -0.280592
| 34> C         1.807370    0.124036    0.228743
| 35> N         1.829287   -1.094294   -0.132335
| 36> H         2.596641    0.436156    0.921898
| 37> H         1.066361   -1.323372   -0.772748
| 38> C        -1.807362    0.124041   -0.228748
| 39> N        -1.829299   -1.094286    0.132335
| 40> H        -2.596616    0.436166   -0.921920
| 41> H        -1.066390   -1.323369    0.772767
| 42> H         1.131146    1.936167   -1.126616
| 43> H        -1.131147    1.936180    1.126607
| 44> *
| 45>
| 46> $new_job
| 47> ! ri-mp2 aug-cc-pvqz aug-cc-pvqz/c tightscf
| 48> %pal nprocs 16 end
| 49> %maxcore 3800
| 50> %base "QZ_B-B_38_AB"
| 51>
| 52> *xyz 0 1
| 53> B        -0.770816    1.173366    0.280600
| 54> B         0.770824    1.173368   -0.280592
| 55> C         1.807370    0.124036    0.228743
| 56> N         1.829287   -1.094294   -0.132335
| 57> H         2.596641    0.436156    0.921898
| 58> H         1.066361   -1.323372   -0.772748
| 59> C        -1.807362    0.124041   -0.228748
| 60> N        -1.829299   -1.094286    0.132335
| 61> H        -2.596616    0.436166   -0.921920
| 62> H        -1.066390   -1.323369    0.772767
| 63> H         1.131146    1.936167   -1.126616
| 64> H        -1.131147    1.936180    1.126607
| 65> *
| 66>
| 67>
| 68>
| 69>
| 70>                          ****END OF INPUT****
 Total Charge           Charge          ....    0
 Multiplicity           Mult            ....    1
 Number of Electrons    NEL             ....   42
MP2 TOTAL ENERGY:     -238.204185501 Eh
FINAL SINGLE POINT ENERGY      -238.204185501410
MP2 TOTAL ENERGY:     -238.409098271 Eh
FINAL SINGLE POINT ENERGY      -238.409098271188

CARTESIAN COORDINATES (ANGSTROEM)
---------------------------------
  B     -0.770816    1.173366    0.280600
  B      0.770824    1.173368   -0.280592
  C      1.807370    0.124036    0.228743
  N      1.829287   -1.094294   -0.132335
  H      2.596641    0.436156    0.921898
  H      1.066361   -1.323372   -0.772748
  C     -1.807362    0.124041   -0.228748
  N     -1.829299   -1.094286    0.132335
  H     -2.596616    0.436166   -0.921920
  H     -1.066390   -1.323369    0.772767
  H      1.131146    1.936167   -1.126616
  H     -1.131147    1.936180    1.126607

 Multiplicity           Mult            ....    1
 Number of Electrons    NEL             ....   42
 Basis Dimension        Dim             ....  756

ORBITAL ENERGIES
----------------

  NO   OCC          E(Eh)            E(eV)
   0   2.0000     -15.563677      -423.5092
   1   2.0000     -15.563676      -423.5091
   2   2.0000     -11.276188      -306.8407
   3   2.0000     -11.276187      -306.8407
   4   2.0000      -7.615801      -207.2365
   5   2.0000      -7.614820      -207.2098
   6   2.0000      -1.215102       -33.0646
   7   2.0000      -1.210685       -32.9444
   8   2.0000      -0.867447       -23.6044
   9   2.0000      -0.847915       -23.0729
  10   2.0000      -0.759965       -20.6797
  11   2.0000      -0.695085       -18.9142
  12   2.0000      -0.620123       -16.8744
  13   2.0000      -0.610373       -16.6091
  14   2.0000      -0.593016       -16.1368
  15   2.0000      -0.566252       -15.4085
  16   2.0000      -0.520673       -14.1682
  17   2.0000      -0.451161       -12.2767
  18   2.0000      -0.427972       -11.6457
  19   2.0000      -0.412622       -11.2280
  20   2.0000      -0.395169       -10.7531
  21   0.0000       0.016394         0.4461
  22   0.0000       0.022572         0.6142
  23   0.0000       0.027590         0.7508
  24   0.0000       0.029965         0.8154
  25   0.0000       0.040817         1.1107

MULLIKEN ATOMIC CHARGES
-----------------------
   0 B :    0.405720
   1 B :    0.405715
   2 C :   -0.256716
   3 N :   -0.757181
   4 H :    0.532675
   5 H :    0.337883
   6 C :   -0.256715
   7 N :   -0.757181
   8 H :    0.532677
   9 H :    0.337881
  10 H :   -0.262375
  11 H :   -0.262381
Sum of atomic charges:   -0.0000000

LOEWDIN ATOMIC CHARGES
----------------------
   0 B :    0.012836
   1 B :    0.012837
   2 C :    0.199598
   3 N :    0.977171
   4 H :   -0.359525
   5 H :   -0.669056
   6 C :    0.199597
   7 N :    0.977170
   8 H :   -0.359525
   9 H :   -0.669053
  10 H :   -0.161025
  11 H :   -0.161025

  Mayer bond orders larger than 0.100000
B(  0-B ,  1-B ) :   1.1261 B(  0-B ,  6-C ) :   0.9339 B(  0-B , 11-H ) :   0.9157
B(  1-B ,  2-C ) :   0.9339 B(  1-B , 10-H ) :   0.9157 B(  2-C ,  3-N ) :   1.7208
B(  2-C ,  4-H ) :   0.7012 B(  3-N ,  5-H ) :   0.7770 B(  6-C ,  7-N ) :   1.7208
B(  6-C ,  8-H ) :   0.7012 B(  7-N ,  9-H ) :   0.7770

MP2 TOTAL ENERGY:     -238.475045107 Eh
FINAL SINGLE POINT ENERGY      -238.475045107291

DIPOLE MOMENT
-------------
                                X             Y             Z
Electronic contribution:      0.00002       1.31636       0.00003
Nuclear contribution   :     -0.00001       0.19207      -0.00002
                        -----------------------------------------
Total Dipole Moment    :      0.00001       1.50843       0.00001
                        -----------------------------------------
Magnitude (a.u.)       :      1.50843
Magnitude (Debye)      :      3.83413

Rotational constants in cm-1:     0.200509     0.079349     0.060491
Rotational constants in MHz :  6011.100758  2378.819543  1813.468087

                             ****ORCA TERMINATED NORMALLY****
TOTAL RUN TIME: 0 days 0 hours 39 minutes 46 seconds 602 msec
