                         Program Version 5.0.4 -  RELEASE  -
|  1> ! ri-mp2 aug-cc-pvdz aug-cc-pvdz/c tightscf
|  2> %pal nprocs 16 end
|  3> %maxcore 3800
|  4> %base "DZ_Si-Cl_84_AB"
|  5> %scf
|  6> STABPerform true
|  7> STABRestartUHFifUnstable true
|  8> end
|  9>
| 10> *xyz 0 1
| 11> C        -0.771147    0.842195   -0.000005
| 12> O        -0.891912    2.034770   -0.000009
| 13> Si         0.908991   -0.064706    0.000000
| 14> O        -1.781867   -0.024639   -0.000002
| 15> Cl         1.043119   -1.224567   -1.658793
| 16> Cl         1.043122   -1.224538    1.658813
| 17> Cl         2.379957    1.317473   -0.000013
| 18> C        -3.115585    0.528139   -0.000004
| 19> C        -4.082728   -0.623952    0.000002
| 20> H        -3.223517    1.160396   -0.880925
| 21> H        -3.223516    1.160403    0.880913
| 22> H        -3.946162   -1.245559   -0.884131
| 23> H        -5.104916   -0.245401    0.000001
| 24> H        -3.946161   -1.245552    0.884140
| 25> *
| 26>
| 27> $new_job
| 28> ! ri-mp2 aug-cc-pvtz aug-cc-pvtz/c tightscf
| 29> %pal nprocs 16 end
| 30> %maxcore 3800
| 31> %base "TZ_Si-Cl_84_AB"
| 32>
| 33> *xyz 0 1
| 34> C        -0.771147    0.842195   -0.000005
| 35> O        -0.891912    2.034770   -0.000009
| 36> Si         0.908991   -0.064706    0.000000
| 37> O        -1.781867   -0.024639   -0.000002
| 38> Cl         1.043119   -1.224567   -1.658793
| 39> Cl         1.043122   -1.224538    1.658813
| 40> Cl         2.379957    1.317473   -0.000013
| 41> C        -3.115585    0.528139   -0.000004
| 42> C        -4.082728   -0.623952    0.000002
| 43> H        -3.223517    1.160396   -0.880925
| 44> H        -3.223516    1.160403    0.880913
| 45> H        -3.946162   -1.245559   -0.884131
| 46> H        -5.104916   -0.245401    0.000001
| 47> H        -3.946161   -1.245552    0.884140
| 48> *
| 49>
| 50> $new_job
| 51> ! ri-mp2 aug-cc-pvqz aug-cc-pvqz/c tightscf
| 52> %pal nprocs 16 end
| 53> %maxcore 3800
| 54> %base "QZ_Si-Cl_84_AB"
| 55>
| 56> *xyz 0 1
| 57> C        -0.771147    0.842195   -0.000005
| 58> O        -0.891912    2.034770   -0.000009
| 59> Si         0.908991   -0.064706    0.000000
| 60> O        -1.781867   -0.024639   -0.000002
| 61> Cl         1.043119   -1.224567   -1.658793
| 62> Cl         1.043122   -1.224538    1.658813
| 63> Cl         2.379957    1.317473   -0.000013
| 64> C        -3.115585    0.528139   -0.000004
| 65> C        -4.082728   -0.623952    0.000002
| 66> H        -3.223517    1.160396   -0.880925
| 67> H        -3.223516    1.160403    0.880913
| 68> H        -3.946162   -1.245559   -0.884131
| 69> H        -5.104916   -0.245401    0.000001
| 70> H        -3.946161   -1.245552    0.884140
| 71> *
| 72>
| 73>
| 74>
| 75>
| 76>                          ****END OF INPUT****
 Total Charge           Charge          ....    0
 Multiplicity           Mult            ....    1
 Number of Electrons    NEL             ....  104
MP2 TOTAL ENERGY:    -1935.236750806 Eh
FINAL SINGLE POINT ENERGY     -1935.236750806148
MP2 TOTAL ENERGY:    -1935.693788168 Eh
FINAL SINGLE POINT ENERGY     -1935.693788167561

CARTESIAN COORDINATES (ANGSTROEM)
---------------------------------
  C     -0.771147    0.842195   -0.000005
  O     -0.891912    2.034770   -0.000009
  Si     0.908991   -0.064706    0.000000
  O     -1.781867   -0.024639   -0.000002
  Cl     1.043119   -1.224567   -1.658793
  Cl     1.043122   -1.224538    1.658813
  Cl     2.379957    1.317473   -0.000013
  C     -3.115585    0.528139   -0.000004
  C     -4.082728   -0.623952    0.000002
  H     -3.223517    1.160396   -0.880925
  H     -3.223516    1.160403    0.880913
  H     -3.946162   -1.245559   -0.884131
  H     -5.104916   -0.245401    0.000001
  H     -3.946161   -1.245552    0.884140

 Multiplicity           Mult            ....    1
 Number of Electrons    NEL             ....  104
 Basis Dimension        Dim             ....  966

ORBITAL ENERGIES
----------------

  NO   OCC          E(Eh)            E(eV)
   0   2.0000    -104.856234     -2853.2832
   1   2.0000    -104.856234     -2853.2832
   2   2.0000    -104.852475     -2853.1809
   3   2.0000     -68.912110     -1875.1938
   4   2.0000     -20.618041      -561.0454
   5   2.0000     -20.569003      -559.7110
   6   2.0000     -11.385724      -309.8213
   7   2.0000     -11.300624      -307.5056
   8   2.0000     -11.232478      -305.6513
   9   2.0000     -10.583775      -287.9992
  10   2.0000     -10.583769      -287.9990
  11   2.0000     -10.580067      -287.8983
  12   2.0000      -8.050550      -219.0666
  13   2.0000      -8.050548      -219.0666
  14   2.0000      -8.049320      -219.0331
  15   2.0000      -8.049320      -219.0331
  16   2.0000      -8.049306      -219.0327
  17   2.0000      -8.049305      -219.0327
  18   2.0000      -8.046860      -218.9662
  19   2.0000      -8.045609      -218.9321
  20   2.0000      -8.045588      -218.9316
  21   2.0000      -6.248009      -170.0170
  22   2.0000      -4.355458      -118.5180
  23   2.0000      -4.355409      -118.5167
  24   2.0000      -4.354271      -118.4857
  25   2.0000      -1.481705       -40.3192
  26   2.0000      -1.383731       -37.6532
  27   2.0000      -1.157370       -31.4937
  28   2.0000      -1.114652       -30.3312
  29   2.0000      -1.112630       -30.2762
  30   2.0000      -1.058498       -28.8032
  31   2.0000      -0.903759       -24.5925
  32   2.0000      -0.813206       -22.1285
  33   2.0000      -0.755514       -20.5586
  34   2.0000      -0.699330       -19.0297
  35   2.0000      -0.698162       -18.9980
  36   2.0000      -0.663710       -18.0605
  37   2.0000      -0.606562       -16.5054
  38   2.0000      -0.586755       -15.9664
  39   2.0000      -0.579715       -15.7749
  40   2.0000      -0.576692       -15.6926
  41   2.0000      -0.562437       -15.3047
  42   2.0000      -0.527934       -14.3658
  43   2.0000      -0.525318       -14.2946
  44   2.0000      -0.520951       -14.1758
  45   2.0000      -0.510535       -13.8924
  46   2.0000      -0.509125       -13.8540
  47   2.0000      -0.485269       -13.2048
  48   2.0000      -0.481849       -13.1118
  49   2.0000      -0.475101       -12.9282
  50   2.0000      -0.469300       -12.7703
  51   2.0000      -0.438271       -11.9260
  52   0.0000       0.023464         0.6385
  53   0.0000       0.034002         0.9252
  54   0.0000       0.034627         0.9422
  55   0.0000       0.037399         1.0177
  56   0.0000       0.045569         1.2400

MULLIKEN ATOMIC CHARGES
-----------------------
   0 C :    0.643005
   1 O :   -0.763104
   2 Si:    2.193537
   3 O :   -0.636475
   4 Cl:   -0.612805
   5 Cl:   -0.612805
   6 Cl:   -0.638747
   7 C :   -0.111002
   8 C :   -0.835239
   9 H :    0.298010
  10 H :    0.298008
  11 H :    0.246933
  12 H :    0.283748
  13 H :    0.246934
Sum of atomic charges:   -0.0000000

LOEWDIN ATOMIC CHARGES
----------------------
   0 C :   -1.252468
   1 O :    0.615428
   2 Si:   -2.412839
   3 O :    0.750360
   4 Cl:    0.901826
   5 Cl:    0.901826
   6 Cl:    0.914825
   7 C :    0.144683
   8 C :    0.912153
   9 H :   -0.304724
  10 H :   -0.304723
  11 H :   -0.289231
  12 H :   -0.287886
  13 H :   -0.289230

  Mayer bond orders larger than 0.100000
B(  0-C ,  1-O ) :   1.4304 B(  0-C ,  2-Si) :   0.8984 B(  0-C ,  3-O ) :   0.9755
B(  1-O ,  7-C ) :   0.1273 B(  2-Si,  4-Cl) :   0.5236 B(  2-Si,  5-Cl) :   0.5236
B(  2-Si,  6-Cl) :   0.5636 B(  3-O ,  7-C ) :   0.7541 B(  7-C ,  8-C ) :   0.9688
B(  7-C ,  9-H ) :   0.8537 B(  7-C , 10-H ) :   0.8537 B(  8-C , 11-H ) :   0.9303
B(  8-C , 12-H ) :   0.9779 B(  8-C , 13-H ) :   0.9303

MP2 TOTAL ENERGY:    -1935.845123237 Eh
FINAL SINGLE POINT ENERGY     -1935.845123236569

DIPOLE MOMENT
-------------
                                X             Y             Z
Electronic contribution:     23.54796      -1.67576       0.00001
Nuclear contribution   :    -24.40713       1.16607      -0.00001
                        -----------------------------------------
Total Dipole Moment    :     -0.85917      -0.50970       0.00000
                        -----------------------------------------
Magnitude (a.u.)       :      0.99898
Magnitude (Debye)      :      2.53921

Rotational constants in cm-1:     0.037057     0.017518     0.016515
Rotational constants in MHz :  1110.954104   525.175175   495.121640

                             ****ORCA TERMINATED NORMALLY****
TOTAL RUN TIME: 0 days 1 hours 27 minutes 11 seconds 798 msec
