                         Program Version 5.0.4 -  RELEASE  -
|  1> ! ri-mp2 aug-cc-pvdz aug-cc-pvdz/c tightscf
|  2> %pal nprocs 16 end
|  3> %maxcore 3800
|  4> %base "DZ_P-N_20_AB"
|  5> %scf
|  6> STABPerform true
|  7> STABRestartUHFifUnstable true
|  8> end
|  9>
| 10> *xyz 0 1
| 11> P         0.232898    0.116348   -0.807194
| 12> N        -1.080630   -0.777885   -0.112934
| 13> O        -1.103380   -0.836917    1.276565
| 14> O        -2.239844   -0.110274   -0.552180
| 15> Cl        0.304109    1.806816    0.362016
| 16> Cl        1.744047   -0.991456    0.022972
| 17> H        -2.796706   -0.808345   -0.917435
| 18> H        -1.205219   -1.775287    1.476016
| 19> *
| 20>
| 21> $new_job
| 22> ! ri-mp2 aug-cc-pvtz aug-cc-pvtz/c tightscf
| 23> %pal nprocs 16 end
| 24> %maxcore 3800
| 25> %base "TZ_P-N_20_AB"
| 26>
| 27> *xyz 0 1
| 28> P         0.232898    0.116348   -0.807194
| 29> N        -1.080630   -0.777885   -0.112934
| 30> O        -1.103380   -0.836917    1.276565
| 31> O        -2.239844   -0.110274   -0.552180
| 32> Cl        0.304109    1.806816    0.362016
| 33> Cl        1.744047   -0.991456    0.022972
| 34> H        -2.796706   -0.808345   -0.917435
| 35> H        -1.205219   -1.775287    1.476016
| 36> *
| 37>
| 38> $new_job
| 39> ! ri-mp2 aug-cc-pvqz aug-cc-pvqz/c tightscf
| 40> %pal nprocs 16 end
| 41> %maxcore 3800
| 42> %base "QZ_P-N_20_AB"
| 43>
| 44> *xyz 0 1
| 45> P         0.232898    0.116348   -0.807194
| 46> N        -1.080630   -0.777885   -0.112934
| 47> O        -1.103380   -0.836917    1.276565
| 48> O        -2.239844   -0.110274   -0.552180
| 49> Cl        0.304109    1.806816    0.362016
| 50> Cl        1.744047   -0.991456    0.022972
| 51> H        -2.796706   -0.808345   -0.917435
| 52> H        -1.205219   -1.775287    1.476016
| 53> *
| 54>
| 55>
| 56>
| 57>
| 58>                          ****END OF INPUT****
 Total Charge           Charge          ....    0
 Multiplicity           Mult            ....    1
 Number of Electrons    NEL             ....   74
MP2 TOTAL ENERGY:    -1466.044015131 Eh
FINAL SINGLE POINT ENERGY     -1466.044015130627
MP2 TOTAL ENERGY:    -1466.387982123 Eh
FINAL SINGLE POINT ENERGY     -1466.387982122817

CARTESIAN COORDINATES (ANGSTROEM)
---------------------------------
  P      0.232898    0.116348   -0.807194
  N     -1.080630   -0.777885   -0.112934
  O     -1.103380   -0.836917    1.276565
  O     -2.239844   -0.110274   -0.552180
  Cl     0.304109    1.806816    0.362016
  Cl     1.744047   -0.991456    0.022972
  H     -2.796706   -0.808345   -0.917435
  H     -1.205219   -1.775287    1.476016

 Multiplicity           Mult            ....    1
 Number of Electrons    NEL             ....   74
 Basis Dimension        Dim             ....  584

ORBITAL ENERGIES
----------------

  NO   OCC          E(Eh)            E(eV)
   0   2.0000    -104.849097     -2853.0890
   1   2.0000    -104.841818     -2852.8909
   2   2.0000     -80.071149     -2178.8467
   3   2.0000     -20.628593      -561.3325
   4   2.0000     -20.624851      -561.2307
   5   2.0000     -15.697066      -427.1389
   6   2.0000     -10.575730      -287.7802
   7   2.0000     -10.568297      -287.5780
   8   2.0000      -8.042529      -218.8483
   9   2.0000      -8.041057      -218.8083
  10   2.0000      -8.040967      -218.8058
  11   2.0000      -8.035070      -218.6454
  12   2.0000      -8.033608      -218.6056
  13   2.0000      -8.033508      -218.6029
  14   2.0000      -7.600987      -206.8334
  15   2.0000      -5.493361      -149.4820
  16   2.0000      -5.493142      -149.4760
  17   2.0000      -5.491384      -149.4282
  18   2.0000      -1.502435       -40.8833
  19   2.0000      -1.382866       -37.6297
  20   2.0000      -1.160070       -31.5671
  21   2.0000      -1.097535       -29.8655
  22   2.0000      -1.057039       -28.7635
  23   2.0000      -0.808649       -22.0044
  24   2.0000      -0.751847       -20.4588
  25   2.0000      -0.741927       -20.1889
  26   2.0000      -0.670867       -18.2552
  27   2.0000      -0.636201       -17.3119
  28   2.0000      -0.574927       -15.6446
  29   2.0000      -0.547287       -14.8924
  30   2.0000      -0.538403       -14.6507
  31   2.0000      -0.511403       -13.9160
  32   2.0000      -0.486880       -13.2487
  33   2.0000      -0.479286       -13.0420
  34   2.0000      -0.456454       -12.4208
  35   2.0000      -0.435273       -11.8444
  36   2.0000      -0.396229       -10.7819
  37   0.0000       0.019873         0.5408
  38   0.0000       0.035276         0.9599
  39   0.0000       0.050749         1.3809
  40   0.0000       0.052548         1.4299
  41   0.0000       0.062297         1.6952

MULLIKEN ATOMIC CHARGES
-----------------------
   0 P :    1.159524
   1 N :    0.134964
   2 O :   -0.574820
   3 O :   -0.588480
   4 Cl:   -0.416444
   5 Cl:   -0.436143
   6 H :    0.362041
   7 H :    0.359358
Sum of atomic charges:   -0.0000000

LOEWDIN ATOMIC CHARGES
----------------------
   0 P :   -0.897401
   1 N :   -0.614604
   2 O :    0.954424
   3 O :    0.953376
   4 Cl:    0.651633
   5 Cl:    0.653330
   6 H :   -0.847302
   7 H :   -0.853456

  Mayer bond orders larger than 0.100000
B(  0-P ,  1-N ) :   0.7583 B(  0-P ,  4-Cl) :   0.8577 B(  0-P ,  5-Cl) :   0.8299
B(  1-N ,  2-O ) :   0.7715 B(  1-N ,  3-O ) :   0.7441 B(  2-O ,  7-H ) :   0.8995
B(  3-O ,  6-H ) :   0.9074

MP2 TOTAL ENERGY:    -1466.502862703 Eh
FINAL SINGLE POINT ENERGY     -1466.502862703084

DIPOLE MOMENT
-------------
                                X             Y             Z
Electronic contribution:      6.04402       2.52371      -1.01712
Nuclear contribution   :     -6.68736      -3.59766       0.72993
                        -----------------------------------------
Total Dipole Moment    :     -0.64334      -1.07395      -0.28719
                        -----------------------------------------
Magnitude (a.u.)       :      1.28442
Magnitude (Debye)      :      3.26474

Rotational constants in cm-1:     0.072343     0.056671     0.040858
Rotational constants in MHz :  2168.788939  1698.950105  1224.900117

                             ****ORCA TERMINATED NORMALLY****
TOTAL RUN TIME: 0 days 0 hours 22 minutes 41 seconds 134 msec
