                         Program Version 5.0.4 -  RELEASE  -
|  1> ! ri-mp2 aug-cc-pvdz aug-cc-pvdz/c tightscf
|  2> %pal nprocs 16 end
|  3> %maxcore 3800
|  4> %base "DZ_B-Si_78_AB"
|  5> %scf
|  6> STABPerform true
|  7> STABRestartUHFifUnstable true
|  8> end
|  9>
| 10> *xyz 0 1
| 11> B        -0.000001   -0.019006   -0.034570
| 12> Si         0.000042    1.978723    0.004626
| 13> Si        -1.746791   -0.989212   -0.004555
| 14> Si         1.746749   -0.989283   -0.004554
| 15> H        -2.853438   -0.212244   -0.610135
| 16> H        -2.047905   -1.160652    1.441503
| 17> H        -1.714954   -2.329922   -0.632179
| 18> H         2.853417   -0.212368   -0.610166
| 19> H         1.714855   -2.330005   -0.632151
| 20> H         2.047876   -1.160704    1.441502
| 21> H         0.000043    2.358813   -1.433448
| 22> H         1.203028    2.569427    0.635337
| 23> H        -1.202914    2.569477    0.635349
| 24> *
| 25>
| 26> $new_job
| 27> ! ri-mp2 aug-cc-pvtz aug-cc-pvtz/c tightscf
| 28> %pal nprocs 16 end
| 29> %maxcore 3800
| 30> %base "TZ_B-Si_78_AB"
| 31>
| 32> *xyz 0 1
| 33> B        -0.000001   -0.019006   -0.034570
| 34> Si         0.000042    1.978723    0.004626
| 35> Si        -1.746791   -0.989212   -0.004555
| 36> Si         1.746749   -0.989283   -0.004554
| 37> H        -2.853438   -0.212244   -0.610135
| 38> H        -2.047905   -1.160652    1.441503
| 39> H        -1.714954   -2.329922   -0.632179
| 40> H         2.853417   -0.212368   -0.610166
| 41> H         1.714855   -2.330005   -0.632151
| 42> H         2.047876   -1.160704    1.441502
| 43> H         0.000043    2.358813   -1.433448
| 44> H         1.203028    2.569427    0.635337
| 45> H        -1.202914    2.569477    0.635349
| 46> *
| 47>
| 48> $new_job
| 49> ! ri-mp2 aug-cc-pvqz aug-cc-pvqz/c tightscf
| 50> %pal nprocs 16 end
| 51> %maxcore 3800
| 52> %base "QZ_B-Si_78_AB"
| 53>
| 54> *xyz 0 1
| 55> B        -0.000001   -0.019006   -0.034570
| 56> Si         0.000042    1.978723    0.004626
| 57> Si        -1.746791   -0.989212   -0.004555
| 58> Si         1.746749   -0.989283   -0.004554
| 59> H        -2.853438   -0.212244   -0.610135
| 60> H        -2.047905   -1.160652    1.441503
| 61> H        -1.714954   -2.329922   -0.632179
| 62> H         2.853417   -0.212368   -0.610166
| 63> H         1.714855   -2.330005   -0.632151
| 64> H         2.047876   -1.160704    1.441502
| 65> H         0.000043    2.358813   -1.433448
| 66> H         1.203028    2.569427    0.635337
| 67> H        -1.202914    2.569477    0.635349
| 68> *
| 69>
| 70>
| 71>
| 72>
| 73>                          ****END OF INPUT****
 Total Charge           Charge          ....    0
 Multiplicity           Mult            ....    1
 Number of Electrons    NEL             ....   56
MP2 TOTAL ENERGY:     -897.072907836 Eh
FINAL SINGLE POINT ENERGY      -897.072907836068
MP2 TOTAL ENERGY:     -897.205120120 Eh
FINAL SINGLE POINT ENERGY      -897.205120120170

CARTESIAN COORDINATES (ANGSTROEM)
---------------------------------
  B     -0.000001   -0.019006   -0.034570
  Si     0.000042    1.978723    0.004626
  Si    -1.746791   -0.989212   -0.004555
  Si     1.746749   -0.989283   -0.004554
  H     -2.853438   -0.212244   -0.610135
  H     -2.047905   -1.160652    1.441503
  H     -1.714954   -2.329922   -0.632179
  H      2.853417   -0.212368   -0.610166
  H      1.714855   -2.330005   -0.632151
  H      2.047876   -1.160704    1.441502
  H      0.000043    2.358813   -1.433448
  H      1.203028    2.569427    0.635337
  H     -1.202914    2.569477    0.635349

 Multiplicity           Mult            ....    1
 Number of Electrons    NEL             ....   56
 Basis Dimension        Dim             ....  746

ORBITAL ENERGIES
----------------

  NO   OCC          E(Eh)            E(eV)
   0   2.0000     -68.764030     -1871.1644
   1   2.0000     -68.763867     -1871.1599
   2   2.0000     -68.763867     -1871.1599
   3   2.0000      -7.615537      -207.2293
   4   2.0000      -6.115346      -166.4070
   5   2.0000      -6.115177      -166.4024
   6   2.0000      -6.115176      -166.4024
   7   2.0000      -4.221753      -114.8797
   8   2.0000      -4.221588      -114.8752
   9   2.0000      -4.221586      -114.8752
  10   2.0000      -4.221333      -114.8683
  11   2.0000      -4.221237      -114.8657
  12   2.0000      -4.221183      -114.8642
  13   2.0000      -4.221179      -114.8641
  14   2.0000      -4.221067      -114.8611
  15   2.0000      -4.221065      -114.8610
  16   2.0000      -0.785397       -21.3717
  17   2.0000      -0.716588       -19.4993
  18   2.0000      -0.715010       -19.4564
  19   2.0000      -0.573654       -15.6099
  20   2.0000      -0.498137       -13.5550
  21   2.0000      -0.496883       -13.5209
  22   2.0000      -0.495555       -13.4847
  23   2.0000      -0.482087       -13.1183
  24   2.0000      -0.481319       -13.0974
  25   2.0000      -0.473255       -12.8779
  26   2.0000      -0.394988       -10.7482
  27   2.0000      -0.393423       -10.7056
  28   0.0000       0.014754         0.4015
  29   0.0000       0.022932         0.6240
  30   0.0000       0.030181         0.8213
  31   0.0000       0.030310         0.8248
  32   0.0000       0.037993         1.0338

MULLIKEN ATOMIC CHARGES
-----------------------
   0 B :    0.192555
   1 Si:    0.391442
   2 Si:    0.384774
   3 Si:    0.384775
   4 H :   -0.151784
   5 H :   -0.146449
   6 H :   -0.150638
   7 H :   -0.151782
   8 H :   -0.150640
   9 H :   -0.146449
  10 H :   -0.148560
  11 H :   -0.153623
  12 H :   -0.153623
Sum of atomic charges:    0.0000000

LOEWDIN ATOMIC CHARGES
----------------------
   0 B :   -0.697052
   1 Si:    1.038489
   2 Si:    1.046611
   3 Si:    1.046610
   4 H :   -0.273384
   5 H :   -0.263550
   6 H :   -0.276792
   7 H :   -0.273383
   8 H :   -0.276791
   9 H :   -0.263552
  10 H :   -0.262540
  11 H :   -0.272333
  12 H :   -0.272333

  Mayer bond orders larger than 0.100000
B(  0-B ,  1-Si) :   0.5049 B(  0-B ,  2-Si) :   0.4999 B(  0-B ,  3-Si) :   0.4999
B(  1-Si, 10-H ) :   0.6810 B(  1-Si, 11-H ) :   0.6964 B(  1-Si, 12-H ) :   0.6964
B(  2-Si,  4-H ) :   0.6756 B(  2-Si,  5-H ) :   0.6916 B(  2-Si,  6-H ) :   0.6822
B(  3-Si,  7-H ) :   0.6756 B(  3-Si,  8-H ) :   0.6822 B(  3-Si,  9-H ) :   0.6916

MP2 TOTAL ENERGY:     -897.248765350 Eh
FINAL SINGLE POINT ENERGY      -897.248765350079

DIPOLE MOMENT
-------------
                                X             Y             Z
Electronic contribution:     -0.00001      -0.12083      -0.32963
Nuclear contribution   :      0.00001       0.10819       0.26635
                        -----------------------------------------
Total Dipole Moment    :     -0.00000      -0.01265      -0.06328
                        -----------------------------------------
Magnitude (a.u.)       :      0.06453
Magnitude (Debye)      :      0.16402

Rotational constants in cm-1:     0.081732     0.078866     0.041860
Rotational constants in MHz :  2450.272596  2364.329294  1254.920850

                             ****ORCA TERMINATED NORMALLY****
TOTAL RUN TIME: 0 days 0 hours 33 minutes 40 seconds 914 msec
