                         Program Version 5.0.4 -  RELEASE  -
|  1> ! ri-mp2 aug-cc-pvdz aug-cc-pvdz/c tightscf
|  2> %pal nprocs 16 end
|  3> %maxcore 3800
|  4> %base "DZ_Si-Cl_35_AB"
|  5> %scf
|  6> STABPerform true
|  7> STABRestartUHFifUnstable true
|  8> end
|  9>
| 10> *xyz 0 1
| 11> C         0.000013   -0.000012    2.093143
| 12> Si        -0.000005   -0.000004    0.256085
| 13> H        -0.417934   -0.934132    2.467884
| 14> H        -0.599978    0.829000    2.467898
| 15> H         1.017962    0.105089    2.467881
| 16> Cl         0.779548    1.742106   -0.461710
| 17> Cl        -1.898492   -0.195943   -0.461721
| 18> Cl         1.118940   -1.546153   -0.461728
| 19> *
| 20>
| 21> $new_job
| 22> ! ri-mp2 aug-cc-pvtz aug-cc-pvtz/c tightscf
| 23> %pal nprocs 16 end
| 24> %maxcore 3800
| 25> %base "TZ_Si-Cl_35_AB"
| 26>
| 27> *xyz 0 1
| 28> C         0.000013   -0.000012    2.093143
| 29> Si        -0.000005   -0.000004    0.256085
| 30> H        -0.417934   -0.934132    2.467884
| 31> H        -0.599978    0.829000    2.467898
| 32> H         1.017962    0.105089    2.467881
| 33> Cl         0.779548    1.742106   -0.461710
| 34> Cl        -1.898492   -0.195943   -0.461721
| 35> Cl         1.118940   -1.546153   -0.461728
| 36> *
| 37>
| 38> $new_job
| 39> ! ri-mp2 aug-cc-pvqz aug-cc-pvqz/c tightscf
| 40> %pal nprocs 16 end
| 41> %maxcore 3800
| 42> %base "QZ_Si-Cl_35_AB"
| 43>
| 44> *xyz 0 1
| 45> C         0.000013   -0.000012    2.093143
| 46> Si        -0.000005   -0.000004    0.256085
| 47> H        -0.417934   -0.934132    2.467884
| 48> H        -0.599978    0.829000    2.467898
| 49> H         1.017962    0.105089    2.467881
| 50> Cl         0.779548    1.742106   -0.461710
| 51> Cl        -1.898492   -0.195943   -0.461721
| 52> Cl         1.118940   -1.546153   -0.461728
| 53> *
| 54>
| 55>
| 56>
| 57>
| 58>                          ****END OF INPUT****
 Total Charge           Charge          ....    0
 Multiplicity           Mult            ....    1
 Number of Electrons    NEL             ....   74
MP2 TOTAL ENERGY:    -1707.929117092 Eh
FINAL SINGLE POINT ENERGY     -1707.929117092170
MP2 TOTAL ENERGY:    -1708.195144929 Eh
FINAL SINGLE POINT ENERGY     -1708.195144928786

CARTESIAN COORDINATES (ANGSTROEM)
---------------------------------
  C      0.000013   -0.000012    2.093143
  Si    -0.000005   -0.000004    0.256085
  H     -0.417934   -0.934132    2.467884
  H     -0.599978    0.829000    2.467898
  H      1.017962    0.105089    2.467881
  Cl     0.779548    1.742106   -0.461710
  Cl    -1.898492   -0.195943   -0.461721
  Cl     1.118940   -1.546153   -0.461728

 Multiplicity           Mult            ....    1
 Number of Electrons    NEL             ....   74
 Basis Dimension        Dim             ....  554

ORBITAL ENERGIES
----------------

  NO   OCC          E(Eh)            E(eV)
   0   2.0000    -104.843548     -2852.9380
   1   2.0000    -104.843548     -2852.9380
   2   2.0000    -104.843547     -2852.9380
   3   2.0000     -68.892238     -1874.6531
   4   2.0000     -11.235531      -305.7343
   5   2.0000     -10.571242      -287.6581
   6   2.0000     -10.571241      -287.6581
   7   2.0000     -10.571233      -287.6579
   8   2.0000      -8.038015      -218.7255
   9   2.0000      -8.038015      -218.7255
  10   2.0000      -8.038013      -218.7255
  11   2.0000      -8.036843      -218.6936
  12   2.0000      -8.036842      -218.6936
  13   2.0000      -8.036841      -218.6936
  14   2.0000      -8.036833      -218.6933
  15   2.0000      -8.036832      -218.6933
  16   2.0000      -8.036831      -218.6933
  17   2.0000      -6.228775      -169.4936
  18   2.0000      -4.336166      -117.9931
  19   2.0000      -4.336166      -117.9931
  20   2.0000      -4.334558      -117.9493
  21   2.0000      -1.146293       -31.1922
  22   2.0000      -1.101982       -29.9864
  23   2.0000      -1.101981       -29.9864
  24   2.0000      -0.979407       -26.6510
  25   2.0000      -0.696708       -18.9584
  26   2.0000      -0.604294       -16.4437
  27   2.0000      -0.604294       -16.4437
  28   2.0000      -0.556406       -15.1406
  29   2.0000      -0.556405       -15.1406
  30   2.0000      -0.556288       -15.1374
  31   2.0000      -0.500426       -13.6173
  32   2.0000      -0.500426       -13.6173
  33   2.0000      -0.472198       -12.8492
  34   2.0000      -0.472197       -12.8491
  35   2.0000      -0.462997       -12.5988
  36   2.0000      -0.459714       -12.5095
  37   0.0000       0.024171         0.6577
  38   0.0000       0.038415         1.0453
  39   0.0000       0.038415         1.0453
  40   0.0000       0.040996         1.1156
  41   0.0000       0.059194         1.6108

MULLIKEN ATOMIC CHARGES
-----------------------
   0 C :   -0.991611
   1 Si:    2.139159
   2 H :    0.234683
   3 H :    0.234683
   4 H :    0.234682
   5 Cl:   -0.617198
   6 Cl:   -0.617199
   7 Cl:   -0.617198
Sum of atomic charges:   -0.0000000

LOEWDIN ATOMIC CHARGES
----------------------
   0 C :    0.776855
   1 Si:   -2.322232
   2 H :   -0.373958
   3 H :   -0.373956
   4 H :   -0.373954
   5 Cl:    0.889081
   6 Cl:    0.889080
   7 Cl:    0.889085

  Mayer bond orders larger than 0.100000
B(  0-C ,  1-Si) :   0.8815 B(  0-C ,  2-H ) :   0.9578 B(  0-C ,  3-H ) :   0.9578
B(  0-C ,  4-H ) :   0.9578 B(  1-Si,  5-Cl) :   0.5057 B(  1-Si,  6-Cl) :   0.5057
B(  1-Si,  7-Cl) :   0.5057

MP2 TOTAL ENERGY:    -1708.283518842 Eh
FINAL SINGLE POINT ENERGY     -1708.283518842160

DIPOLE MOMENT
-------------
                                X             Y             Z
Electronic contribution:     -0.00006       0.00004      -7.91274
Nuclear contribution   :      0.00005      -0.00005       8.71147
                        -----------------------------------------
Total Dipole Moment    :     -0.00001      -0.00001       0.79873
                        -----------------------------------------
Magnitude (a.u.)       :      0.79873
Magnitude (Debye)      :      2.03020

Rotational constants in cm-1:     0.058075     0.058075     0.043159
Rotational constants in MHz :  1741.052891  1741.036372  1293.873835

                             ****ORCA TERMINATED NORMALLY****
TOTAL RUN TIME: 0 days 0 hours 19 minutes 57 seconds 886 msec
