                         Program Version 5.0.4 -  RELEASE  -
|  1> ! ri-mp2 aug-cc-pvdz aug-cc-pvdz/c tightscf
|  2> %pal nprocs 16 end
|  3> %maxcore 3800
|  4> %base "DZ_Si-Cl_61_AB"
|  5> %scf
|  6> STABPerform true
|  7> STABRestartUHFifUnstable true
|  8> end
|  9>
| 10> *xyz 0 1
| 11> Si        -0.552084    0.509782    0.000002
| 12> F        -1.541882   -0.732541    0.000001
| 13> Cl         1.362740   -0.182532   -0.000003
| 14> H        -0.780236    1.279473    1.228233
| 15> H        -0.780243    1.279479   -1.228224
| 16> *
| 17>
| 18> $new_job
| 19> ! ri-mp2 aug-cc-pvtz aug-cc-pvtz/c tightscf
| 20> %pal nprocs 16 end
| 21> %maxcore 3800
| 22> %base "TZ_Si-Cl_61_AB"
| 23>
| 24> *xyz 0 1
| 25> Si        -0.552084    0.509782    0.000002
| 26> F        -1.541882   -0.732541    0.000001
| 27> Cl         1.362740   -0.182532   -0.000003
| 28> H        -0.780236    1.279473    1.228233
| 29> H        -0.780243    1.279479   -1.228224
| 30> *
| 31>
| 32> $new_job
| 33> ! ri-mp2 aug-cc-pvqz aug-cc-pvqz/c tightscf
| 34> %pal nprocs 16 end
| 35> %maxcore 3800
| 36> %base "QZ_Si-Cl_61_AB"
| 37>
| 38> *xyz 0 1
| 39> Si        -0.552084    0.509782    0.000002
| 40> F        -1.541882   -0.732541    0.000001
| 41> Cl         1.362740   -0.182532   -0.000003
| 42> H        -0.780236    1.279473    1.228233
| 43> H        -0.780243    1.279479   -1.228224
| 44> *
| 45>
| 46>
| 47>
| 48>
| 49>                          ****END OF INPUT****
 Total Charge           Charge          ....    0
 Multiplicity           Mult            ....    1
 Number of Electrons    NEL             ....   42
MP2 TOTAL ENERGY:     -849.614548217 Eh
FINAL SINGLE POINT ENERGY      -849.614548216807
MP2 TOTAL ENERGY:     -849.804871950 Eh
FINAL SINGLE POINT ENERGY      -849.804871949521

CARTESIAN COORDINATES (ANGSTROEM)
---------------------------------
  Si    -0.552084    0.509782    0.000002
  F     -1.541882   -0.732541    0.000001
  Cl     1.362740   -0.182532   -0.000003
  H     -0.780236    1.279473    1.228233
  H     -0.780243    1.279479   -1.228224

 Multiplicity           Mult            ....    1
 Number of Electrons    NEL             ....   42
 Basis Dimension        Dim             ....  340

ORBITAL ENERGIES
----------------

  NO   OCC          E(Eh)            E(eV)
   0   2.0000    -104.841803     -2852.8905
   1   2.0000     -68.859555     -1873.7637
   2   2.0000     -26.300737      -715.6794
   3   2.0000     -10.569463      -287.6097
   4   2.0000      -8.036251      -218.6775
   5   2.0000      -8.035148      -218.6475
   6   2.0000      -8.035094      -218.6460
   7   2.0000      -6.199527      -168.6977
   8   2.0000      -4.307233      -117.2058
   9   2.0000      -4.306494      -117.1857
  10   2.0000      -4.305619      -117.1618
  11   2.0000      -1.605396       -43.6850
  12   2.0000      -1.113768       -30.3072
  13   2.0000      -0.784484       -21.3469
  14   2.0000      -0.688046       -18.7227
  15   2.0000      -0.685951       -18.6657
  16   2.0000      -0.653962       -17.7952
  17   2.0000      -0.536468       -14.5980
  18   2.0000      -0.534863       -14.5544
  19   2.0000      -0.485674       -13.2159
  20   2.0000      -0.464889       -12.6503
  21   0.0000       0.029041         0.7902
  22   0.0000       0.040057         1.0900
  23   0.0000       0.040475         1.1014
  24   0.0000       0.042146         1.1468
  25   0.0000       0.063722         1.7340

MULLIKEN ATOMIC CHARGES
-----------------------
   0 Si:    1.564756
   1 F :   -0.671161
   2 Cl:   -0.513205
   3 H :   -0.190195
   4 H :   -0.190195
Sum of atomic charges:    0.0000000

LOEWDIN ATOMIC CHARGES
----------------------
   0 Si:   -0.524604
   1 F :    0.349669
   2 Cl:    0.849251
   3 H :   -0.337159
   4 H :   -0.337158

  Mayer bond orders larger than 0.100000
B(  0-Si,  1-F ) :   0.4573 B(  0-Si,  2-Cl) :   0.6481 B(  0-Si,  3-H ) :   0.9347
B(  0-Si,  4-H ) :   0.9347

MP2 TOTAL ENERGY:     -849.869204374 Eh
FINAL SINGLE POINT ENERGY      -849.869204373575

DIPOLE MOMENT
-------------
                                X             Y             Z
Electronic contribution:      1.70702      -2.67520      -0.00001
Nuclear contribution   :     -1.82272       3.27688       0.00001
                        -----------------------------------------
Total Dipole Moment    :     -0.11569       0.60168       0.00000
                        -----------------------------------------
Magnitude (a.u.)       :      0.61270
Magnitude (Debye)      :      1.55736

Rotational constants in cm-1:     0.679940     0.136094     0.118234
Rotational constants in MHz : 20384.075389  4079.984817  3544.572933

                             ****ORCA TERMINATED NORMALLY****
TOTAL RUN TIME: 0 days 0 hours 4 minutes 20 seconds 683 msec
