                         Program Version 5.0.4 -  RELEASE  -
|  1> ! ri-mp2 aug-cc-pvdz aug-cc-pvdz/c tightscf
|  2> %pal nprocs 16 end
|  3> %maxcore 3800
|  4> %base "DZ_P-Si_5_AB"
|  5> %scf
|  6> STABPerform true
|  7> STABRestartUHFifUnstable true
|  8> end
|  9>
| 10> *xyz 0 1
| 11> P         1.132660   -1.476552   -0.235307
| 12> Si         0.210440    0.489166    0.396591
| 13> C        -1.496489    0.619546   -0.366481
| 14> C        -2.465608   -0.487589    0.045799
| 15> H        -1.384757    0.635820   -1.454308
| 16> H        -1.905852    1.596337   -0.091635
| 17> H        -2.114351   -1.467747   -0.280253
| 18> H        -3.454691   -0.336969   -0.388336
| 19> C         1.320722    1.868881   -0.200962
| 20> H         2.309747    1.807768    0.254185
| 21> H         0.896584    2.841778    0.052665
| 22> H         1.446298    1.828042   -1.283831
| 23> H        -2.585775   -0.528772    1.129705
| 24> H         0.381116   -2.273803    0.658791
| 25> H         2.242235   -1.370613    0.635868
| 26> H         0.081632    0.563094    1.874339
| 27> *
| 28>
| 29> $new_job
| 30> ! ri-mp2 aug-cc-pvtz aug-cc-pvtz/c tightscf
| 31> %pal nprocs 16 end
| 32> %maxcore 3800
| 33> %base "TZ_P-Si_5_AB"
| 34>
| 35> *xyz 0 1
| 36> P         1.132660   -1.476552   -0.235307
| 37> Si         0.210440    0.489166    0.396591
| 38> C        -1.496489    0.619546   -0.366481
| 39> C        -2.465608   -0.487589    0.045799
| 40> H        -1.384757    0.635820   -1.454308
| 41> H        -1.905852    1.596337   -0.091635
| 42> H        -2.114351   -1.467747   -0.280253
| 43> H        -3.454691   -0.336969   -0.388336
| 44> C         1.320722    1.868881   -0.200962
| 45> H         2.309747    1.807768    0.254185
| 46> H         0.896584    2.841778    0.052665
| 47> H         1.446298    1.828042   -1.283831
| 48> H        -2.585775   -0.528772    1.129705
| 49> H         0.381116   -2.273803    0.658791
| 50> H         2.242235   -1.370613    0.635868
| 51> H         0.081632    0.563094    1.874339
| 52> *
| 53>
| 54> $new_job
| 55> ! ri-mp2 aug-cc-pvqz aug-cc-pvqz/c tightscf
| 56> %pal nprocs 16 end
| 57> %maxcore 3800
| 58> %base "QZ_P-Si_5_AB"
| 59>
| 60> *xyz 0 1
| 61> P         1.132660   -1.476552   -0.235307
| 62> Si         0.210440    0.489166    0.396591
| 63> C        -1.496489    0.619546   -0.366481
| 64> C        -2.465608   -0.487589    0.045799
| 65> H        -1.384757    0.635820   -1.454308
| 66> H        -1.905852    1.596337   -0.091635
| 67> H        -2.114351   -1.467747   -0.280253
| 68> H        -3.454691   -0.336969   -0.388336
| 69> C         1.320722    1.868881   -0.200962
| 70> H         2.309747    1.807768    0.254185
| 71> H         0.896584    2.841778    0.052665
| 72> H         1.446298    1.828042   -1.283831
| 73> H        -2.585775   -0.528772    1.129705
| 74> H         0.381116   -2.273803    0.658791
| 75> H         2.242235   -1.370613    0.635868
| 76> H         0.081632    0.563094    1.874339
| 77> *
| 78>
| 79>
| 80>
| 81>
| 82>                          ****END OF INPUT****
 Total Charge           Charge          ....    0
 Multiplicity           Mult            ....    1
 Number of Electrons    NEL             ....   58
MP2 TOTAL ENERGY:     -750.406522810 Eh
FINAL SINGLE POINT ENERGY      -750.406522810183
MP2 TOTAL ENERGY:     -750.609007950 Eh
FINAL SINGLE POINT ENERGY      -750.609007949528

CARTESIAN COORDINATES (ANGSTROEM)
---------------------------------
  P      1.132660   -1.476552   -0.235307
  Si     0.210440    0.489166    0.396591
  C     -1.496489    0.619546   -0.366481
  C     -2.465608   -0.487589    0.045799
  H     -1.384757    0.635820   -1.454308
  H     -1.905852    1.596337   -0.091635
  H     -2.114351   -1.467747   -0.280253
  H     -3.454691   -0.336969   -0.388336
  C      1.320722    1.868881   -0.200962
  H      2.309747    1.807768    0.254185
  H      0.896584    2.841778    0.052665
  H      1.446298    1.828042   -1.283831
  H     -2.585775   -0.528772    1.129705
  H      0.381116   -2.273803    0.658791
  H      2.242235   -1.370613    0.635868
  H      0.081632    0.563094    1.874339

 Multiplicity           Mult            ....    1
 Number of Electrons    NEL             ....   58
 Basis Dimension        Dim             ....  914

ORBITAL ENERGIES
----------------

  NO   OCC          E(Eh)            E(eV)
   0   2.0000     -79.921456     -2174.7734
   1   2.0000     -68.762828     -1871.1317
   2   2.0000     -11.219321      -305.2932
   3   2.0000     -11.208642      -305.0027
   4   2.0000     -11.205005      -304.9037
   5   2.0000      -7.466633      -203.1774
   6   2.0000      -6.112111      -166.3190
   7   2.0000      -5.360610      -145.8696
   8   2.0000      -5.360220      -145.8590
   9   2.0000      -5.359628      -145.8429
  10   2.0000      -4.218604      -114.7940
  11   2.0000      -4.218215      -114.7835
  12   2.0000      -4.217901      -114.7749
  13   2.0000      -1.025707       -27.9109
  14   2.0000      -0.950286       -25.8586
  15   2.0000      -0.850244       -23.1363
  16   2.0000      -0.834562       -22.7096
  17   2.0000      -0.653177       -17.7739
  18   2.0000      -0.610469       -16.6117
  19   2.0000      -0.573370       -15.6022
  20   2.0000      -0.563085       -15.3223
  21   2.0000      -0.561757       -15.2862
  22   2.0000      -0.515758       -14.0345
  23   2.0000      -0.514857       -14.0100
  24   2.0000      -0.497886       -13.5482
  25   2.0000      -0.463716       -12.6184
  26   2.0000      -0.433318       -11.7912
  27   2.0000      -0.412905       -11.2357
  28   2.0000      -0.354823        -9.6552
  29   0.0000       0.022722         0.6183
  30   0.0000       0.031778         0.8647
  31   0.0000       0.033397         0.9088
  32   0.0000       0.035846         0.9754
  33   0.0000       0.047834         1.3016

MULLIKEN ATOMIC CHARGES
-----------------------
   0 P :   -0.034672
   1 Si:    1.187700
   2 C :   -0.626885
   3 C :   -0.891097
   4 H :    0.203239
   5 H :    0.242254
   6 H :    0.248091
   7 H :    0.311620
   8 C :   -1.148753
   9 H :    0.283632
  10 H :    0.272196
  11 H :    0.236523
  12 H :    0.232605
  13 H :   -0.076055
  14 H :   -0.100529
  15 H :   -0.339868
Sum of atomic charges:   -0.0000000

LOEWDIN ATOMIC CHARGES
----------------------
   0 P :    1.476915
   1 Si:    0.205248
   2 C :    0.486763
   3 C :    0.842206
   4 H :   -0.337975
   5 H :   -0.334814
   6 H :   -0.312015
   7 H :   -0.283021
   8 C :    0.903829
   9 H :   -0.357086
  10 H :   -0.348983
  11 H :   -0.353085
  12 H :   -0.295377
  13 H :   -0.545520
  14 H :   -0.548145
  15 H :   -0.198940

  Mayer bond orders larger than 0.100000
B(  0-P ,  1-Si) :   0.7950 B(  0-P , 13-H ) :   0.9333 B(  0-P , 14-H ) :   0.9202
B(  1-Si,  2-C ) :   0.7694 B(  1-Si,  8-C ) :   0.9006 B(  1-Si, 15-H ) :   0.7890
B(  2-C ,  3-C ) :   0.9364 B(  2-C ,  4-H ) :   0.9468 B(  2-C ,  5-H ) :   0.9096
B(  3-C ,  6-H ) :   0.9348 B(  3-C ,  7-H ) :   0.9463 B(  3-C , 12-H ) :   0.9541
B(  8-C ,  9-H ) :   0.9418 B(  8-C , 10-H ) :   0.9338 B(  8-C , 11-H ) :   0.9544

MP2 TOTAL ENERGY:     -750.670275380 Eh
FINAL SINGLE POINT ENERGY      -750.670275380155

DIPOLE MOMENT
-------------
                                X             Y             Z
Electronic contribution:      5.10306      -4.36922      -1.21308
Nuclear contribution   :     -5.31331       4.79233       1.34104
                        -----------------------------------------
Total Dipole Moment    :     -0.21024       0.42311       0.12795
                        -----------------------------------------
Magnitude (a.u.)       :      0.48949
Magnitude (Debye)      :      1.24418

Rotational constants in cm-1:     0.100416     0.075524     0.047435
Rotational constants in MHz :  3010.390162  2264.166326  1422.062216

                             ****ORCA TERMINATED NORMALLY****
TOTAL RUN TIME: 0 days 1 hours 17 minutes 56 seconds 971 msec
