                         Program Version 5.0.4 -  RELEASE  -
|  1> ! ri-mp2 aug-cc-pvdz aug-cc-pvdz/c tightscf
|  2> %pal nprocs 16 end
|  3> %maxcore 3800
|  4> %base "DZ_B-Cl_46_A"
|  5> %scf
|  6> STABPerform true
|  7> STABRestartUHFifUnstable true
|  8> end
|  9>
| 10> *xyz 0 2
| 11> B         1.635385    0.232427   -0.596949
| 12> Cl         3.045695   -0.489637   -0.005198
| 13> C         0.289980    0.576189    0.091621
| 14> O         0.097007    1.602142    0.671200
| 15> O        -0.653006   -0.419987   -0.044884
| 16> C        -2.007739   -0.117797   -0.153483
| 17> O        -2.397441    0.905578   -0.604012
| 18> C        -2.827661   -1.270665    0.321086
| 19> H        -2.679506   -1.396070    1.394008
| 20> H        -2.498692   -2.188098   -0.164906
| 21> H        -3.875495   -1.082367    0.110248
| 22> *
| 23>
| 24> $new_job
| 25> ! ri-mp2 aug-cc-pvtz aug-cc-pvtz/c tightscf
| 26> %pal nprocs 16 end
| 27> %maxcore 3800
| 28> %base "TZ_B-Cl_46_A"
| 29>
| 30> *xyz 0 2
| 31> B         1.635385    0.232427   -0.596949
| 32> Cl         3.045695   -0.489637   -0.005198
| 33> C         0.289980    0.576189    0.091621
| 34> O         0.097007    1.602142    0.671200
| 35> O        -0.653006   -0.419987   -0.044884
| 36> C        -2.007739   -0.117797   -0.153483
| 37> O        -2.397441    0.905578   -0.604012
| 38> C        -2.827661   -1.270665    0.321086
| 39> H        -2.679506   -1.396070    1.394008
| 40> H        -2.498692   -2.188098   -0.164906
| 41> H        -3.875495   -1.082367    0.110248
| 42> *
| 43>
| 44> $new_job
| 45> ! ri-mp2 aug-cc-pvqz aug-cc-pvqz/c tightscf
| 46> %pal nprocs 16 end
| 47> %maxcore 3800
| 48> %base "QZ_B-Cl_46_A"
| 49>
| 50> *xyz 0 2
| 51> B         1.635385    0.232427   -0.596949
| 52> Cl         3.045695   -0.489637   -0.005198
| 53> C         0.289980    0.576189    0.091621
| 54> O         0.097007    1.602142    0.671200
| 55> O        -0.653006   -0.419987   -0.044884
| 56> C        -2.007739   -0.117797   -0.153483
| 57> O        -2.397441    0.905578   -0.604012
| 58> C        -2.827661   -1.270665    0.321086
| 59> H        -2.679506   -1.396070    1.394008
| 60> H        -2.498692   -2.188098   -0.164906
| 61> H        -3.875495   -1.082367    0.110248
| 62> *
| 63>
| 64>
| 65>
| 66>
| 67>                          ****END OF INPUT****
 Total Charge           Charge          ....    0
 Multiplicity           Mult            ....    2
 Number of Electrons    NEL             ....   67
MP2 TOTAL ENERGY:     -825.351843719 Eh
FINAL SINGLE POINT ENERGY      -825.351843718715
MP2 TOTAL ENERGY:     -825.715504057 Eh
FINAL SINGLE POINT ENERGY      -825.715504057272

CARTESIAN COORDINATES (ANGSTROEM)
---------------------------------
  B      1.635385    0.232427   -0.596949
  Cl     3.045695   -0.489637   -0.005198
  C      0.289980    0.576189    0.091621
  O      0.097007    1.602142    0.671200
  O     -0.653006   -0.419987   -0.044884
  C     -2.007739   -0.117797   -0.153483
  O     -2.397441    0.905578   -0.604012
  C     -2.827661   -1.270665    0.321086
  H     -2.679506   -1.396070    1.394008
  H     -2.498692   -2.188098   -0.164906
  H     -3.875495   -1.082367    0.110248

 Multiplicity           Mult            ....    2
 Number of Electrons    NEL             ....   67
 Basis Dimension        Dim             ....  782

ORBITAL ENERGIES
----------------
                 SPIN UP ORBITALS
  NO   OCC          E(Eh)            E(eV)
   0   1.0000    -104.878955     -2853.9015
   1   1.0000     -20.632861      -561.4487
   2   1.0000     -20.582463      -560.0773
   3   1.0000     -20.569320      -559.7196
   4   1.0000     -11.405242      -310.3524
   5   1.0000     -11.392611      -310.0087
   6   1.0000     -11.256933      -306.3167
   7   1.0000     -10.606340      -288.6132
   8   1.0000      -8.073887      -219.7016
   9   1.0000      -8.072027      -219.6510
  10   1.0000      -8.071497      -219.6366
  11   1.0000      -7.715344      -209.9452
  12   1.0000      -1.506342       -40.9896
  13   1.0000      -1.433343       -39.0032
  14   1.0000      -1.386141       -37.7188
  15   1.0000      -1.163898       -31.6713
  16   1.0000      -1.052772       -28.6474
  17   1.0000      -0.932089       -25.3634
  18   1.0000      -0.795868       -21.6567
  19   1.0000      -0.745029       -20.2733
  20   1.0000      -0.712737       -19.3946
  21   1.0000      -0.698312       -19.0020
  22   1.0000      -0.670864       -18.2551
  23   1.0000      -0.634388       -17.2626
  24   1.0000      -0.625352       -17.0167
  25   1.0000      -0.598234       -16.2788
  26   1.0000      -0.585961       -15.9448
  27   1.0000      -0.555370       -15.1124
  28   1.0000      -0.539584       -14.6828
  29   1.0000      -0.524718       -14.2783
  30   1.0000      -0.503077       -13.6894
  31   1.0000      -0.494789       -13.4639
  32   1.0000      -0.463008       -12.5991
  33   1.0000      -0.367067        -9.9884
  34   0.0000       0.020212         0.5500
  35   0.0000       0.030835         0.8391
  36   0.0000       0.033164         0.9024
  37   0.0000       0.036427         0.9912
  38   0.0000       0.046255         1.2587

                 SPIN DOWN ORBITALS
  NO   OCC          E(Eh)            E(eV)
   0   1.0000    -104.878303     -2853.8837
   1   1.0000     -20.633516      -561.4665
   2   1.0000     -20.574676      -559.8654
   3   1.0000     -20.569440      -559.7229
   4   1.0000     -11.405097      -310.3485
   5   1.0000     -11.394480      -310.0596
   6   1.0000     -11.256929      -306.3166
   7   1.0000     -10.605581      -288.5925
   8   1.0000      -8.072842      -219.6732
   9   1.0000      -8.071922      -219.6482
  10   1.0000      -8.069423      -219.5802
  11   1.0000      -7.695433      -209.4034
  12   1.0000      -1.505444       -40.9652
  13   1.0000      -1.425406       -38.7873
  14   1.0000      -1.380177       -37.5565
  15   1.0000      -1.155966       -31.4554
  16   1.0000      -1.052263       -28.6335
  17   1.0000      -0.925008       -25.1708
  18   1.0000      -0.780029       -21.2257
  19   1.0000      -0.742050       -20.1922
  20   1.0000      -0.711413       -19.3585
  21   1.0000      -0.696052       -18.9405
  22   1.0000      -0.658813       -17.9272
  23   1.0000      -0.626851       -17.0575
  24   1.0000      -0.616988       -16.7891
  25   1.0000      -0.596702       -16.2371
  26   1.0000      -0.576431       -15.6855
  27   1.0000      -0.538361       -14.6495
  28   1.0000      -0.525936       -14.3114
  29   1.0000      -0.511970       -13.9314
  30   1.0000      -0.490563       -13.3489
  31   1.0000      -0.484385       -13.1808
  32   1.0000      -0.451144       -12.2763
  33   0.0000       0.018638         0.5072
  34   0.0000       0.027436         0.7466
  35   0.0000       0.033999         0.9252
  36   0.0000       0.036942         1.0052
  37   0.0000       0.042914         1.1677

MULLIKEN ATOMIC CHARGES AND SPIN POPULATIONS
--------------------------------------------
   0 B :    0.446444    0.976630
   1 Cl:   -0.179863    0.025880
   2 C :    0.800061   -0.164364
   3 O :   -0.709450    0.173133
   4 O :   -0.678664   -0.016580
   5 C :    0.875575    0.006579
   6 O :   -0.685930   -0.001251
   7 C :   -0.760640   -0.000017
   8 H :    0.282160   -0.000071
   9 H :    0.298249    0.000126
  10 H :    0.312057   -0.000066
Sum of atomic charges         :   -0.0000000

LOEWDIN ATOMIC CHARGES AND SPIN POPULATIONS
-------------------------------------------
   0 B :   -1.136716    0.543561
   1 Cl:    1.248002    0.173670
   2 C :   -1.127281    0.156374
   3 O :    0.660633    0.124723
   4 O :    0.744060   -0.000943
   5 C :   -1.064413    0.003139
   6 O :    0.719402   -0.001803
   7 C :    0.871455    0.000829
   8 H :   -0.296165    0.000177
   9 H :   -0.302829    0.000164
  10 H :   -0.316149    0.000111

  Mayer bond orders larger than 0.100000
B(  0-B ,  1-Cl) :   1.2431 B(  0-B ,  2-C ) :   0.8927 B(  2-C ,  3-O ) :   1.4882
B(  2-C ,  4-O ) :   0.9157 B(  4-O ,  5-C ) :   0.9151 B(  5-C ,  6-O ) :   1.5214
B(  5-C ,  7-C ) :   0.9578 B(  7-C ,  8-H ) :   0.9075 B(  7-C ,  9-H ) :   0.9096
B(  7-C , 10-H ) :   0.9527

MP2 TOTAL ENERGY:     -825.836659071 Eh
FINAL SINGLE POINT ENERGY      -825.836659071488

DIPOLE MOMENT
-------------
                                X             Y             Z
Electronic contribution:     14.09630       2.29845      -1.64017
Nuclear contribution   :    -13.94571      -3.88904       1.72550
                        -----------------------------------------
Total Dipole Moment    :      0.15059      -1.59059       0.08534
                        -----------------------------------------
Magnitude (a.u.)       :      1.59998
Magnitude (Debye)      :      4.06683

Rotational constants in cm-1:     0.143419     0.025928     0.023195
Rotational constants in MHz :  4299.581434   777.303508   695.379011

                             ****ORCA TERMINATED NORMALLY****
TOTAL RUN TIME: 0 days 2 hours 50 minutes 45 seconds 806 msec
