                         Program Version 5.0.4 -  RELEASE  -
|  1> ! ri-mp2 aug-cc-pvdz aug-cc-pvdz/c tightscf
|  2> %pal nprocs 16 end
|  3> %maxcore 3800
|  4> %base "DZ_B-B_48_AB"
|  5> %scf
|  6> STABPerform true
|  7> STABRestartUHFifUnstable true
|  8> end
|  9>
| 10> *xyz 0 1
| 11> B         1.985235   -0.216374   -0.000011
| 12> B         0.547133    0.590750   -0.000018
| 13> S        -1.030191   -0.219687    0.000014
| 14> H        -1.837107    0.850826   -0.000012
| 15> H         2.548585   -0.495853    1.014451
| 16> H         2.548588   -0.495864   -1.014469
| 17> H         0.561148    1.784006   -0.000043
| 18> *
| 19>
| 20> $new_job
| 21> ! ri-mp2 aug-cc-pvtz aug-cc-pvtz/c tightscf
| 22> %pal nprocs 16 end
| 23> %maxcore 3800
| 24> %base "TZ_B-B_48_AB"
| 25>
| 26> *xyz 0 1
| 27> B         1.985235   -0.216374   -0.000011
| 28> B         0.547133    0.590750   -0.000018
| 29> S        -1.030191   -0.219687    0.000014
| 30> H        -1.837107    0.850826   -0.000012
| 31> H         2.548585   -0.495853    1.014451
| 32> H         2.548588   -0.495864   -1.014469
| 33> H         0.561148    1.784006   -0.000043
| 34> *
| 35>
| 36> $new_job
| 37> ! ri-mp2 aug-cc-pvqz aug-cc-pvqz/c tightscf
| 38> %pal nprocs 16 end
| 39> %maxcore 3800
| 40> %base "QZ_B-B_48_AB"
| 41>
| 42> *xyz 0 1
| 43> B         1.985235   -0.216374   -0.000011
| 44> B         0.547133    0.590750   -0.000018
| 45> S        -1.030191   -0.219687    0.000014
| 46> H        -1.837107    0.850826   -0.000012
| 47> H         2.548585   -0.495853    1.014451
| 48> H         2.548588   -0.495864   -1.014469
| 49> H         0.561148    1.784006   -0.000043
| 50> *
| 51>
| 52>
| 53>
| 54>
| 55>                          ****END OF INPUT****
 Total Charge           Charge          ....    0
 Multiplicity           Mult            ....    1
 Number of Electrons    NEL             ....   30
MP2 TOTAL ENERGY:     -449.532368716 Eh
FINAL SINGLE POINT ENERGY      -449.532368715958
MP2 TOTAL ENERGY:     -449.631690055 Eh
FINAL SINGLE POINT ENERGY      -449.631690055434

CARTESIAN COORDINATES (ANGSTROEM)
---------------------------------
  B      1.985235   -0.216374   -0.000011
  B      0.547133    0.590750   -0.000018
  S     -1.030191   -0.219687    0.000014
  H     -1.837107    0.850826   -0.000012
  H      2.548585   -0.495853    1.014451
  H      2.548588   -0.495864   -1.014469
  H      0.561148    1.784006   -0.000043

 Multiplicity           Mult            ....    1
 Number of Electrons    NEL             ....   30
 Basis Dimension        Dim             ....  428

ORBITAL ENERGIES
----------------

  NO   OCC          E(Eh)            E(eV)
   0   2.0000     -91.960135     -2502.3625
   1   2.0000      -8.964967      -243.9492
   2   2.0000      -7.608818      -207.0465
   3   2.0000      -7.595695      -206.6894
   4   2.0000      -6.646518      -180.8610
   5   2.0000      -6.645477      -180.8326
   6   2.0000      -6.645290      -180.8275
   7   2.0000      -0.990402       -26.9502
   8   2.0000      -0.734831       -19.9958
   9   2.0000      -0.624293       -16.9879
  10   2.0000      -0.576386       -15.6843
  11   2.0000      -0.498914       -13.5761
  12   2.0000      -0.458220       -12.4688
  13   2.0000      -0.433253       -11.7894
  14   2.0000      -0.400087       -10.8869
  15   0.0000       0.024932         0.6784
  16   0.0000       0.030402         0.8273
  17   0.0000       0.030530         0.8308
  18   0.0000       0.035470         0.9652
  19   0.0000       0.048462         1.3187

MULLIKEN ATOMIC CHARGES
-----------------------
   0 B :    0.379929
   1 B :    0.195019
   2 S :   -0.136031
   3 H :    0.058913
   4 H :   -0.176269
   5 H :   -0.176269
   6 H :   -0.145291
Sum of atomic charges:    0.0000000

LOEWDIN ATOMIC CHARGES
----------------------
   0 B :    0.352142
   1 B :   -0.557503
   2 S :    1.692270
   3 H :   -0.781619
   4 H :   -0.224005
   5 H :   -0.224004
   6 H :   -0.257281

  Mayer bond orders larger than 0.100000
B(  0-B ,  1-B ) :   1.0741 B(  0-B ,  4-H ) :   0.9546 B(  0-B ,  5-H ) :   0.9546
B(  1-B ,  2-S ) :   1.2307 B(  1-B ,  6-H ) :   0.9148 B(  2-S ,  3-H ) :   1.0334

MP2 TOTAL ENERGY:     -449.663303288 Eh
FINAL SINGLE POINT ENERGY      -449.663303288159

DIPOLE MOMENT
-------------
                                X             Y             Z
Electronic contribution:     -1.84189      -0.97110       0.00004
Nuclear contribution   :      1.76940       1.31622      -0.00005
                        -----------------------------------------
Total Dipole Moment    :     -0.07249       0.34512      -0.00001
                        -----------------------------------------
Magnitude (a.u.)       :      0.35265
Magnitude (Debye)      :      0.89637

Rotational constants in cm-1:     1.381500     0.170627     0.157768
Rotational constants in MHz : 41416.317145  5115.278832  4729.758674

                             ****ORCA TERMINATED NORMALLY****
TOTAL RUN TIME: 0 days 0 hours 13 minutes 9 seconds 982 msec
