                         Program Version 5.0.4 -  RELEASE  -
|  1> ! ri-mp2 aug-cc-pvdz aug-cc-pvdz/c tightscf
|  2> %pal nprocs 16 end
|  3> %maxcore 3800
|  4> %base "DZ_B-B_2_B"
|  5> %scf
|  6> STABPerform true
|  7> STABRestartUHFifUnstable true
|  8> end
|  9>
| 10> *xyz 0 2
| 11> B        -1.443499   -0.472904   -0.000001
| 12> C        -0.206504    0.435836    0.000001
| 13> C         1.181340   -0.201016   -0.000000
| 14> H        -0.326299    1.107494    0.863912
| 15> H        -0.326282    1.107545   -0.863870
| 16> H         1.320468   -0.832024    0.877804
| 17> H         1.969908    0.552533    0.000028
| 18> H         1.320487   -0.831975   -0.877837
| 19> H        -2.589801   -0.147974   -0.000040
| 20> *
| 21>
| 22> $new_job
| 23> ! ri-mp2 aug-cc-pvtz aug-cc-pvtz/c tightscf
| 24> %pal nprocs 16 end
| 25> %maxcore 3800
| 26> %base "TZ_B-B_2_B"
| 27>
| 28> *xyz 0 2
| 29> B        -1.443499   -0.472904   -0.000001
| 30> C        -0.206504    0.435836    0.000001
| 31> C         1.181340   -0.201016   -0.000000
| 32> H        -0.326299    1.107494    0.863912
| 33> H        -0.326282    1.107545   -0.863870
| 34> H         1.320468   -0.832024    0.877804
| 35> H         1.969908    0.552533    0.000028
| 36> H         1.320487   -0.831975   -0.877837
| 37> H        -2.589801   -0.147974   -0.000040
| 38> *
| 39>
| 40> $new_job
| 41> ! ri-mp2 aug-cc-pvqz aug-cc-pvqz/c tightscf
| 42> %pal nprocs 16 end
| 43> %maxcore 3800
| 44> %base "QZ_B-B_2_B"
| 45>
| 46> *xyz 0 2
| 47> B        -1.443499   -0.472904   -0.000001
| 48> C        -0.206504    0.435836    0.000001
| 49> C         1.181340   -0.201016   -0.000000
| 50> H        -0.326299    1.107494    0.863912
| 51> H        -0.326282    1.107545   -0.863870
| 52> H         1.320468   -0.832024    0.877804
| 53> H         1.969908    0.552533    0.000028
| 54> H         1.320487   -0.831975   -0.877837
| 55> H        -2.589801   -0.147974   -0.000040
| 56> *
| 57>
| 58>
| 59>
| 60>
| 61>                          ****END OF INPUT****
 Total Charge           Charge          ....    0
 Multiplicity           Mult            ....    2
 Number of Electrons    NEL             ....   23
MP2 TOTAL ENERGY:     -104.211036919 Eh
FINAL SINGLE POINT ENERGY      -104.211036919071
MP2 TOTAL ENERGY:     -104.310129280 Eh
FINAL SINGLE POINT ENERGY      -104.310129279996

CARTESIAN COORDINATES (ANGSTROEM)
---------------------------------
  B     -1.443499   -0.472904   -0.000001
  C     -0.206504    0.435836    0.000001
  C      1.181340   -0.201016   -0.000000
  H     -0.326299    1.107494    0.863912
  H     -0.326282    1.107545   -0.863870
  H      1.320468   -0.832024    0.877804
  H      1.969908    0.552533    0.000028
  H      1.320487   -0.831975   -0.877837
  H     -2.589801   -0.147974   -0.000040

 Multiplicity           Mult            ....    2
 Number of Electrons    NEL             ....   23
 Basis Dimension        Dim             ....  516

ORBITAL ENERGIES
----------------
                 SPIN UP ORBITALS
  NO   OCC          E(Eh)            E(eV)
   0   1.0000     -11.215002      -305.1757
   1   1.0000     -11.210155      -305.0438
   2   1.0000      -7.618874      -207.3201
   3   1.0000      -1.029898       -28.0250
   4   1.0000      -0.862308       -23.4646
   5   1.0000      -0.654600       -17.8126
   6   1.0000      -0.604394       -16.4464
   7   1.0000      -0.583604       -15.8807
   8   1.0000      -0.517729       -14.0881
   9   1.0000      -0.494437       -13.4543
  10   1.0000      -0.471876       -12.8404
  11   1.0000      -0.317739        -8.6461
  12   0.0000       0.025006         0.6804
  13   0.0000       0.031570         0.8591
  14   0.0000       0.034930         0.9505
  15   0.0000       0.035105         0.9553
  16   0.0000       0.051506         1.4015

                 SPIN DOWN ORBITALS
  NO   OCC          E(Eh)            E(eV)
   0   1.0000     -11.214194      -305.1537
   1   1.0000     -11.210096      -305.0422
   2   1.0000      -7.601616      -206.8505
   3   1.0000      -1.025239       -27.8982
   4   1.0000      -0.855748       -23.2861
   5   1.0000      -0.616494       -16.7757
   6   1.0000      -0.603781       -16.4297
   7   1.0000      -0.574210       -15.6251
   8   1.0000      -0.506622       -13.7859
   9   1.0000      -0.493688       -13.4339
  10   1.0000      -0.461575       -12.5601
  11   0.0000       0.023529         0.6403
  12   0.0000       0.033060         0.8996
  13   0.0000       0.033661         0.9160
  14   0.0000       0.035187         0.9575
  15   0.0000       0.050377         1.3708

MULLIKEN ATOMIC CHARGES AND SPIN POPULATIONS
--------------------------------------------
   0 B :    0.297552    1.008046
   1 C :   -0.558466   -0.018525
   2 C :   -0.798501   -0.008313
   3 H :    0.268095    0.015557
   4 H :    0.268102    0.015562
   5 H :    0.252740   -0.003486
   6 H :    0.259823    0.002348
   7 H :    0.252739   -0.003487
   8 H :   -0.242084   -0.007702
Sum of atomic charges         :    0.0000000

LOEWDIN ATOMIC CHARGES AND SPIN POPULATIONS
-------------------------------------------
   0 B :    0.403113    0.547127
   1 C :    0.523866    0.174903
   2 C :    0.868607    0.038995
   3 H :   -0.324810    0.017765
   4 H :   -0.324807    0.017765
   5 H :   -0.299403    0.012297
   6 H :   -0.288895    0.003178
   7 H :   -0.299402    0.012296
   8 H :   -0.258268    0.175673

  Mayer bond orders larger than 0.100000
B(  0-B ,  1-C ) :   1.0895 B(  0-B ,  8-H ) :   0.9002 B(  1-C ,  2-C ) :   1.0110
B(  1-C ,  3-H ) :   0.8489 B(  1-C ,  4-H ) :   0.8489 B(  2-C ,  5-H ) :   0.9318
B(  2-C ,  6-H ) :   0.9463 B(  2-C ,  7-H ) :   0.9318

MP2 TOTAL ENERGY:     -104.339799417 Eh
FINAL SINGLE POINT ENERGY      -104.339799416778

DIPOLE MOMENT
-------------
                                X             Y             Z
Electronic contribution:     -2.51147      -1.04460      -0.00001
Nuclear contribution   :      2.67506       1.41238      -0.00000
                        -----------------------------------------
Total Dipole Moment    :      0.16359       0.36778      -0.00001
                        -----------------------------------------
Magnitude (a.u.)       :      0.40252
Magnitude (Debye)      :      1.02312

Rotational constants in cm-1:     1.368713     0.294790     0.265954
Rotational constants in MHz : 41032.971085  8837.576495  7973.086017

                             ****ORCA TERMINATED NORMALLY****
TOTAL RUN TIME: 0 days 0 hours 11 minutes 8 seconds 274 msec
