                         Program Version 5.0.4 -  RELEASE  -
|  1> ! ri-mp2 aug-cc-pvdz aug-cc-pvdz/c tightscf
|  2> %pal nprocs 16 end
|  3> %maxcore 3800
|  4> %base "DZ_S-Cl_51_AB"
|  5> %scf
|  6> STABPerform true
|  7> STABRestartUHFifUnstable true
|  8> end
|  9>
| 10> *xyz 0 1
| 11> Cl        -2.206153    0.103666   -0.000007
| 12> S        -0.411960   -0.923609    0.000013
| 13> C         0.776525    0.343895   -0.000001
| 14> S         2.291813   -0.223566   -0.000008
| 15> O         0.415432    1.605027    0.000004
| 16> H        -0.555661    1.688891    0.000013
| 17> *
| 18>
| 19> $new_job
| 20> ! ri-mp2 aug-cc-pvtz aug-cc-pvtz/c tightscf
| 21> %pal nprocs 16 end
| 22> %maxcore 3800
| 23> %base "TZ_S-Cl_51_AB"
| 24>
| 25> *xyz 0 1
| 26> Cl        -2.206153    0.103666   -0.000007
| 27> S        -0.411960   -0.923609    0.000013
| 28> C         0.776525    0.343895   -0.000001
| 29> S         2.291813   -0.223566   -0.000008
| 30> O         0.415432    1.605027    0.000004
| 31> H        -0.555661    1.688891    0.000013
| 32> *
| 33>
| 34> $new_job
| 35> ! ri-mp2 aug-cc-pvqz aug-cc-pvqz/c tightscf
| 36> %pal nprocs 16 end
| 37> %maxcore 3800
| 38> %base "QZ_S-Cl_51_AB"
| 39>
| 40> *xyz 0 1
| 41> Cl        -2.206153    0.103666   -0.000007
| 42> S        -0.411960   -0.923609    0.000013
| 43> C         0.776525    0.343895   -0.000001
| 44> S         2.291813   -0.223566   -0.000008
| 45> O         0.415432    1.605027    0.000004
| 46> H        -0.555661    1.688891    0.000013
| 47> *
| 48>
| 49>
| 50>
| 51>
| 52>                          ****END OF INPUT****
 Total Charge           Charge          ....    0
 Multiplicity           Mult            ....    1
 Number of Electrons    NEL             ....   64
MP2 TOTAL ENERGY:    -1368.635974297 Eh
FINAL SINGLE POINT ENERGY     -1368.635974297346
MP2 TOTAL ENERGY:    -1368.895976125 Eh
FINAL SINGLE POINT ENERGY     -1368.895976125255

CARTESIAN COORDINATES (ANGSTROEM)
---------------------------------
  Cl    -2.206153    0.103666   -0.000007
  S     -0.411960   -0.923609    0.000013
  C      0.776525    0.343895   -0.000001
  S      2.291813   -0.223566   -0.000008
  O      0.415432    1.605027    0.000004
  H     -0.555661    1.688891    0.000013

 Multiplicity           Mult            ....    1
 Number of Electrons    NEL             ....   64
 Basis Dimension        Dim             ....  458

ORBITAL ENERGIES
----------------

  NO   OCC          E(Eh)            E(eV)
   0   2.0000    -104.890154     -2854.2062
   1   2.0000     -92.062434     -2505.1462
   2   2.0000     -91.943224     -2501.9023
   3   2.0000     -20.658904      -562.1574
   4   2.0000     -11.429792      -311.0204
   5   2.0000     -10.614604      -288.8381
   6   2.0000      -9.060149      -246.5392
   7   2.0000      -8.948020      -243.4880
   8   2.0000      -8.081482      -219.9083
   9   2.0000      -8.079756      -219.8613
  10   2.0000      -8.079470      -219.8535
  11   2.0000      -6.741009      -183.4322
  12   2.0000      -6.739137      -183.3812
  13   2.0000      -6.737988      -183.3500
  14   2.0000      -6.629485      -180.3975
  15   2.0000      -6.627903      -180.3544
  16   2.0000      -6.627168      -180.3344
  17   2.0000      -1.491332       -40.5812
  18   2.0000      -1.183803       -32.2129
  19   2.0000      -1.099393       -29.9160
  20   2.0000      -0.961262       -26.1573
  21   2.0000      -0.849839       -23.1253
  22   2.0000      -0.740517       -20.1505
  23   2.0000      -0.657742       -17.8981
  24   2.0000      -0.649148       -17.6642
  25   2.0000      -0.556036       -15.1305
  26   2.0000      -0.547640       -14.9020
  27   2.0000      -0.539759       -14.6876
  28   2.0000      -0.496445       -13.5089
  29   2.0000      -0.451888       -12.2965
  30   2.0000      -0.366524        -9.9736
  31   2.0000      -0.364239        -9.9114
  32   0.0000       0.023187         0.6310
  33   0.0000       0.037325         1.0157
  34   0.0000       0.048520         1.3203
  35   0.0000       0.053756         1.4628
  36   0.0000       0.060073         1.6347

MULLIKEN ATOMIC CHARGES
-----------------------
   0 Cl:   -0.331371
   1 S :    0.545173
   2 C :   -0.172762
   3 S :    0.112155
   4 O :   -0.599074
   5 H :    0.445879
Sum of atomic charges:   -0.0000000

LOEWDIN ATOMIC CHARGES
----------------------
   0 Cl:    0.594367
   1 S :    0.364362
   2 C :   -1.877953
   3 S :    0.902539
   4 O :    1.078989
   5 H :   -1.062305

  Mayer bond orders larger than 0.100000
B(  0-Cl,  1-S ) :   0.9142 B(  1-S ,  2-C ) :   1.0830 B(  2-C ,  3-S ) :   1.6006
B(  2-C ,  4-O ) :   1.0393 B(  4-O ,  5-H ) :   0.8329

MP2 TOTAL ENERGY:    -1368.983469803 Eh
FINAL SINGLE POINT ENERGY     -1368.983469803442

DIPOLE MOMENT
-------------
                                X             Y             Z
Electronic contribution:     -3.45989      -1.35133      -0.00001
Nuclear contribution   :      2.38272       1.49675       0.00002
                        -----------------------------------------
Total Dipole Moment    :     -1.07716       0.14542       0.00001
                        -----------------------------------------
Magnitude (a.u.)       :      1.08694
Magnitude (Debye)      :      2.76277

Rotational constants in cm-1:     0.225302     0.047266     0.039070
Rotational constants in MHz :  6754.392141  1417.006439  1171.282622

                             ****ORCA TERMINATED NORMALLY****
TOTAL RUN TIME: 0 days 0 hours 13 minutes 4 seconds 392 msec
