                         Program Version 5.0.4 -  RELEASE  -
|  1> ! ri-mp2 aug-cc-pvdz aug-cc-pvdz/c tightscf
|  2> %pal nprocs 16 end
|  3> %maxcore 3800
|  4> %base "DZ_B-Si_8_A"
|  5> %scf
|  6> STABPerform true
|  7> STABRestartUHFifUnstable true
|  8> end
|  9>
| 10> *xyz 0 2
| 11> Si        -0.381171    0.000000   -0.464458
| 12> C        -1.175266   -1.548100    0.213846
| 13> H        -0.682447   -2.442735   -0.163801
| 14> H        -2.228250   -1.589012   -0.068368
| 15> C        -1.175266    1.548100    0.213846
| 16> Cl         1.616410    0.000000    0.105391
| 17> H        -2.228250    1.589012   -0.068368
| 18> H        -0.682447    2.442735   -0.163801
| 19> H        -1.109003    1.554445    1.304479
| 20> H        -1.109003   -1.554445    1.304479
| 21> *
| 22>
| 23> $new_job
| 24> ! ri-mp2 aug-cc-pvtz aug-cc-pvtz/c tightscf
| 25> %pal nprocs 16 end
| 26> %maxcore 3800
| 27> %base "TZ_B-Si_8_A"
| 28>
| 29> *xyz 0 2
| 30> Si        -0.381171    0.000000   -0.464458
| 31> C        -1.175266   -1.548100    0.213846
| 32> H        -0.682447   -2.442735   -0.163801
| 33> H        -2.228250   -1.589012   -0.068368
| 34> C        -1.175266    1.548100    0.213846
| 35> Cl         1.616410    0.000000    0.105391
| 36> H        -2.228250    1.589012   -0.068368
| 37> H        -0.682447    2.442735   -0.163801
| 38> H        -1.109003    1.554445    1.304479
| 39> H        -1.109003   -1.554445    1.304479
| 40> *
| 41>
| 42> $new_job
| 43> ! ri-mp2 aug-cc-pvqz aug-cc-pvqz/c tightscf
| 44> %pal nprocs 16 end
| 45> %maxcore 3800
| 46> %base "QZ_B-Si_8_A"
| 47>
| 48> *xyz 0 2
| 49> Si        -0.381171    0.000000   -0.464458
| 50> C        -1.175266   -1.548100    0.213846
| 51> H        -0.682447   -2.442735   -0.163801
| 52> H        -2.228250   -1.589012   -0.068368
| 53> C        -1.175266    1.548100    0.213846
| 54> Cl         1.616410    0.000000    0.105391
| 55> H        -2.228250    1.589012   -0.068368
| 56> H        -0.682447    2.442735   -0.163801
| 57> H        -1.109003    1.554445    1.304479
| 58> H        -1.109003   -1.554445    1.304479
| 59> *
| 60>
| 61>
| 62>
| 63>
| 64>                          ****END OF INPUT****
 Total Charge           Charge          ....    0
 Multiplicity           Mult            ....    2
 Number of Electrons    NEL             ....   49
MP2 TOTAL ENERGY:     -828.246480371 Eh
FINAL SINGLE POINT ENERGY      -828.246480370986
MP2 TOTAL ENERGY:     -828.423724486 Eh
FINAL SINGLE POINT ENERGY      -828.423724486148

CARTESIAN COORDINATES (ANGSTROEM)
---------------------------------
  Si    -0.381171    0.000000   -0.464458
  C     -1.175266   -1.548100    0.213846
  H     -0.682447   -2.442735   -0.163801
  H     -2.228250   -1.589012   -0.068368
  C     -1.175266    1.548100    0.213846
  Cl     1.616410    0.000000    0.105391
  H     -2.228250    1.589012   -0.068368
  H     -0.682447    2.442735   -0.163801
  H     -1.109003    1.554445    1.304479
  H     -1.109003   -1.554445    1.304479

 Multiplicity           Mult            ....    2
 Number of Electrons    NEL             ....   49
 Basis Dimension        Dim             ....  604

ORBITAL ENERGIES
----------------
                 SPIN UP ORBITALS
  NO   OCC          E(Eh)            E(eV)
   0   1.0000    -104.815316     -2852.1697
   1   1.0000     -68.808405     -1872.3719
   2   1.0000     -11.216835      -305.2256
   3   1.0000     -11.216827      -305.2254
   4   1.0000     -10.542681      -286.8809
   5   1.0000      -8.010250      -217.9700
   6   1.0000      -8.008511      -217.9227
   7   1.0000      -8.008140      -217.9126
   8   1.0000      -6.154600      -167.4752
   9   1.0000      -4.266336      -116.0929
  10   1.0000      -4.258036      -115.8670
  11   1.0000      -4.256525      -115.8259
  12   1.0000      -1.088040       -29.6071
  13   1.0000      -0.972037       -26.4505
  14   1.0000      -0.945068       -25.7166
  15   1.0000      -0.661177       -17.9915
  16   1.0000      -0.585538       -15.9333
  17   1.0000      -0.582538       -15.8517
  18   1.0000      -0.565181       -15.3793
  19   1.0000      -0.561948       -15.2914
  20   1.0000      -0.499634       -13.5957
  21   1.0000      -0.487654       -13.2698
  22   1.0000      -0.471555       -12.8317
  23   1.0000      -0.434314       -11.8183
  24   1.0000      -0.323216        -8.7952
  25   0.0000       0.022619         0.6155
  26   0.0000       0.034613         0.9419
  27   0.0000       0.036904         1.0042
  28   0.0000       0.037726         1.0266
  29   0.0000       0.051906         1.4124

                 SPIN DOWN ORBITALS
  NO   OCC          E(Eh)            E(eV)
   0   1.0000    -104.814488     -2852.1472
   1   1.0000     -68.802729     -1872.2174
   2   1.0000     -11.215211      -305.1814
   3   1.0000     -11.215201      -305.1811
   4   1.0000     -10.541766      -286.8560
   5   1.0000      -8.008539      -217.9234
   6   1.0000      -8.007692      -217.9004
   7   1.0000      -8.006516      -217.8684
   8   1.0000      -6.145571      -167.2295
   9   1.0000      -4.254394      -115.7679
  10   1.0000      -4.253004      -115.7301
  11   1.0000      -4.244888      -115.5093
  12   1.0000      -1.080736       -29.4083
  13   1.0000      -0.963560       -26.2198
  14   1.0000      -0.939946       -25.5772
  15   1.0000      -0.627307       -17.0699
  16   1.0000      -0.580002       -15.7827
  17   1.0000      -0.573167       -15.5967
  18   1.0000      -0.563653       -15.3378
  19   1.0000      -0.555981       -15.1290
  20   1.0000      -0.486974       -13.2512
  21   1.0000      -0.481822       -13.1110
  22   1.0000      -0.457798       -12.4573
  23   1.0000      -0.426794       -11.6137
  24   0.0000       0.017960         0.4887
  25   0.0000       0.034988         0.9521
  26   0.0000       0.036960         1.0057
  27   0.0000       0.037623         1.0238
  28   0.0000       0.051442         1.3998

MULLIKEN ATOMIC CHARGES AND SPIN POPULATIONS
--------------------------------------------
   0 Si:    1.269420    0.893199
   1 C :   -1.037010    0.030693
   2 H :    0.281225   -0.009888
   3 H :    0.235987   -0.004351
   4 C :   -1.037010    0.030693
   5 Cl:   -0.675239    0.030315
   6 H :    0.235987   -0.004351
   7 H :    0.281225   -0.009888
   8 H :    0.222707    0.021790
   9 H :    0.222707    0.021790
Sum of atomic charges         :   -0.0000000

LOEWDIN ATOMIC CHARGES AND SPIN POPULATIONS
-------------------------------------------
   0 Si:   -0.253736    0.527068
   1 C :    0.837721    0.127006
   2 H :   -0.385223    0.015476
   3 H :   -0.373044    0.015136
   4 C :    0.837721    0.127006
   5 Cl:    0.832147    0.120126
   6 H :   -0.373044    0.015136
   7 H :   -0.385223    0.015476
   8 H :   -0.368659    0.018784
   9 H :   -0.368659    0.018784

  Mayer bond orders larger than 0.100000
B(  0-Si,  1-C ) :   0.8596 B(  0-Si,  4-C ) :   0.8596 B(  0-Si,  5-Cl) :   0.5044
B(  1-C ,  2-H ) :   0.9484 B(  1-C ,  3-H ) :   0.9587 B(  1-C ,  9-H ) :   0.9576
B(  4-C ,  6-H ) :   0.9587 B(  4-C ,  7-H ) :   0.9484 B(  4-C ,  8-H ) :   0.9576

MP2 TOTAL ENERGY:     -828.479239559 Eh
FINAL SINGLE POINT ENERGY      -828.479239558989

DIPOLE MOMENT
-------------
                                X             Y             Z
Electronic contribution:      9.27082       0.00000      -1.92544
Nuclear contribution   :    -10.15407       0.00000       1.98783
                        -----------------------------------------
Total Dipole Moment    :     -0.88325       0.00000       0.06239
                        -----------------------------------------
Magnitude (a.u.)       :      0.88545
Magnitude (Debye)      :      2.25063

Rotational constants in cm-1:     0.186264     0.110039     0.075998
Rotational constants in MHz :  5584.044267  3298.900761  2278.362857

                             ****ORCA TERMINATED NORMALLY****
TOTAL RUN TIME: 0 days 0 hours 40 minutes 46 seconds 771 msec
