                         Program Version 5.0.4 -  RELEASE  -
|  1> ! ri-mp2 aug-cc-pvdz aug-cc-pvdz/c tightscf
|  2> %pal nprocs 16 end
|  3> %maxcore 3800
|  4> %base "DZ_B-S_6_AB"
|  5> %scf
|  6> STABPerform true
|  7> STABRestartUHFifUnstable true
|  8> end
|  9>
| 10> *xyz 0 1
| 11> Cl        -2.384051   -0.037138   -0.000011
| 12> S        -0.667983   -1.131947    0.000012
| 13> B         0.685657    0.056767   -0.000001
| 14> S         0.577539    1.838912   -0.000015
| 15> S         2.334435   -0.682072    0.000015
| 16> H         1.957247   -1.969625    0.000018
| 17> H        -0.760512    1.918845   -0.000018
| 18> *
| 19>
| 20> $new_job
| 21> ! ri-mp2 aug-cc-pvtz aug-cc-pvtz/c tightscf
| 22> %pal nprocs 16 end
| 23> %maxcore 3800
| 24> %base "TZ_B-S_6_AB"
| 25>
| 26> *xyz 0 1
| 27> Cl        -2.384051   -0.037138   -0.000011
| 28> S        -0.667983   -1.131947    0.000012
| 29> B         0.685657    0.056767   -0.000001
| 30> S         0.577539    1.838912   -0.000015
| 31> S         2.334435   -0.682072    0.000015
| 32> H         1.957247   -1.969625    0.000018
| 33> H        -0.760512    1.918845   -0.000018
| 34> *
| 35>
| 36> $new_job
| 37> ! ri-mp2 aug-cc-pvqz aug-cc-pvqz/c tightscf
| 38> %pal nprocs 16 end
| 39> %maxcore 3800
| 40> %base "QZ_B-S_6_AB"
| 41>
| 42> *xyz 0 1
| 43> Cl        -2.384051   -0.037138   -0.000011
| 44> S        -0.667983   -1.131947    0.000012
| 45> B         0.685657    0.056767   -0.000001
| 46> S         0.577539    1.838912   -0.000015
| 47> S         2.334435   -0.682072    0.000015
| 48> H         1.957247   -1.969625    0.000018
| 49> H        -0.760512    1.918845   -0.000018
| 50> *
| 51>
| 52>
| 53>
| 54>
| 55>                          ****END OF INPUT****
 Total Charge           Charge          ....    0
 Multiplicity           Mult            ....    1
 Number of Electrons    NEL             ....   72
MP2 TOTAL ENERGY:    -1678.692569047 Eh
FINAL SINGLE POINT ENERGY     -1678.692569046515
MP2 TOTAL ENERGY:    -1678.930745840 Eh
FINAL SINGLE POINT ENERGY     -1678.930745839882

CARTESIAN COORDINATES (ANGSTROEM)
---------------------------------
  Cl    -2.384051   -0.037138   -0.000011
  S     -0.667983   -1.131947    0.000012
  B      0.685657    0.056767   -0.000001
  S      0.577539    1.838912   -0.000015
  S      2.334435   -0.682072    0.000015
  H      1.957247   -1.969625    0.000018
  H     -0.760512    1.918845   -0.000018

 Multiplicity           Mult            ....    1
 Number of Electrons    NEL             ....   72
 Basis Dimension        Dim             ....  508

ORBITAL ENERGIES
----------------

  NO   OCC          E(Eh)            E(eV)
   0   2.0000    -104.870982     -2853.6845
   1   2.0000     -92.021318     -2504.0274
   2   2.0000     -91.974694     -2502.7587
   3   2.0000     -91.971481     -2502.6712
   4   2.0000     -10.595343      -288.3139
   5   2.0000      -9.021511      -245.4878
   6   2.0000      -8.979439      -244.3429
   7   2.0000      -8.976644      -244.2669
   8   2.0000      -8.062333      -219.3872
   9   2.0000      -8.060389      -219.3343
  10   2.0000      -8.060218      -219.3297
  11   2.0000      -7.693896      -209.3615
  12   2.0000      -6.702880      -182.3946
  13   2.0000      -6.701006      -182.3437
  14   2.0000      -6.700408      -182.3274
  15   2.0000      -6.660923      -181.2529
  16   2.0000      -6.660070      -181.2297
  17   2.0000      -6.659414      -181.2119
  18   2.0000      -6.658139      -181.1772
  19   2.0000      -6.657316      -181.1548
  20   2.0000      -6.656756      -181.1395
  21   2.0000      -1.160554       -31.5803
  22   2.0000      -1.036755       -28.2115
  23   2.0000      -0.984286       -26.7838
  24   2.0000      -0.935761       -25.4633
  25   2.0000      -0.672667       -18.3042
  26   2.0000      -0.623048       -16.9540
  27   2.0000      -0.563533       -15.3345
  28   2.0000      -0.546453       -14.8697
  29   2.0000      -0.538107       -14.6426
  30   2.0000      -0.484239       -13.1768
  31   2.0000      -0.479077       -13.0363
  32   2.0000      -0.459664       -12.5081
  33   2.0000      -0.444716       -12.1013
  34   2.0000      -0.387548       -10.5457
  35   2.0000      -0.377773       -10.2797
  36   0.0000       0.027552         0.7497
  37   0.0000       0.030888         0.8405
  38   0.0000       0.039871         1.0849
  39   0.0000       0.040992         1.1155
  40   0.0000       0.055174         1.5014

MULLIKEN ATOMIC CHARGES
-----------------------
   0 Cl:   -0.334421
   1 S :    0.256437
   2 B :   -0.021343
   3 S :   -0.017000
   4 S :   -0.007537
   5 H :    0.038470
   6 H :    0.085394
Sum of atomic charges:   -0.0000000

LOEWDIN ATOMIC CHARGES
----------------------
   0 Cl:    0.550656
   1 S :    0.467807
   2 B :   -2.359113
   3 S :    1.565853
   4 S :    1.530829
   5 H :   -0.828617
   6 H :   -0.927415

  Mayer bond orders larger than 0.100000
B(  0-Cl,  1-S ) :   0.9362 B(  1-S ,  2-B ) :   1.2237 B(  2-B ,  3-S ) :   1.2349
B(  2-B ,  4-S ) :   1.1397 B(  3-S ,  6-H ) :   1.0043 B(  4-S ,  5-H ) :   1.0508

MP2 TOTAL ENERGY:    -1679.009994451 Eh
FINAL SINGLE POINT ENERGY     -1679.009994450574

DIPOLE MOMENT
-------------
                                X             Y             Z
Electronic contribution:     -3.83451      -0.19387      -0.00002
Nuclear contribution   :      3.73087      -0.04134       0.00002
                        -----------------------------------------
Total Dipole Moment    :     -0.10364      -0.23521      -0.00000
                        -----------------------------------------
Magnitude (a.u.)       :      0.25703
Magnitude (Debye)      :      0.65332

Rotational constants in cm-1:     0.098016     0.041040     0.028928
Rotational constants in MHz :  2938.442003  1230.355127   867.235097

                             ****ORCA TERMINATED NORMALLY****
TOTAL RUN TIME: 0 days 0 hours 16 minutes 48 seconds 256 msec
