                         Program Version 5.0.4 -  RELEASE  -
|  1> ! ri-mp2 aug-cc-pvdz aug-cc-pvdz/c tightscf
|  2> %pal nprocs 16 end
|  3> %maxcore 3800
|  4> %base "DZ_Si-Si_111_AB"
|  5> %scf
|  6> STABPerform true
|  7> STABRestartUHFifUnstable true
|  8> end
|  9>
| 10> *xyz 0 1
| 11> Si        -1.853885   -0.360731   -0.000015
| 12> Si         0.134208    0.863490   -0.000007
| 13> H        -1.926783   -1.215037   -1.204999
| 14> H        -3.002087    0.573124   -0.000046
| 15> H        -1.926817   -1.214998    1.204995
| 16> S         1.736446   -0.561883    0.000021
| 17> H         0.210977    1.733105    1.195275
| 18> H         0.210999    1.733085   -1.195302
| 19> H         2.726063    0.342224    0.000034
| 20> *
| 21>
| 22> $new_job
| 23> ! ri-mp2 aug-cc-pvtz aug-cc-pvtz/c tightscf
| 24> %pal nprocs 16 end
| 25> %maxcore 3800
| 26> %base "TZ_Si-Si_111_AB"
| 27>
| 28> *xyz 0 1
| 29> Si        -1.853885   -0.360731   -0.000015
| 30> Si         0.134208    0.863490   -0.000007
| 31> H        -1.926783   -1.215037   -1.204999
| 32> H        -3.002087    0.573124   -0.000046
| 33> H        -1.926817   -1.214998    1.204995
| 34> S         1.736446   -0.561883    0.000021
| 35> H         0.210977    1.733105    1.195275
| 36> H         0.210999    1.733085   -1.195302
| 37> H         2.726063    0.342224    0.000034
| 38> *
| 39>
| 40> $new_job
| 41> ! ri-mp2 aug-cc-pvqz aug-cc-pvqz/c tightscf
| 42> %pal nprocs 16 end
| 43> %maxcore 3800
| 44> %base "QZ_Si-Si_111_AB"
| 45>
| 46> *xyz 0 1
| 47> Si        -1.853885   -0.360731   -0.000015
| 48> Si         0.134208    0.863490   -0.000007
| 49> H        -1.926783   -1.215037   -1.204999
| 50> H        -3.002087    0.573124   -0.000046
| 51> H        -1.926817   -1.214998    1.204995
| 52> S         1.736446   -0.561883    0.000021
| 53> H         0.210977    1.733105    1.195275
| 54> H         0.210999    1.733085   -1.195302
| 55> H         2.726063    0.342224    0.000034
| 56> *
| 57>
| 58>
| 59>
| 60>
| 61>                          ****END OF INPUT****
 Total Charge           Charge          ....    0
 Multiplicity           Mult            ....    1
 Number of Electrons    NEL             ....   50
MP2 TOTAL ENERGY:     -979.271148117 Eh
FINAL SINGLE POINT ENERGY      -979.271148116894
MP2 TOTAL ENERGY:     -979.399708280 Eh
FINAL SINGLE POINT ENERGY      -979.399708280290

CARTESIAN COORDINATES (ANGSTROEM)
---------------------------------
  Si    -1.853885   -0.360731   -0.000015
  Si     0.134208    0.863490   -0.000007
  H     -1.926783   -1.215037   -1.204999
  H     -3.002087    0.573124   -0.000046
  H     -1.926817   -1.214998    1.204995
  S      1.736446   -0.561883    0.000021
  H      0.210977    1.733105    1.195275
  H      0.210999    1.733085   -1.195302
  H      2.726063    0.342224    0.000034

 Multiplicity           Mult            ....    1
 Number of Electrons    NEL             ....   50
 Basis Dimension        Dim             ....  528

ORBITAL ENERGIES
----------------

  NO   OCC          E(Eh)            E(eV)
   0   2.0000     -91.951810     -2502.1359
   1   2.0000     -68.795676     -1872.0255
   2   2.0000     -68.773252     -1871.4153
   3   2.0000      -8.956250      -243.7120
   4   2.0000      -6.637755      -180.6225
   5   2.0000      -6.636981      -180.6014
   6   2.0000      -6.636135      -180.5784
   7   2.0000      -6.143432      -167.1713
   8   2.0000      -6.124251      -166.6493
   9   2.0000      -4.249957      -115.6472
  10   2.0000      -4.249428      -115.6328
  11   2.0000      -4.249205      -115.6267
  12   2.0000      -4.230382      -115.1146
  13   2.0000      -4.230301      -115.1123
  14   2.0000      -4.230262      -115.1113
  15   2.0000      -0.972348       -26.4589
  16   2.0000      -0.753655       -20.5080
  17   2.0000      -0.671731       -18.2787
  18   2.0000      -0.560256       -15.2453
  19   2.0000      -0.513398       -13.9703
  20   2.0000      -0.491732       -13.3807
  21   2.0000      -0.482762       -13.1366
  22   2.0000      -0.448229       -12.1969
  23   2.0000      -0.409475       -11.1424
  24   2.0000      -0.379624       -10.3301
  25   0.0000       0.025665         0.6984
  26   0.0000       0.028989         0.7888
  27   0.0000       0.036963         1.0058
  28   0.0000       0.042091         1.1453
  29   0.0000       0.049204         1.3389

MULLIKEN ATOMIC CHARGES
-----------------------
   0 Si:    0.435932
   1 Si:    0.689648
   2 H :   -0.142584
   3 H :   -0.159137
   4 H :   -0.142584
   5 S :   -0.441048
   6 H :   -0.163904
   7 H :   -0.163904
   8 H :    0.087581
Sum of atomic charges:    0.0000000

LOEWDIN ATOMIC CHARGES
----------------------
   0 Si:    0.961008
   1 Si:    0.169650
   2 H :   -0.319378
   3 H :   -0.321189
   4 H :   -0.319378
   5 S :    1.361352
   6 H :   -0.320253
   7 H :   -0.320253
   8 H :   -0.891560

  Mayer bond orders larger than 0.100000
B(  0-Si,  1-Si) :   0.7225 B(  0-Si,  2-H ) :   0.8037 B(  0-Si,  3-H ) :   0.8041
B(  0-Si,  4-H ) :   0.8037 B(  1-Si,  5-S ) :   0.7458 B(  1-Si,  6-H ) :   0.8083
B(  1-Si,  7-H ) :   0.8083 B(  5-S ,  8-H ) :   1.0174

MP2 TOTAL ENERGY:     -979.441931744 Eh
FINAL SINGLE POINT ENERGY      -979.441931743634

DIPOLE MOMENT
-------------
                                X             Y             Z
Electronic contribution:      3.56867      -1.50308       0.00004
Nuclear contribution   :     -3.64224       1.93058      -0.00004
                        -----------------------------------------
Total Dipole Moment    :     -0.07356       0.42750      -0.00000
                        -----------------------------------------
Magnitude (a.u.)       :      0.43378
Magnitude (Debye)      :      1.10259

Rotational constants in cm-1:     0.338169     0.075379     0.064374
Rotational constants in MHz : 10138.058394  2259.818260  1929.873326

                             ****ORCA TERMINATED NORMALLY****
TOTAL RUN TIME: 0 days 0 hours 13 minutes 34 seconds 265 msec
