                         Program Version 5.0.4 -  RELEASE  -
|  1> ! ri-mp2 aug-cc-pvdz aug-cc-pvdz/c tightscf
|  2> %pal nprocs 16 end
|  3> %maxcore 3800
|  4> %base "DZ_S-Cl_29_AB"
|  5> %scf
|  6> STABPerform true
|  7> STABRestartUHFifUnstable true
|  8> end
|  9>
| 10> *xyz 0 1
| 11> Cl        -1.829424    0.302965   -0.000004
| 12> S        -0.245388   -0.931652    0.000002
| 13> C         1.075116    0.258419    0.000002
| 14> O         0.983713    1.442122   -0.000002
| 15> O         2.219172   -0.440544    0.000005
| 16> H         2.952641    0.192881    0.000006
| 17> *
| 18>
| 19> $new_job
| 20> ! ri-mp2 aug-cc-pvtz aug-cc-pvtz/c tightscf
| 21> %pal nprocs 16 end
| 22> %maxcore 3800
| 23> %base "TZ_S-Cl_29_AB"
| 24>
| 25> *xyz 0 1
| 26> Cl        -1.829424    0.302965   -0.000004
| 27> S        -0.245388   -0.931652    0.000002
| 28> C         1.075116    0.258419    0.000002
| 29> O         0.983713    1.442122   -0.000002
| 30> O         2.219172   -0.440544    0.000005
| 31> H         2.952641    0.192881    0.000006
| 32> *
| 33>
| 34> $new_job
| 35> ! ri-mp2 aug-cc-pvqz aug-cc-pvqz/c tightscf
| 36> %pal nprocs 16 end
| 37> %maxcore 3800
| 38> %base "QZ_S-Cl_29_AB"
| 39>
| 40> *xyz 0 1
| 41> Cl        -1.829424    0.302965   -0.000004
| 42> S        -0.245388   -0.931652    0.000002
| 43> C         1.075116    0.258419    0.000002
| 44> O         0.983713    1.442122   -0.000002
| 45> O         2.219172   -0.440544    0.000005
| 46> H         2.952641    0.192881    0.000006
| 47> *
| 48>
| 49>
| 50>
| 51>
| 52>                          ****END OF INPUT****
 Total Charge           Charge          ....    0
 Multiplicity           Mult            ....    1
 Number of Electrons    NEL             ....   56
MP2 TOTAL ENERGY:    -1046.049783062 Eh
FINAL SINGLE POINT ENERGY     -1046.049783062194
MP2 TOTAL ENERGY:    -1046.323086435 Eh
FINAL SINGLE POINT ENERGY     -1046.323086434546

CARTESIAN COORDINATES (ANGSTROEM)
---------------------------------
  Cl    -1.829424    0.302965   -0.000004
  S     -0.245388   -0.931652    0.000002
  C      1.075116    0.258419    0.000002
  O      0.983713    1.442122   -0.000002
  O      2.219172   -0.440544    0.000005
  H      2.952641    0.192881    0.000006

 Multiplicity           Mult            ....    1
 Number of Electrons    NEL             ....   56
 Basis Dimension        Dim             ....  454

ORBITAL ENERGIES
----------------

  NO   OCC          E(Eh)            E(eV)
   0   2.0000    -104.871592     -2853.7011
   1   2.0000     -92.043162     -2504.6218
   2   2.0000     -20.643992      -561.7516
   3   2.0000     -20.579559      -559.9983
   4   2.0000     -11.435429      -311.1738
   5   2.0000     -10.595811      -288.3267
   6   2.0000      -9.041644      -246.0356
   7   2.0000      -8.062865      -219.4017
   8   2.0000      -8.060743      -219.3440
   9   2.0000      -8.060556      -219.3389
  10   2.0000      -6.722755      -182.9355
  11   2.0000      -6.721343      -182.8970
  12   2.0000      -6.720169      -182.8651
  13   2.0000      -1.503712       -40.9181
  14   2.0000      -1.404415       -38.2161
  15   2.0000      -1.171314       -31.8731
  16   2.0000      -1.002653       -27.2836
  17   2.0000      -0.841272       -22.8922
  18   2.0000      -0.736254       -20.0345
  19   2.0000      -0.705130       -19.1876
  20   2.0000      -0.673472       -18.3261
  21   2.0000      -0.615798       -16.7567
  22   2.0000      -0.558587       -15.1999
  23   2.0000      -0.541813       -14.7435
  24   2.0000      -0.515183       -14.0189
  25   2.0000      -0.493382       -13.4256
  26   2.0000      -0.457412       -12.4468
  27   2.0000      -0.393464       -10.7067
  28   0.0000       0.022015         0.5991
  29   0.0000       0.045945         1.2502
  30   0.0000       0.048880         1.3301
  31   0.0000       0.072014         1.9596
  32   0.0000       0.080355         2.1866

MULLIKEN ATOMIC CHARGES
-----------------------
   0 Cl:   -0.221700
   1 S :    0.400584
   2 C :    0.634653
   3 O :   -0.582501
   4 O :   -0.570744
   5 H :    0.339709
Sum of atomic charges:    0.0000000

LOEWDIN ATOMIC CHARGES
----------------------
   0 Cl:    0.490658
   1 S :    0.335628
   2 C :   -1.679657
   3 O :    0.559473
   4 O :    1.112450
   5 H :   -0.818552

  Mayer bond orders larger than 0.100000
B(  0-Cl,  1-S ) :   1.0278 B(  1-S ,  2-C ) :   1.0081 B(  2-C ,  3-O ) :   1.7187
B(  2-C ,  4-O ) :   1.0176 B(  4-O ,  5-H ) :   0.8731

MP2 TOTAL ENERGY:    -1046.414867231 Eh
FINAL SINGLE POINT ENERGY     -1046.414867230807

DIPOLE MOMENT
-------------
                                X             Y             Z
Electronic contribution:     -4.61260      -0.27645      -0.00001
Nuclear contribution   :      5.25999      -0.18320       0.00001
                        -----------------------------------------
Total Dipole Moment    :      0.64739      -0.45965       0.00000
                        -----------------------------------------
Magnitude (a.u.)       :      0.79397
Magnitude (Debye)      :      2.01812

Rotational constants in cm-1:     0.246859     0.071051     0.055172
Rotational constants in MHz :  7400.657417  2130.058848  1654.003264

                             ****ORCA TERMINATED NORMALLY****
TOTAL RUN TIME: 0 days 0 hours 9 minutes 40 seconds 709 msec
