                         Program Version 5.0.4 -  RELEASE  -
|  1> ! ri-mp2 aug-cc-pvdz aug-cc-pvdz/c tightscf
|  2> %pal nprocs 16 end
|  3> %maxcore 3800
|  4> %base "DZ_B-S_38_AB"
|  5> %scf
|  6> STABPerform true
|  7> STABRestartUHFifUnstable true
|  8> end
|  9>
| 10> *xyz 0 1
| 11> C        -2.589182   -0.511793   -0.135066
| 12> C        -1.258620    0.213256   -0.118956
| 13> S         0.123621   -0.929139   -0.222132
| 14> O        -1.167788    1.404321   -0.018336
| 15> B         1.697482   -0.025608   -0.024330
| 16> S         1.953231    1.724530    0.207718
| 17> C        -3.614276    0.274061   -0.939848
| 18> H        -3.759856    1.264141   -0.510907
| 19> H        -4.569716   -0.250174   -0.935294
| 20> H        -3.298280    0.397822   -1.975513
| 21> C        -3.035972   -0.715066    1.314660
| 22> H        -2.433171   -1.491258   -0.591169
| 23> H        -3.184236    0.247927    1.803704
| 24> H        -2.301848   -1.282839    1.885863
| 25> H        -3.979315   -1.259952    1.336587
| 26> S         3.181750   -1.053132   -0.072574
| 27> H         2.576850   -2.238243   -0.232922
| 28> H         0.655141    2.067176    0.155069
| 29> *
| 30>
| 31> $new_job
| 32> ! ri-mp2 aug-cc-pvtz aug-cc-pvtz/c tightscf
| 33> %pal nprocs 16 end
| 34> %maxcore 3800
| 35> %base "TZ_B-S_38_AB"
| 36>
| 37> *xyz 0 1
| 38> C        -2.589182   -0.511793   -0.135066
| 39> C        -1.258620    0.213256   -0.118956
| 40> S         0.123621   -0.929139   -0.222132
| 41> O        -1.167788    1.404321   -0.018336
| 42> B         1.697482   -0.025608   -0.024330
| 43> S         1.953231    1.724530    0.207718
| 44> C        -3.614276    0.274061   -0.939848
| 45> H        -3.759856    1.264141   -0.510907
| 46> H        -4.569716   -0.250174   -0.935294
| 47> H        -3.298280    0.397822   -1.975513
| 48> C        -3.035972   -0.715066    1.314660
| 49> H        -2.433171   -1.491258   -0.591169
| 50> H        -3.184236    0.247927    1.803704
| 51> H        -2.301848   -1.282839    1.885863
| 52> H        -3.979315   -1.259952    1.336587
| 53> S         3.181750   -1.053132   -0.072574
| 54> H         2.576850   -2.238243   -0.232922
| 55> H         0.655141    2.067176    0.155069
| 56> *
| 57>
| 58> $new_job
| 59> ! ri-mp2 aug-cc-pvqz aug-cc-pvqz/c tightscf
| 60> %pal nprocs 16 end
| 61> %maxcore 3800
| 62> %base "QZ_B-S_38_AB"
| 63>
| 64> *xyz 0 1
| 65> C        -2.589182   -0.511793   -0.135066
| 66> C        -1.258620    0.213256   -0.118956
| 67> S         0.123621   -0.929139   -0.222132
| 68> O        -1.167788    1.404321   -0.018336
| 69> B         1.697482   -0.025608   -0.024330
| 70> S         1.953231    1.724530    0.207718
| 71> C        -3.614276    0.274061   -0.939848
| 72> H        -3.759856    1.264141   -0.510907
| 73> H        -4.569716   -0.250174   -0.935294
| 74> H        -3.298280    0.397822   -1.975513
| 75> C        -3.035972   -0.715066    1.314660
| 76> H        -2.433171   -1.491258   -0.591169
| 77> H        -3.184236    0.247927    1.803704
| 78> H        -2.301848   -1.282839    1.885863
| 79> H        -3.979315   -1.259952    1.336587
| 80> S         3.181750   -1.053132   -0.072574
| 81> H         2.576850   -2.238243   -0.232922
| 82> H         0.655141    2.067176    0.155069
| 83> *
| 84>
| 85>
| 86>
| 87>
| 88>                          ****END OF INPUT****
 Total Charge           Charge          ....    0
 Multiplicity           Mult            ....    1
 Number of Electrons    NEL             ....   94
MP2 TOTAL ENERGY:    -1450.280377855 Eh
FINAL SINGLE POINT ENERGY     -1450.280377854861
MP2 TOTAL ENERGY:    -1450.659709788 Eh
FINAL SINGLE POINT ENERGY     -1450.659709788293

CARTESIAN COORDINATES (ANGSTROEM)
---------------------------------
  C     -2.589182   -0.511793   -0.135066
  C     -1.258620    0.213256   -0.118956
  S      0.123621   -0.929139   -0.222132
  O     -1.167788    1.404321   -0.018336
  B      1.697482   -0.025608   -0.024330
  S      1.953231    1.724530    0.207718
  C     -3.614276    0.274061   -0.939848
  H     -3.759856    1.264141   -0.510907
  H     -4.569716   -0.250174   -0.935294
  H     -3.298280    0.397822   -1.975513
  C     -3.035972   -0.715066    1.314660
  H     -2.433171   -1.491258   -0.591169
  H     -3.184236    0.247927    1.803704
  H     -2.301848   -1.282839    1.885863
  H     -3.979315   -1.259952    1.336587
  S      3.181750   -1.053132   -0.072574
  H      2.576850   -2.238243   -0.232922
  H      0.655141    2.067176    0.155069

 Multiplicity           Mult            ....    1
 Number of Electrons    NEL             ....   94
 Basis Dimension        Dim             .... 1146

ORBITAL ENERGIES
----------------

  NO   OCC          E(Eh)            E(eV)
   0   2.0000     -91.975265     -2502.7742
   1   2.0000     -91.961890     -2502.4103
   2   2.0000     -91.950237     -2502.0931
   3   2.0000     -20.576085      -559.9037
   4   2.0000     -11.378866      -309.6347
   5   2.0000     -11.261261      -306.4345
   6   2.0000     -11.237394      -305.7850
   7   2.0000     -11.230203      -305.5894
   8   2.0000      -8.980637      -244.3756
   9   2.0000      -8.966855      -244.0005
  10   2.0000      -8.955942      -243.7036
  11   2.0000      -7.683917      -209.0900
  12   2.0000      -6.662158      -181.2865
  13   2.0000      -6.660930      -181.2531
  14   2.0000      -6.660693      -181.2467
  15   2.0000      -6.648376      -180.9115
  16   2.0000      -6.647446      -180.8862
  17   2.0000      -6.646896      -180.8712
  18   2.0000      -6.637436      -180.6138
  19   2.0000      -6.636690      -180.5935
  20   2.0000      -6.636211      -180.5805
  21   2.0000      -1.431701       -38.9586
  22   2.0000      -1.113786       -30.3077
  23   2.0000      -1.045652       -28.4536
  24   2.0000      -0.995130       -27.0789
  25   2.0000      -0.967304       -26.3217
  26   2.0000      -0.954446       -25.9718
  27   2.0000      -0.873849       -23.7786
  28   2.0000      -0.751646       -20.4533
  29   2.0000      -0.700975       -19.0745
  30   2.0000      -0.674618       -18.3573
  31   2.0000      -0.639826       -17.4105
  32   2.0000      -0.621991       -16.9252
  33   2.0000      -0.604295       -16.4437
  34   2.0000      -0.577896       -15.7254
  35   2.0000      -0.561367       -15.2756
  36   2.0000      -0.545444       -14.8423
  37   2.0000      -0.530589       -14.4381
  38   2.0000      -0.525909       -14.3107
  39   2.0000      -0.505969       -13.7681
  40   2.0000      -0.500508       -13.6195
  41   2.0000      -0.481844       -13.1116
  42   2.0000      -0.457767       -12.4565
  43   2.0000      -0.438082       -11.9208
  44   2.0000      -0.409932       -11.1548
  45   2.0000      -0.386739       -10.5237
  46   2.0000      -0.369345       -10.0504
  47   0.0000       0.020416         0.5555
  48   0.0000       0.029187         0.7942
  49   0.0000       0.030328         0.8253
  50   0.0000       0.034035         0.9261
  51   0.0000       0.043609         1.1867

MULLIKEN ATOMIC CHARGES
-----------------------
   0 C :    0.270037
   1 C :    0.575581
   2 S :    0.055059
   3 O :   -0.875407
   4 B :    0.031512
   5 S :    0.033133
   6 C :   -0.954079
   7 H :    0.229425
   8 H :    0.302328
   9 H :    0.245547
  10 C :   -0.956735
  11 H :    0.315509
  12 H :    0.229958
  13 H :    0.295483
  14 H :    0.331344
  15 S :   -0.070574
  16 H :    0.027701
  17 H :   -0.085823
Sum of atomic charges:   -0.0000000

LOEWDIN ATOMIC CHARGES
----------------------
   0 C :   -0.058955
   1 C :   -1.044737
   2 S :    1.352447
   3 O :    0.744633
   4 B :   -2.143332
   5 S :    1.625535
   6 C :    0.902382
   7 H :   -0.291693
   8 H :   -0.274544
   9 H :   -0.269508
  10 C :    0.905865
  11 H :   -0.347444
  12 H :   -0.276233
  13 H :   -0.279056
  14 H :   -0.271637
  15 S :    1.543852
  16 H :   -0.829776
  17 H :   -0.987798

  Mayer bond orders larger than 0.100000
B(  0-C ,  1-C ) :   0.7832 B(  0-C ,  2-S ) :  -0.1202 B(  0-C ,  6-C ) :   0.7427
B(  0-C , 10-C ) :   0.7730 B(  0-C , 11-H ) :   0.8471 B(  1-C ,  2-S ) :   0.9745
B(  1-C ,  3-O ) :   1.1885 B(  2-S ,  4-B ) :   1.2009 B(  3-O , 17-H ) :   0.1350
B(  4-B ,  5-S ) :   1.1565 B(  4-B , 15-S ) :   1.1600 B(  4-B , 17-H ) :  -0.1016
B(  5-S , 17-H ) :   1.0558 B(  6-C ,  7-H ) :   0.9587 B(  6-C ,  8-H ) :   0.9812
B(  6-C ,  9-H ) :   1.0082 B(  6-C , 10-C ) :   0.1077 B( 10-C , 12-H ) :   0.9578
B( 10-C , 13-H ) :   0.9573 B( 10-C , 14-H ) :   0.9214 B( 15-S , 16-H ) :   1.0502

MP2 TOTAL ENERGY:    -1450.782726996 Eh
FINAL SINGLE POINT ENERGY     -1450.782726996074

DIPOLE MOMENT
-------------
                                X             Y             Z
Electronic contribution:     20.18500       1.56742      -0.98055
Nuclear contribution   :    -21.41044      -2.44528       0.93846
                        -----------------------------------------
Total Dipole Moment    :     -1.22544      -0.87786      -0.04209
                        -----------------------------------------
Magnitude (a.u.)       :      1.50802
Magnitude (Debye)      :      3.83307

Rotational constants in cm-1:     0.063218     0.016778     0.014366
Rotational constants in MHz :  1895.214748   502.981935   430.694607

                             ****ORCA TERMINATED NORMALLY****
TOTAL RUN TIME: 0 days 3 hours 14 minutes 50 seconds 373 msec
