                         Program Version 5.0.4 -  RELEASE  -
|  1> ! ri-mp2 aug-cc-pvdz aug-cc-pvdz/c tightscf
|  2> %pal nprocs 16 end
|  3> %maxcore 3800
|  4> %base "DZ_P-C_45_AB"
|  5> %scf
|  6> STABPerform true
|  7> STABRestartUHFifUnstable true
|  8> end
|  9>
| 10> *xyz 0 1
| 11> C         0.807924   -0.498265    0.206872
| 12> P        -0.842614    0.081342   -0.053348
| 13> O        -0.968199    1.419951   -0.630623
| 14> O        -1.599070   -0.058025    1.353487
| 15> C         1.844982    0.261336   -0.116046
| 16> H         0.940550   -1.481689    0.644289
| 17> C         3.273150   -0.113943    0.068391
| 18> H         1.645149    1.235387   -0.552976
| 19> H         3.379665   -1.103049    0.511276
| 20> H         3.778777    0.612474    0.708176
| 21> H         3.795338   -0.102177   -0.890652
| 22> H        -1.731217    0.804640    1.762619
| 23> O        -1.475222   -1.125700   -0.871436
| 24> H        -2.385455   -0.970290   -1.149249
| 25> *
| 26>
| 27> $new_job
| 28> ! ri-mp2 aug-cc-pvtz aug-cc-pvtz/c tightscf
| 29> %pal nprocs 16 end
| 30> %maxcore 3800
| 31> %base "TZ_P-C_45_AB"
| 32>
| 33> *xyz 0 1
| 34> C         0.807924   -0.498265    0.206872
| 35> P        -0.842614    0.081342   -0.053348
| 36> O        -0.968199    1.419951   -0.630623
| 37> O        -1.599070   -0.058025    1.353487
| 38> C         1.844982    0.261336   -0.116046
| 39> H         0.940550   -1.481689    0.644289
| 40> C         3.273150   -0.113943    0.068391
| 41> H         1.645149    1.235387   -0.552976
| 42> H         3.379665   -1.103049    0.511276
| 43> H         3.778777    0.612474    0.708176
| 44> H         3.795338   -0.102177   -0.890652
| 45> H        -1.731217    0.804640    1.762619
| 46> O        -1.475222   -1.125700   -0.871436
| 47> H        -2.385455   -0.970290   -1.149249
| 48> *
| 49>
| 50> $new_job
| 51> ! ri-mp2 aug-cc-pvqz aug-cc-pvqz/c tightscf
| 52> %pal nprocs 16 end
| 53> %maxcore 3800
| 54> %base "QZ_P-C_45_AB"
| 55>
| 56> *xyz 0 1
| 57> C         0.807924   -0.498265    0.206872
| 58> P        -0.842614    0.081342   -0.053348
| 59> O        -0.968199    1.419951   -0.630623
| 60> O        -1.599070   -0.058025    1.353487
| 61> C         1.844982    0.261336   -0.116046
| 62> H         0.940550   -1.481689    0.644289
| 63> C         3.273150   -0.113943    0.068391
| 64> H         1.645149    1.235387   -0.552976
| 65> H         3.379665   -1.103049    0.511276
| 66> H         3.778777    0.612474    0.708176
| 67> H         3.795338   -0.102177   -0.890652
| 68> H        -1.731217    0.804640    1.762619
| 69> O        -1.475222   -1.125700   -0.871436
| 70> H        -2.385455   -0.970290   -1.149249
| 71> *
| 72>
| 73>
| 74>
| 75>
| 76>                          ****END OF INPUT****
 Total Charge           Charge          ....    0
 Multiplicity           Mult            ....    1
 Number of Electrons    NEL             ....   64
MP2 TOTAL ENERGY:     -684.263681846 Eh
FINAL SINGLE POINT ENERGY      -684.263681845581
MP2 TOTAL ENERGY:     -684.642421537 Eh
FINAL SINGLE POINT ENERGY      -684.642421536709

CARTESIAN COORDINATES (ANGSTROEM)
---------------------------------
  C      0.807924   -0.498265    0.206872
  P     -0.842614    0.081342   -0.053348
  O     -0.968199    1.419951   -0.630623
  O     -1.599070   -0.058025    1.353487
  C      1.844982    0.261336   -0.116046
  H      0.940550   -1.481689    0.644289
  C      3.273150   -0.113943    0.068391
  H      1.645149    1.235387   -0.552976
  H      3.379665   -1.103049    0.511276
  H      3.778777    0.612474    0.708176
  H      3.795338   -0.102177   -0.890652
  H     -1.731217    0.804640    1.762619
  O     -1.475222   -1.125700   -0.871436
  H     -2.385455   -0.970290   -1.149249

 Multiplicity           Mult            ....    1
 Number of Electrons    NEL             ....   64
 Basis Dimension        Dim             ....  886

ORBITAL ENERGIES
----------------

  NO   OCC          E(Eh)            E(eV)
   0   2.0000     -80.061905     -2178.5952
   1   2.0000     -20.594029      -560.3920
   2   2.0000     -20.590840      -560.3052
   3   2.0000     -20.497771      -557.7727
   4   2.0000     -11.263739      -306.5019
   5   2.0000     -11.236686      -305.7658
   6   2.0000     -11.231672      -305.6293
   7   2.0000      -7.584423      -206.3826
   8   2.0000      -5.482791      -149.1943
   9   2.0000      -5.482139      -149.1766
  10   2.0000      -5.481229      -149.1518
  11   2.0000      -1.431352       -38.9491
  12   2.0000      -1.377621       -37.4870
  13   2.0000      -1.292487       -35.1704
  14   2.0000      -1.096524       -29.8379
  15   2.0000      -0.969312       -26.3763
  16   2.0000      -0.855737       -23.2858
  17   2.0000      -0.767082       -20.8734
  18   2.0000      -0.742871       -20.2145
  19   2.0000      -0.682301       -18.5664
  20   2.0000      -0.661682       -18.0053
  21   2.0000      -0.623043       -16.9539
  22   2.0000      -0.611290       -16.6341
  23   2.0000      -0.586121       -15.9492
  24   2.0000      -0.584252       -15.8983
  25   2.0000      -0.556874       -15.1533
  26   2.0000      -0.550299       -14.9744
  27   2.0000      -0.530660       -14.4400
  28   2.0000      -0.498492       -13.5647
  29   2.0000      -0.462456       -12.5841
  30   2.0000      -0.453085       -12.3291
  31   2.0000      -0.390011       -10.6127
  32   0.0000       0.022705         0.6178
  33   0.0000       0.029944         0.8148
  34   0.0000       0.035227         0.9586
  35   0.0000       0.036823         1.0020
  36   0.0000       0.045532         1.2390

MULLIKEN ATOMIC CHARGES
-----------------------
   0 C :   -1.009866
   1 P :    2.682561
   2 O :   -1.203046
   3 O :   -0.927530
   4 C :   -0.253166
   5 H :    0.405817
   6 C :   -0.681459
   7 H :    0.440372
   8 H :    0.226361
   9 H :    0.253011
  10 H :    0.251266
  11 H :    0.395728
  12 O :   -0.959673
  13 H :    0.379624
Sum of atomic charges:   -0.0000000

LOEWDIN ATOMIC CHARGES
----------------------
   0 C :    0.306531
   1 P :   -0.679724
   2 O :    0.316230
   3 O :    1.092651
   4 C :    0.308684
   5 H :   -0.380719
   6 C :    0.907040
   7 H :   -0.349795
   8 H :   -0.310744
   9 H :   -0.290242
  10 H :   -0.289885
  11 H :   -0.875105
  12 O :    1.092584
  13 H :   -0.847507

  Mayer bond orders larger than 0.100000
B(  0-C ,  1-P ) :   0.9383 B(  0-C ,  2-O ) :  -0.1066 B(  0-C ,  4-C ) :   1.3937
B(  0-C ,  5-H ) :   0.8568 B(  0-C ,  6-C ) :  -0.1173 B(  1-P ,  2-O ) :   1.3203
B(  1-P ,  3-O ) :   0.5898 B(  1-P , 12-O ) :   0.5014 B(  3-O , 11-H ) :   0.8989
B(  4-C ,  6-C ) :   0.8116 B(  4-C ,  7-H ) :   0.7259 B(  6-C ,  8-H ) :   0.9729
B(  6-C ,  9-H ) :   0.9812 B(  6-C , 10-H ) :   0.9877 B( 12-O , 13-H ) :   0.9282

MP2 TOTAL ENERGY:     -684.764241481 Eh
FINAL SINGLE POINT ENERGY      -684.764241481309

DIPOLE MOMENT
-------------
                                X             Y             Z
Electronic contribution:     -9.50166       0.59265      -0.53352
Nuclear contribution   :     10.00644      -1.06198       1.06543
                        -----------------------------------------
Total Dipole Moment    :      0.50478      -0.46933       0.53191
                        -----------------------------------------
Magnitude (a.u.)       :      0.87063
Magnitude (Debye)      :      2.21297

Rotational constants in cm-1:     0.141546     0.042420     0.041533
Rotational constants in MHz :  4243.428370  1271.728812  1245.133275

                             ****ORCA TERMINATED NORMALLY****
TOTAL RUN TIME: 0 days 1 hours 22 minutes 24 seconds 510 msec
