                         Program Version 5.0.4 -  RELEASE  -
|  1> ! ri-mp2 aug-cc-pvdz aug-cc-pvdz/c tightscf
|  2> %pal nprocs 16 end
|  3> %maxcore 3800
|  4> %base "DZ_P-C_60_AB"
|  5>
|  6> *xyz 0 1
|  7> C         0.882133    2.340603   -0.007961
|  8> C        -0.398114    1.810206   -0.013472
|  9> C         1.979528    1.502187   -0.000596
| 10> C         1.769263    0.135517    0.002165
| 11> C         0.508206   -0.417951   -0.003229
| 12> C        -0.587535    0.434255   -0.012153
| 13> H         0.395788   -1.491699    0.000084
| 14> H         1.024166    3.412117   -0.010193
| 15> H        -1.265168    2.456809   -0.019465
| 16> P        -2.260590   -0.199246   -0.010075
| 17> O        -3.292492    0.831038    0.070692
| 18> O        -2.338297   -1.276132    1.167073
| 19> H         2.989028    1.883628    0.003554
| 20> N         2.936318   -0.761841    0.012361
| 21> O         4.035127   -0.250915    0.011296
| 22> O         2.726648   -1.954755    0.021826
| 23> H        -2.800715   -0.932903    1.940498
| 24> O        -2.235761   -1.131548   -1.291047
| 25> H        -3.071152   -1.576775   -1.477129
| 26> *
| 27>
| 28> $new_job
| 29> ! ri-mp2 aug-cc-pvtz aug-cc-pvtz/c tightscf
| 30> %pal nprocs 16 end
| 31> %maxcore 3800
| 32> %base "TZ_P-C_60_AB"
| 33>
| 34> *xyz 0 1
| 35> C         0.882133    2.340603   -0.007961
| 36> C        -0.398114    1.810206   -0.013472
| 37> C         1.979528    1.502187   -0.000596
| 38> C         1.769263    0.135517    0.002165
| 39> C         0.508206   -0.417951   -0.003229
| 40> C        -0.587535    0.434255   -0.012153
| 41> H         0.395788   -1.491699    0.000084
| 42> H         1.024166    3.412117   -0.010193
| 43> H        -1.265168    2.456809   -0.019465
| 44> P        -2.260590   -0.199246   -0.010075
| 45> O        -3.292492    0.831038    0.070692
| 46> O        -2.338297   -1.276132    1.167073
| 47> H         2.989028    1.883628    0.003554
| 48> N         2.936318   -0.761841    0.012361
| 49> O         4.035127   -0.250915    0.011296
| 50> O         2.726648   -1.954755    0.021826
| 51> H        -2.800715   -0.932903    1.940498
| 52> O        -2.235761   -1.131548   -1.291047
| 53> H        -3.071152   -1.576775   -1.477129
| 54> *
| 55>
| 56> $new_job
| 57> ! ri-mp2 aug-cc-pvqz aug-cc-pvqz/c tightscf
| 58> %pal nprocs 16 end
| 59> %maxcore 3800
| 60> %base "QZ_P-C_60_AB"
| 61>
| 62> *xyz 0 1
| 63> C         0.882133    2.340603   -0.007961
| 64> C        -0.398114    1.810206   -0.013472
| 65> C         1.979528    1.502187   -0.000596
| 66> C         1.769263    0.135517    0.002165
| 67> C         0.508206   -0.417951   -0.003229
| 68> C        -0.587535    0.434255   -0.012153
| 69> H         0.395788   -1.491699    0.000084
| 70> H         1.024166    3.412117   -0.010193
| 71> H        -1.265168    2.456809   -0.019465
| 72> P        -2.260590   -0.199246   -0.010075
| 73> O        -3.292492    0.831038    0.070692
| 74> O        -2.338297   -1.276132    1.167073
| 75> H         2.989028    1.883628    0.003554
| 76> N         2.936318   -0.761841    0.012361
| 77> O         4.035127   -0.250915    0.011296
| 78> O         2.726648   -1.954755    0.021826
| 79> H        -2.800715   -0.932903    1.940498
| 80> O        -2.235761   -1.131548   -1.291047
| 81> H        -3.071152   -1.576775   -1.477129
| 82> *
| 83>
| 84>
| 85>
| 86>
| 87>                          ****END OF INPUT****
 Total Charge           Charge          ....    0
 Multiplicity           Mult            ....    1
 Number of Electrons    NEL             ....  104
MP2 TOTAL ENERGY:    -1002.356267274 Eh
FINAL SINGLE POINT ENERGY     -1002.356267274173
MP2 TOTAL ENERGY:    -1002.985559050 Eh
FINAL SINGLE POINT ENERGY     -1002.985559050025

CARTESIAN COORDINATES (ANGSTROEM)
---------------------------------
  C      0.882133    2.340603   -0.007961
  C     -0.398114    1.810206   -0.013472
  C      1.979528    1.502187   -0.000596
  C      1.769263    0.135517    0.002165
  C      0.508206   -0.417951   -0.003229
  C     -0.587535    0.434255   -0.012153
  H      0.395788   -1.491699    0.000084
  H      1.024166    3.412117   -0.010193
  H     -1.265168    2.456809   -0.019465
  P     -2.260590   -0.199246   -0.010075
  O     -3.292492    0.831038    0.070692
  O     -2.338297   -1.276132    1.167073
  H      2.989028    1.883628    0.003554
  N      2.936318   -0.761841    0.012361
  O      4.035127   -0.250915    0.011296
  O      2.726648   -1.954755    0.021826
  H     -2.800715   -0.932903    1.940498
  O     -2.235761   -1.131548   -1.291047
  H     -3.071152   -1.576775   -1.477129

 Multiplicity           Mult            ....    1
 Number of Electrons    NEL             ....  104
 Basis Dimension        Dim             .... 1320

ORBITAL ENERGIES
----------------

  NO   OCC          E(Eh)            E(eV)
   0   2.0000     -80.085496     -2179.2371
   1   2.0000     -20.614506      -560.9492
   2   2.0000     -20.612269      -560.8883
   3   2.0000     -20.605879      -560.7145
   4   2.0000     -20.605814      -560.7127
   5   2.0000     -20.519167      -558.3549
   6   2.0000     -15.859530      -431.5597
   7   2.0000     -11.316752      -307.9445
   8   2.0000     -11.289789      -307.2108
   9   2.0000     -11.285967      -307.1068
  10   2.0000     -11.282976      -307.0254
  11   2.0000     -11.271685      -306.7181
  12   2.0000     -11.269728      -306.6649
  13   2.0000      -7.608019      -207.0247
  14   2.0000      -5.506409      -149.8370
  15   2.0000      -5.505798      -149.8204
  16   2.0000      -5.504901      -149.7960
  17   2.0000      -1.624733       -44.2112
  18   2.0000      -1.453888       -39.5623
  19   2.0000      -1.415168       -38.5087
  20   2.0000      -1.399199       -38.0741
  21   2.0000      -1.315102       -35.7858
  22   2.0000      -1.217448       -33.1284
  23   2.0000      -1.107638       -30.1404
  24   2.0000      -1.072590       -29.1867
  25   2.0000      -0.972136       -26.4532
  26   2.0000      -0.908345       -24.7173
  27   2.0000      -0.863284       -23.4911
  28   2.0000      -0.828523       -22.5452
  29   2.0000      -0.789021       -21.4704
  30   2.0000      -0.766669       -20.8621
  31   2.0000      -0.740533       -20.1509
  32   2.0000      -0.734869       -19.9968
  33   2.0000      -0.721014       -19.6198
  34   2.0000      -0.695077       -18.9140
  35   2.0000      -0.675452       -18.3800
  36   2.0000      -0.670323       -18.2404
  37   2.0000      -0.647976       -17.6323
  38   2.0000      -0.632605       -17.2141
  39   2.0000      -0.596161       -16.2224
  40   2.0000      -0.581501       -15.8235
  41   2.0000      -0.570498       -15.5240
  42   2.0000      -0.558565       -15.1993
  43   2.0000      -0.551611       -15.0101
  44   2.0000      -0.524806       -14.2807
  45   2.0000      -0.504696       -13.7335
  46   2.0000      -0.502984       -13.6869
  47   2.0000      -0.482473       -13.1288
  48   2.0000      -0.474438       -12.9101
  49   2.0000      -0.464348       -12.6355
  50   2.0000      -0.393088       -10.6965
  51   2.0000      -0.384659       -10.4671
  52   0.0000       0.018477         0.5028
  53   0.0000       0.023513         0.6398
  54   0.0000       0.030447         0.8285
  55   0.0000       0.034233         0.9315
  56   0.0000       0.035507         0.9662

MULLIKEN ATOMIC CHARGES
-----------------------
   0 C :   -0.218466
   1 C :   -0.357494
   2 C :   -0.184483
   3 C :   -0.054286
   4 C :   -0.349100
   5 C :   -0.119759
   6 H :    0.412190
   7 H :    0.168935
   8 H :    0.330623
   9 P :    2.838268
  10 O :   -1.314128
  11 O :   -0.950616
  12 H :    0.434584
  13 N :    0.776736
  14 O :   -0.617070
  15 O :   -0.610795
  16 H :    0.393174
  17 O :   -0.976650
  18 H :    0.398339
Sum of atomic charges:   -0.0000000

LOEWDIN ATOMIC CHARGES
----------------------
   0 C :    0.382270
   1 C :    0.300282
   2 C :    0.329631
   3 C :   -0.290473
   4 C :    0.264248
   5 C :   -0.128770
   6 H :   -0.351731
   7 H :   -0.312151
   8 H :   -0.337466
   9 P :   -0.650618
  10 O :    0.331809
  11 O :    1.110754
  12 H :   -0.344092
  13 N :   -0.842958
  14 O :    0.555618
  15 O :    0.558844
  16 H :   -0.856224
  17 O :    1.111623
  18 H :   -0.830597

  Mayer bond orders larger than 0.100000
B(  0-C ,  1-C ) :   1.2956 B(  0-C ,  2-C ) :   1.2311 B(  0-C ,  3-C ) :  -0.2779
B(  0-C ,  4-C ) :   0.1197 B(  0-C ,  5-C ) :  -0.4431 B(  0-C ,  7-H ) :   1.2577
B(  1-C ,  2-C ) :   0.1489 B(  1-C ,  4-C ) :   0.1073 B(  1-C ,  5-C ) :   0.7464
B(  1-C ,  7-H ) :  -0.1363 B(  1-C ,  8-H ) :   0.8967 B(  1-C ,  9-P ) :  -0.1077
B(  2-C ,  3-C ) :   1.1624 B(  2-C ,  4-C ) :   0.1679 B(  2-C ,  5-C ) :  -0.1759
B(  2-C ,  7-H ) :  -0.1618 B(  2-C , 12-H ) :   0.7646 B(  3-C ,  4-C ) :   1.3675
B(  3-C ,  5-C ) :  -0.4497 B(  3-C , 12-H ) :  -0.1038 B(  3-C , 13-N ) :   0.8256
B(  3-C , 14-O ) :   0.3135 B(  3-C , 15-O ) :   0.3099 B(  4-C ,  5-C ) :   0.9193
B(  4-C ,  6-H ) :   0.8035 B(  4-C , 13-N ) :  -0.1489 B(  4-C , 15-O ) :  -0.1055
B(  5-C ,  6-H ) :  -0.1317 B(  5-C ,  8-H ) :  -0.1440 B(  5-C ,  9-P ) :   0.9689
B(  5-C , 10-O ) :  -0.1748 B(  9-P , 10-O ) :   1.1802 B(  9-P , 11-O ) :   0.5506
B(  9-P , 17-O ) :   0.4692 B( 11-O , 16-H ) :   0.9023 B( 13-N , 14-O ) :   1.1452
B( 13-N , 15-O ) :   1.1633 B( 17-O , 18-H ) :   0.9161

MP2 TOTAL ENERGY:    -1003.192917260 Eh
FINAL SINGLE POINT ENERGY     -1003.192917259967

DIPOLE MOMENT
-------------
                                X             Y             Z
Electronic contribution:     -0.33839      -3.17140      -0.16692
Nuclear contribution   :     -0.55330       3.72851       0.42961
                        -----------------------------------------
Total Dipole Moment    :     -0.89169       0.55711       0.26269
                        -----------------------------------------
Magnitude (a.u.)       :      1.08374
Magnitude (Debye)      :      2.75464

Rotational constants in cm-1:     0.048545     0.014208     0.011833
Rotational constants in MHz :  1455.345268   425.931518   354.731468

                             ****ORCA TERMINATED NORMALLY****
TOTAL RUN TIME: 0 days 1 hours 5 minutes 25 seconds 365 msec
