                         Program Version 5.0.4 -  RELEASE  -
|  1> ! ri-mp2 aug-cc-pvdz aug-cc-pvdz/c tightscf
|  2> %pal nprocs 16 end
|  3> %maxcore 3800
|  4> %base "DZ_B-B_37_AB"
|  5>
|  6> *xyz 0 1
|  7> B         1.724990   -0.862221   -0.000004
|  8> B         1.276536    0.707425    0.000003
|  9> C        -0.231585    1.176956    0.000000
| 10> N        -1.255919    0.425616   -0.000003
| 11> C        -1.148768   -0.997535    0.000004
| 12> H        -1.658213   -1.393587    0.879483
| 13> H        -0.117699   -1.401660    0.000008
| 14> H        -1.658206   -1.393597   -0.879474
| 15> H        -0.458847    2.244296   -0.000011
| 16> H         2.092274    1.581465    0.000008
| 17> H         1.933303   -1.459386   -1.014248
| 18> H         1.933308   -1.459391    1.014234
| 19> *
| 20>
| 21> $new_job
| 22> ! ri-mp2 aug-cc-pvtz aug-cc-pvtz/c tightscf
| 23> %pal nprocs 16 end
| 24> %maxcore 3800
| 25> %base "TZ_B-B_37_AB"
| 26>
| 27> *xyz 0 1
| 28> B         1.724990   -0.862221   -0.000004
| 29> B         1.276536    0.707425    0.000003
| 30> C        -0.231585    1.176956    0.000000
| 31> N        -1.255919    0.425616   -0.000003
| 32> C        -1.148768   -0.997535    0.000004
| 33> H        -1.658213   -1.393587    0.879483
| 34> H        -0.117699   -1.401660    0.000008
| 35> H        -1.658206   -1.393597   -0.879474
| 36> H        -0.458847    2.244296   -0.000011
| 37> H         2.092274    1.581465    0.000008
| 38> H         1.933303   -1.459386   -1.014248
| 39> H         1.933308   -1.459391    1.014234
| 40> *
| 41>
| 42> $new_job
| 43> ! ri-mp2 aug-cc-pvqz aug-cc-pvqz/c tightscf
| 44> %pal nprocs 16 end
| 45> %maxcore 3800
| 46> %base "QZ_B-B_37_AB"
| 47>
| 48> *xyz 0 1
| 49> B         1.724990   -0.862221   -0.000004
| 50> B         1.276536    0.707425    0.000003
| 51> C        -0.231585    1.176956    0.000000
| 52> N        -1.255919    0.425616   -0.000003
| 53> C        -1.148768   -0.997535    0.000004
| 54> H        -1.658213   -1.393587    0.879483
| 55> H        -0.117699   -1.401660    0.000008
| 56> H        -1.658206   -1.393597   -0.879474
| 57> H        -0.458847    2.244296   -0.000011
| 58> H         2.092274    1.581465    0.000008
| 59> H         1.933303   -1.459386   -1.014248
| 60> H         1.933308   -1.459391    1.014234
| 61> *
| 62>
| 63>
| 64>
| 65>
| 66>                          ****END OF INPUT****
 Total Charge           Charge          ....    0
 Multiplicity           Mult            ....    1
 Number of Electrons    NEL             ....   36
MP2 TOTAL ENERGY:     -184.187896085 Eh
FINAL SINGLE POINT ENERGY      -184.187896084844
MP2 TOTAL ENERGY:     -184.353946309 Eh
FINAL SINGLE POINT ENERGY      -184.353946309363

CARTESIAN COORDINATES (ANGSTROEM)
---------------------------------
  B      1.724990   -0.862221   -0.000004
  B      1.276536    0.707425    0.000003
  C     -0.231585    1.176956    0.000000
  N     -1.255919    0.425616   -0.000003
  C     -1.148768   -0.997535    0.000004
  H     -1.658213   -1.393587    0.879483
  H     -0.117699   -1.401660    0.000008
  H     -1.658206   -1.393597   -0.879474
  H     -0.458847    2.244296   -0.000011
  H      2.092274    1.581465    0.000008
  H      1.933303   -1.459386   -1.014248
  H      1.933308   -1.459391    1.014234

 Multiplicity           Mult            ....    1
 Number of Electrons    NEL             ....   36
 Basis Dimension        Dim             ....  722

ORBITAL ENERGIES
----------------

  NO   OCC          E(Eh)            E(eV)
   0   2.0000     -15.579205      -423.9317
   1   2.0000     -11.264599      -306.5253
   2   2.0000     -11.255140      -306.2679
   3   2.0000      -7.590649      -206.5521
   4   2.0000      -7.588076      -206.4820
   5   2.0000      -1.238494       -33.7011
   6   2.0000      -0.976845       -26.5813
   7   2.0000      -0.817314       -22.2403
   8   2.0000      -0.725416       -19.7396
   9   2.0000      -0.669074       -18.2064
  10   2.0000      -0.637796       -17.3553
  11   2.0000      -0.607655       -16.5351
  12   2.0000      -0.563708       -15.3393
  13   2.0000      -0.522360       -14.2141
  14   2.0000      -0.495434       -13.4814
  15   2.0000      -0.444344       -12.0912
  16   2.0000      -0.426203       -11.5976
  17   2.0000      -0.393394       -10.7048
  18   0.0000       0.022534         0.6132
  19   0.0000       0.028603         0.7783
  20   0.0000       0.028642         0.7794
  21   0.0000       0.031237         0.8500
  22   0.0000       0.040453         1.1008

MULLIKEN ATOMIC CHARGES
-----------------------
   0 B :    0.525661
   1 B :    0.666307
   2 C :   -0.421043
   3 N :   -0.557256
   4 C :   -0.591459
   5 H :    0.299305
   6 H :    0.218785
   7 H :    0.299303
   8 H :    0.480297
   9 H :   -0.397136
  10 H :   -0.261383
  11 H :   -0.261381
Sum of atomic charges:    0.0000000

LOEWDIN ATOMIC CHARGES
----------------------
   0 B :    0.401536
   1 B :    0.032817
   2 C :    0.240288
   3 N :    0.627352
   4 C :    0.659873
   5 H :   -0.284938
   6 H :   -0.490621
   7 H :   -0.284939
   8 H :   -0.392883
   9 H :   -0.175869
  10 H :   -0.166307
  11 H :   -0.166308

  Mayer bond orders larger than 0.100000
B(  0-B ,  1-B ) :   1.0088 B(  0-B ,  9-H ) :  -0.1209 B(  0-B , 10-H ) :   0.9218
B(  0-B , 11-H ) :   0.9218 B(  1-B ,  2-C ) :   0.9206 B(  1-B ,  9-H ) :   0.8546
B(  2-C ,  3-N ) :   1.6330 B(  2-C ,  8-H ) :   0.7965 B(  3-N ,  4-C ) :   0.9100
B(  4-C ,  5-H ) :   0.9248 B(  4-C ,  6-H ) :   0.9256 B(  4-C ,  7-H ) :   0.9248

MP2 TOTAL ENERGY:     -184.405610170 Eh
FINAL SINGLE POINT ENERGY      -184.405610170447

DIPOLE MOMENT
-------------
                                X             Y             Z
Electronic contribution:      0.61885       2.99190       0.00000
Nuclear contribution   :     -0.36498      -3.19746       0.00000
                        -----------------------------------------
Total Dipole Moment    :      0.25387      -0.20555       0.00000
                        -----------------------------------------
Magnitude (a.u.)       :      0.32665
Magnitude (Debye)      :      0.83028

Rotational constants in cm-1:     0.256331     0.153530     0.100165
Rotational constants in MHz :  7684.621907  4602.719491  3002.868684

                             ****ORCA TERMINATED NORMALLY****
TOTAL RUN TIME: 0 days 0 hours 7 minutes 54 seconds 196 msec
