                         Program Version 5.0.4 -  RELEASE  -
|  1> ! ri-mp2 aug-cc-pvdz aug-cc-pvdz/c tightscf
|  2> %pal nprocs 16 end
|  3> %maxcore 3800
|  4> %base "DZ_B-B_21_AB"
|  5> %scf
|  6> STABPerform true
|  7> STABRestartUHFifUnstable true
|  8> end
|  9>
| 10> *xyz 0 1
| 11> B        -0.009689   -0.006712   -0.000011
| 12> B        -1.699772   -0.043178   -0.000001
| 13> O         0.759031    1.129093    0.000005
| 14> H         0.280125    1.959870    0.000007
| 15> O         0.655304   -1.194125    0.000000
| 16> H         1.613950   -1.086593    0.000003
| 17> H        -2.330737   -0.051814   -1.012519
| 18> H        -2.330724   -0.051756    1.012526
| 19> *
| 20>
| 21> $new_job
| 22> ! ri-mp2 aug-cc-pvtz aug-cc-pvtz/c tightscf
| 23> %pal nprocs 16 end
| 24> %maxcore 3800
| 25> %base "TZ_B-B_21_AB"
| 26>
| 27> *xyz 0 1
| 28> B        -0.009689   -0.006712   -0.000011
| 29> B        -1.699772   -0.043178   -0.000001
| 30> O         0.759031    1.129093    0.000005
| 31> H         0.280125    1.959870    0.000007
| 32> O         0.655304   -1.194125    0.000000
| 33> H         1.613950   -1.086593    0.000003
| 34> H        -2.330737   -0.051814   -1.012519
| 35> H        -2.330724   -0.051756    1.012526
| 36> *
| 37>
| 38> $new_job
| 39> ! ri-mp2 aug-cc-pvqz aug-cc-pvqz/c tightscf
| 40> %pal nprocs 16 end
| 41> %maxcore 3800
| 42> %base "QZ_B-B_21_AB"
| 43>
| 44> *xyz 0 1
| 45> B        -0.009689   -0.006712   -0.000011
| 46> B        -1.699772   -0.043178   -0.000001
| 47> O         0.759031    1.129093    0.000005
| 48> H         0.280125    1.959870    0.000007
| 49> O         0.655304   -1.194125    0.000000
| 50> H         1.613950   -1.086593    0.000003
| 51> H        -2.330737   -0.051814   -1.012519
| 52> H        -2.330724   -0.051756    1.012526
| 53> *
| 54>
| 55>
| 56>
| 57>
| 58>                          ****END OF INPUT****
 Total Charge           Charge          ....    0
 Multiplicity           Mult            ....    1
 Number of Electrons    NEL             ....   30
MP2 TOTAL ENERGY:     -202.089476127 Eh
FINAL SINGLE POINT ENERGY      -202.089476126610
MP2 TOTAL ENERGY:     -202.268505211 Eh
FINAL SINGLE POINT ENERGY      -202.268505210691

CARTESIAN COORDINATES (ANGSTROEM)
---------------------------------
  B     -0.009689   -0.006712   -0.000011
  B     -1.699772   -0.043178   -0.000001
  O      0.759031    1.129093    0.000005
  H      0.280125    1.959870    0.000007
  O      0.655304   -1.194125    0.000000
  H      1.613950   -1.086593    0.000003
  H     -2.330737   -0.051814   -1.012519
  H     -2.330724   -0.051756    1.012526

 Multiplicity           Mult            ....    1
 Number of Electrons    NEL             ....   30
 Basis Dimension        Dim             ....  504

ORBITAL ENERGIES
----------------

  NO   OCC          E(Eh)            E(eV)
   0   2.0000     -20.571910      -559.7901
   1   2.0000     -20.561526      -559.5076
   2   2.0000      -7.624766      -207.4804
   3   2.0000      -7.594542      -206.6580
   4   2.0000      -1.385078       -37.6899
   5   2.0000      -1.342946       -36.5434
   6   2.0000      -0.778614       -21.1872
   7   2.0000      -0.742660       -20.2088
   8   2.0000      -0.684751       -18.6330
   9   2.0000      -0.602346       -16.3907
  10   2.0000      -0.575582       -15.6624
  11   2.0000      -0.560988       -15.2653
  12   2.0000      -0.502713       -13.6795
  13   2.0000      -0.488444       -13.2912
  14   2.0000      -0.438790       -11.9401
  15   0.0000       0.020802         0.5660
  16   0.0000       0.029698         0.8081
  17   0.0000       0.032171         0.8754
  18   0.0000       0.035508         0.9662
  19   0.0000       0.049830         1.3559

MULLIKEN ATOMIC CHARGES
-----------------------
   0 B :    1.360353
   1 B :    0.262124
   2 O :   -1.007475
   3 H :    0.355277
   4 O :   -0.956107
   5 H :    0.331475
   6 H :   -0.172823
   7 H :   -0.172823
Sum of atomic charges:    0.0000000

LOEWDIN ATOMIC CHARGES
----------------------
   0 B :   -1.090284
   1 B :    0.499167
   2 O :    1.326457
   3 H :   -0.794087
   4 O :    1.304405
   5 H :   -0.801097
   6 H :   -0.222282
   7 H :   -0.222280

  Mayer bond orders larger than 0.100000
B(  0-B ,  1-B ) :   0.9505 B(  0-B ,  2-O ) :   0.5546 B(  0-B ,  4-O ) :   0.5101
B(  1-B ,  4-O ) :  -0.1186 B(  1-B ,  6-H ) :   0.9718 B(  1-B ,  7-H ) :   0.9718
B(  2-O ,  3-H ) :   0.9207 B(  4-O ,  5-H ) :   0.9354

MP2 TOTAL ENERGY:     -202.326897647 Eh
FINAL SINGLE POINT ENERGY      -202.326897646666

DIPOLE MOMENT
-------------
                                X             Y             Z
Electronic contribution:      1.36394      -0.16218      -0.00004
Nuclear contribution   :     -1.33658       0.79053       0.00003
                        -----------------------------------------
Total Dipole Moment    :      0.02736       0.62835      -0.00001
                        -----------------------------------------
Magnitude (a.u.)       :      0.62895
Magnitude (Debye)      :      1.59866

Rotational constants in cm-1:     0.335345     0.267173     0.154328
Rotational constants in MHz : 10053.389299  8009.651744  4626.650408

                             ****ORCA TERMINATED NORMALLY****
TOTAL RUN TIME: 0 days 0 hours 11 minutes 10 seconds 172 msec
