                         Program Version 5.0.4 -  RELEASE  -
|  1> ! ri-mp2 aug-cc-pvdz aug-cc-pvdz/c tightscf
|  2> %pal nprocs 16 end
|  3> %maxcore 3800
|  4> %base "DZ_B-Si_21_AB"
|  5> %scf
|  6> STABPerform true
|  7> STABRestartUHFifUnstable true
|  8> end
|  9>
| 10> *xyz 0 1
| 11> B        -0.535013    0.074478    0.000004
| 12> N        -1.087155    1.350971   -0.000008
| 13> Si         1.480985   -0.098211   -0.000000
| 14> C        -1.471236   -1.188668    0.000008
| 15> H        -2.536375   -0.943716    0.000011
| 16> H        -1.273043   -1.818962    0.871037
| 17> H        -1.273048   -1.818963   -0.871021
| 18> H        -0.543258    2.197066   -0.000017
| 19> H        -2.082325    1.513597   -0.000010
| 20> H         2.154605    1.227469   -0.000013
| 21> H         1.966104   -0.839372   -1.191638
| 22> H         1.966108   -0.839351    1.191649
| 23> *
| 24>
| 25> $new_job
| 26> ! ri-mp2 aug-cc-pvtz aug-cc-pvtz/c tightscf
| 27> %pal nprocs 16 end
| 28> %maxcore 3800
| 29> %base "TZ_B-Si_21_AB"
| 30>
| 31> *xyz 0 1
| 32> B        -0.535013    0.074478    0.000004
| 33> N        -1.087155    1.350971   -0.000008
| 34> Si         1.480985   -0.098211   -0.000000
| 35> C        -1.471236   -1.188668    0.000008
| 36> H        -2.536375   -0.943716    0.000011
| 37> H        -1.273043   -1.818962    0.871037
| 38> H        -1.273048   -1.818963   -0.871021
| 39> H        -0.543258    2.197066   -0.000017
| 40> H        -2.082325    1.513597   -0.000010
| 41> H         2.154605    1.227469   -0.000013
| 42> H         1.966104   -0.839372   -1.191638
| 43> H         1.966108   -0.839351    1.191649
| 44> *
| 45>
| 46> $new_job
| 47> ! ri-mp2 aug-cc-pvqz aug-cc-pvqz/c tightscf
| 48> %pal nprocs 16 end
| 49> %maxcore 3800
| 50> %base "QZ_B-Si_21_AB"
| 51>
| 52> *xyz 0 1
| 53> B        -0.535013    0.074478    0.000004
| 54> N        -1.087155    1.350971   -0.000008
| 55> Si         1.480985   -0.098211   -0.000000
| 56> C        -1.471236   -1.188668    0.000008
| 57> H        -2.536375   -0.943716    0.000011
| 58> H        -1.273043   -1.818962    0.871037
| 59> H        -1.273048   -1.818963   -0.871021
| 60> H        -0.543258    2.197066   -0.000017
| 61> H        -2.082325    1.513597   -0.000010
| 62> H         2.154605    1.227469   -0.000013
| 63> H         1.966104   -0.839372   -1.191638
| 64> H         1.966108   -0.839351    1.191649
| 65> *
| 66>
| 67>
| 68>
| 69>
| 70>                          ****END OF INPUT****
 Total Charge           Charge          ....    0
 Multiplicity           Mult            ....    1
 Number of Electrons    NEL             ....   40
MP2 TOTAL ENERGY:     -411.178630770 Eh
FINAL SINGLE POINT ENERGY      -411.178630770235
MP2 TOTAL ENERGY:     -411.329828089 Eh
FINAL SINGLE POINT ENERGY      -411.329828089448

CARTESIAN COORDINATES (ANGSTROEM)
---------------------------------
  B     -0.535013    0.074478    0.000004
  N     -1.087155    1.350971   -0.000008
  Si     1.480985   -0.098211   -0.000000
  C     -1.471236   -1.188668    0.000008
  H     -2.536375   -0.943716    0.000011
  H     -1.273043   -1.818962    0.871037
  H     -1.273048   -1.818963   -0.871021
  H     -0.543258    2.197066   -0.000017
  H     -2.082325    1.513597   -0.000010
  H      2.154605    1.227469   -0.000013
  H      1.966104   -0.839372   -1.191638
  H      1.966108   -0.839351    1.191649

 Multiplicity           Mult            ....    1
 Number of Electrons    NEL             ....   40
 Basis Dimension        Dim             ....  692

ORBITAL ENERGIES
----------------

  NO   OCC          E(Eh)            E(eV)
   0   2.0000     -68.740410     -1870.5216
   1   2.0000     -15.557881      -423.3515
   2   2.0000     -11.190585      -304.5113
   3   2.0000      -7.584248      -206.3779
   4   2.0000      -6.092331      -165.7808
   5   2.0000      -4.198539      -114.2481
   6   2.0000      -4.198507      -114.2472
   7   2.0000      -4.197961      -114.2323
   8   2.0000      -1.165993       -31.7283
   9   2.0000      -0.942155       -25.6373
  10   2.0000      -0.731878       -19.9154
  11   2.0000      -0.690170       -18.7805
  12   2.0000      -0.666958       -18.1489
  13   2.0000      -0.555713       -15.1217
  14   2.0000      -0.547219       -14.8906
  15   2.0000      -0.502726       -13.6799
  16   2.0000      -0.467130       -12.7112
  17   2.0000      -0.463794       -12.6205
  18   2.0000      -0.436391       -11.8748
  19   2.0000      -0.389379       -10.5955
  20   0.0000       0.020146         0.5482
  21   0.0000       0.032390         0.8814
  22   0.0000       0.036485         0.9928
  23   0.0000       0.038016         1.0345
  24   0.0000       0.047065         1.2807

MULLIKEN ATOMIC CHARGES
-----------------------
   0 B :    0.585676
   1 N :   -0.724833
   2 Si:    0.269717
   3 C :   -1.075853
   4 H :    0.276040
   5 H :    0.302107
   6 H :    0.302107
   7 H :    0.250812
   8 H :    0.231618
   9 H :   -0.157656
  10 H :   -0.129868
  11 H :   -0.129867
Sum of atomic charges:    0.0000000

LOEWDIN ATOMIC CHARGES
----------------------
   0 B :   -0.694360
   1 N :    1.324225
   2 Si:    1.193497
   3 C :    0.981108
   4 H :   -0.313571
   5 H :   -0.312895
   6 H :   -0.312896
   7 H :   -0.519896
   8 H :   -0.496248
   9 H :   -0.281628
  10 H :   -0.283667
  11 H :   -0.283668

  Mayer bond orders larger than 0.100000
B(  0-B ,  1-N ) :   1.2542 B(  0-B ,  2-Si) :   0.5136 B(  0-B ,  3-C ) :   0.8945
B(  1-N ,  7-H ) :   0.9482 B(  1-N ,  8-H ) :   0.9533 B(  2-Si,  9-H ) :   0.6747
B(  2-Si, 10-H ) :   0.6874 B(  2-Si, 11-H ) :   0.6874 B(  3-C ,  4-H ) :   0.8933
B(  3-C ,  5-H ) :   0.9171 B(  3-C ,  6-H ) :   0.9171

MP2 TOTAL ENERGY:     -411.377417218 Eh
FINAL SINGLE POINT ENERGY      -411.377417217835

DIPOLE MOMENT
-------------
                                X             Y             Z
Electronic contribution:      0.64688       1.87917       0.00000
Nuclear contribution   :     -1.32421      -1.40857      -0.00001
                        -----------------------------------------
Total Dipole Moment    :     -0.67733       0.47060      -0.00000
                        -----------------------------------------
Magnitude (a.u.)       :      0.82477
Magnitude (Debye)      :      2.09640

Rotational constants in cm-1:     0.259920     0.121655     0.086609
Rotational constants in MHz :  7792.213434  3647.121588  2596.458431

                             ****ORCA TERMINATED NORMALLY****
TOTAL RUN TIME: 0 days 0 hours 30 minutes 58 seconds 364 msec
