                         Program Version 5.0.4 -  RELEASE  -
|  1> ! ri-mp2 aug-cc-pvdz aug-cc-pvdz/c tightscf
|  2> %pal nprocs 16 end
|  3> %maxcore 3800
|  4> %base "DZ_B-Cl_10_AB"
|  5> %scf
|  6> STABPerform true
|  7> STABRestartUHFifUnstable true
|  8> end
|  9>
| 10> *xyz 0 1
| 11> Cl        -1.454952   -1.196686    1.216681
| 12> Cl        -2.396263    0.764274   -0.860411
| 13> B        -1.100916   -0.064064   -0.047254
| 14> Si         0.803338    0.337751   -0.558167
| 15> Cl         1.590452    1.514591    0.924404
| 16> Cl         1.867485   -1.403821   -0.699463
| 17> H         0.943589    1.059731   -1.829991
| 18> *
| 19>
| 20> $new_job
| 21> ! ri-mp2 aug-cc-pvtz aug-cc-pvtz/c tightscf
| 22> %pal nprocs 16 end
| 23> %maxcore 3800
| 24> %base "TZ_B-Cl_10_AB"
| 25>
| 26> *xyz 0 1
| 27> Cl        -1.454952   -1.196686    1.216681
| 28> Cl        -2.396263    0.764274   -0.860411
| 29> B        -1.100916   -0.064064   -0.047254
| 30> Si         0.803338    0.337751   -0.558167
| 31> Cl         1.590452    1.514591    0.924404
| 32> Cl         1.867485   -1.403821   -0.699463
| 33> H         0.943589    1.059731   -1.829991
| 34> *
| 35>
| 36> $new_job
| 37> ! ri-mp2 aug-cc-pvqz aug-cc-pvqz/c tightscf
| 38> %pal nprocs 16 end
| 39> %maxcore 3800
| 40> %base "QZ_B-Cl_10_AB"
| 41>
| 42> *xyz 0 1
| 43> Cl        -1.454952   -1.196686    1.216681
| 44> Cl        -2.396263    0.764274   -0.860411
| 45> B        -1.100916   -0.064064   -0.047254
| 46> Si         0.803338    0.337751   -0.558167
| 47> Cl         1.590452    1.514591    0.924404
| 48> Cl         1.867485   -1.403821   -0.699463
| 49> H         0.943589    1.059731   -1.829991
| 50> *
| 51>
| 52>
| 53>
| 54>
| 55>                          ****END OF INPUT****
 Total Charge           Charge          ....    0
 Multiplicity           Mult            ....    1
 Number of Electrons    NEL             ....   88
MP2 TOTAL ENERGY:    -2153.165553863 Eh
FINAL SINGLE POINT ENERGY     -2153.165553863204
MP2 TOTAL ENERGY:    -2153.464588765 Eh
FINAL SINGLE POINT ENERGY     -2153.464588765417

CARTESIAN COORDINATES (ANGSTROEM)
---------------------------------
  Cl    -1.454952   -1.196686    1.216681
  Cl    -2.396263    0.764274   -0.860411
  B     -1.100916   -0.064064   -0.047254
  Si     0.803338    0.337751   -0.558167
  Cl     1.590452    1.514591    0.924404
  Cl     1.867485   -1.403821   -0.699463
  H      0.943589    1.059731   -1.829991

 Multiplicity           Mult            ....    1
 Number of Electrons    NEL             ....   88
 Basis Dimension        Dim             ....  546

ORBITAL ENERGIES
----------------

  NO   OCC          E(Eh)            E(eV)
   0   2.0000    -104.863691     -2853.4861
   1   2.0000    -104.861060     -2853.4145
   2   2.0000    -104.845317     -2852.9861
   3   2.0000    -104.844772     -2852.9713
   4   2.0000     -68.862365     -1873.8402
   5   2.0000     -10.591359      -288.2055
   6   2.0000     -10.588765      -288.1349
   7   2.0000     -10.572749      -287.6991
   8   2.0000     -10.572255      -287.6857
   9   2.0000      -8.058107      -219.2722
  10   2.0000      -8.057084      -219.2444
  11   2.0000      -8.056752      -219.2354
  12   2.0000      -8.055531      -219.2022
  13   2.0000      -8.054479      -219.1735
  14   2.0000      -8.054156      -219.1647
  15   2.0000      -8.039509      -218.7662
  16   2.0000      -8.039021      -218.7529
  17   2.0000      -8.038375      -218.7353
  18   2.0000      -8.038329      -218.7340
  19   2.0000      -8.037887      -218.7220
  20   2.0000      -8.037835      -218.7206
  21   2.0000      -7.729839      -210.3396
  22   2.0000      -6.204252      -168.8263
  23   2.0000      -4.311350      -117.3178
  24   2.0000      -4.310611      -117.2977
  25   2.0000      -4.309596      -117.2701
  26   2.0000      -1.165376       -31.7115
  27   2.0000      -1.129247       -30.7284
  28   2.0000      -1.121098       -30.5066
  29   2.0000      -1.101854       -29.9830
  30   2.0000      -0.754956       -20.5434
  31   2.0000      -0.678957       -18.4753
  32   2.0000      -0.599190       -16.3048
  33   2.0000      -0.582057       -15.8386
  34   2.0000      -0.563712       -15.3394
  35   2.0000      -0.558708       -15.2032
  36   2.0000      -0.535529       -14.5725
  37   2.0000      -0.508184       -13.8284
  38   2.0000      -0.490024       -13.3342
  39   2.0000      -0.481889       -13.1129
  40   2.0000      -0.475838       -12.9482
  41   2.0000      -0.474218       -12.9041
  42   2.0000      -0.470727       -12.8091
  43   2.0000      -0.422573       -11.4988
  44   0.0000       0.028519         0.7760
  45   0.0000       0.030675         0.8347
  46   0.0000       0.032181         0.8757
  47   0.0000       0.039756         1.0818
  48   0.0000       0.041747         1.1360

MULLIKEN ATOMIC CHARGES
-----------------------
   0 Cl:   -0.196414
   1 Cl:   -0.188445
   2 B :    0.321153
   3 Si:    1.382553
   4 Cl:   -0.571049
   5 Cl:   -0.568454
   6 H :   -0.179344
Sum of atomic charges:    0.0000000

LOEWDIN ATOMIC CHARGES
----------------------
   0 Cl:    1.208338
   1 Cl:    1.205866
   2 B :   -2.520102
   3 Si:   -1.303481
   4 Cl:    0.879495
   5 Cl:    0.879383
   6 H :   -0.349499

  Mayer bond orders larger than 0.100000
B(  0-Cl,  2-B ) :   1.1096 B(  1-Cl,  2-B ) :   1.0408 B(  2-B ,  3-Si) :   0.8023
B(  3-Si,  4-Cl) :   0.5192 B(  3-Si,  5-Cl) :   0.5200 B(  3-Si,  6-H ) :   0.9329

MP2 TOTAL ENERGY:    -2153.567178991 Eh
FINAL SINGLE POINT ENERGY     -2153.567178991328

DIPOLE MOMENT
-------------
                                X             Y             Z
Electronic contribution:     -2.40902      -1.29484       2.02758
Nuclear contribution   :      2.13240       1.41064      -2.35518
                        -----------------------------------------
Total Dipole Moment    :     -0.27663       0.11580      -0.32760
                        -----------------------------------------
Magnitude (a.u.)       :      0.44413
Magnitude (Debye)      :      1.12890

Rotational constants in cm-1:     0.046122     0.025447     0.022442
Rotational constants in MHz :  1382.693591   762.874383   672.798719

                             ****ORCA TERMINATED NORMALLY****
TOTAL RUN TIME: 0 days 0 hours 23 minutes 6 seconds 638 msec
