                         Program Version 5.0.4 -  RELEASE  -
|  1> ! ri-mp2 aug-cc-pvdz aug-cc-pvdz/c tightscf
|  2> %pal nprocs 16 end
|  3> %maxcore 3800
|  4> %base "DZ_B-Cl_35_A"
|  5> %scf
|  6> STABPerform true
|  7> STABRestartUHFifUnstable true
|  8> end
|  9>
| 10> *xyz 0 2
| 11> Cl        -2.199236   -0.257000   -0.132041
| 12> B        -0.771507    0.158396    0.679533
| 13> C         0.619284    0.564171    0.124225
| 14> O         0.895561    1.708750   -0.131472
| 15> S         1.832381   -0.734185   -0.075470
| 16> H         1.046271   -1.731060    0.360988
| 17> *
| 18>
| 19> $new_job
| 20> ! ri-mp2 aug-cc-pvtz aug-cc-pvtz/c tightscf
| 21> %pal nprocs 16 end
| 22> %maxcore 3800
| 23> %base "TZ_B-Cl_35_A"
| 24>
| 25> *xyz 0 2
| 26> Cl        -2.199236   -0.257000   -0.132041
| 27> B        -0.771507    0.158396    0.679533
| 28> C         0.619284    0.564171    0.124225
| 29> O         0.895561    1.708750   -0.131472
| 30> S         1.832381   -0.734185   -0.075470
| 31> H         1.046271   -1.731060    0.360988
| 32> *
| 33>
| 34> $new_job
| 35> ! ri-mp2 aug-cc-pvqz aug-cc-pvqz/c tightscf
| 36> %pal nprocs 16 end
| 37> %maxcore 3800
| 38> %base "QZ_B-Cl_35_A"
| 39>
| 40> *xyz 0 2
| 41> Cl        -2.199236   -0.257000   -0.132041
| 42> B        -0.771507    0.158396    0.679533
| 43> C         0.619284    0.564171    0.124225
| 44> O         0.895561    1.708750   -0.131472
| 45> S         1.832381   -0.734185   -0.075470
| 46> H         1.046271   -1.731060    0.360988
| 47> *
| 48>
| 49>
| 50>
| 51>
| 52>                          ****END OF INPUT****
 Total Charge           Charge          ....    0
 Multiplicity           Mult            ....    2
 Number of Electrons    NEL             ....   53
MP2 TOTAL ENERGY:     -995.691446948 Eh
FINAL SINGLE POINT ENERGY      -995.691446948188
MP2 TOTAL ENERGY:     -995.911164745 Eh
FINAL SINGLE POINT ENERGY      -995.911164744775

CARTESIAN COORDINATES (ANGSTROEM)
---------------------------------
  Cl    -2.199236   -0.257000   -0.132041
  B     -0.771507    0.158396    0.679533
  C      0.619284    0.564171    0.124225
  O      0.895561    1.708750   -0.131472
  S      1.832381   -0.734185   -0.075470
  H      1.046271   -1.731060    0.360988

 Multiplicity           Mult            ....    2
 Number of Electrons    NEL             ....   53
 Basis Dimension        Dim             ....  454

ORBITAL ENERGIES
----------------
                 SPIN UP ORBITALS
  NO   OCC          E(Eh)            E(eV)
   0   1.0000    -104.880774     -2853.9510
   1   1.0000     -91.993781     -2503.2780
   2   1.0000     -20.584381      -560.1295
   3   1.0000     -11.367844      -309.3348
   4   1.0000     -10.608150      -288.6624
   5   1.0000      -8.996940      -244.8192
   6   1.0000      -8.075698      -219.7509
   7   1.0000      -8.073825      -219.7000
   8   1.0000      -8.073298      -219.6856
   9   1.0000      -7.716451      -209.9753
  10   1.0000      -6.678410      -181.7288
  11   1.0000      -6.677407      -181.7015
  12   1.0000      -6.676081      -181.6654
  13   1.0000      -1.432249       -38.9735
  14   1.0000      -1.165740       -31.7214
  15   1.0000      -1.044979       -28.4353
  16   1.0000      -0.845944       -23.0193
  17   1.0000      -0.719197       -19.5703
  18   1.0000      -0.654630       -17.8134
  19   1.0000      -0.638049       -17.3622
  20   1.0000      -0.606657       -16.5080
  21   1.0000      -0.546264       -14.8646
  22   1.0000      -0.541455       -14.7337
  23   1.0000      -0.519636       -14.1400
  24   1.0000      -0.442024       -12.0281
  25   1.0000      -0.413344       -11.2477
  26   1.0000      -0.363110        -9.8807
  27   0.0000       0.022172         0.6033
  28   0.0000       0.031441         0.8556
  29   0.0000       0.036564         0.9950
  30   0.0000       0.039611         1.0779
  31   0.0000       0.046074         1.2537

                 SPIN DOWN ORBITALS
  NO   OCC          E(Eh)            E(eV)
   0   1.0000    -104.880107     -2853.9328
   1   1.0000     -91.993795     -2503.2784
   2   1.0000     -20.576009      -559.9017
   3   1.0000     -11.370015      -309.3938
   4   1.0000     -10.607373      -288.6413
   5   1.0000      -8.996965      -244.8199
   6   1.0000      -8.074592      -219.7208
   7   1.0000      -8.073707      -219.6967
   8   1.0000      -8.071227      -219.6293
   9   1.0000      -7.696707      -209.4380
  10   1.0000      -6.678106      -181.7205
  11   1.0000      -6.677480      -181.7035
  12   1.0000      -6.676351      -181.6728
  13   1.0000      -1.414776       -38.4980
  14   1.0000      -1.157631       -31.5008
  15   1.0000      -1.042980       -28.3809
  16   1.0000      -0.826772       -22.4976
  17   1.0000      -0.706433       -19.2230
  18   1.0000      -0.645953       -17.5773
  19   1.0000      -0.627422       -17.0730
  20   1.0000      -0.564153       -15.3514
  21   1.0000      -0.544673       -14.8213
  22   1.0000      -0.521140       -14.1810
  23   1.0000      -0.510311       -13.8863
  24   1.0000      -0.421937       -11.4815
  25   1.0000      -0.399427       -10.8690
  26   0.0000       0.017569         0.4781
  27   0.0000       0.031544         0.8584
  28   0.0000       0.036528         0.9940
  29   0.0000       0.040020         1.0890
  30   0.0000       0.044232         1.2036

MULLIKEN ATOMIC CHARGES AND SPIN POPULATIONS
--------------------------------------------
   0 Cl:   -0.171364    0.029403
   1 B :    0.425010    0.936525
   2 C :    0.308400   -0.161252
   3 O :   -0.680457    0.188736
   4 S :    0.085910    0.007583
   5 H :    0.032502   -0.000995
Sum of atomic charges         :   -0.0000000

LOEWDIN ATOMIC CHARGES AND SPIN POPULATIONS
-------------------------------------------
   0 Cl:    1.246492    0.171709
   1 B :   -1.290056    0.535942
   2 C :   -1.217537    0.145400
   3 O :    0.545661    0.132746
   4 S :    1.534805    0.005935
   5 H :   -0.819366    0.008268

  Mayer bond orders larger than 0.100000
B(  0-Cl,  1-B ) :   1.2650 B(  1-B ,  2-C ) :   0.9171 B(  2-C ,  3-O ) :   1.5076
B(  2-C ,  4-S ) :   1.0366 B(  4-S ,  5-H ) :   1.0267

MP2 TOTAL ENERGY:     -995.985732810 Eh
FINAL SINGLE POINT ENERGY      -995.985732810457

DIPOLE MOMENT
-------------
                                X             Y             Z
Electronic contribution:     -4.95269       0.29556       0.24597
Nuclear contribution   :      4.42499      -1.33664       0.00239
                        -----------------------------------------
Total Dipole Moment    :     -0.52770      -1.04109       0.24836
                        -----------------------------------------
Magnitude (a.u.)       :      1.19332
Magnitude (Debye)      :      3.03318

Rotational constants in cm-1:     0.211273     0.054329     0.044676
Rotational constants in MHz :  6333.810624  1628.737444  1339.367540

                             ****ORCA TERMINATED NORMALLY****
TOTAL RUN TIME: 0 days 0 hours 18 minutes 59 seconds 940 msec
