                         Program Version 5.0.4 -  RELEASE  -
|  1> ! ri-mp2 aug-cc-pvdz aug-cc-pvdz/c tightscf
|  2> %pal nprocs 16 end
|  3> %maxcore 3800
|  4> %base "DZ_B-Cl_81_AB"
|  5> %scf
|  6> STABPerform true
|  7> STABRestartUHFifUnstable true
|  8> end
|  9>
| 10> *xyz 0 1
| 11> Cl        -1.818519   -1.498576   -0.111671
| 12> Cl        -1.818519    1.498575   -0.111671
| 13> B        -0.955536   -0.000001   -0.105539
| 14> C         0.645555   -0.000000   -0.024287
| 15> Cl         1.381540   -1.437558   -0.741747
| 16> Cl         1.381539    1.437554   -0.741755
| 17> Cl         0.927155    0.000005    1.746457
| 18> *
| 19>
| 20> $new_job
| 21> ! ri-mp2 aug-cc-pvtz aug-cc-pvtz/c tightscf
| 22> %pal nprocs 16 end
| 23> %maxcore 3800
| 24> %base "TZ_B-Cl_81_AB"
| 25>
| 26> *xyz 0 1
| 27> Cl        -1.818519   -1.498576   -0.111671
| 28> Cl        -1.818519    1.498575   -0.111671
| 29> B        -0.955536   -0.000001   -0.105539
| 30> C         0.645555   -0.000000   -0.024287
| 31> Cl         1.381540   -1.437558   -0.741747
| 32> Cl         1.381539    1.437554   -0.741755
| 33> Cl         0.927155    0.000005    1.746457
| 34> *
| 35>
| 36> $new_job
| 37> ! ri-mp2 aug-cc-pvqz aug-cc-pvqz/c tightscf
| 38> %pal nprocs 16 end
| 39> %maxcore 3800
| 40> %base "QZ_B-Cl_81_AB"
| 41>
| 42> *xyz 0 1
| 43> Cl        -1.818519   -1.498576   -0.111671
| 44> Cl        -1.818519    1.498575   -0.111671
| 45> B        -0.955536   -0.000001   -0.105539
| 46> C         0.645555   -0.000000   -0.024287
| 47> Cl         1.381540   -1.437558   -0.741747
| 48> Cl         1.381539    1.437554   -0.741755
| 49> Cl         0.927155    0.000005    1.746457
| 50> *
| 51>
| 52>
| 53>
| 54>
| 55>                          ****END OF INPUT****
 Total Charge           Charge          ....    0
 Multiplicity           Mult            ....    1
 Number of Electrons    NEL             ....   96
MP2 TOTAL ENERGY:    -2361.112114794 Eh
FINAL SINGLE POINT ENERGY     -2361.112114794295
MP2 TOTAL ENERGY:    -2361.463897990 Eh
FINAL SINGLE POINT ENERGY     -2361.463897989525

CARTESIAN COORDINATES (ANGSTROEM)
---------------------------------
  Cl    -1.818519   -1.498576   -0.111671
  Cl    -1.818519    1.498575   -0.111671
  B     -0.955536   -0.000001   -0.105539
  C      0.645555   -0.000000   -0.024287
  Cl     1.381540   -1.437558   -0.741747
  Cl     1.381539    1.437554   -0.741755
  Cl     0.927155    0.000005    1.746457

 Multiplicity           Mult            ....    1
 Number of Electrons    NEL             ....   96
 Basis Dimension        Dim             ....  580

ORBITAL ENERGIES
----------------

  NO   OCC          E(Eh)            E(eV)
   0   2.0000    -104.873425     -2853.7510
   1   2.0000    -104.868014     -2853.6037
   2   2.0000    -104.868014     -2853.6037
   3   2.0000    -104.863496     -2853.4808
   4   2.0000    -104.863496     -2853.4808
   5   2.0000     -11.431346      -311.0627
   6   2.0000     -10.599001      -288.4135
   7   2.0000     -10.593828      -288.2727
   8   2.0000     -10.593818      -288.2725
   9   2.0000     -10.591415      -288.2071
  10   2.0000     -10.591406      -288.2068
  11   2.0000      -8.065914      -219.4847
  12   2.0000      -8.063965      -219.4317
  13   2.0000      -8.063948      -219.4312
  14   2.0000      -8.060813      -219.3459
  15   2.0000      -8.060811      -219.3458
  16   2.0000      -8.058834      -219.2920
  17   2.0000      -8.058833      -219.2920
  18   2.0000      -8.058786      -219.2907
  19   2.0000      -8.058785      -219.2907
  20   2.0000      -8.058240      -219.2759
  21   2.0000      -8.058239      -219.2758
  22   2.0000      -8.057095      -219.2447
  23   2.0000      -8.057093      -219.2447
  24   2.0000      -8.056821      -219.2372
  25   2.0000      -8.056820      -219.2372
  26   2.0000      -7.750096      -210.8908
  27   2.0000      -1.250874       -34.0380
  28   2.0000      -1.166827       -31.7510
  29   2.0000      -1.131653       -30.7938
  30   2.0000      -1.121374       -30.5141
  31   2.0000      -1.111971       -30.2583
  32   2.0000      -0.879599       -23.9351
  33   2.0000      -0.715514       -19.4701
  34   2.0000      -0.647047       -17.6071
  35   2.0000      -0.646318       -17.5872
  36   2.0000      -0.635173       -17.2839
  37   2.0000      -0.585022       -15.9193
  38   2.0000      -0.547362       -14.8945
  39   2.0000      -0.515815       -14.0360
  40   2.0000      -0.514811       -14.0087
  41   2.0000      -0.499704       -13.5976
  42   2.0000      -0.488856       -13.3024
  43   2.0000      -0.484341       -13.1796
  44   2.0000      -0.470583       -12.8052
  45   2.0000      -0.459843       -12.5130
  46   2.0000      -0.453894       -12.3511
  47   2.0000      -0.450040       -12.2462
  48   0.0000       0.032467         0.8835
  49   0.0000       0.037435         1.0186
  50   0.0000       0.037759         1.0275
  51   0.0000       0.042149         1.1469
  52   0.0000       0.050845         1.3836

MULLIKEN ATOMIC CHARGES
-----------------------
   0 Cl:   -0.178324
   1 Cl:   -0.178325
   2 B :    0.717518
   3 C :    0.263387
   4 Cl:   -0.210851
   5 Cl:   -0.210850
   6 Cl:   -0.202553
Sum of atomic charges:   -0.0000000

LOEWDIN ATOMIC CHARGES
----------------------
   0 Cl:    1.264178
   1 Cl:    1.264177
   2 B :   -3.007654
   3 C :   -2.554225
   4 Cl:    1.001730
   5 Cl:    1.001731
   6 Cl:    1.030063

  Mayer bond orders larger than 0.100000
B(  0-Cl,  2-B ) :   1.0917 B(  1-Cl,  2-B ) :   1.0917 B(  2-B ,  3-C ) :   0.8309
B(  3-C ,  4-Cl) :   0.7983 B(  3-C ,  5-Cl) :   0.7983 B(  3-C ,  6-Cl) :   0.8065

MP2 TOTAL ENERGY:    -2361.583450451 Eh
FINAL SINGLE POINT ENERGY     -2361.583450451146

DIPOLE MOMENT
-------------
                                X             Y             Z
Electronic contribution:     -0.80712      -0.00000      -0.08308
Nuclear contribution   :      0.62523       0.00000       0.02557
                        -----------------------------------------
Total Dipole Moment    :     -0.18189      -0.00000      -0.05752
                        -----------------------------------------
Magnitude (a.u.)       :      0.19077
Magnitude (Debye)      :      0.48489

Rotational constants in cm-1:     0.037137     0.029925     0.023383
Rotational constants in MHz :  1113.349511   897.128077   701.002131

                             ****ORCA TERMINATED NORMALLY****
TOTAL RUN TIME: 0 days 0 hours 29 minutes 1 seconds 600 msec
