                         Program Version 5.0.4 -  RELEASE  -
|  1> ! ri-mp2 aug-cc-pvdz aug-cc-pvdz/c tightscf
|  2> %pal nprocs 16 end
|  3> %maxcore 3800
|  4> %base "DZ_P-C_26_AB"
|  5> %scf
|  6> STABPerform true
|  7> STABRestartUHFifUnstable true
|  8> end
|  9>
| 10> *xyz 0 1
| 11> P         1.025368    0.000000   -0.119648
| 12> C        -0.753696    0.000000    0.019455
| 13> N        -1.900015   -0.000001    0.005511
| 14> H         1.220883   -1.035659    0.819711
| 15> H         1.220874    1.035664    0.819706
| 16> *
| 17>
| 18> $new_job
| 19> ! ri-mp2 aug-cc-pvtz aug-cc-pvtz/c tightscf
| 20> %pal nprocs 16 end
| 21> %maxcore 3800
| 22> %base "TZ_P-C_26_AB"
| 23>
| 24> *xyz 0 1
| 25> P         1.025368    0.000000   -0.119648
| 26> C        -0.753696    0.000000    0.019455
| 27> N        -1.900015   -0.000001    0.005511
| 28> H         1.220883   -1.035659    0.819711
| 29> H         1.220874    1.035664    0.819706
| 30> *
| 31>
| 32> $new_job
| 33> ! ri-mp2 aug-cc-pvqz aug-cc-pvqz/c tightscf
| 34> %pal nprocs 16 end
| 35> %maxcore 3800
| 36> %base "QZ_P-C_26_AB"
| 37>
| 38> *xyz 0 1
| 39> P         1.025368    0.000000   -0.119648
| 40> C        -0.753696    0.000000    0.019455
| 41> N        -1.900015   -0.000001    0.005511
| 42> H         1.220883   -1.035659    0.819711
| 43> H         1.220874    1.035664    0.819706
| 44> *
| 45>
| 46>
| 47>
| 48>
| 49>                          ****END OF INPUT****
 Total Charge           Charge          ....    0
 Multiplicity           Mult            ....    1
 Number of Electrons    NEL             ....   30
MP2 TOTAL ENERGY:     -434.627909002 Eh
FINAL SINGLE POINT ENERGY      -434.627909001929
MP2 TOTAL ENERGY:     -434.747382438 Eh
FINAL SINGLE POINT ENERGY      -434.747382438470

CARTESIAN COORDINATES (ANGSTROEM)
---------------------------------
  P      1.025368    0.000000   -0.119648
  C     -0.753696    0.000000    0.019455
  N     -1.900015   -0.000001    0.005511
  H      1.220883   -1.035659    0.819711
  H      1.220874    1.035664    0.819706

 Multiplicity           Mult            ....    1
 Number of Electrons    NEL             ....   30
 Basis Dimension        Dim             ....  336

ORBITAL ENERGIES
----------------

  NO   OCC          E(Eh)            E(eV)
   0   2.0000     -80.002739     -2176.9852
   1   2.0000     -15.583513      -424.0490
   2   2.0000     -11.274622      -306.7981
   3   2.0000      -7.544620      -205.2996
   4   2.0000      -5.438670      -147.9937
   5   2.0000      -5.437955      -147.9743
   6   2.0000      -5.437178      -147.9531
   7   2.0000      -1.231779       -33.5184
   8   2.0000      -0.939041       -25.5526
   9   2.0000      -0.664009       -18.0686
  10   2.0000      -0.583888       -15.8884
  11   2.0000      -0.563645       -15.3376
  12   2.0000      -0.513007       -13.9596
  13   2.0000      -0.478337       -13.0162
  14   2.0000      -0.415261       -11.2998
  15   0.0000       0.019746         0.5373
  16   0.0000       0.041659         1.1336
  17   0.0000       0.043538         1.1847
  18   0.0000       0.055556         1.5117
  19   0.0000       0.067529         1.8375

MULLIKEN ATOMIC CHARGES
-----------------------
   0 P :    0.645552
   1 C :   -0.110968
   2 N :   -0.481906
   3 H :   -0.026339
   4 H :   -0.026339
Sum of atomic charges:    0.0000000

LOEWDIN ATOMIC CHARGES
----------------------
   0 P :    1.400495
   1 C :   -0.645732
   2 N :    0.270271
   3 H :   -0.512516
   4 H :   -0.512518

  Mayer bond orders larger than 0.100000
B(  0-P ,  1-C ) :   0.6939 B(  0-P ,  3-H ) :   0.8815 B(  0-P ,  4-H ) :   0.8815
B(  1-C ,  2-N ) :   2.6680

MP2 TOTAL ENERGY:     -434.786588047 Eh
FINAL SINGLE POINT ENERGY      -434.786588046699

DIPOLE MOMENT
-------------
                                X             Y             Z
Electronic contribution:      0.05725      -0.00000      -1.39802
Nuclear contribution   :      1.38838       0.00000       1.67419
                        -----------------------------------------
Total Dipole Moment    :      1.44563       0.00000       0.27617
                        -----------------------------------------
Magnitude (a.u.)       :      1.47177
Magnitude (Debye)      :      3.74094

Rotational constants in cm-1:     4.363540     0.178057     0.177194
Rotational constants in MHz : 130815.640552  5338.017335  5312.128374

                             ****ORCA TERMINATED NORMALLY****
TOTAL RUN TIME: 0 days 0 hours 4 minutes 22 seconds 543 msec
