                         Program Version 5.0.4 -  RELEASE  -
|  1> ! ri-mp2 aug-cc-pvdz aug-cc-pvdz/c tightscf
|  2> %pal nprocs 16 end
|  3> %maxcore 3800
|  4> %base "DZ_S-Cl_59_AB"
|  5> %scf
|  6> STABPerform true
|  7> STABRestartUHFifUnstable true
|  8> end
|  9>
| 10> *xyz 0 1
| 11> Cl         1.606032   -0.739049    0.065613
| 12> S         0.518956    0.908488   -0.279339
| 13> C        -1.763630   -0.160225    0.098703
| 14> N        -2.586635   -0.835034   -0.328583
| 15> O        -0.864701    0.604326    0.632732
| 16> *
| 17>
| 18> $new_job
| 19> ! ri-mp2 aug-cc-pvtz aug-cc-pvtz/c tightscf
| 20> %pal nprocs 16 end
| 21> %maxcore 3800
| 22> %base "TZ_S-Cl_59_AB"
| 23>
| 24> *xyz 0 1
| 25> Cl         1.606032   -0.739049    0.065613
| 26> S         0.518956    0.908488   -0.279339
| 27> C        -1.763630   -0.160225    0.098703
| 28> N        -2.586635   -0.835034   -0.328583
| 29> O        -0.864701    0.604326    0.632732
| 30> *
| 31>
| 32> $new_job
| 33> ! ri-mp2 aug-cc-pvqz aug-cc-pvqz/c tightscf
| 34> %pal nprocs 16 end
| 35> %maxcore 3800
| 36> %base "QZ_S-Cl_59_AB"
| 37>
| 38> *xyz 0 1
| 39> Cl         1.606032   -0.739049    0.065613
| 40> S         0.518956    0.908488   -0.279339
| 41> C        -1.763630   -0.160225    0.098703
| 42> N        -2.586635   -0.835034   -0.328583
| 43> O        -0.864701    0.604326    0.632732
| 44> *
| 45>
| 46>
| 47>
| 48>
| 49>                          ****END OF INPUT****
 Total Charge           Charge          ....    0
 Multiplicity           Mult            ....    1
 Number of Electrons    NEL             ....   54
MP2 TOTAL ENERGY:    -1024.917873355 Eh
FINAL SINGLE POINT ENERGY     -1024.917873354927
MP2 TOTAL ENERGY:    -1025.174467647 Eh
FINAL SINGLE POINT ENERGY     -1025.174467647414

CARTESIAN COORDINATES (ANGSTROEM)
---------------------------------
  Cl     1.606032   -0.739049    0.065613
  S      0.518956    0.908488   -0.279339
  C     -1.763630   -0.160225    0.098703
  N     -2.586635   -0.835034   -0.328583
  O     -0.864701    0.604326    0.632732

 Multiplicity           Mult            ....    1
 Number of Electrons    NEL             ....   54
 Basis Dimension        Dim             ....  408

ORBITAL ENERGIES
----------------

  NO   OCC          E(Eh)            E(eV)
   0   2.0000    -104.899856     -2854.4702
   1   2.0000     -92.111411     -2506.4789
   2   2.0000     -20.704933      -563.4099
   3   2.0000     -15.584210      -424.0679
   4   2.0000     -11.349935      -308.8474
   5   2.0000     -10.624149      -289.0978
   6   2.0000      -9.103133      -247.7089
   7   2.0000      -8.091107      -220.1702
   8   2.0000      -8.089139      -220.1167
   9   2.0000      -8.088769      -220.1066
  10   2.0000      -6.783775      -184.5959
  11   2.0000      -6.782343      -184.5569
  12   2.0000      -6.780287      -184.5010
  13   2.0000      -1.518878       -41.3308
  14   2.0000      -1.239565       -33.7303
  15   2.0000      -1.189961       -32.3805
  16   2.0000      -0.990554       -26.9543
  17   2.0000      -0.809137       -22.0177
  18   2.0000      -0.716080       -19.4855
  19   2.0000      -0.707005       -19.2386
  20   2.0000      -0.581538       -15.8245
  21   2.0000      -0.566204       -15.4072
  22   2.0000      -0.559320       -15.2199
  23   2.0000      -0.521267       -14.1844
  24   2.0000      -0.477152       -12.9840
  25   2.0000      -0.467406       -12.7188
  26   2.0000      -0.413900       -11.2628
  27   0.0000       0.028991         0.7889
  28   0.0000       0.035472         0.9652
  29   0.0000       0.043184         1.1751
  30   0.0000       0.063577         1.7300
  31   0.0000       0.069264         1.8848

MULLIKEN ATOMIC CHARGES
-----------------------
   0 Cl:   -0.168686
   1 S :    0.562349
   2 C :    0.797156
   3 N :   -0.598977
   4 O :   -0.591842
Sum of atomic charges:    0.0000000

LOEWDIN ATOMIC CHARGES
----------------------
   0 Cl:    0.487930
   1 S :    0.065417
   2 C :   -1.009937
   3 N :    0.308528
   4 O :    0.148062

  Mayer bond orders larger than 0.100000
B(  0-Cl,  1-S ) :   1.0734 B(  1-S ,  4-O ) :   0.7035 B(  2-C ,  3-N ) :   2.6849
B(  2-C ,  4-O ) :   1.1569

MP2 TOTAL ENERGY:    -1025.258764645 Eh
FINAL SINGLE POINT ENERGY     -1025.258764644592

DIPOLE MOMENT
-------------
                                X             Y             Z
Electronic contribution:      3.38658      -0.18289       0.16914
Nuclear contribution   :     -2.16897       0.95732      -0.07149
                        -----------------------------------------
Total Dipole Moment    :      1.21761       0.77443       0.09766
                        -----------------------------------------
Magnitude (a.u.)       :      1.44632
Magnitude (Debye)      :      3.67626

Rotational constants in cm-1:     0.232818     0.066428     0.055307
Rotational constants in MHz :  6979.707448  1991.473601  1658.060496

                             ****ORCA TERMINATED NORMALLY****
TOTAL RUN TIME: 0 days 0 hours 6 minutes 24 seconds 553 msec
