                         Program Version 5.0.4 -  RELEASE  -
|  1> ! ri-mp2 aug-cc-pvdz aug-cc-pvdz/c tightscf
|  2> %pal nprocs 16 end
|  3> %maxcore 3800
|  4> %base "DZ_P-C_79_AB"
|  5> %scf
|  6> STABPerform true
|  7> STABRestartUHFifUnstable true
|  8> end
|  9>
| 10> *xyz 0 1
| 11> C         2.477860    0.133574    0.844603
| 12> C         1.960177   -0.329750   -0.508833
| 13> H         1.893443    0.972203    1.222019
| 14> H         3.516138    0.457951    0.775915
| 15> H         2.430352   -0.672198    1.580234
| 16> C         0.521318   -0.818650   -0.458679
| 17> H         2.587628   -1.139554   -0.886384
| 18> H         2.028640    0.486658   -1.228513
| 19> C        -0.496854    0.278512   -0.241927
| 20> H         0.386590   -1.579435    0.316715
| 21> H         0.240485   -1.304816   -1.398954
| 22> O        -0.248088    1.443487   -0.401992
| 23> P        -2.175774   -0.238450    0.392174
| 24> H        -2.323643   -1.391649   -0.410272
| 25> H        -2.913326    0.617581   -0.448414
| 26> *
| 27>
| 28> $new_job
| 29> ! ri-mp2 aug-cc-pvtz aug-cc-pvtz/c tightscf
| 30> %pal nprocs 16 end
| 31> %maxcore 3800
| 32> %base "TZ_P-C_79_AB"
| 33>
| 34> *xyz 0 1
| 35> C         2.477860    0.133574    0.844603
| 36> C         1.960177   -0.329750   -0.508833
| 37> H         1.893443    0.972203    1.222019
| 38> H         3.516138    0.457951    0.775915
| 39> H         2.430352   -0.672198    1.580234
| 40> C         0.521318   -0.818650   -0.458679
| 41> H         2.587628   -1.139554   -0.886384
| 42> H         2.028640    0.486658   -1.228513
| 43> C        -0.496854    0.278512   -0.241927
| 44> H         0.386590   -1.579435    0.316715
| 45> H         0.240485   -1.304816   -1.398954
| 46> O        -0.248088    1.443487   -0.401992
| 47> P        -2.175774   -0.238450    0.392174
| 48> H        -2.323643   -1.391649   -0.410272
| 49> H        -2.913326    0.617581   -0.448414
| 50> *
| 51>
| 52> $new_job
| 53> ! ri-mp2 aug-cc-pvqz aug-cc-pvqz/c tightscf
| 54> %pal nprocs 16 end
| 55> %maxcore 3800
| 56> %base "QZ_P-C_79_AB"
| 57>
| 58> *xyz 0 1
| 59> C         2.477860    0.133574    0.844603
| 60> C         1.960177   -0.329750   -0.508833
| 61> H         1.893443    0.972203    1.222019
| 62> H         3.516138    0.457951    0.775915
| 63> H         2.430352   -0.672198    1.580234
| 64> C         0.521318   -0.818650   -0.458679
| 65> H         2.587628   -1.139554   -0.886384
| 66> H         2.028640    0.486658   -1.228513
| 67> C        -0.496854    0.278512   -0.241927
| 68> H         0.386590   -1.579435    0.316715
| 69> H         0.240485   -1.304816   -1.398954
| 70> O        -0.248088    1.443487   -0.401992
| 71> P        -2.175774   -0.238450    0.392174
| 72> H        -2.323643   -1.391649   -0.410272
| 73> H        -2.913326    0.617581   -0.448414
| 74> *
| 75>
| 76>
| 77>
| 78>
| 79>                          ****END OF INPUT****
 Total Charge           Charge          ....    0
 Multiplicity           Mult            ....    1
 Number of Electrons    NEL             ....   56
MP2 TOTAL ENERGY:     -573.236330434 Eh
FINAL SINGLE POINT ENERGY      -573.236330434092
MP2 TOTAL ENERGY:     -573.488995369 Eh
FINAL SINGLE POINT ENERGY      -573.488995369166

CARTESIAN COORDINATES (ANGSTROEM)
---------------------------------
  C      2.477860    0.133574    0.844603
  C      1.960177   -0.329750   -0.508833
  H      1.893443    0.972203    1.222019
  H      3.516138    0.457951    0.775915
  H      2.430352   -0.672198    1.580234
  C      0.521318   -0.818650   -0.458679
  H      2.587628   -1.139554   -0.886384
  H      2.028640    0.486658   -1.228513
  C     -0.496854    0.278512   -0.241927
  H      0.386590   -1.579435    0.316715
  H      0.240485   -1.304816   -1.398954
  O     -0.248088    1.443487   -0.401992
  P     -2.175774   -0.238450    0.392174
  H     -2.323643   -1.391649   -0.410272
  H     -2.913326    0.617581   -0.448414

 Multiplicity           Mult            ....    1
 Number of Electrons    NEL             ....   56
 Basis Dimension        Dim             ....  898

ORBITAL ENERGIES
----------------

  NO   OCC          E(Eh)            E(eV)
   0   2.0000     -79.953985     -2175.6585
   1   2.0000     -20.556136      -559.3609
   2   2.0000     -11.338662      -308.5407
   3   2.0000     -11.242953      -305.9363
   4   2.0000     -11.225682      -305.4663
   5   2.0000     -11.211523      -305.0811
   6   2.0000      -7.498136      -204.0346
   7   2.0000      -5.391942      -146.7222
   8   2.0000      -5.391804      -146.7184
   9   2.0000      -5.390974      -146.6959
  10   2.0000      -1.403315       -38.1861
  11   2.0000      -1.083311       -29.4784
  12   2.0000      -0.980046       -26.6684
  13   2.0000      -0.896057       -24.3829
  14   2.0000      -0.822665       -22.3859
  15   2.0000      -0.730427       -19.8759
  16   2.0000      -0.662926       -18.0391
  17   2.0000      -0.635909       -17.3040
  18   2.0000      -0.618662       -16.8346
  19   2.0000      -0.587593       -15.9892
  20   2.0000      -0.560020       -15.2389
  21   2.0000      -0.535280       -14.5657
  22   2.0000      -0.532077       -14.4786
  23   2.0000      -0.494560       -13.4577
  24   2.0000      -0.486555       -13.2398
  25   2.0000      -0.482986       -13.1427
  26   2.0000      -0.421523       -11.4702
  27   2.0000      -0.370582       -10.0841
  28   0.0000       0.022644         0.6162
  29   0.0000       0.030480         0.8294
  30   0.0000       0.034316         0.9338
  31   0.0000       0.036847         1.0027
  32   0.0000       0.048678         1.3246

MULLIKEN ATOMIC CHARGES
-----------------------
   0 C :   -0.878073
   1 C :   -0.341335
   2 H :    0.254050
   3 H :    0.299519
   4 H :    0.210365
   5 C :   -0.380766
   6 H :    0.230994
   7 H :    0.222470
   8 C :    0.455179
   9 H :    0.226561
  10 H :    0.374514
  11 O :   -0.840598
  12 P :    0.270652
  13 H :   -0.067244
  14 H :   -0.036288
Sum of atomic charges:   -0.0000000

LOEWDIN ATOMIC CHARGES
----------------------
   0 C :    0.918514
   1 C :    0.476866
   2 H :   -0.299416
   3 H :   -0.278365
   4 H :   -0.282016
   5 C :    0.374776
   6 H :   -0.272359
   7 H :   -0.291909
   8 C :   -0.905602
   9 H :   -0.315853
  10 H :   -0.292927
  11 O :    0.659538
  12 P :    1.496863
  13 H :   -0.492195
  14 H :   -0.495916

  Mayer bond orders larger than 0.100000
B(  0-C ,  1-C ) :   0.9257 B(  0-C ,  2-H ) :   0.9443 B(  0-C ,  3-H ) :   0.9599
B(  0-C ,  4-H ) :   0.9621 B(  1-C ,  5-C ) :   0.8971 B(  1-C ,  6-H ) :   0.9507
B(  1-C ,  7-H ) :   0.8969 B(  5-C ,  8-C ) :   0.8349 B(  5-C ,  9-H ) :   0.9416
B(  5-C , 10-H ) :   0.7974 B(  5-C , 11-O ) :   0.1577 B(  5-C , 12-P ) :  -0.1003
B(  8-C , 11-O ) :   1.2517 B(  8-C , 12-P ) :   0.8439 B( 12-P , 13-H ) :   0.9125
B( 12-P , 14-H ) :   0.9347

MP2 TOTAL ENERGY:     -573.568945276 Eh
FINAL SINGLE POINT ENERGY      -573.568945275510

DIPOLE MOMENT
-------------
                                X             Y             Z
Electronic contribution:    -10.00302       2.27332       0.64242
Nuclear contribution   :     10.01771      -3.33778      -0.86641
                        -----------------------------------------
Total Dipole Moment    :      0.01469      -1.06446      -0.22399
                        -----------------------------------------
Magnitude (a.u.)       :      1.08787
Magnitude (Debye)      :      2.76515

Rotational constants in cm-1:     0.194423     0.047986     0.044880
Rotational constants in MHz :  5828.640674  1438.592855  1345.479850

                             ****ORCA TERMINATED NORMALLY****
TOTAL RUN TIME: 0 days 1 hours 19 minutes 26 seconds 68 msec
