                         Program Version 5.0.4 -  RELEASE  -
|  1> ! ri-mp2 aug-cc-pvdz aug-cc-pvdz/c tightscf
|  2> %pal nprocs 16 end
|  3> %maxcore 3800
|  4> %base "DZ_S-Cl_62_AB"
|  5> %scf
|  6> STABPerform true
|  7> STABRestartUHFifUnstable true
|  8> end
|  9>
| 10> *xyz 0 1
| 11> Cl         2.456877   -0.051466    0.230100
| 12> S         0.885125   -0.460026   -0.990272
| 13> C        -0.528075   -0.222821    0.191370
| 14> O        -1.557903   -0.342210   -0.749126
| 15> O        -0.526716    0.997804    0.832108
| 16> C        -2.874998   -0.411926   -0.229718
| 17> H        -3.542389   -0.296620   -1.079616
| 18> H        -3.057779    0.390881    0.486715
| 19> H        -3.065732   -1.375250    0.246678
| 20> C        -0.485994    2.162774    0.023121
| 21> H        -0.667094    2.997733    0.694531
| 22> H        -1.254021    2.135951   -0.749732
| 23> H         0.491666    2.274864   -0.446093
| 24> C        -0.536861   -1.282888    1.267147
| 25> H        -0.661685   -2.266180    0.819799
| 26> H        -1.342837   -1.087919    1.973252
| 27> H         0.403491   -1.253713    1.811754
| 28> *
| 29>
| 30> $new_job
| 31> ! ri-mp2 aug-cc-pvtz aug-cc-pvtz/c tightscf
| 32> %pal nprocs 16 end
| 33> %maxcore 3800
| 34> %base "TZ_S-Cl_62_AB"
| 35>
| 36> *xyz 0 1
| 37> Cl         2.456877   -0.051466    0.230100
| 38> S         0.885125   -0.460026   -0.990272
| 39> C        -0.528075   -0.222821    0.191370
| 40> O        -1.557903   -0.342210   -0.749126
| 41> O        -0.526716    0.997804    0.832108
| 42> C        -2.874998   -0.411926   -0.229718
| 43> H        -3.542389   -0.296620   -1.079616
| 44> H        -3.057779    0.390881    0.486715
| 45> H        -3.065732   -1.375250    0.246678
| 46> C        -0.485994    2.162774    0.023121
| 47> H        -0.667094    2.997733    0.694531
| 48> H        -1.254021    2.135951   -0.749732
| 49> H         0.491666    2.274864   -0.446093
| 50> C        -0.536861   -1.282888    1.267147
| 51> H        -0.661685   -2.266180    0.819799
| 52> H        -1.342837   -1.087919    1.973252
| 53> H         0.403491   -1.253713    1.811754
| 54> *
| 55>
| 56> $new_job
| 57> ! ri-mp2 aug-cc-pvqz aug-cc-pvqz/c tightscf
| 58> %pal nprocs 16 end
| 59> %maxcore 3800
| 60> %base "QZ_S-Cl_62_AB"
| 61>
| 62> *xyz 0 1
| 63> Cl         2.456877   -0.051466    0.230100
| 64> S         0.885125   -0.460026   -0.990272
| 65> C        -0.528075   -0.222821    0.191370
| 66> O        -1.557903   -0.342210   -0.749126
| 67> O        -0.526716    0.997804    0.832108
| 68> C        -2.874998   -0.411926   -0.229718
| 69> H        -3.542389   -0.296620   -1.079616
| 70> H        -3.057779    0.390881    0.486715
| 71> H        -3.065732   -1.375250    0.246678
| 72> C        -0.485994    2.162774    0.023121
| 73> H        -0.667094    2.997733    0.694531
| 74> H        -1.254021    2.135951   -0.749732
| 75> H         0.491666    2.274864   -0.446093
| 76> C        -0.536861   -1.282888    1.267147
| 77> H        -0.661685   -2.266180    0.819799
| 78> H        -1.342837   -1.087919    1.973252
| 79> H         0.403491   -1.253713    1.811754
| 80> *
| 81>
| 82>
| 83>
| 84>
| 85>                          ****END OF INPUT****
 Total Charge           Charge          ....    0
 Multiplicity           Mult            ....    1
 Number of Electrons    NEL             ....   82
MP2 TOTAL ENERGY:    -1164.760777358 Eh
FINAL SINGLE POINT ENERGY     -1164.760777358109
MP2 TOTAL ENERGY:    -1165.153378037 Eh
FINAL SINGLE POINT ENERGY     -1165.153378036630

CARTESIAN COORDINATES (ANGSTROEM)
---------------------------------
  Cl     2.456877   -0.051466    0.230100
  S      0.885125   -0.460026   -0.990272
  C     -0.528075   -0.222821    0.191370
  O     -1.557903   -0.342210   -0.749126
  O     -0.526716    0.997804    0.832108
  C     -2.874998   -0.411926   -0.229718
  H     -3.542389   -0.296620   -1.079616
  H     -3.057779    0.390881    0.486715
  H     -3.065732   -1.375250    0.246678
  C     -0.485994    2.162774    0.023121
  H     -0.667094    2.997733    0.694531
  H     -1.254021    2.135951   -0.749732
  H      0.491666    2.274864   -0.446093
  C     -0.536861   -1.282888    1.267147
  H     -0.661685   -2.266180    0.819799
  H     -1.342837   -1.087919    1.973252
  H      0.403491   -1.253713    1.811754

 Multiplicity           Mult            ....    1
 Number of Electrons    NEL             ....   82
 Basis Dimension        Dim             .... 1062

ORBITAL ENERGIES
----------------

  NO   OCC          E(Eh)            E(eV)
   0   2.0000    -104.844520     -2852.9644
   1   2.0000     -91.997544     -2503.3804
   2   2.0000     -20.582354      -560.0743
   3   2.0000     -20.578288      -559.9637
   4   2.0000     -11.385764      -309.8224
   5   2.0000     -11.286507      -307.1215
   6   2.0000     -11.274426      -306.7927
   7   2.0000     -11.227618      -305.5190
   8   2.0000     -10.569027      -287.5979
   9   2.0000      -8.996513      -244.8076
  10   2.0000      -8.036057      -218.6722
  11   2.0000      -8.034197      -218.6216
  12   2.0000      -8.034012      -218.6166
  13   2.0000      -6.677674      -181.7087
  14   2.0000      -6.675827      -181.6585
  15   2.0000      -6.674785      -181.6301
  16   2.0000      -1.449426       -39.4409
  17   2.0000      -1.371615       -37.3235
  18   2.0000      -1.138418       -30.9779
  19   2.0000      -1.051561       -28.6144
  20   2.0000      -0.974142       -26.5077
  21   2.0000      -0.937528       -25.5114
  22   2.0000      -0.903519       -24.5860
  23   2.0000      -0.786110       -21.3911
  24   2.0000      -0.715099       -19.4588
  25   2.0000      -0.692192       -18.8355
  26   2.0000      -0.678861       -18.4728
  27   2.0000      -0.635541       -17.2940
  28   2.0000      -0.617783       -16.8107
  29   2.0000      -0.607456       -16.5297
  30   2.0000      -0.570272       -15.5179
  31   2.0000      -0.547903       -14.9092
  32   2.0000      -0.540023       -14.6948
  33   2.0000      -0.532756       -14.4970
  34   2.0000      -0.513453       -13.9718
  35   2.0000      -0.501159       -13.6372
  36   2.0000      -0.487852       -13.2751
  37   2.0000      -0.464960       -12.6522
  38   2.0000      -0.463245       -12.6055
  39   2.0000      -0.414471       -11.2783
  40   2.0000      -0.357629        -9.7316
  41   0.0000       0.023333         0.6349
  42   0.0000       0.030794         0.8379
  43   0.0000       0.033307         0.9063
  44   0.0000       0.039301         1.0694
  45   0.0000       0.047594         1.2951

MULLIKEN ATOMIC CHARGES
-----------------------
   0 Cl:   -0.438941
   1 S :    0.062398
   2 C :    1.964630
   3 O :   -0.960976
   4 O :   -0.859476
   5 C :   -0.746073
   6 H :    0.417673
   7 H :    0.265761
   8 H :    0.307481
   9 C :   -0.810303
  10 H :    0.386526
  11 H :    0.332535
  12 H :    0.344867
  13 C :   -1.165149
  14 H :    0.297840
  15 H :    0.252400
  16 H :    0.348807
Sum of atomic charges:    0.0000000

LOEWDIN ATOMIC CHARGES
----------------------
   0 Cl:    0.535526
   1 S :    0.444502
   2 C :   -1.540752
   3 O :    0.773683
   4 O :    0.818067
   5 C :    0.578202
   6 H :   -0.313008
   7 H :   -0.308481
   8 H :   -0.312445
   9 C :    0.529944
  10 H :   -0.317657
  11 H :   -0.326328
  12 H :   -0.363672
  13 C :    0.751757
  14 H :   -0.301964
  15 H :   -0.300864
  16 H :   -0.346511

  Mayer bond orders larger than 0.100000
B(  0-Cl,  1-S ) :   1.0193 B(  0-Cl,  2-C ) :  -0.2553 B(  1-S ,  2-C ) :   0.4607
B(  1-S ,  3-O ) :   0.1418 B(  2-C ,  3-O ) :   0.3015 B(  2-C ,  4-O ) :   0.3592
B(  2-C ,  5-C ) :  -0.1098 B(  2-C ,  9-C ) :  -0.1373 B(  2-C , 13-C ) :   0.6520
B(  3-O ,  5-C ) :   0.9027 B(  4-O ,  9-C ) :   0.9551 B(  4-O , 13-C ) :   0.1352
B(  5-C ,  6-H ) :   0.8459 B(  5-C ,  7-H ) :   0.9207 B(  5-C ,  8-H ) :   0.9092
B(  9-C , 10-H ) :   0.8828 B(  9-C , 11-H ) :   0.8989 B(  9-C , 12-H ) :   0.8730
B( 13-C , 14-H ) :   0.9827 B( 13-C , 15-H ) :   0.9623 B( 13-C , 16-H ) :   0.9186

MP2 TOTAL ENERGY:    -1165.278298003 Eh
FINAL SINGLE POINT ENERGY     -1165.278298002931

DIPOLE MOMENT
-------------
                                X             Y             Z
Electronic contribution:     14.86975      -1.48051      -3.14346
Nuclear contribution   :    -15.99879       1.59079       3.40197
                        -----------------------------------------
Total Dipole Moment    :     -1.12905       0.11028       0.25851
                        -----------------------------------------
Magnitude (a.u.)       :      1.16350
Magnitude (Debye)      :      2.95739

Rotational constants in cm-1:     0.077868     0.033097     0.030156
Rotational constants in MHz :  2334.426101   992.215239   904.060852

                             ****ORCA TERMINATED NORMALLY****
TOTAL RUN TIME: 0 days 3 hours 29 minutes 36 seconds 400 msec
