                         Program Version 5.0.4 -  RELEASE  -
|  1> ! ri-mp2 aug-cc-pvdz aug-cc-pvdz/c tightscf
|  2> %pal nprocs 16 end
|  3> %maxcore 3800
|  4> %base "DZ_B-Cl_48_A"
|  5> %scf
|  6> STABPerform true
|  7> STABRestartUHFifUnstable true
|  8> end
|  9>
| 10> *xyz 0 2
| 11> B         1.150091    0.343755    0.646233
| 12> Cl         2.653385   -0.071962   -0.042722
| 13> C        -0.292162    0.059919    0.007542
| 14> O        -0.620537    1.222613   -0.700756
| 15> O        -1.305978   -0.163943    0.944151
| 16> O        -0.184944   -0.981531   -0.894653
| 17> C        -1.084542    2.328771    0.059510
| 18> H        -2.078214    2.138709    0.461321
| 19> H        -1.115606    3.170460   -0.627909
| 20> H        -0.406475    2.560414    0.884104
| 21> C        -1.037120   -1.223172    1.837288
| 22> H        -1.857691   -1.252419    2.549377
| 23> H        -0.102473   -1.049733    2.383535
| 24> H        -0.970032   -2.179308    1.314477
| 25> C        -1.344451   -1.249444   -1.674636
| 26> H        -1.121771   -2.152183   -2.237224
| 27> H        -1.548564   -0.428297   -2.360144
| 28> H        -2.215845   -1.416602   -1.040594
| 29> *
| 30>
| 31> $new_job
| 32> ! ri-mp2 aug-cc-pvtz aug-cc-pvtz/c tightscf
| 33> %pal nprocs 16 end
| 34> %maxcore 3800
| 35> %base "TZ_B-Cl_48_A"
| 36>
| 37> *xyz 0 2
| 38> B         1.150091    0.343755    0.646233
| 39> Cl         2.653385   -0.071962   -0.042722
| 40> C        -0.292162    0.059919    0.007542
| 41> O        -0.620537    1.222613   -0.700756
| 42> O        -1.305978   -0.163943    0.944151
| 43> O        -0.184944   -0.981531   -0.894653
| 44> C        -1.084542    2.328771    0.059510
| 45> H        -2.078214    2.138709    0.461321
| 46> H        -1.115606    3.170460   -0.627909
| 47> H        -0.406475    2.560414    0.884104
| 48> C        -1.037120   -1.223172    1.837288
| 49> H        -1.857691   -1.252419    2.549377
| 50> H        -0.102473   -1.049733    2.383535
| 51> H        -0.970032   -2.179308    1.314477
| 52> C        -1.344451   -1.249444   -1.674636
| 53> H        -1.121771   -2.152183   -2.237224
| 54> H        -1.548564   -0.428297   -2.360144
| 55> H        -2.215845   -1.416602   -1.040594
| 56> *
| 57>
| 58> $new_job
| 59> ! ri-mp2 aug-cc-pvqz aug-cc-pvqz/c tightscf
| 60> %pal nprocs 16 end
| 61> %maxcore 3800
| 62> %base "QZ_B-Cl_48_A"
| 63>
| 64> *xyz 0 2
| 65> B         1.150091    0.343755    0.646233
| 66> Cl         2.653385   -0.071962   -0.042722
| 67> C        -0.292162    0.059919    0.007542
| 68> O        -0.620537    1.222613   -0.700756
| 69> O        -1.305978   -0.163943    0.944151
| 70> O        -0.184944   -0.981531   -0.894653
| 71> C        -1.084542    2.328771    0.059510
| 72> H        -2.078214    2.138709    0.461321
| 73> H        -1.115606    3.170460   -0.627909
| 74> H        -0.406475    2.560414    0.884104
| 75> C        -1.037120   -1.223172    1.837288
| 76> H        -1.857691   -1.252419    2.549377
| 77> H        -0.102473   -1.049733    2.383535
| 78> H        -0.970032   -2.179308    1.314477
| 79> C        -1.344451   -1.249444   -1.674636
| 80> H        -1.121771   -2.152183   -2.237224
| 81> H        -1.548564   -0.428297   -2.360144
| 82> H        -2.215845   -1.416602   -1.040594
| 83> *
| 84>
| 85>
| 86>
| 87>
| 88>                          ****END OF INPUT****
 Total Charge           Charge          ....    0
 Multiplicity           Mult            ....    2
 Number of Electrons    NEL             ....   79
MP2 TOTAL ENERGY:     -866.862503156 Eh
FINAL SINGLE POINT ENERGY      -866.862503156430
MP2 TOTAL ENERGY:     -867.280561028 Eh
FINAL SINGLE POINT ENERGY      -867.280561028434

CARTESIAN COORDINATES (ANGSTROEM)
---------------------------------
  B      1.150091    0.343755    0.646233
  Cl     2.653385   -0.071962   -0.042722
  C     -0.292162    0.059919    0.007542
  O     -0.620537    1.222613   -0.700756
  O     -1.305978   -0.163943    0.944151
  O     -0.184944   -0.981531   -0.894653
  C     -1.084542    2.328771    0.059510
  H     -2.078214    2.138709    0.461321
  H     -1.115606    3.170460   -0.627909
  H     -0.406475    2.560414    0.884104
  C     -1.037120   -1.223172    1.837288
  H     -1.857691   -1.252419    2.549377
  H     -0.102473   -1.049733    2.383535
  H     -0.970032   -2.179308    1.314477
  C     -1.344451   -1.249444   -1.674636
  H     -1.121771   -2.152183   -2.237224
  H     -1.548564   -0.428297   -2.360144
  H     -2.215845   -1.416602   -1.040594

 Multiplicity           Mult            ....    2
 Number of Electrons    NEL             ....   79
 Basis Dimension        Dim             .... 1138

ORBITAL ENERGIES
----------------
                 SPIN UP ORBITALS
  NO   OCC          E(Eh)            E(eV)
   0   1.0000    -104.843951     -2852.9490
   1   1.0000     -20.571100      -559.7681
   2   1.0000     -20.569288      -559.7188
   3   1.0000     -20.564870      -559.5986
   4   1.0000     -11.382310      -309.7284
   5   1.0000     -11.282498      -307.0124
   6   1.0000     -11.273900      -306.7784
   7   1.0000     -11.266080      -306.5656
   8   1.0000     -10.571660      -287.6695
   9   1.0000      -8.039379      -218.7626
  10   1.0000      -8.037239      -218.7044
  11   1.0000      -8.036885      -218.6948
  12   1.0000      -7.678803      -208.9509
  13   1.0000      -1.466385       -39.9024
  14   1.0000      -1.362908       -37.0866
  15   1.0000      -1.359131       -36.9838
  16   1.0000      -1.129540       -30.7364
  17   1.0000      -0.997391       -27.1404
  18   1.0000      -0.946587       -25.7579
  19   1.0000      -0.932770       -25.3820
  20   1.0000      -0.829778       -22.5794
  21   1.0000      -0.742227       -20.1970
  22   1.0000      -0.715403       -19.4671
  23   1.0000      -0.711821       -19.3696
  24   1.0000      -0.647148       -17.6098
  25   1.0000      -0.636204       -17.3120
  26   1.0000      -0.625508       -17.0209
  27   1.0000      -0.609130       -16.5753
  28   1.0000      -0.596004       -16.2181
  29   1.0000      -0.588410       -16.0115
  30   1.0000      -0.556656       -15.1474
  31   1.0000      -0.536094       -14.5879
  32   1.0000      -0.505634       -13.7590
  33   1.0000      -0.504736       -13.7346
  34   1.0000      -0.493716       -13.4347
  35   1.0000      -0.485772       -13.2185
  36   1.0000      -0.461961       -12.5706
  37   1.0000      -0.450559       -12.2603
  38   1.0000      -0.442843       -12.0504
  39   1.0000      -0.339156        -9.2289
  40   0.0000       0.022396         0.6094
  41   0.0000       0.031061         0.8452
  42   0.0000       0.032841         0.8937
  43   0.0000       0.033360         0.9078
  44   0.0000       0.046519         1.2659

                 SPIN DOWN ORBITALS
  NO   OCC          E(Eh)            E(eV)
   0   1.0000    -104.843228     -2852.9293
   1   1.0000     -20.571437      -559.7773
   2   1.0000     -20.569528      -559.7253
   3   1.0000     -20.564071      -559.5768
   4   1.0000     -11.380511      -309.6795
   5   1.0000     -11.282296      -307.0069
   6   1.0000     -11.273650      -306.7716
   7   1.0000     -11.265770      -306.5572
   8   1.0000     -10.570812      -287.6464
   9   1.0000      -8.037869      -218.7215
  10   1.0000      -8.037214      -218.7037
  11   1.0000      -8.034870      -218.6399
  12   1.0000      -7.658829      -208.4073
  13   1.0000      -1.465232       -39.8710
  14   1.0000      -1.363168       -37.0937
  15   1.0000      -1.357926       -36.9511
  16   1.0000      -1.120862       -30.5002
  17   1.0000      -0.994260       -27.0552
  18   1.0000      -0.945138       -25.7185
  19   1.0000      -0.931433       -25.3456
  20   1.0000      -0.820493       -22.3268
  21   1.0000      -0.732588       -19.9347
  22   1.0000      -0.714551       -19.4439
  23   1.0000      -0.709021       -19.2934
  24   1.0000      -0.646380       -17.5889
  25   1.0000      -0.629643       -17.1335
  26   1.0000      -0.610946       -16.6247
  27   1.0000      -0.603488       -16.4217
  28   1.0000      -0.595691       -16.2096
  29   1.0000      -0.587739       -15.9932
  30   1.0000      -0.551441       -15.0055
  31   1.0000      -0.533500       -14.5173
  32   1.0000      -0.504071       -13.7165
  33   1.0000      -0.494025       -13.4431
  34   1.0000      -0.484168       -13.1749
  35   1.0000      -0.480274       -13.0689
  36   1.0000      -0.461711       -12.5638
  37   1.0000      -0.449655       -12.2357
  38   1.0000      -0.425248       -11.5716
  39   0.0000       0.021150         0.5755
  40   0.0000       0.030984         0.8431
  41   0.0000       0.032658         0.8887
  42   0.0000       0.033457         0.9104
  43   0.0000       0.046238         1.2582

MULLIKEN ATOMIC CHARGES AND SPIN POPULATIONS
--------------------------------------------
   0 B :    0.362137    1.062498
   1 Cl:   -0.339007    0.031092
   2 C :    2.073105   -0.113538
   3 O :   -0.932879   -0.009577
   4 O :   -0.887874   -0.013675
   5 O :   -0.947937    0.018638
   6 C :   -0.780988    0.021559
   7 H :    0.315763    0.002383
   8 H :    0.428376    0.000639
   9 H :    0.271550   -0.015085
  10 C :   -0.804181    0.014350
  11 H :    0.414411    0.001359
  12 H :    0.272266   -0.011301
  13 H :    0.333746   -0.000341
  14 C :   -0.758373    0.012815
  15 H :    0.409717   -0.000428
  16 H :    0.307756   -0.000409
  17 H :    0.262413   -0.000981
Sum of atomic charges         :   -0.0000000

LOEWDIN ATOMIC CHARGES AND SPIN POPULATIONS
-------------------------------------------
   0 B :   -1.162773    0.540763
   1 Cl:    1.284086    0.163078
   2 C :   -1.466615    0.150289
   3 O :    0.831452    0.009298
   4 O :    0.841023    0.007560
   5 O :    0.809946    0.020033
   6 C :    0.570599    0.021744
   7 H :   -0.318047    0.001962
   8 H :   -0.317384    0.001771
   9 H :   -0.323144    0.026757
  10 C :    0.564131    0.020313
  11 H :   -0.307733    0.001207
  12 H :   -0.326835    0.025522
  13 H :   -0.302723    0.001442
  14 C :    0.584365    0.004673
  15 H :   -0.320937    0.001615
  16 H :   -0.317817    0.000929
  17 H :   -0.321594    0.001044

  Mayer bond orders larger than 0.100000
B(  0-B ,  1-Cl) :   1.0504 B(  0-B ,  2-C ) :   0.5399 B(  2-C ,  3-O ) :   0.3685
B(  2-C ,  4-O ) :   0.3639 B(  2-C ,  5-O ) :   0.3835 B(  2-C , 10-C ) :  -0.1264
B(  2-C , 14-C ) :  -0.1191 B(  3-O ,  6-C ) :   0.9436 B(  4-O , 10-C ) :   0.9699
B(  5-O , 14-C ) :   0.9357 B(  6-C ,  7-H ) :   0.8939 B(  6-C ,  8-H ) :   0.8458
B(  6-C ,  9-H ) :   0.9341 B( 10-C , 11-H ) :   0.8651 B( 10-C , 12-H ) :   0.9052
B( 10-C , 13-H ) :   0.8838 B( 14-C , 15-H ) :   0.8596 B( 14-C , 16-H ) :   0.9032
B( 14-C , 17-H ) :   0.9244

MP2 TOTAL ENERGY:     -867.414551065 Eh
FINAL SINGLE POINT ENERGY      -867.414551065436

DIPOLE MOMENT
-------------
                                X             Y             Z
Electronic contribution:     15.24257       0.66447      -0.38049
Nuclear contribution   :    -15.85139      -0.76625       0.84003
                        -----------------------------------------
Total Dipole Moment    :     -0.60882      -0.10178       0.45954
                        -----------------------------------------
Magnitude (a.u.)       :      0.76954
Magnitude (Debye)      :      1.95602

Rotational constants in cm-1:     0.052722     0.033330     0.031008
Rotational constants in MHz :  1580.578263   999.209705   929.600605

                             ****ORCA TERMINATED NORMALLY****
TOTAL RUN TIME: 0 days 8 hours 51 minutes 21 seconds 520 msec
