                         Program Version 5.0.4 -  RELEASE  -
|  1> ! ri-mp2 aug-cc-pvdz aug-cc-pvdz/c tightscf
|  2> %pal nprocs 16 end
|  3> %maxcore 3800
|  4> %base "DZ_P-O_7_AB"
|  5> %scf
|  6> STABPerform true
|  7> STABRestartUHFifUnstable true
|  8> end
|  9>
| 10> *xyz 0 1
| 11> O        -0.277653   -0.385462   -0.672915
| 12> P         1.084906   -0.053216    0.122296
| 13> O         0.949290    0.099972    1.564552
| 14> O         1.948695   -1.262105   -0.395963
| 15> O        -1.119644    0.770820   -0.476884
| 16> C        -2.150015    0.403070    0.441096
| 17> C        -3.098859   -0.622066   -0.128022
| 18> H        -2.646658    1.359740    0.613789
| 19> H        -1.689843    0.076625    1.374593
| 20> H        -3.542108   -0.266127   -1.057587
| 21> H        -3.899757   -0.816006    0.586492
| 22> H        -2.583259   -1.560333   -0.324289
| 23> O         1.727130    1.167412   -0.641833
| 24> H         1.499874    2.015724   -0.245446
| 25> H         2.258869   -1.822502    0.323913
| 26> *
| 27>
| 28> $new_job
| 29> ! ri-mp2 aug-cc-pvtz aug-cc-pvtz/c tightscf
| 30> %pal nprocs 16 end
| 31> %maxcore 3800
| 32> %base "TZ_P-O_7_AB"
| 33>
| 34> *xyz 0 1
| 35> O        -0.277653   -0.385462   -0.672915
| 36> P         1.084906   -0.053216    0.122296
| 37> O         0.949290    0.099972    1.564552
| 38> O         1.948695   -1.262105   -0.395963
| 39> O        -1.119644    0.770820   -0.476884
| 40> C        -2.150015    0.403070    0.441096
| 41> C        -3.098859   -0.622066   -0.128022
| 42> H        -2.646658    1.359740    0.613789
| 43> H        -1.689843    0.076625    1.374593
| 44> H        -3.542108   -0.266127   -1.057587
| 45> H        -3.899757   -0.816006    0.586492
| 46> H        -2.583259   -1.560333   -0.324289
| 47> O         1.727130    1.167412   -0.641833
| 48> H         1.499874    2.015724   -0.245446
| 49> H         2.258869   -1.822502    0.323913
| 50> *
| 51>
| 52> $new_job
| 53> ! ri-mp2 aug-cc-pvqz aug-cc-pvqz/c tightscf
| 54> %pal nprocs 16 end
| 55> %maxcore 3800
| 56> %base "QZ_P-O_7_AB"
| 57>
| 58> *xyz 0 1
| 59> O        -0.277653   -0.385462   -0.672915
| 60> P         1.084906   -0.053216    0.122296
| 61> O         0.949290    0.099972    1.564552
| 62> O         1.948695   -1.262105   -0.395963
| 63> O        -1.119644    0.770820   -0.476884
| 64> C        -2.150015    0.403070    0.441096
| 65> C        -3.098859   -0.622066   -0.128022
| 66> H        -2.646658    1.359740    0.613789
| 67> H        -1.689843    0.076625    1.374593
| 68> H        -3.542108   -0.266127   -1.057587
| 69> H        -3.899757   -0.816006    0.586492
| 70> H        -2.583259   -1.560333   -0.324289
| 71> O         1.727130    1.167412   -0.641833
| 72> H         1.499874    2.015724   -0.245446
| 73> H         2.258869   -1.822502    0.323913
| 74> *
| 75>
| 76>
| 77>
| 78>
| 79>                          ****END OF INPUT****
 Total Charge           Charge          ....    0
 Multiplicity           Mult            ....    1
 Number of Electrons    NEL             ....   74
MP2 TOTAL ENERGY:     -796.334941721 Eh
FINAL SINGLE POINT ENERGY      -796.334941720613
MP2 TOTAL ENERGY:     -796.813856258 Eh
FINAL SINGLE POINT ENERGY      -796.813856258338

CARTESIAN COORDINATES (ANGSTROEM)
---------------------------------
  O     -0.277653   -0.385462   -0.672915
  P      1.084906   -0.053216    0.122296
  O      0.949290    0.099972    1.564552
  O      1.948695   -1.262105   -0.395963
  O     -1.119644    0.770820   -0.476884
  C     -2.150015    0.403070    0.441096
  C     -3.098859   -0.622066   -0.128022
  H     -2.646658    1.359740    0.613789
  H     -1.689843    0.076625    1.374593
  H     -3.542108   -0.266127   -1.057587
  H     -3.899757   -0.816006    0.586492
  H     -2.583259   -1.560333   -0.324289
  O      1.727130    1.167412   -0.641833
  H      1.499874    2.015724   -0.245446
  H      2.258869   -1.822502    0.323913

 Multiplicity           Mult            ....    1
 Number of Electrons    NEL             ....   74
 Basis Dimension        Dim             ....  966

ORBITAL ENERGIES
----------------

  NO   OCC          E(Eh)            E(eV)
   0   2.0000     -80.102070     -2179.6881
   1   2.0000     -20.650642      -561.9325
   2   2.0000     -20.641421      -561.6816
   3   2.0000     -20.612469      -560.8938
   4   2.0000     -20.607937      -560.7705
   5   2.0000     -20.518235      -558.3296
   6   2.0000     -11.291648      -307.2614
   7   2.0000     -11.223339      -305.4026
   8   2.0000      -7.620686      -207.3694
   9   2.0000      -5.519715      -150.1991
  10   2.0000      -5.519052      -150.1810
  11   2.0000      -5.518040      -150.1535
  12   2.0000      -1.518903       -41.3315
  13   2.0000      -1.447055       -39.3764
  14   2.0000      -1.400796       -38.1176
  15   2.0000      -1.315166       -35.7875
  16   2.0000      -1.256301       -34.1857
  17   2.0000      -1.023280       -27.8449
  18   2.0000      -0.878415       -23.9029
  19   2.0000      -0.850215       -23.1355
  20   2.0000      -0.749359       -20.3911
  21   2.0000      -0.748322       -20.3629
  22   2.0000      -0.700840       -19.0708
  23   2.0000      -0.689554       -18.7637
  24   2.0000      -0.671305       -18.2671
  25   2.0000      -0.645671       -17.5696
  26   2.0000      -0.611692       -16.6450
  27   2.0000      -0.600332       -16.3359
  28   2.0000      -0.578403       -15.7391
  29   2.0000      -0.567145       -15.4328
  30   2.0000      -0.555936       -15.1278
  31   2.0000      -0.545826       -14.8527
  32   2.0000      -0.523279       -14.2391
  33   2.0000      -0.503696       -13.7063
  34   2.0000      -0.488737       -13.2992
  35   2.0000      -0.483152       -13.1472
  36   2.0000      -0.460017       -12.5177
  37   0.0000       0.024289         0.6609
  38   0.0000       0.029938         0.8147
  39   0.0000       0.032678         0.8892
  40   0.0000       0.039597         1.0775
  41   0.0000       0.044939         1.2229

MULLIKEN ATOMIC CHARGES
-----------------------
   0 O :   -0.693740
   1 P :    2.783018
   2 O :   -1.138241
   3 O :   -0.982506
   4 O :   -0.446953
   5 C :   -0.041887
   6 C :   -0.917670
   7 H :    0.375520
   8 H :    0.315362
   9 H :    0.257381
  10 H :    0.311062
  11 H :    0.289583
  12 O :   -0.894746
  13 H :    0.398674
  14 H :    0.385143
Sum of atomic charges:    0.0000000

LOEWDIN ATOMIC CHARGES
----------------------
   0 O :    0.332314
   1 P :   -1.063495
   2 O :    0.318749
   3 O :    1.086600
   4 O :    0.504007
   5 C :    0.097065
   6 C :    0.903040
   7 H :   -0.325803
   8 H :   -0.345597
   9 H :   -0.291151
  10 H :   -0.289566
  11 H :   -0.306768
  12 O :    1.097294
  13 H :   -0.856969
  14 H :   -0.859720

  Mayer bond orders larger than 0.100000
B(  0-O ,  1-P ) :   0.6348 B(  0-O ,  4-O ) :   0.7462 B(  1-P ,  2-O ) :   1.3883
B(  1-P ,  3-O ) :   0.4883 B(  1-P , 12-O ) :   0.6414 B(  3-O , 14-H ) :   0.8984
B(  4-O ,  5-C ) :   0.6916 B(  5-C ,  6-C ) :   1.0418 B(  5-C ,  7-H ) :   0.7746
B(  5-C ,  8-H ) :   0.8541 B(  6-C ,  9-H ) :   0.9259 B(  6-C , 10-H ) :   0.9178
B(  6-C , 11-H ) :   0.9021 B( 12-O , 13-H ) :   0.8674

MP2 TOTAL ENERGY:     -796.967594258 Eh
FINAL SINGLE POINT ENERGY      -796.967594257781

DIPOLE MOMENT
-------------
                                X             Y             Z
Electronic contribution:     10.88344       0.95354      -0.98556
Nuclear contribution   :    -11.33488      -0.93538       1.12042
                        -----------------------------------------
Total Dipole Moment    :     -0.45144       0.01816       0.13487
                        -----------------------------------------
Magnitude (a.u.)       :      0.47150
Magnitude (Debye)      :      1.19847

Rotational constants in cm-1:     0.116546     0.035957     0.035036
Rotational constants in MHz :  3493.955469  1077.970615  1050.340971

                             ****ORCA TERMINATED NORMALLY****
TOTAL RUN TIME: 0 days 1 hours 53 minutes 13 seconds 279 msec
