                         Program Version 5.0.4 -  RELEASE  -
|  1> ! ri-mp2 aug-cc-pvdz aug-cc-pvdz/c tightscf
|  2> %pal nprocs 16 end
|  3> %maxcore 3800
|  4> %base "DZ_B-F_27_A"
|  5> %scf
|  6> STABPerform true
|  7> STABRestartUHFifUnstable true
|  8> end
|  9>
| 10> *xyz 0 2
| 11> F         3.063827    0.122223    0.011247
| 12> B         1.876233   -0.419727   -0.051345
| 13> P        -0.765535   -0.053269   -0.111368
| 14> O        -1.135315   -0.902543   -1.223512
| 15> O        -1.021113   -0.659001    1.331720
| 16> H        -1.564873   -1.454831    1.301897
| 17> O        -1.460937    1.355930   -0.117611
| 18> H        -1.191111    1.962223    0.581361
| 19> O         0.777792    0.366896    0.002249
| 20> *
| 21>
| 22> $new_job
| 23> ! ri-mp2 aug-cc-pvtz aug-cc-pvtz/c tightscf
| 24> %pal nprocs 16 end
| 25> %maxcore 3800
| 26> %base "TZ_B-F_27_A"
| 27>
| 28> *xyz 0 2
| 29> F         3.063827    0.122223    0.011247
| 30> B         1.876233   -0.419727   -0.051345
| 31> P        -0.765535   -0.053269   -0.111368
| 32> O        -1.135315   -0.902543   -1.223512
| 33> O        -1.021113   -0.659001    1.331720
| 34> H        -1.564873   -1.454831    1.301897
| 35> O        -1.460937    1.355930   -0.117611
| 36> H        -1.191111    1.962223    0.581361
| 37> O         0.777792    0.366896    0.002249
| 38> *
| 39>
| 40> $new_job
| 41> ! ri-mp2 aug-cc-pvqz aug-cc-pvqz/c tightscf
| 42> %pal nprocs 16 end
| 43> %maxcore 3800
| 44> %base "QZ_B-F_27_A"
| 45>
| 46> *xyz 0 2
| 47> F         3.063827    0.122223    0.011247
| 48> B         1.876233   -0.419727   -0.051345
| 49> P        -0.765535   -0.053269   -0.111368
| 50> O        -1.135315   -0.902543   -1.223512
| 51> O        -1.021113   -0.659001    1.331720
| 52> H        -1.564873   -1.454831    1.301897
| 53> O        -1.460937    1.355930   -0.117611
| 54> H        -1.191111    1.962223    0.581361
| 55> O         0.777792    0.366896    0.002249
| 56> *
| 57>
| 58>
| 59>
| 60>
| 61>                          ****END OF INPUT****
 Total Charge           Charge          ....    0
 Multiplicity           Mult            ....    2
 Number of Electrons    NEL             ....   63
MP2 TOTAL ENERGY:     -766.847640888 Eh
FINAL SINGLE POINT ENERGY      -766.847640887983
MP2 TOTAL ENERGY:     -767.296284463 Eh
FINAL SINGLE POINT ENERGY      -767.296284463026

CARTESIAN COORDINATES (ANGSTROEM)
---------------------------------
  F      3.063827    0.122223    0.011247
  B      1.876233   -0.419727   -0.051345
  P     -0.765535   -0.053269   -0.111368
  O     -1.135315   -0.902543   -1.223512
  O     -1.021113   -0.659001    1.331720
  H     -1.564873   -1.454831    1.301897
  O     -1.460937    1.355930   -0.117611
  H     -1.191111    1.962223    0.581361
  O      0.777792    0.366896    0.002249

 Multiplicity           Mult            ....    2
 Number of Electrons    NEL             ....   63
 Basis Dimension        Dim             ....  656

ORBITAL ENERGIES
----------------
                 SPIN UP ORBITALS
  NO   OCC          E(Eh)            E(eV)
   0   1.0000     -80.120180     -2180.1809
   1   1.0000     -26.329365      -716.4584
   2   1.0000     -20.628004      -561.3165
   3   1.0000     -20.623773      -561.2014
   4   1.0000     -20.621375      -561.1361
   5   1.0000     -20.526554      -558.5559
   6   1.0000      -7.735660      -210.4980
   7   1.0000      -7.637770      -207.8343
   8   1.0000      -5.536776      -150.6633
   9   1.0000      -5.536449      -150.6544
  10   1.0000      -5.535260      -150.6221
  11   1.0000      -1.651063       -44.9277
  12   1.0000      -1.490138       -40.5487
  13   1.0000      -1.420678       -38.6586
  14   1.0000      -1.412708       -38.4417
  15   1.0000      -1.323970       -36.0271
  16   1.0000      -0.910760       -24.7830
  17   1.0000      -0.823028       -22.3957
  18   1.0000      -0.798088       -21.7171
  19   1.0000      -0.780807       -21.2468
  20   1.0000      -0.726668       -19.7736
  21   1.0000      -0.709736       -19.3129
  22   1.0000      -0.690148       -18.7799
  23   1.0000      -0.669881       -18.2284
  24   1.0000      -0.635598       -17.2955
  25   1.0000      -0.618112       -16.8197
  26   1.0000      -0.603028       -16.4092
  27   1.0000      -0.580658       -15.8005
  28   1.0000      -0.555931       -15.1276
  29   1.0000      -0.496500       -13.5104
  30   1.0000      -0.491592       -13.3769
  31   1.0000      -0.400164       -10.8890
  32   0.0000       0.018639         0.5072
  33   0.0000       0.029232         0.7954
  34   0.0000       0.036696         0.9985
  35   0.0000       0.041451         1.1279
  36   0.0000       0.050609         1.3771

                 SPIN DOWN ORBITALS
  NO   OCC          E(Eh)            E(eV)
   0   1.0000     -80.120180     -2180.1809
   1   1.0000     -26.325999      -716.3668
   2   1.0000     -20.624861      -561.2310
   3   1.0000     -20.623809      -561.2024
   4   1.0000     -20.621345      -561.1353
   5   1.0000     -20.526597      -558.5571
   6   1.0000      -7.713027      -209.8821
   7   1.0000      -7.637772      -207.8343
   8   1.0000      -5.536791      -150.6637
   9   1.0000      -5.536443      -150.6543
  10   1.0000      -5.535271      -150.6224
  11   1.0000      -1.640724       -44.6464
  12   1.0000      -1.486859       -40.4595
  13   1.0000      -1.413957       -38.4757
  14   1.0000      -1.412148       -38.4265
  15   1.0000      -1.323896       -36.0250
  16   1.0000      -0.905683       -24.6449
  17   1.0000      -0.816331       -22.2135
  18   1.0000      -0.796426       -21.6719
  19   1.0000      -0.765481       -20.8298
  20   1.0000      -0.708202       -19.2712
  21   1.0000      -0.698206       -18.9992
  22   1.0000      -0.684694       -18.6315
  23   1.0000      -0.665595       -18.1118
  24   1.0000      -0.631670       -17.1886
  25   1.0000      -0.613379       -16.6909
  26   1.0000      -0.601807       -16.3760
  27   1.0000      -0.579913       -15.7802
  28   1.0000      -0.554461       -15.0876
  29   1.0000      -0.495976       -13.4962
  30   1.0000      -0.491253       -13.3677
  31   0.0000       0.015425         0.4197
  32   0.0000       0.028835         0.7846
  33   0.0000       0.033276         0.9055
  34   0.0000       0.042067         1.1447
  35   0.0000       0.049642         1.3508

MULLIKEN ATOMIC CHARGES AND SPIN POPULATIONS
--------------------------------------------
   0 F :   -0.721977   -0.001127
   1 B :    1.160802    1.000537
   2 P :    2.585761   -0.015106
   3 O :   -1.093413    0.000117
   4 O :   -0.829095    0.000298
   5 H :    0.378214   -0.001075
   6 O :   -0.852980   -0.001123
   7 H :    0.373945   -0.000129
   8 O :   -1.001256    0.017609
Sum of atomic charges         :   -0.0000000

LOEWDIN ATOMIC CHARGES AND SPIN POPULATIONS
-------------------------------------------
   0 F :    0.704084    0.146567
   1 B :   -1.116073    0.590211
   2 P :   -1.015434    0.068405
   3 O :    0.303686    0.007209
   4 O :    1.100851    0.007502
   5 H :   -0.856345    0.003012
   6 O :    1.088918    0.002012
   7 H :   -0.843706    0.002550
   8 O :    0.634016    0.172532

  Mayer bond orders larger than 0.100000
B(  0-F ,  1-B ) :   0.4693 B(  1-B ,  8-O ) :   0.7604 B(  2-P ,  3-O ) :   1.4507
B(  2-P ,  4-O ) :   0.7093 B(  2-P ,  6-O ) :   0.6790 B(  2-P ,  8-O ) :   0.6190
B(  4-O ,  5-H ) :   0.9049 B(  6-O ,  7-H ) :   0.8706

MP2 TOTAL ENERGY:     -767.440906063 Eh
FINAL SINGLE POINT ENERGY      -767.440906063386

DIPOLE MOMENT
-------------
                                X             Y             Z
Electronic contribution:      5.98828      -0.35864      -0.54829
Nuclear contribution   :     -6.16756       0.72616       1.88449
                        -----------------------------------------
Total Dipole Moment    :     -0.17927       0.36752       1.33619
                        -----------------------------------------
Magnitude (a.u.)       :      1.39736
Magnitude (Debye)      :      3.55181

Rotational constants in cm-1:     0.146866     0.045063     0.044455
Rotational constants in MHz :  4402.939684  1350.953527  1332.715843

                             ****ORCA TERMINATED NORMALLY****
TOTAL RUN TIME: 0 days 1 hours 17 minutes 7 seconds 302 msec
