                         Program Version 5.0.4 -  RELEASE  -
|  1> ! ri-mp2 aug-cc-pvdz aug-cc-pvdz/c tightscf
|  2> %pal nprocs 16 end
|  3> %maxcore 3800
|  4> %base "DZ_Si-Si_40_AB"
|  5> %scf
|  6> STABPerform true
|  7> STABRestartUHFifUnstable true
|  8> end
|  9>
| 10> *xyz 0 1
| 11> Si        -1.674575   -0.435539   -0.000001
| 12> Si         0.152141    1.016931   -0.000006
| 13> C         1.760257   -0.038916    0.000004
| 14> H         0.197366    1.892341    1.195637
| 15> H         0.197371    1.892326   -1.195661
| 16> H        -1.641070   -1.283220    1.209454
| 17> H        -1.641066   -1.283234   -1.209445
| 18> H        -2.926641    0.354161   -0.000008
| 19> O         1.727134   -1.243778    0.000011
| 20> H         2.749509    0.471852    0.000004
| 21> *
| 22>
| 23> $new_job
| 24> ! ri-mp2 aug-cc-pvtz aug-cc-pvtz/c tightscf
| 25> %pal nprocs 16 end
| 26> %maxcore 3800
| 27> %base "TZ_Si-Si_40_AB"
| 28>
| 29> *xyz 0 1
| 30> Si        -1.674575   -0.435539   -0.000001
| 31> Si         0.152141    1.016931   -0.000006
| 32> C         1.760257   -0.038916    0.000004
| 33> H         0.197366    1.892341    1.195637
| 34> H         0.197371    1.892326   -1.195661
| 35> H        -1.641070   -1.283220    1.209454
| 36> H        -1.641066   -1.283234   -1.209445
| 37> H        -2.926641    0.354161   -0.000008
| 38> O         1.727134   -1.243778    0.000011
| 39> H         2.749509    0.471852    0.000004
| 40> *
| 41>
| 42> $new_job
| 43> ! ri-mp2 aug-cc-pvqz aug-cc-pvqz/c tightscf
| 44> %pal nprocs 16 end
| 45> %maxcore 3800
| 46> %base "QZ_Si-Si_40_AB"
| 47>
| 48> *xyz 0 1
| 49> Si        -1.674575   -0.435539   -0.000001
| 50> Si         0.152141    1.016931   -0.000006
| 51> C         1.760257   -0.038916    0.000004
| 52> H         0.197366    1.892341    1.195637
| 53> H         0.197371    1.892326   -1.195661
| 54> H        -1.641070   -1.283220    1.209454
| 55> H        -1.641066   -1.283234   -1.209445
| 56> H        -2.926641    0.354161   -0.000008
| 57> O         1.727134   -1.243778    0.000011
| 58> H         2.749509    0.471852    0.000004
| 59> *
| 60>
| 61>
| 62>
| 63>
| 64>                          ****END OF INPUT****
 Total Charge           Charge          ....    0
 Multiplicity           Mult            ....    1
 Number of Electrons    NEL             ....   48
MP2 TOTAL ENERGY:     -694.609638683 Eh
FINAL SINGLE POINT ENERGY      -694.609638683309
MP2 TOTAL ENERGY:     -694.778249203 Eh
FINAL SINGLE POINT ENERGY      -694.778249202580

CARTESIAN COORDINATES (ANGSTROEM)
---------------------------------
  Si    -1.674575   -0.435539   -0.000001
  Si     0.152141    1.016931   -0.000006
  C      1.760257   -0.038916    0.000004
  H      0.197366    1.892341    1.195637
  H      0.197371    1.892326   -1.195661
  H     -1.641070   -1.283220    1.209454
  H     -1.641066   -1.283234   -1.209445
  H     -2.926641    0.354161   -0.000008
  O      1.727134   -1.243778    0.000011
  H      2.749509    0.471852    0.000004

 Multiplicity           Mult            ....    1
 Number of Electrons    NEL             ....   48
 Basis Dimension        Dim             ....  604

ORBITAL ENERGIES
----------------

  NO   OCC          E(Eh)            E(eV)
   0   2.0000     -68.783411     -1871.6918
   1   2.0000     -68.773929     -1871.4337
   2   2.0000     -20.573421      -559.8312
   3   2.0000     -11.324911      -308.1665
   4   2.0000      -6.134632      -166.9318
   5   2.0000      -6.124741      -166.6627
   6   2.0000      -4.240585      -115.3922
   7   2.0000      -4.240577      -115.3920
   8   2.0000      -4.240495      -115.3897
   9   2.0000      -4.230966      -115.1304
  10   2.0000      -4.230788      -115.1256
  11   2.0000      -4.230738      -115.1242
  12   2.0000      -1.404972       -38.2312
  13   2.0000      -0.855018       -23.2662
  14   2.0000      -0.758160       -20.6306
  15   2.0000      -0.690082       -18.7781
  16   2.0000      -0.661195       -17.9920
  17   2.0000      -0.592735       -16.1291
  18   2.0000      -0.547118       -14.8878
  19   2.0000      -0.502338       -13.6693
  20   2.0000      -0.489703       -13.3255
  21   2.0000      -0.481600       -13.1050
  22   2.0000      -0.424233       -11.5440
  23   2.0000      -0.393193       -10.6993
  24   0.0000       0.023189         0.6310
  25   0.0000       0.028480         0.7750
  26   0.0000       0.037002         1.0069
  27   0.0000       0.039551         1.0762
  28   0.0000       0.047692         1.2978

MULLIKEN ATOMIC CHARGES
-----------------------
   0 Si:    0.369258
   1 Si:    0.785956
   2 C :   -0.130689
   3 H :   -0.190306
   4 H :   -0.190306
   5 H :   -0.123182
   6 H :   -0.123181
   7 H :   -0.161598
   8 O :   -0.742033
   9 H :    0.506081
Sum of atomic charges:    0.0000000

LOEWDIN ATOMIC CHARGES
----------------------
   0 Si:    1.024940
   1 Si:    0.681503
   2 C :   -0.349359
   3 H :   -0.288470
   4 H :   -0.288470
   5 H :   -0.309483
   6 H :   -0.309483
   7 H :   -0.322578
   8 O :    0.598260
   9 H :   -0.436860

  Mayer bond orders larger than 0.100000
B(  0-Si,  1-Si) :   0.7567 B(  0-Si,  5-H ) :   0.7611 B(  0-Si,  6-H ) :   0.7611
B(  0-Si,  7-H ) :   0.7582 B(  1-Si,  2-C ) :   0.7814 B(  1-Si,  3-H ) :   0.8388
B(  1-Si,  4-H ) :   0.8388 B(  2-C ,  8-O ) :   1.7035 B(  2-C ,  9-H ) :   0.6636

MP2 TOTAL ENERGY:     -694.834296033 Eh
FINAL SINGLE POINT ENERGY      -694.834296033223

DIPOLE MOMENT
-------------
                                X             Y             Z
Electronic contribution:      2.79240      -1.05202       0.00001
Nuclear contribution   :     -2.94219       1.98751      -0.00002
                        -----------------------------------------
Total Dipole Moment    :     -0.14979       0.93548      -0.00001
                        -----------------------------------------
Magnitude (a.u.)       :      0.94740
Magnitude (Debye)      :      2.40810

Rotational constants in cm-1:     0.222984     0.087770     0.065849
Rotational constants in MHz :  6684.879323  2631.280160  1974.104160

                             ****ORCA TERMINATED NORMALLY****
TOTAL RUN TIME: 0 days 0 hours 17 minutes 27 seconds 888 msec
