                         Program Version 5.0.4 -  RELEASE  -
|  1> ! ri-mp2 aug-cc-pvdz aug-cc-pvdz/c tightscf
|  2> %pal nprocs 16 end
|  3> %maxcore 3800
|  4> %base "DZ_Si-Si_49_AB"
|  5> %scf
|  6> STABPerform true
|  7> STABRestartUHFifUnstable true
|  8> end
|  9>
| 10> *xyz 0 1
| 11> Si         0.618463    0.951825    0.585800
| 12> Si         2.176115   -0.524429   -0.341931
| 13> C        -1.096023    0.559113   -0.178491
| 14> O        -1.798067    1.228855   -0.838231
| 15> H         3.533319   -0.050673    0.006033
| 16> H         2.019687   -0.529826   -1.811237
| 17> H         0.897697    2.366983    0.270575
| 18> H         0.461891    0.766145    2.041079
| 19> H         1.966665   -1.881776    0.196494
| 20> Cl        -1.590746   -1.167054    0.215276
| 21> *
| 22>
| 23> $new_job
| 24> ! ri-mp2 aug-cc-pvtz aug-cc-pvtz/c tightscf
| 25> %pal nprocs 16 end
| 26> %maxcore 3800
| 27> %base "TZ_Si-Si_49_AB"
| 28>
| 29> *xyz 0 1
| 30> Si         0.618463    0.951825    0.585800
| 31> Si         2.176115   -0.524429   -0.341931
| 32> C        -1.096023    0.559113   -0.178491
| 33> O        -1.798067    1.228855   -0.838231
| 34> H         3.533319   -0.050673    0.006033
| 35> H         2.019687   -0.529826   -1.811237
| 36> H         0.897697    2.366983    0.270575
| 37> H         0.461891    0.766145    2.041079
| 38> H         1.966665   -1.881776    0.196494
| 39> Cl        -1.590746   -1.167054    0.215276
| 40> *
| 41>
| 42> $new_job
| 43> ! ri-mp2 aug-cc-pvqz aug-cc-pvqz/c tightscf
| 44> %pal nprocs 16 end
| 45> %maxcore 3800
| 46> %base "QZ_Si-Si_49_AB"
| 47>
| 48> *xyz 0 1
| 49> Si         0.618463    0.951825    0.585800
| 50> Si         2.176115   -0.524429   -0.341931
| 51> C        -1.096023    0.559113   -0.178491
| 52> O        -1.798067    1.228855   -0.838231
| 53> H         3.533319   -0.050673    0.006033
| 54> H         2.019687   -0.529826   -1.811237
| 55> H         0.897697    2.366983    0.270575
| 56> H         0.461891    0.766145    2.041079
| 57> H         1.966665   -1.881776    0.196494
| 58> Cl        -1.590746   -1.167054    0.215276
| 59> *
| 60>
| 61>
| 62>
| 63>
| 64>                          ****END OF INPUT****
 Total Charge           Charge          ....    0
 Multiplicity           Mult            ....    1
 Number of Electrons    NEL             ....   64
MP2 TOTAL ENERGY:    -1153.703096321 Eh
FINAL SINGLE POINT ENERGY     -1153.703096321467
MP2 TOTAL ENERGY:    -1153.928653103 Eh
FINAL SINGLE POINT ENERGY     -1153.928653102781

CARTESIAN COORDINATES (ANGSTROEM)
---------------------------------
  Si     0.618463    0.951825    0.585800
  Si     2.176115   -0.524429   -0.341931
  C     -1.096023    0.559113   -0.178491
  O     -1.798067    1.228855   -0.838231
  H      3.533319   -0.050673    0.006033
  H      2.019687   -0.529826   -1.811237
  H      0.897697    2.366983    0.270575
  H      0.461891    0.766145    2.041079
  H      1.966665   -1.881776    0.196494
  Cl    -1.590746   -1.167054    0.215276

 Multiplicity           Mult            ....    1
 Number of Electrons    NEL             ....   64
 Basis Dimension        Dim             ....  642

ORBITAL ENERGIES
----------------

  NO   OCC          E(Eh)            E(eV)
   0   2.0000    -104.837927     -2852.7850
   1   2.0000     -68.806227     -1872.3126
   2   2.0000     -68.789244     -1871.8505
   3   2.0000     -20.606497      -560.7313
   4   2.0000     -11.395873      -310.0975
   5   2.0000     -10.564171      -287.4657
   6   2.0000      -8.030882      -218.5314
   7   2.0000      -8.029435      -218.4920
   8   2.0000      -8.029363      -218.4901
   9   2.0000      -6.156800      -167.5351
  10   2.0000      -6.140115      -167.0810
  11   2.0000      -4.263088      -116.0045
  12   2.0000      -4.262549      -115.9899
  13   2.0000      -4.262490      -115.9883
  14   2.0000      -4.246390      -115.5501
  15   2.0000      -4.246136      -115.5432
  16   2.0000      -4.246049      -115.5409
  17   2.0000      -1.461208       -39.7615
  18   2.0000      -1.114434       -30.3253
  19   2.0000      -0.845627       -23.0107
  20   2.0000      -0.758839       -20.6491
  21   2.0000      -0.711413       -19.3585
  22   2.0000      -0.661942       -18.0124
  23   2.0000      -0.624083       -16.9822
  24   2.0000      -0.602307       -16.3896
  25   2.0000      -0.527266       -14.3476
  26   2.0000      -0.506739       -13.7891
  27   2.0000      -0.497159       -13.5284
  28   2.0000      -0.465135       -12.6570
  29   2.0000      -0.462547       -12.5865
  30   2.0000      -0.439342       -11.9551
  31   2.0000      -0.414934       -11.2909
  32   0.0000       0.022440         0.6106
  33   0.0000       0.027169         0.7393
  34   0.0000       0.036607         0.9961
  35   0.0000       0.040548         1.1034
  36   0.0000       0.047979         1.3056

MULLIKEN ATOMIC CHARGES
-----------------------
   0 Si:    0.870131
   1 Si:    0.335390
   2 C :    0.422720
   3 O :   -0.633321
   4 H :   -0.150067
   5 H :   -0.114831
   6 H :   -0.191026
   7 H :   -0.168061
   8 H :   -0.106101
   9 Cl:   -0.264836
Sum of atomic charges:   -0.0000000

LOEWDIN ATOMIC CHARGES
----------------------
   0 Si:    0.513871
   1 Si:    1.013078
   2 C :   -1.446261
   3 O :    0.496252
   4 H :   -0.316567
   5 H :   -0.308329
   6 H :   -0.281341
   7 H :   -0.284259
   8 H :   -0.312332
   9 Cl:    0.925888

  Mayer bond orders larger than 0.100000
B(  0-Si,  1-Si) :   0.7194 B(  0-Si,  2-C ) :   0.6091 B(  0-Si,  6-H ) :   0.8536
B(  0-Si,  7-H ) :   0.8292 B(  1-Si,  4-H ) :   0.7728 B(  1-Si,  5-H ) :   0.7576
B(  1-Si,  8-H ) :   0.7714 B(  2-C ,  3-O ) :   1.7216 B(  2-C ,  9-Cl) :   0.8844

MP2 TOTAL ENERGY:    -1154.004859276 Eh
FINAL SINGLE POINT ENERGY     -1154.004859275812

DIPOLE MOMENT
-------------
                                X             Y             Z
Electronic contribution:     -9.36602      -2.10126       0.05371
Nuclear contribution   :     10.56349       2.25010       0.35376
                        -----------------------------------------
Total Dipole Moment    :      1.19747       0.14883       0.40746
                        -----------------------------------------
Magnitude (a.u.)       :      1.27362
Magnitude (Debye)      :      3.23730

Rotational constants in cm-1:     0.110107     0.047608     0.038328
Rotational constants in MHz :  3300.911374  1427.248274  1149.049776

                             ****ORCA TERMINATED NORMALLY****
TOTAL RUN TIME: 0 days 0 hours 29 minutes 9 seconds 760 msec
