                         Program Version 5.0.4 -  RELEASE  -
|  1> ! ri-mp2 aug-cc-pvdz aug-cc-pvdz/c tightscf
|  2> %pal nprocs 16 end
|  3> %maxcore 3800
|  4> %base "DZ_P-Si_49_AB"
|  5> %scf
|  6> STABPerform true
|  7> STABRestartUHFifUnstable true
|  8> end
|  9>
| 10> *xyz 0 1
| 11> Si        -0.675379   -0.001447   -0.005932
| 12> P         1.574250   -0.015013   -0.122503
| 13> Cl        -1.291611    1.825824   -0.639544
| 14> Cl        -1.303110   -0.315177    1.895399
| 15> Cl        -1.403670   -1.445806   -1.223617
| 16> O         2.124195    0.156518   -1.466887
| 17> O         2.036610    1.098148    0.923448
| 18> H         2.374973    1.890391    0.487938
| 19> O         1.929793   -1.371678    0.620521
| 20> H         2.714453   -1.811146    0.267958
| 21> *
| 22>
| 23> $new_job
| 24> ! ri-mp2 aug-cc-pvtz aug-cc-pvtz/c tightscf
| 25> %pal nprocs 16 end
| 26> %maxcore 3800
| 27> %base "TZ_P-Si_49_AB"
| 28>
| 29> *xyz 0 1
| 30> Si        -0.675379   -0.001447   -0.005932
| 31> P         1.574250   -0.015013   -0.122503
| 32> Cl        -1.291611    1.825824   -0.639544
| 33> Cl        -1.303110   -0.315177    1.895399
| 34> Cl        -1.403670   -1.445806   -1.223617
| 35> O         2.124195    0.156518   -1.466887
| 36> O         2.036610    1.098148    0.923448
| 37> H         2.374973    1.890391    0.487938
| 38> O         1.929793   -1.371678    0.620521
| 39> H         2.714453   -1.811146    0.267958
| 40> *
| 41>
| 42> $new_job
| 43> ! ri-mp2 aug-cc-pvqz aug-cc-pvqz/c tightscf
| 44> %pal nprocs 16 end
| 45> %maxcore 3800
| 46> %base "QZ_P-Si_49_AB"
| 47>
| 48> *xyz 0 1
| 49> Si        -0.675379   -0.001447   -0.005932
| 50> P         1.574250   -0.015013   -0.122503
| 51> Cl        -1.291611    1.825824   -0.639544
| 52> Cl        -1.303110   -0.315177    1.895399
| 53> Cl        -1.403670   -1.445806   -1.223617
| 54> O         2.124195    0.156518   -1.466887
| 55> O         2.036610    1.098148    0.923448
| 56> H         2.374973    1.890391    0.487938
| 57> O         1.929793   -1.371678    0.620521
| 58> H         2.714453   -1.811146    0.267958
| 59> *
| 60>
| 61>
| 62>
| 63>
| 64>                          ****END OF INPUT****
 Total Charge           Charge          ....    0
 Multiplicity           Mult            ....    1
 Number of Electrons    NEL             ....  106
MP2 TOTAL ENERGY:    -2235.453778543 Eh
FINAL SINGLE POINT ENERGY     -2235.453778543337
MP2 TOTAL ENERGY:    -2235.944378667 Eh
FINAL SINGLE POINT ENERGY     -2235.944378666825

CARTESIAN COORDINATES (ANGSTROEM)
---------------------------------
  Si    -0.675379   -0.001447   -0.005932
  P      1.574250   -0.015013   -0.122503
  Cl    -1.291611    1.825824   -0.639544
  Cl    -1.303110   -0.315177    1.895399
  Cl    -1.403670   -1.445806   -1.223617
  O      2.124195    0.156518   -1.466887
  O      2.036610    1.098148    0.923448
  H      2.374973    1.890391    0.487938
  O      1.929793   -1.371678    0.620521
  H      2.714453   -1.811146    0.267958

 Multiplicity           Mult            ....    1
 Number of Electrons    NEL             ....  106
 Basis Dimension        Dim             ....  752

ORBITAL ENERGIES
----------------

  NO   OCC          E(Eh)            E(eV)
   0   2.0000    -104.859864     -2853.3820
   1   2.0000    -104.859526     -2853.3728
   2   2.0000    -104.859088     -2853.3609
   3   2.0000     -80.085851     -2179.2468
   4   2.0000     -68.915850     -1875.2956
   5   2.0000     -20.619156      -561.0758
   6   2.0000     -20.616671      -561.0081
   7   2.0000     -20.526377      -558.5511
   8   2.0000     -10.587387      -288.0974
   9   2.0000     -10.587017      -288.0874
  10   2.0000     -10.586586      -288.0756
  11   2.0000      -8.054150      -219.1646
  12   2.0000      -8.053783      -219.1546
  13   2.0000      -8.053353      -219.1429
  14   2.0000      -8.052923      -219.1312
  15   2.0000      -8.052904      -219.1307
  16   2.0000      -8.052533      -219.1206
  17   2.0000      -8.052523      -219.1203
  18   2.0000      -8.052103      -219.1089
  19   2.0000      -8.052088      -219.1085
  20   2.0000      -7.609202      -207.0569
  21   2.0000      -6.251689      -170.1171
  22   2.0000      -5.507173      -149.8578
  23   2.0000      -5.506568      -149.8413
  24   2.0000      -5.505733      -149.8186
  25   2.0000      -4.358943      -118.6129
  26   2.0000      -4.358907      -118.6119
  27   2.0000      -4.357824      -118.5824
  28   2.0000      -1.455104       -39.5954
  29   2.0000      -1.404391       -38.2154
  30   2.0000      -1.317563       -35.8527
  31   2.0000      -1.160770       -31.5861
  32   2.0000      -1.118061       -30.4240
  33   2.0000      -1.117594       -30.4113
  34   2.0000      -0.885333       -24.0911
  35   2.0000      -0.760004       -20.6808
  36   2.0000      -0.737811       -20.0769
  37   2.0000      -0.690932       -18.8012
  38   2.0000      -0.661468       -17.9995
  39   2.0000      -0.643705       -17.5161
  40   2.0000      -0.591745       -16.1022
  41   2.0000      -0.589500       -16.0411
  42   2.0000      -0.578570       -15.7437
  43   2.0000      -0.569071       -15.4852
  44   2.0000      -0.552283       -15.0284
  45   2.0000      -0.515060       -14.0155
  46   2.0000      -0.514631       -14.0038
  47   2.0000      -0.509908       -13.8753
  48   2.0000      -0.491324       -13.3696
  49   2.0000      -0.487160       -13.2563
  50   2.0000      -0.483635       -13.1604
  51   2.0000      -0.473387       -12.8815
  52   2.0000      -0.436532       -11.8786
  53   0.0000       0.023576         0.6415
  54   0.0000       0.030757         0.8369
  55   0.0000       0.036551         0.9946
  56   0.0000       0.045291         1.2324
  57   0.0000       0.052043         1.4161

MULLIKEN ATOMIC CHARGES
-----------------------
   0 Si:    1.939886
   1 P :    2.132346
   2 Cl:   -0.619795
   3 Cl:   -0.612096
   4 Cl:   -0.611627
   5 O :   -1.187284
   6 O :   -0.886054
   7 H :    0.380740
   8 O :   -0.910671
   9 H :    0.374553
Sum of atomic charges:   -0.0000000

LOEWDIN ATOMIC CHARGES
----------------------
   0 Si:   -2.431020
   1 P :   -0.823695
   2 Cl:    0.882480
   3 Cl:    0.885346
   4 Cl:    0.888560
   5 O :    0.247694
   6 O :    1.045308
   7 H :   -0.876936
   8 O :    1.038346
   9 H :   -0.856085

  Mayer bond orders larger than 0.100000
B(  0-Si,  1-P ) :   0.9143 B(  0-Si,  2-Cl) :   0.5124 B(  0-Si,  3-Cl) :   0.5269
B(  0-Si,  4-Cl) :   0.5142 B(  1-P ,  5-O ) :   1.3547 B(  1-P ,  6-O ) :   0.6456
B(  1-P ,  8-O ) :   0.6029 B(  6-O ,  7-H ) :   0.9027 B(  8-O ,  9-H ) :   0.9054

MP2 TOTAL ENERGY:    -2236.107713859 Eh
FINAL SINGLE POINT ENERGY     -2236.107713858509

DIPOLE MOMENT
-------------
                                X             Y             Z
Electronic contribution:     -8.43633       0.02109      -0.18260
Nuclear contribution   :      8.73020      -0.00090       0.76515
                        -----------------------------------------
Total Dipole Moment    :      0.29387       0.02019       0.58255
                        -----------------------------------------
Magnitude (a.u.)       :      0.65279
Magnitude (Debye)      :      1.65926

Rotational constants in cm-1:     0.033550     0.022796     0.022713
Rotational constants in MHz :  1005.815334   683.409930   680.907311

                             ****ORCA TERMINATED NORMALLY****
TOTAL RUN TIME: 0 days 0 hours 44 minutes 48 seconds 989 msec
