                         Program Version 5.0.4 -  RELEASE  -
|  1> ! ri-mp2 aug-cc-pvdz aug-cc-pvdz/c tightscf
|  2> %pal nprocs 16 end
|  3> %maxcore 3800
|  4> %base "DZ_S-Cl_33_AB"
|  5> %scf
|  6> STABPerform true
|  7> STABRestartUHFifUnstable true
|  8> end
|  9>
| 10> *xyz 0 1
| 11> Cl         2.493606    0.622448    0.051216
| 12> S         1.306734   -1.007460   -0.049683
| 13> P        -1.313463    0.029981   -0.075168
| 14> O        -1.901933   -0.919694   -1.005464
| 15> O        -2.228712    0.508006    1.113547
| 16> H        -2.949059   -0.105058    1.299337
| 17> O        -0.781078    1.376497   -0.694835
| 18> H        -1.034696    1.485229   -1.618443
| 19> O        -0.039946   -0.501326    0.758112
| 20> *
| 21>
| 22> $new_job
| 23> ! ri-mp2 aug-cc-pvtz aug-cc-pvtz/c tightscf
| 24> %pal nprocs 16 end
| 25> %maxcore 3800
| 26> %base "TZ_S-Cl_33_AB"
| 27>
| 28> *xyz 0 1
| 29> Cl         2.493606    0.622448    0.051216
| 30> S         1.306734   -1.007460   -0.049683
| 31> P        -1.313463    0.029981   -0.075168
| 32> O        -1.901933   -0.919694   -1.005464
| 33> O        -2.228712    0.508006    1.113547
| 34> H        -2.949059   -0.105058    1.299337
| 35> O        -0.781078    1.376497   -0.694835
| 36> H        -1.034696    1.485229   -1.618443
| 37> O        -0.039946   -0.501326    0.758112
| 38> *
| 39>
| 40> $new_job
| 41> ! ri-mp2 aug-cc-pvqz aug-cc-pvqz/c tightscf
| 42> %pal nprocs 16 end
| 43> %maxcore 3800
| 44> %base "QZ_S-Cl_33_AB"
| 45>
| 46> *xyz 0 1
| 47> Cl         2.493606    0.622448    0.051216
| 48> S         1.306734   -1.007460   -0.049683
| 49> P        -1.313463    0.029981   -0.075168
| 50> O        -1.901933   -0.919694   -1.005464
| 51> O        -2.228712    0.508006    1.113547
| 52> H        -2.949059   -0.105058    1.299337
| 53> O        -0.781078    1.376497   -0.694835
| 54> H        -1.034696    1.485229   -1.618443
| 55> O        -0.039946   -0.501326    0.758112
| 56> *
| 57>
| 58>
| 59>
| 60>
| 61>                          ****END OF INPUT****
 Total Charge           Charge          ....    0
 Multiplicity           Mult            ....    1
 Number of Electrons    NEL             ....   82
MP2 TOTAL ENERGY:    -1499.691814837 Eh
FINAL SINGLE POINT ENERGY     -1499.691814836938
MP2 TOTAL ENERGY:    -1500.150524746 Eh
FINAL SINGLE POINT ENERGY     -1500.150524746296

CARTESIAN COORDINATES (ANGSTROEM)
---------------------------------
  Cl     2.493606    0.622448    0.051216
  S      1.306734   -1.007460   -0.049683
  P     -1.313463    0.029981   -0.075168
  O     -1.901933   -0.919694   -1.005464
  O     -2.228712    0.508006    1.113547
  H     -2.949059   -0.105058    1.299337
  O     -0.781078    1.376497   -0.694835
  H     -1.034696    1.485229   -1.618443
  O     -0.039946   -0.501326    0.758112

 Multiplicity           Mult            ....    1
 Number of Electrons    NEL             ....   82
 Basis Dimension        Dim             ....  664

ORBITAL ENERGIES
----------------

  NO   OCC          E(Eh)            E(eV)
   0   2.0000    -104.870340     -2853.6670
   1   2.0000     -92.079112     -2505.6000
   2   2.0000     -80.116757     -2180.0878
   3   2.0000     -20.638882      -561.6125
   4   2.0000     -20.621466      -561.1386
   5   2.0000     -20.620380      -561.1091
   6   2.0000     -20.529074      -558.6245
   7   2.0000     -10.594828      -288.2999
   8   2.0000      -9.070719      -246.8268
   9   2.0000      -8.061788      -219.3724
  10   2.0000      -8.059898      -219.3210
  11   2.0000      -8.059574      -219.3122
  12   2.0000      -7.634979      -207.7583
  13   2.0000      -6.751550      -183.7190
  14   2.0000      -6.750198      -183.6822
  15   2.0000      -6.748198      -183.6278
  16   2.0000      -5.533711      -150.5799
  17   2.0000      -5.533599      -150.5769
  18   2.0000      -5.532483      -150.5465
  19   2.0000      -1.488324       -40.4993
  20   2.0000      -1.421063       -38.6691
  21   2.0000      -1.412451       -38.4347
  22   2.0000      -1.323816       -36.0229
  23   2.0000      -1.155647       -31.4467
  24   2.0000      -0.954858       -25.9830
  25   2.0000      -0.861320       -23.4377
  26   2.0000      -0.768168       -20.9029
  27   2.0000      -0.740672       -20.1547
  28   2.0000      -0.696330       -18.9481
  29   2.0000      -0.666069       -18.1247
  30   2.0000      -0.655266       -17.8307
  31   2.0000      -0.638120       -17.3641
  32   2.0000      -0.601342       -16.3634
  33   2.0000      -0.580730       -15.8025
  34   2.0000      -0.560965       -15.2646
  35   2.0000      -0.527313       -14.3489
  36   2.0000      -0.517172       -14.0730
  37   2.0000      -0.492334       -13.3971
  38   2.0000      -0.487830       -13.2745
  39   2.0000      -0.485202       -13.2030
  40   2.0000      -0.380052       -10.3418
  41   0.0000       0.023281         0.6335
  42   0.0000       0.032456         0.8832
  43   0.0000       0.045860         1.2479
  44   0.0000       0.047963         1.3051
  45   0.0000       0.064655         1.7593

MULLIKEN ATOMIC CHARGES
-----------------------
   0 Cl:   -0.222183
   1 S :    0.523168
   2 P :    2.558864
   3 O :   -1.069622
   4 O :   -0.859292
   5 H :    0.372656
   6 O :   -0.839176
   7 H :    0.372890
   8 O :   -0.837305
Sum of atomic charges:    0.0000000

LOEWDIN ATOMIC CHARGES
----------------------
   0 Cl:    0.455756
   1 S :    0.010034
   2 P :   -1.202897
   3 O :    0.290379
   4 O :    1.083497
   5 H :   -0.858960
   6 O :    1.073117
   7 H :   -0.858084
   8 O :    0.007158

  Mayer bond orders larger than 0.100000
B(  0-Cl,  1-S ) :   1.0412 B(  1-S ,  8-O ) :   0.7793 B(  2-P ,  3-O ) :   1.4730
B(  2-P ,  4-O ) :   0.6475 B(  2-P ,  6-O ) :   0.6982 B(  2-P ,  8-O ) :   0.6703
B(  4-O ,  5-H ) :   0.9092 B(  6-O ,  7-H ) :   0.9057

MP2 TOTAL ENERGY:    -1500.300152083 Eh
FINAL SINGLE POINT ENERGY     -1500.300152083099

DIPOLE MOMENT
-------------
                                X             Y             Z
Electronic contribution:      5.76399      -0.14533       0.34237
Nuclear contribution   :     -6.00913       0.46763      -0.29636
                        -----------------------------------------
Total Dipole Moment    :     -0.24514       0.32230       0.04601
                        -----------------------------------------
Magnitude (a.u.)       :      0.40754
Magnitude (Debye)      :      1.03588

Rotational constants in cm-1:     0.106619     0.031054     0.028765
Rotational constants in MHz :  3196.357575   930.962024   862.340874

                             ****ORCA TERMINATED NORMALLY****
TOTAL RUN TIME: 0 days 0 hours 32 minutes 46 seconds 704 msec
