                         Program Version 5.0.4 -  RELEASE  -
|  1> ! ri-mp2 aug-cc-pvdz aug-cc-pvdz/c tightscf
|  2> %pal nprocs 16 end
|  3> %maxcore 3800
|  4> %base "DZ_B-S_9_AB"
|  5>
|  6> *xyz 0 1
|  7> F        -0.067499    2.230292    0.712678
|  8> F        -0.067492   -2.230290   -0.712675
|  9> F        -4.088003   -0.000004   -0.000002
| 10> S         2.564988   -1.198251    0.930677
| 11> S         2.564988    1.198249   -0.930681
| 12> C         0.040109    0.000002    0.000001
| 13> C        -0.713693    1.112845    0.350913
| 14> C        -2.752245   -0.000002   -0.000001
| 15> C        -0.713689   -1.112844   -0.350913
| 16> C        -2.090596    1.150263    0.369898
| 17> H        -2.623452    2.041670    0.663456
| 18> C        -2.090593   -1.150265   -0.369899
| 19> H        -2.623446   -2.041673   -0.663458
| 20> B         1.605053    0.000003    0.000003
| 21> H         1.536596    1.889191   -1.435953
| 22> H         1.536594   -1.889146    1.436011
| 23> *
| 24>
| 25> $new_job
| 26> ! ri-mp2 aug-cc-pvtz aug-cc-pvtz/c tightscf
| 27> %pal nprocs 16 end
| 28> %maxcore 3800
| 29> %base "TZ_B-S_9_AB"
| 30>
| 31> *xyz 0 1
| 32> F        -0.067499    2.230292    0.712678
| 33> F        -0.067492   -2.230290   -0.712675
| 34> F        -4.088003   -0.000004   -0.000002
| 35> S         2.564988   -1.198251    0.930677
| 36> S         2.564988    1.198249   -0.930681
| 37> C         0.040109    0.000002    0.000001
| 38> C        -0.713693    1.112845    0.350913
| 39> C        -2.752245   -0.000002   -0.000001
| 40> C        -0.713689   -1.112844   -0.350913
| 41> C        -2.090596    1.150263    0.369898
| 42> H        -2.623452    2.041670    0.663456
| 43> C        -2.090593   -1.150265   -0.369899
| 44> H        -2.623446   -2.041673   -0.663458
| 45> B         1.605053    0.000003    0.000003
| 46> H         1.536596    1.889191   -1.435953
| 47> H         1.536594   -1.889146    1.436011
| 48> *
| 49>
| 50> $new_job
| 51> ! ri-mp2 aug-cc-pvqz aug-cc-pvqz/c tightscf
| 52> %pal nprocs 16 end
| 53> %maxcore 3800
| 54> %base "QZ_B-S_9_AB"
| 55>
| 56> *xyz 0 1
| 57> F        -0.067499    2.230292    0.712678
| 58> F        -0.067492   -2.230290   -0.712675
| 59> F        -4.088003   -0.000004   -0.000002
| 60> S         2.564988   -1.198251    0.930677
| 61> S         2.564988    1.198249   -0.930681
| 62> C         0.040109    0.000002    0.000001
| 63> C        -0.713693    1.112845    0.350913
| 64> C        -2.752245   -0.000002   -0.000001
| 65> C        -0.713689   -1.112844   -0.350913
| 66> C        -2.090596    1.150263    0.369898
| 67> H        -2.623452    2.041670    0.663456
| 68> C        -2.090593   -1.150265   -0.369899
| 69> H        -2.623446   -2.041673   -0.663458
| 70> B         1.605053    0.000003    0.000003
| 71> H         1.536596    1.889191   -1.435953
| 72> H         1.536594   -1.889146    1.436011
| 73> *
| 74>
| 75>
| 76>
| 77>
| 78>                          ****END OF INPUT****
 Total Charge           Charge          ....    0
 Multiplicity           Mult            ....    1
 Number of Electrons    NEL             ....  104
MP2 TOTAL ENERGY:    -1349.488999277 Eh
FINAL SINGLE POINT ENERGY     -1349.488999277000
MP2 TOTAL ENERGY:    -1350.050884709 Eh
FINAL SINGLE POINT ENERGY     -1350.050884709251

CARTESIAN COORDINATES (ANGSTROEM)
---------------------------------
  F     -0.067499    2.230292    0.712678
  F     -0.067492   -2.230290   -0.712675
  F     -4.088003   -0.000004   -0.000002
  S      2.564988   -1.198251    0.930677
  S      2.564988    1.198249   -0.930681
  C      0.040109    0.000002    0.000001
  C     -0.713693    1.112845    0.350913
  C     -2.752245   -0.000002   -0.000001
  C     -0.713689   -1.112844   -0.350913
  C     -2.090596    1.150263    0.369898
  H     -2.623452    2.041670    0.663456
  C     -2.090593   -1.150265   -0.369899
  H     -2.623446   -2.041673   -0.663458
  B      1.605053    0.000003    0.000003
  H      1.536596    1.889191   -1.435953
  H      1.536594   -1.889146    1.436011

 Multiplicity           Mult            ....    1
 Number of Electrons    NEL             ....  104
 Basis Dimension        Dim             .... 1152

ORBITAL ENERGIES
----------------

  NO   OCC          E(Eh)            E(eV)
   0   2.0000     -91.961360     -2502.3958
   1   2.0000     -91.961360     -2502.3958
   2   2.0000     -26.336951      -716.6649
   3   2.0000     -26.335345      -716.6212
   4   2.0000     -26.335344      -716.6211
   5   2.0000     -11.368502      -309.3527
   6   2.0000     -11.368496      -309.3525
   7   2.0000     -11.367615      -309.3285
   8   2.0000     -11.263202      -306.4873
   9   2.0000     -11.263177      -306.4866
  10   2.0000     -11.255526      -306.2784
  11   2.0000      -8.966587      -243.9932
  12   2.0000      -8.966583      -243.9931
  13   2.0000      -7.669954      -208.7101
  14   2.0000      -6.648128      -180.9048
  15   2.0000      -6.648125      -180.9047
  16   2.0000      -6.647179      -180.8789
  17   2.0000      -6.647172      -180.8788
  18   2.0000      -6.646716      -180.8663
  19   2.0000      -6.646712      -180.8662
  20   2.0000      -1.660166       -45.1754
  21   2.0000      -1.658963       -45.1427
  22   2.0000      -1.658538       -45.1311
  23   2.0000      -1.205827       -32.8122
  24   2.0000      -1.072725       -29.1903
  25   2.0000      -1.064863       -28.9764
  26   2.0000      -1.014485       -27.6055
  27   2.0000      -0.971488       -26.4355
  28   2.0000      -0.899068       -24.4649
  29   2.0000      -0.898892       -24.4601
  30   2.0000      -0.812245       -22.1023
  31   2.0000      -0.789908       -21.4945
  32   2.0000      -0.733333       -19.9550
  33   2.0000      -0.732467       -19.9314
  34   2.0000      -0.728733       -19.8298
  35   2.0000      -0.725368       -19.7383
  36   2.0000      -0.720704       -19.6114
  37   2.0000      -0.720684       -19.6108
  38   2.0000      -0.680662       -18.5218
  39   2.0000      -0.672848       -18.3091
  40   2.0000      -0.644062       -17.5258
  41   2.0000      -0.596792       -16.2395
  42   2.0000      -0.585225       -15.9248
  43   2.0000      -0.582620       -15.8539
  44   2.0000      -0.540479       -14.7072
  45   2.0000      -0.534056       -14.5324
  46   2.0000      -0.484731       -13.1902
  47   2.0000      -0.459612       -12.5067
  48   2.0000      -0.439101       -11.9486
  49   2.0000      -0.375488       -10.2175
  50   2.0000      -0.372531       -10.1371
  51   2.0000      -0.366899        -9.9838
  52   0.0000       0.020687         0.5629
  53   0.0000       0.028495         0.7754
  54   0.0000       0.034449         0.9374
  55   0.0000       0.034913         0.9500
  56   0.0000       0.045197         1.2299

MULLIKEN ATOMIC CHARGES
-----------------------
   0 F :   -0.776917
   1 F :   -0.776916
   2 F :   -0.769756
   3 S :   -0.101197
   4 S :   -0.101197
   5 C :   -0.283654
   6 C :    0.870142
   7 C :    0.976164
   8 C :    0.870145
   9 C :   -0.739124
  10 H :    0.480338
  11 C :   -0.739130
  12 H :    0.480339
  13 B :    0.572581
  14 H :    0.019091
  15 H :    0.019091
Sum of atomic charges:    0.0000000

LOEWDIN ATOMIC CHARGES
----------------------
   0 F :    0.824713
   1 F :    0.824712
   2 F :    0.806507
   3 S :    1.681597
   4 S :    1.681598
   5 C :   -0.193460
   6 C :   -0.754131
   7 C :   -0.709630
   8 C :   -0.754130
   9 C :    0.272646
  10 H :   -0.333923
  11 C :    0.272647
  12 H :   -0.333923
  13 B :   -1.720713
  14 H :   -0.782257
  15 H :   -0.782253

  Mayer bond orders larger than 0.100000
B(  0-F ,  5-C ) :   0.2605 B(  0-F ,  6-C ) :  -0.1464 B(  0-F ,  9-C ) :   0.1196
B(  1-F ,  5-C ) :   0.2605 B(  1-F ,  8-C ) :  -0.1464 B(  1-F , 11-C ) :   0.1196
B(  2-F ,  7-C ) :  -0.1396 B(  2-F ,  9-C ) :   0.1348 B(  2-F , 11-C ) :   0.1348
B(  3-S ,  5-C ) :  -0.1038 B(  3-S , 13-B ) :   1.0483 B(  3-S , 15-H ) :   1.0918
B(  4-S ,  5-C ) :  -0.1038 B(  4-S , 13-B ) :   1.0482 B(  4-S , 14-H ) :   1.0918
B(  5-C ,  6-C ) :   1.3172 B(  5-C ,  8-C ) :   1.3172 B(  5-C ,  9-C ) :  -0.1692
B(  5-C , 11-C ) :  -0.1692 B(  5-C , 13-B ) :   0.7154 B(  6-C ,  7-C ) :  -0.1996
B(  6-C ,  9-C ) :   1.4136 B(  7-C ,  8-C ) :  -0.1996 B(  7-C ,  9-C ) :   1.5028
B(  7-C , 11-C ) :   1.5028 B(  8-C , 11-C ) :   1.4136 B(  9-C , 10-H ) :   0.6717
B( 11-C , 12-H ) :   0.6717

MP2 TOTAL ENERGY:    -1350.235722518 Eh
FINAL SINGLE POINT ENERGY     -1350.235722517626

DIPOLE MOMENT
-------------
                                X             Y             Z
Electronic contribution:     -1.37414      -0.00003      -0.00004
Nuclear contribution   :      0.51193       0.00004       0.00005
                        -----------------------------------------
Total Dipole Moment    :     -0.86221       0.00001       0.00001
                        -----------------------------------------
Magnitude (a.u.)       :      0.86221
Magnitude (Debye)      :      2.19156

Rotational constants in cm-1:     0.037940     0.015606     0.012464
Rotational constants in MHz :  1137.419326   467.842993   373.650799

                             ****ORCA TERMINATED NORMALLY****
TOTAL RUN TIME: 0 days 0 hours 43 minutes 38 seconds 320 msec
