                         Program Version 5.0.4 -  RELEASE  -
|  1> ! ri-mp2 aug-cc-pvdz aug-cc-pvdz/c tightscf
|  2> %pal nprocs 16 end
|  3> %maxcore 3800
|  4> %base "DZ_B-B_51_AB"
|  5> %scf
|  6> STABPerform true
|  7> STABRestartUHFifUnstable true
|  8> end
|  9>
| 10> *xyz 0 1
| 11> B         2.055466    0.593221   -0.000001
| 12> B         1.050694   -0.712736    0.000010
| 13> S        -0.706797   -0.666593   -0.000005
| 14> C        -1.142966    1.095019    0.000005
| 15> H        -2.227717    1.169059   -0.000016
| 16> H        -0.757046    1.584616   -0.890901
| 17> H        -0.757083    1.584597    0.890938
| 18> H         2.446288    1.090047   -1.013384
| 19> H         2.446259    1.090084    1.013375
| 20> H         1.485051   -1.825448   -0.000006
| 21> *
| 22>
| 23> $new_job
| 24> ! ri-mp2 aug-cc-pvtz aug-cc-pvtz/c tightscf
| 25> %pal nprocs 16 end
| 26> %maxcore 3800
| 27> %base "TZ_B-B_51_AB"
| 28>
| 29> *xyz 0 1
| 30> B         2.055466    0.593221   -0.000001
| 31> B         1.050694   -0.712736    0.000010
| 32> S        -0.706797   -0.666593   -0.000005
| 33> C        -1.142966    1.095019    0.000005
| 34> H        -2.227717    1.169059   -0.000016
| 35> H        -0.757046    1.584616   -0.890901
| 36> H        -0.757083    1.584597    0.890938
| 37> H         2.446288    1.090047   -1.013384
| 38> H         2.446259    1.090084    1.013375
| 39> H         1.485051   -1.825448   -0.000006
| 40> *
| 41>
| 42> $new_job
| 43> ! ri-mp2 aug-cc-pvqz aug-cc-pvqz/c tightscf
| 44> %pal nprocs 16 end
| 45> %maxcore 3800
| 46> %base "QZ_B-B_51_AB"
| 47>
| 48> *xyz 0 1
| 49> B         2.055466    0.593221   -0.000001
| 50> B         1.050694   -0.712736    0.000010
| 51> S        -0.706797   -0.666593   -0.000005
| 52> C        -1.142966    1.095019    0.000005
| 53> H        -2.227717    1.169059   -0.000016
| 54> H        -0.757046    1.584616   -0.890901
| 55> H        -0.757083    1.584597    0.890938
| 56> H         2.446288    1.090047   -1.013384
| 57> H         2.446259    1.090084    1.013375
| 58> H         1.485051   -1.825448   -0.000006
| 59> *
| 60>
| 61>
| 62>
| 63>
| 64>                          ****END OF INPUT****
 Total Charge           Charge          ....    0
 Multiplicity           Mult            ....    1
 Number of Electrons    NEL             ....   38
MP2 TOTAL ENERGY:     -488.716157174 Eh
FINAL SINGLE POINT ENERGY      -488.716157173503
MP2 TOTAL ENERGY:     -488.855686784 Eh
FINAL SINGLE POINT ENERGY      -488.855686784301

CARTESIAN COORDINATES (ANGSTROEM)
---------------------------------
  B      2.055466    0.593221   -0.000001
  B      1.050694   -0.712736    0.000010
  S     -0.706797   -0.666593   -0.000005
  C     -1.142966    1.095019    0.000005
  H     -2.227717    1.169059   -0.000016
  H     -0.757046    1.584616   -0.890901
  H     -0.757083    1.584597    0.890938
  H      2.446288    1.090047   -1.013384
  H      2.446259    1.090084    1.013375
  H      1.485051   -1.825448   -0.000006

 Multiplicity           Mult            ....    1
 Number of Electrons    NEL             ....   38
 Basis Dimension        Dim             ....  600

ORBITAL ENERGIES
----------------

  NO   OCC          E(Eh)            E(eV)
   0   2.0000     -91.950561     -2502.1020
   1   2.0000     -11.259259      -306.3800
   2   2.0000      -8.954714      -243.6702
   3   2.0000      -7.596265      -206.7049
   4   2.0000      -7.594748      -206.6636
   5   2.0000      -6.636166      -180.5792
   6   2.0000      -6.635183      -180.5525
   7   2.0000      -6.635062      -180.5492
   8   2.0000      -1.047070       -28.4922
   9   2.0000      -0.884422       -24.0663
  10   2.0000      -0.725027       -19.7290
  11   2.0000      -0.625280       -17.0147
  12   2.0000      -0.599783       -16.3209
  13   2.0000      -0.595533       -16.2053
  14   2.0000      -0.504260       -13.7216
  15   2.0000      -0.496638       -13.5142
  16   2.0000      -0.471746       -12.8369
  17   2.0000      -0.404959       -11.0195
  18   2.0000      -0.376863       -10.2550
  19   0.0000       0.022500         0.6123
  20   0.0000       0.029226         0.7953
  21   0.0000       0.031823         0.8659
  22   0.0000       0.033753         0.9185
  23   0.0000       0.042487         1.1561

MULLIKEN ATOMIC CHARGES
-----------------------
   0 B :    0.619427
   1 B :    0.089276
   2 S :    0.034580
   3 C :   -0.930859
   4 H :    0.403813
   5 H :    0.268651
   6 H :    0.268652
   7 H :   -0.242672
   8 H :   -0.242670
   9 H :   -0.268197
Sum of atomic charges:    0.0000000

LOEWDIN ATOMIC CHARGES
----------------------
   0 B :    0.357546
   1 B :   -0.525445
   2 S :    1.422404
   3 C :    0.550891
   4 H :   -0.377533
   5 H :   -0.361375
   6 H :   -0.361374
   7 H :   -0.210397
   8 H :   -0.210398
   9 H :   -0.284318

  Mayer bond orders larger than 0.100000
B(  0-B ,  1-B ) :   0.9682 B(  0-B ,  7-H ) :   0.9524 B(  0-B ,  8-H ) :   0.9524
B(  1-B ,  2-S ) :   1.4275 B(  1-B ,  9-H ) :   0.8907 B(  2-S ,  3-C ) :   0.9822
B(  3-C ,  4-H ) :   0.8391 B(  3-C ,  5-H ) :   0.9077 B(  3-C ,  6-H ) :   0.9077

MP2 TOTAL ENERGY:     -488.898962018 Eh
FINAL SINGLE POINT ENERGY      -488.898962017760

DIPOLE MOMENT
-------------
                                X             Y             Z
Electronic contribution:     -0.22839      -4.20001       0.00001
Nuclear contribution   :      0.15381       4.78487      -0.00000
                        -----------------------------------------
Total Dipole Moment    :     -0.07459       0.58486       0.00001
                        -----------------------------------------
Magnitude (a.u.)       :      0.58960
Magnitude (Debye)      :      1.49863

Rotational constants in cm-1:     0.315901     0.148456     0.105640
Rotational constants in MHz :  9470.464507  4450.597347  3167.015061

                             ****ORCA TERMINATED NORMALLY****
TOTAL RUN TIME: 0 days 0 hours 24 minutes 21 seconds 545 msec
