                         Program Version 5.0.4 -  RELEASE  -
|  1> ! ri-mp2 aug-cc-pvdz aug-cc-pvdz/c tightscf
|  2> %pal nprocs 16 end
|  3> %maxcore 3800
|  4> %base "DZ_B-Cl_60_AB"
|  5>
|  6> *xyz 0 1
|  7> Cl        -2.069578    1.494441    0.000001
|  8> Cl        -2.069579   -1.494441    0.000017
|  9> B        -1.150540   -0.000000   -0.000015
| 10> C         0.389264    0.000000   -0.000010
| 11> C         1.109621    1.198332   -0.000015
| 12> H         0.575283    2.138343   -0.000023
| 13> C         2.490983    1.200287   -0.000011
| 14> H         3.030714    2.137750   -0.000015
| 15> C         3.183039   -0.000000   -0.000001
| 16> C         1.109621   -1.198332   -0.000000
| 17> H         0.575283   -2.138343    0.000004
| 18> C         2.490983   -1.200287    0.000004
| 19> H         3.030714   -2.137750    0.000012
| 20> H         4.265307   -0.000000    0.000002
| 21> *
| 22>
| 23> $new_job
| 24> ! ri-mp2 aug-cc-pvtz aug-cc-pvtz/c tightscf
| 25> %pal nprocs 16 end
| 26> %maxcore 3800
| 27> %base "TZ_B-Cl_60_AB"
| 28>
| 29> *xyz 0 1
| 30> Cl        -2.069578    1.494441    0.000001
| 31> Cl        -2.069579   -1.494441    0.000017
| 32> B        -1.150540   -0.000000   -0.000015
| 33> C         0.389264    0.000000   -0.000010
| 34> C         1.109621    1.198332   -0.000015
| 35> H         0.575283    2.138343   -0.000023
| 36> C         2.490983    1.200287   -0.000011
| 37> H         3.030714    2.137750   -0.000015
| 38> C         3.183039   -0.000000   -0.000001
| 39> C         1.109621   -1.198332   -0.000000
| 40> H         0.575283   -2.138343    0.000004
| 41> C         2.490983   -1.200287    0.000004
| 42> H         3.030714   -2.137750    0.000012
| 43> H         4.265307   -0.000000    0.000002
| 44> *
| 45>
| 46> $new_job
| 47> ! ri-mp2 aug-cc-pvqz aug-cc-pvqz/c tightscf
| 48> %pal nprocs 16 end
| 49> %maxcore 3800
| 50> %base "QZ_B-Cl_60_AB"
| 51>
| 52> *xyz 0 1
| 53> Cl        -2.069578    1.494441    0.000001
| 54> Cl        -2.069579   -1.494441    0.000017
| 55> B        -1.150540   -0.000000   -0.000015
| 56> C         0.389264    0.000000   -0.000010
| 57> C         1.109621    1.198332   -0.000015
| 58> H         0.575283    2.138343   -0.000023
| 59> C         2.490983    1.200287   -0.000011
| 60> H         3.030714    2.137750   -0.000015
| 61> C         3.183039   -0.000000   -0.000001
| 62> C         1.109621   -1.198332   -0.000000
| 63> H         0.575283   -2.138343    0.000004
| 64> C         2.490983   -1.200287    0.000004
| 65> H         3.030714   -2.137750    0.000012
| 66> H         4.265307   -0.000000    0.000002
| 67> *
| 68>
| 69>
| 70>
| 71>
| 72>                          ****END OF INPUT****
 Total Charge           Charge          ....    0
 Multiplicity           Mult            ....    1
 Number of Electrons    NEL             ....   80
MP2 TOTAL ENERGY:    -1175.124110355 Eh
FINAL SINGLE POINT ENERGY     -1175.124110355375
MP2 TOTAL ENERGY:    -1175.464680446 Eh
FINAL SINGLE POINT ENERGY     -1175.464680446142

CARTESIAN COORDINATES (ANGSTROEM)
---------------------------------
  Cl    -2.069578    1.494441    0.000001
  Cl    -2.069579   -1.494441    0.000017
  B     -1.150540   -0.000000   -0.000015
  C      0.389264    0.000000   -0.000010
  C      1.109621    1.198332   -0.000015
  H      0.575283    2.138343   -0.000023
  C      2.490983    1.200287   -0.000011
  H      3.030714    2.137750   -0.000015
  C      3.183039   -0.000000   -0.000001
  C      1.109621   -1.198332   -0.000000
  H      0.575283   -2.138343    0.000004
  C      2.490983   -1.200287    0.000004
  H      3.030714   -2.137750    0.000012
  H      4.265307   -0.000000    0.000002

 Multiplicity           Mult            ....    1
 Number of Electrons    NEL             ....   80
 Basis Dimension        Dim             ....  958

ORBITAL ENERGIES
----------------

  NO   OCC          E(Eh)            E(eV)
   0   2.0000    -104.836325     -2852.7414
   1   2.0000    -104.836324     -2852.7414
   2   2.0000     -11.255110      -306.2671
   3   2.0000     -11.252422      -306.1940
   4   2.0000     -11.252402      -306.1934
   5   2.0000     -11.242515      -305.9244
   6   2.0000     -11.242443      -305.9224
   7   2.0000     -11.231824      -305.6335
   8   2.0000     -10.564304      -287.4693
   9   2.0000     -10.564295      -287.4691
  10   2.0000      -8.031133      -218.5382
  11   2.0000      -8.031131      -218.5382
  12   2.0000      -8.030080      -218.5096
  13   2.0000      -8.030079      -218.5095
  14   2.0000      -8.029857      -218.5035
  15   2.0000      -8.029856      -218.5035
  16   2.0000      -7.704515      -209.6505
  17   2.0000      -1.173359       -31.9287
  18   2.0000      -1.139293       -31.0017
  19   2.0000      -1.096201       -29.8292
  20   2.0000      -1.032515       -28.0962
  21   2.0000      -1.032071       -28.0841
  22   2.0000      -0.846410       -23.0320
  23   2.0000      -0.840473       -22.8704
  24   2.0000      -0.734617       -19.9900
  25   2.0000      -0.681097       -18.5336
  26   2.0000      -0.645623       -17.5683
  27   2.0000      -0.635438       -17.2911
  28   2.0000      -0.603501       -16.4221
  29   2.0000      -0.596871       -16.2417
  30   2.0000      -0.557968       -15.1831
  31   2.0000      -0.534702       -14.5500
  32   2.0000      -0.514108       -13.9896
  33   2.0000      -0.505444       -13.7538
  34   2.0000      -0.503071       -13.6892
  35   2.0000      -0.464355       -12.6357
  36   2.0000      -0.462108       -12.5746
  37   2.0000      -0.448561       -12.2060
  38   2.0000      -0.357643        -9.7320
  39   2.0000      -0.352534        -9.5929
  40   0.0000       0.020295         0.5523
  41   0.0000       0.027535         0.7493
  42   0.0000       0.030640         0.8338
  43   0.0000       0.039093         1.0638
  44   0.0000       0.042363         1.1528

MULLIKEN ATOMIC CHARGES
-----------------------
   0 Cl:   -0.246178
   1 Cl:   -0.246178
   2 B :    0.852747
   3 C :   -0.272806
   4 C :   -0.392564
   5 H :    0.333795
   6 C :   -0.271997
   7 H :    0.259211
   8 C :   -0.292383
   9 C :   -0.392563
  10 H :    0.333796
  11 C :   -0.271996
  12 H :    0.259211
  13 H :    0.347904
Sum of atomic charges:    0.0000000

LOEWDIN ATOMIC CHARGES
----------------------
   0 Cl:    1.298791
   1 Cl:    1.298790
   2 B :   -2.312508
   3 C :   -0.162564
   4 C :    0.261724
   5 H :   -0.377203
   6 C :    0.356286
   7 H :   -0.319137
   8 C :    0.346725
   9 C :    0.261724
  10 H :   -0.377203
  11 C :    0.356286
  12 H :   -0.319137
  13 H :   -0.312574

  Mayer bond orders larger than 0.100000
B(  0-Cl,  2-B ) :   0.9245 B(  0-Cl,  3-C ) :   0.2457 B(  0-Cl,  5-H ) :  -0.1072
B(  1-Cl,  2-B ) :   0.9245 B(  1-Cl,  3-C ) :   0.2457 B(  1-Cl, 10-H ) :  -0.1072
B(  2-B ,  3-C ) :   1.2196 B(  3-C ,  4-C ) :   1.0464 B(  3-C ,  6-C ) :  -0.3302
B(  3-C ,  9-C ) :   1.0464 B(  3-C , 11-C ) :  -0.3302 B(  4-C ,  5-H ) :   0.9824
B(  4-C ,  6-C ) :   1.2960 B(  4-C ,  7-H ) :  -0.1274 B(  4-C , 11-C ) :   0.1528
B(  6-C ,  7-H ) :   1.1098 B(  6-C ,  8-C ) :   1.1145 B(  6-C ,  9-C ) :   0.1528
B(  6-C , 13-H ) :  -0.1009 B(  7-H ,  8-C ) :  -0.1033 B(  8-C , 11-C ) :   1.1145
B(  8-C , 12-H ) :  -0.1033 B(  8-C , 13-H ) :   1.0012 B(  9-C , 10-H ) :   0.9824
B(  9-C , 11-C ) :   1.2960 B(  9-C , 12-H ) :  -0.1274 B( 11-C , 12-H ) :   1.1098
B( 11-C , 13-H ) :  -0.1009

MP2 TOTAL ENERGY:    -1175.576426193 Eh
FINAL SINGLE POINT ENERGY     -1175.576426192770

DIPOLE MOMENT
-------------
                                X             Y             Z
Electronic contribution:    -16.29277       0.00000       0.00002
Nuclear contribution   :     17.33653       0.00000      -0.00003
                        -----------------------------------------
Total Dipole Moment    :      1.04376       0.00000      -0.00001
                        -----------------------------------------
Magnitude (a.u.)       :      1.04376
Magnitude (Debye)      :      2.65302

Rotational constants in cm-1:     0.068557     0.025714     0.018700
Rotational constants in MHz :  2055.279973   770.875648   560.607940

                             ****ORCA TERMINATED NORMALLY****
TOTAL RUN TIME: 0 days 0 hours 26 minutes 35 seconds 517 msec
