                         Program Version 5.0.4 -  RELEASE  -
|  1> ! ri-mp2 aug-cc-pvdz aug-cc-pvdz/c tightscf
|  2> %pal nprocs 16 end
|  3> %maxcore 3800
|  4> %base "DZ_Si-Cl_73_A"
|  5> %scf
|  6> STABPerform true
|  7> STABRestartUHFifUnstable true
|  8> end
|  9>
| 10> *xyz 0 2
| 11> Si         0.018121   -0.051893    0.544986
| 12> S         0.245503    1.954789   -0.131885
| 13> Cl         1.563276   -1.232729   -0.169976
| 14> H         1.580476    1.938263   -0.010801
| 15> S        -1.896746   -0.614391   -0.199889
| 16> H        -1.989980   -1.701727    0.578962
| 17> *
| 18>
| 19> $new_job
| 20> ! ri-mp2 aug-cc-pvtz aug-cc-pvtz/c tightscf
| 21> %pal nprocs 16 end
| 22> %maxcore 3800
| 23> %base "TZ_Si-Cl_73_A"
| 24>
| 25> *xyz 0 2
| 26> Si         0.018121   -0.051893    0.544986
| 27> S         0.245503    1.954789   -0.131885
| 28> Cl         1.563276   -1.232729   -0.169976
| 29> H         1.580476    1.938263   -0.010801
| 30> S        -1.896746   -0.614391   -0.199889
| 31> H        -1.989980   -1.701727    0.578962
| 32> *
| 33>
| 34> $new_job
| 35> ! ri-mp2 aug-cc-pvqz aug-cc-pvqz/c tightscf
| 36> %pal nprocs 16 end
| 37> %maxcore 3800
| 38> %base "QZ_Si-Cl_73_A"
| 39>
| 40> *xyz 0 2
| 41> Si         0.018121   -0.051893    0.544986
| 42> S         0.245503    1.954789   -0.131885
| 43> Cl         1.563276   -1.232729   -0.169976
| 44> H         1.580476    1.938263   -0.010801
| 45> S        -1.896746   -0.614391   -0.199889
| 46> H        -1.989980   -1.701727    0.578962
| 47> *
| 48>
| 49>
| 50>
| 51>
| 52>                          ****END OF INPUT****
 Total Charge           Charge          ....    0
 Multiplicity           Mult            ....    2
 Number of Electrons    NEL             ....   65
MP2 TOTAL ENERGY:    -1545.264876672 Eh
FINAL SINGLE POINT ENERGY     -1545.264876672453
MP2 TOTAL ENERGY:    -1545.464570286 Eh
FINAL SINGLE POINT ENERGY     -1545.464570285626

CARTESIAN COORDINATES (ANGSTROEM)
---------------------------------
  Si     0.018121   -0.051893    0.544986
  S      0.245503    1.954789   -0.131885
  Cl     1.563276   -1.232729   -0.169976
  H      1.580476    1.938263   -0.010801
  S     -1.896746   -0.614391   -0.199889
  H     -1.989980   -1.701727    0.578962

 Multiplicity           Mult            ....    2
 Number of Electrons    NEL             ....   65
 Basis Dimension        Dim             ....  428

ORBITAL ENERGIES
----------------
                 SPIN UP ORBITALS
  NO   OCC          E(Eh)            E(eV)
   0   1.0000    -104.840706     -2852.8607
   1   1.0000     -91.972544     -2502.7002
   2   1.0000     -91.972497     -2502.6989
   3   1.0000     -68.874206     -1874.1624
   4   1.0000     -10.567834      -287.5654
   5   1.0000      -8.976941      -244.2750
   6   1.0000      -8.976806      -244.2713
   7   1.0000      -8.036182      -218.6756
   8   1.0000      -8.033222      -218.5951
   9   1.0000      -8.032989      -218.5887
  10   1.0000      -6.659495      -181.2141
  11   1.0000      -6.659399      -181.2115
  12   1.0000      -6.657657      -181.1641
  13   1.0000      -6.657569      -181.1617
  14   1.0000      -6.656571      -181.1345
  15   1.0000      -6.656296      -181.1270
  16   1.0000      -6.214656      -169.1094
  17   1.0000      -4.324286      -117.6698
  18   1.0000      -4.317024      -117.4722
  19   1.0000      -4.316832      -117.4670
  20   1.0000      -1.114318       -30.3221
  21   1.0000      -1.007953       -27.4278
  22   1.0000      -0.979242       -26.6465
  23   1.0000      -0.688839       -18.7443
  24   1.0000      -0.594791       -16.1851
  25   1.0000      -0.551741       -15.0136
  26   1.0000      -0.515236       -14.0203
  27   1.0000      -0.512614       -13.9489
  28   1.0000      -0.503079       -13.6895
  29   1.0000      -0.456818       -12.4307
  30   1.0000      -0.423382       -11.5208
  31   1.0000      -0.399406       -10.8684
  32   1.0000      -0.336323        -9.1518
  33   0.0000       0.026135         0.7112
  34   0.0000       0.033800         0.9197
  35   0.0000       0.040337         1.0976
  36   0.0000       0.044358         1.2070
  37   0.0000       0.062459         1.6996

                 SPIN DOWN ORBITALS
  NO   OCC          E(Eh)            E(eV)
   0   1.0000    -104.839344     -2852.8236
   1   1.0000     -91.971435     -2502.6700
   2   1.0000     -91.971355     -2502.6678
   3   1.0000     -68.868329     -1874.0025
   4   1.0000     -10.566323      -287.5243
   5   1.0000      -8.975645      -244.2397
   6   1.0000      -8.975607      -244.2387
   7   1.0000      -8.032728      -218.5816
   8   1.0000      -8.032248      -218.5686
   9   1.0000      -8.030585      -218.5233
  10   1.0000      -6.657218      -181.1521
  11   1.0000      -6.657185      -181.1512
  12   1.0000      -6.656239      -181.1255
  13   1.0000      -6.655963      -181.1179
  14   1.0000      -6.654151      -181.0686
  15   1.0000      -6.653837      -181.0601
  16   1.0000      -6.204734      -168.8394
  17   1.0000      -4.313538      -117.3773
  18   1.0000      -4.313264      -117.3699
  19   1.0000      -4.304983      -117.1445
  20   1.0000      -1.103174       -30.0189
  21   1.0000      -0.997846       -27.1528
  22   1.0000      -0.970897       -26.4195
  23   1.0000      -0.658986       -17.9319
  24   1.0000      -0.581993       -15.8368
  25   1.0000      -0.546341       -14.8667
  26   1.0000      -0.508749       -13.8438
  27   1.0000      -0.487727       -13.2717
  28   1.0000      -0.486330       -13.2337
  29   1.0000      -0.443704       -12.0738
  30   1.0000      -0.411428       -11.1955
  31   1.0000      -0.391649       -10.6573
  32   0.0000       0.011026         0.3000
  33   0.0000       0.034311         0.9337
  34   0.0000       0.037277         1.0144
  35   0.0000       0.041013         1.1160
  36   0.0000       0.045376         1.2347

MULLIKEN ATOMIC CHARGES AND SPIN POPULATIONS
--------------------------------------------
   0 Si:    1.218431    0.780191
   1 S :   -0.438810    0.090030
   2 Cl:   -0.551634    0.056770
   3 H :    0.098299   -0.008465
   4 S :   -0.414927    0.087499
   5 H :    0.088641   -0.006026
Sum of atomic charges         :    0.0000000

LOEWDIN ATOMIC CHARGES AND SPIN POPULATIONS
-------------------------------------------
   0 Si:   -1.404926    0.518492
   1 S :    1.265132    0.143835
   2 Cl:    0.725871    0.141224
   3 H :   -0.930545    0.021149
   4 S :    1.269525    0.147500
   5 H :   -0.925058    0.027799

  Mayer bond orders larger than 0.100000
B(  0-Si,  1-S ) :   0.9169 B(  0-Si,  2-Cl) :   0.6501 B(  0-Si,  4-S ) :   0.9219
B(  1-S ,  3-H ) :   1.0164 B(  4-S ,  5-H ) :   1.0140

MP2 TOTAL ENERGY:    -1545.531084166 Eh
FINAL SINGLE POINT ENERGY     -1545.531084165660

DIPOLE MOMENT
-------------
                                X             Y             Z
Electronic contribution:      2.50711      -1.94377      -0.31164
Nuclear contribution   :     -2.44400       1.84695       0.74228
                        -----------------------------------------
Total Dipole Moment    :      0.06311      -0.09683       0.43064
                        -----------------------------------------
Magnitude (a.u.)       :      0.44588
Magnitude (Debye)      :      1.13334

Rotational constants in cm-1:     0.083232     0.074544     0.041559
Rotational constants in MHz :  2495.224953  2234.778405  1245.908812

                             ****ORCA TERMINATED NORMALLY****
TOTAL RUN TIME: 0 days 0 hours 20 minutes 38 seconds 397 msec
