                         Program Version 5.0.4 -  RELEASE  -
|  1> ! ri-mp2 aug-cc-pvdz aug-cc-pvdz/c tightscf
|  2> %pal nprocs 16 end
|  3> %maxcore 3800
|  4> %base "DZ_P-N_80_AB"
|  5>
|  6> *xyz 0 1
|  7> P         2.457130   -0.277106   -0.397558
|  8> N         0.932623   -1.005355   -0.205229
|  9> C        -0.343693   -0.451780   -0.113922
| 10> C        -1.414929   -1.268296    0.249395
| 11> C        -0.594148    0.889774   -0.387884
| 12> C        -1.880680    1.392506   -0.296232
| 13> C        -2.939653    0.579448    0.065218
| 14> C        -2.694488   -0.758025    0.334217
| 15> H        -3.941515    0.979475    0.135111
| 16> H        -3.508639   -1.412820    0.616411
| 17> H        -1.233510   -2.314337    0.466497
| 18> H         0.213226    1.541196   -0.688068
| 19> H        -2.052796    2.438338   -0.515287
| 20> C         2.565589    0.920235    0.992365
| 21> H         1.664955    1.513620    1.135586
| 22> H         3.404117    1.591265    0.797292
| 23> H         2.778147    0.375492    1.911493
| 24> H         2.146275    0.664590   -1.409131
| 25> H         0.956447   -2.005906   -0.108868
| 26> *
| 27>
| 28> $new_job
| 29> ! ri-mp2 aug-cc-pvtz aug-cc-pvtz/c tightscf
| 30> %pal nprocs 16 end
| 31> %maxcore 3800
| 32> %base "TZ_P-N_80_AB"
| 33>
| 34> *xyz 0 1
| 35> P         2.457130   -0.277106   -0.397558
| 36> N         0.932623   -1.005355   -0.205229
| 37> C        -0.343693   -0.451780   -0.113922
| 38> C        -1.414929   -1.268296    0.249395
| 39> C        -0.594148    0.889774   -0.387884
| 40> C        -1.880680    1.392506   -0.296232
| 41> C        -2.939653    0.579448    0.065218
| 42> C        -2.694488   -0.758025    0.334217
| 43> H        -3.941515    0.979475    0.135111
| 44> H        -3.508639   -1.412820    0.616411
| 45> H        -1.233510   -2.314337    0.466497
| 46> H         0.213226    1.541196   -0.688068
| 47> H        -2.052796    2.438338   -0.515287
| 48> C         2.565589    0.920235    0.992365
| 49> H         1.664955    1.513620    1.135586
| 50> H         3.404117    1.591265    0.797292
| 51> H         2.778147    0.375492    1.911493
| 52> H         2.146275    0.664590   -1.409131
| 53> H         0.956447   -2.005906   -0.108868
| 54> *
| 55>
| 56> $new_job
| 57> ! ri-mp2 aug-cc-pvqz aug-cc-pvqz/c tightscf
| 58> %pal nprocs 16 end
| 59> %maxcore 3800
| 60> %base "QZ_P-N_80_AB"
| 61>
| 62> *xyz 0 1
| 63> P         2.457130   -0.277106   -0.397558
| 64> N         0.932623   -1.005355   -0.205229
| 65> C        -0.343693   -0.451780   -0.113922
| 66> C        -1.414929   -1.268296    0.249395
| 67> C        -0.594148    0.889774   -0.387884
| 68> C        -1.880680    1.392506   -0.296232
| 69> C        -2.939653    0.579448    0.065218
| 70> C        -2.694488   -0.758025    0.334217
| 71> H        -3.941515    0.979475    0.135111
| 72> H        -3.508639   -1.412820    0.616411
| 73> H        -1.233510   -2.314337    0.466497
| 74> H         0.213226    1.541196   -0.688068
| 75> H        -2.052796    2.438338   -0.515287
| 76> C         2.565589    0.920235    0.992365
| 77> H         1.664955    1.513620    1.135586
| 78> H         3.404117    1.591265    0.797292
| 79> H         2.778147    0.375492    1.911493
| 80> H         2.146275    0.664590   -1.409131
| 81> H         0.956447   -2.005906   -0.108868
| 82> *
| 83>
| 84>
| 85>
| 86>
| 87>                          ****END OF INPUT****
 Total Charge           Charge          ....    0
 Multiplicity           Mult            ....    1
 Number of Electrons    NEL             ....   74
MP2 TOTAL ENERGY:     -667.393653813 Eh
FINAL SINGLE POINT ENERGY      -667.393653813179
MP2 TOTAL ENERGY:     -667.735107916 Eh
FINAL SINGLE POINT ENERGY      -667.735107915868

CARTESIAN COORDINATES (ANGSTROEM)
---------------------------------
  P      2.457130   -0.277106   -0.397558
  N      0.932623   -1.005355   -0.205229
  C     -0.343693   -0.451780   -0.113922
  C     -1.414929   -1.268296    0.249395
  C     -0.594148    0.889774   -0.387884
  C     -1.880680    1.392506   -0.296232
  C     -2.939653    0.579448    0.065218
  C     -2.694488   -0.758025    0.334217
  H     -3.941515    0.979475    0.135111
  H     -3.508639   -1.412820    0.616411
  H     -1.233510   -2.314337    0.466497
  H      0.213226    1.541196   -0.688068
  H     -2.052796    2.438338   -0.515287
  C      2.565589    0.920235    0.992365
  H      1.664955    1.513620    1.135586
  H      3.404117    1.591265    0.797292
  H      2.778147    0.375492    1.911493
  H      2.146275    0.664590   -1.409131
  H      0.956447   -2.005906   -0.108868

 Multiplicity           Mult            ....    1
 Number of Electrons    NEL             ....   74
 Basis Dimension        Dim             .... 1184

ORBITAL ENERGIES
----------------

  NO   OCC          E(Eh)            E(eV)
   0   2.0000     -79.958103     -2175.7706
   1   2.0000     -15.567271      -423.6070
   2   2.0000     -11.280623      -306.9614
   3   2.0000     -11.234175      -305.6974
   4   2.0000     -11.233874      -305.6893
   5   2.0000     -11.224535      -305.4351
   6   2.0000     -11.222458      -305.3786
   7   2.0000     -11.220260      -305.3188
   8   2.0000     -11.218924      -305.2824
   9   2.0000      -7.496373      -203.9867
  10   2.0000      -5.390803      -146.6912
  11   2.0000      -5.390186      -146.6744
  12   2.0000      -5.389532      -146.6566
  13   2.0000      -1.233667       -33.5698
  14   2.0000      -1.136609       -30.9287
  15   2.0000      -1.018899       -27.7256
  16   2.0000      -1.002590       -27.2819
  17   2.0000      -0.971463       -26.4348
  18   2.0000      -0.842693       -22.9308
  19   2.0000      -0.829909       -22.5830
  20   2.0000      -0.772369       -21.0172
  21   2.0000      -0.715668       -19.4743
  22   2.0000      -0.670114       -18.2347
  23   2.0000      -0.637145       -17.3376
  24   2.0000      -0.609883       -16.5958
  25   2.0000      -0.596561       -16.2333
  26   2.0000      -0.589069       -16.0294
  27   2.0000      -0.571075       -15.5397
  28   2.0000      -0.551910       -15.0182
  29   2.0000      -0.543529       -14.7902
  30   2.0000      -0.511032       -13.9059
  31   2.0000      -0.496486       -13.5101
  32   2.0000      -0.488586       -13.2951
  33   2.0000      -0.433231       -11.7888
  34   2.0000      -0.359366        -9.7788
  35   2.0000      -0.341421        -9.2905
  36   2.0000      -0.297878        -8.1057
  37   0.0000       0.024339         0.6623
  38   0.0000       0.027598         0.7510
  39   0.0000       0.030616         0.8331
  40   0.0000       0.037443         1.0189
  41   0.0000       0.039823         1.0836

MULLIKEN ATOMIC CHARGES
-----------------------
   0 P :    0.592204
   1 N :   -0.759279
   2 C :    0.707252
   3 C :   -0.502875
   4 C :   -0.113297
   5 C :   -0.417759
   6 C :   -0.352659
   7 C :   -0.383617
   8 H :    0.306287
   9 H :    0.236712
  10 H :    0.239901
  11 H :    0.366405
  12 H :    0.206898
  13 C :   -1.107097
  14 H :    0.324952
  15 H :    0.353050
  16 H :    0.282044
  17 H :   -0.145886
  18 H :    0.166765
Sum of atomic charges:   -0.0000000

LOEWDIN ATOMIC CHARGES
----------------------
   0 P :    1.131498
   1 N :    0.612319
   2 C :   -0.314385
   3 C :    0.331350
   4 C :    0.302991
   5 C :    0.337239
   6 C :    0.330766
   7 C :    0.329733
   8 H :   -0.329832
   9 H :   -0.319470
  10 H :   -0.322990
  11 H :   -0.380831
  12 H :   -0.317293
  13 C :    0.760669
  14 H :   -0.374013
  15 H :   -0.366331
  16 H :   -0.364571
  17 H :   -0.413801
  18 H :   -0.633047

  Mayer bond orders larger than 0.100000
B(  0-P ,  1-N ) :   0.8472 B(  0-P , 13-C ) :   0.9121 B(  0-P , 17-H ) :   0.9221
B(  1-N ,  2-C ) :   0.6865 B(  1-N , 18-H ) :   1.1204 B(  2-C ,  3-C ) :   1.0485
B(  2-C ,  4-C ) :   1.1910 B(  2-C ,  5-C ) :  -0.2350 B(  2-C ,  7-C ) :  -0.2990
B(  3-C ,  5-C ) :   0.1346 B(  3-C ,  7-C ) :   1.3994 B(  3-C ,  9-H ) :  -0.1490
B(  3-C , 10-H ) :   0.9956 B(  4-C ,  5-C ) :   1.1229 B(  4-C ,  6-C ) :  -0.1055
B(  4-C , 11-H ) :   0.8971 B(  4-C , 12-H ) :  -0.1388 B(  5-C ,  6-C ) :   1.2326
B(  5-C , 11-H ) :  -0.1092 B(  5-C , 12-H ) :   1.1735 B(  6-C ,  7-C ) :   1.1510
B(  6-C ,  8-H ) :   1.0345 B(  7-C ,  9-H ) :   1.1402 B( 13-C , 14-H ) :   0.8736
B( 13-C , 15-H ) :   0.8983 B( 13-C , 16-H ) :   0.9233

MP2 TOTAL ENERGY:     -667.841954996 Eh
FINAL SINGLE POINT ENERGY      -667.841954995511

DIPOLE MOMENT
-------------
                                X             Y             Z
Electronic contribution:      1.84076      -3.56034      -2.46301
Nuclear contribution   :     -1.90572       3.62473       2.71532
                        -----------------------------------------
Total Dipole Moment    :     -0.06496       0.06439       0.25230
                        -----------------------------------------
Magnitude (a.u.)       :      0.26837
Magnitude (Debye)      :      0.68215

Rotational constants in cm-1:     0.112670     0.026561     0.023362
Rotational constants in MHz :  3377.771955   796.284417   700.383888

                             ****ORCA TERMINATED NORMALLY****
TOTAL RUN TIME: 0 days 0 hours 45 minutes 20 seconds 248 msec
