                         Program Version 5.0.4 -  RELEASE  -
|  1> ! ri-mp2 aug-cc-pvdz aug-cc-pvdz/c tightscf
|  2> %pal nprocs 16 end
|  3> %maxcore 3800
|  4> %base "DZ_Si-Si_79_AB"
|  5> %scf
|  6> STABPerform true
|  7> STABRestartUHFifUnstable true
|  8> end
|  9>
| 10> *xyz 0 1
| 11> Si         1.138853    1.154797    0.270606
| 12> Si        -1.138853    1.154797   -0.270606
| 13> N        -1.863841   -0.364144    0.089538
| 14> H        -1.356584    1.402064   -1.717358
| 15> H        -1.753062    2.322055    0.431181
| 16> N         1.863841   -0.364144   -0.089538
| 17> H         1.356584    1.402064    1.717358
| 18> H         1.753062    2.322055   -0.431181
| 19> C        -1.506998   -1.132310    1.261818
| 20> H        -2.157276   -0.917989    2.120481
| 21> H        -0.477160   -0.933292    1.555789
| 22> H        -1.585309   -2.203293    1.049313
| 23> C         1.506998   -1.132310   -1.261818
| 24> H         2.157276   -0.917990   -2.120481
| 25> H         0.477160   -0.933292   -1.555789
| 26> H         1.585309   -2.203293   -1.049313
| 27> C        -3.175035   -0.690090   -0.427050
| 28> H        -3.370403   -0.141192   -1.348126
| 29> H        -3.977680   -0.453128    0.284240
| 30> H        -3.240668   -1.758975   -0.654480
| 31> C         3.175035   -0.690090    0.427050
| 32> H         3.370403   -0.141192    1.348126
| 33> H         3.977680   -0.453128   -0.284240
| 34> H         3.240668   -1.758975    0.654480
| 35> *
| 36>
| 37> $new_job
| 38> ! ri-mp2 aug-cc-pvtz aug-cc-pvtz/c tightscf
| 39> %pal nprocs 16 end
| 40> %maxcore 3800
| 41> %base "TZ_Si-Si_79_AB"
| 42>
| 43> *xyz 0 1
| 44> Si         1.138853    1.154797    0.270606
| 45> Si        -1.138853    1.154797   -0.270606
| 46> N        -1.863841   -0.364144    0.089538
| 47> H        -1.356584    1.402064   -1.717358
| 48> H        -1.753062    2.322055    0.431181
| 49> N         1.863841   -0.364144   -0.089538
| 50> H         1.356584    1.402064    1.717358
| 51> H         1.753062    2.322055   -0.431181
| 52> C        -1.506998   -1.132310    1.261818
| 53> H        -2.157276   -0.917989    2.120481
| 54> H        -0.477160   -0.933292    1.555789
| 55> H        -1.585309   -2.203293    1.049313
| 56> C         1.506998   -1.132310   -1.261818
| 57> H         2.157276   -0.917990   -2.120481
| 58> H         0.477160   -0.933292   -1.555789
| 59> H         1.585309   -2.203293   -1.049313
| 60> C        -3.175035   -0.690090   -0.427050
| 61> H        -3.370403   -0.141192   -1.348126
| 62> H        -3.977680   -0.453128    0.284240
| 63> H        -3.240668   -1.758975   -0.654480
| 64> C         3.175035   -0.690090    0.427050
| 65> H         3.370403   -0.141192    1.348126
| 66> H         3.977680   -0.453128   -0.284240
| 67> H         3.240668   -1.758975    0.654480
| 68> *
| 69>
| 70> $new_job
| 71> ! ri-mp2 aug-cc-pvqz aug-cc-pvqz/c tightscf
| 72> %pal nprocs 16 end
| 73> %maxcore 3800
| 74> %base "QZ_Si-Si_79_AB"
| 75>
| 76> *xyz 0 1
| 77> Si         1.138853    1.154797    0.270606
| 78> Si        -1.138853    1.154797   -0.270606
| 79> N        -1.863841   -0.364144    0.089538
| 80> H        -1.356584    1.402064   -1.717358
| 81> H        -1.753062    2.322055    0.431181
| 82> N         1.863841   -0.364144   -0.089538
| 83> H         1.356584    1.402064    1.717358
| 84> H         1.753062    2.322055   -0.431181
| 85> C        -1.506998   -1.132310    1.261818
| 86> H        -2.157276   -0.917989    2.120481
| 87> H        -0.477160   -0.933292    1.555789
| 88> H        -1.585309   -2.203293    1.049313
| 89> C         1.506998   -1.132310   -1.261818
| 90> H         2.157276   -0.917990   -2.120481
| 91> H         0.477160   -0.933292   -1.555789
| 92> H         1.585309   -2.203293   -1.049313
| 93> C        -3.175035   -0.690090   -0.427050
| 94> H        -3.370403   -0.141192   -1.348126
| 95> H        -3.977680   -0.453128    0.284240
| 96> H        -3.240668   -1.758975   -0.654480
| 97> C         3.175035   -0.690090    0.427050
| 98> H         3.370403   -0.141192    1.348126
| 99> H         3.977680   -0.453128   -0.284240
|100> H         3.240668   -1.758975    0.654480
|101> *
|102>
|103>
|104>
|105>
|106>                          ****END OF INPUT****
 Total Charge           Charge          ....    0
 Multiplicity           Mult            ....    1
 Number of Electrons    NEL             ....   82
MP2 TOTAL ENERGY:     -848.756387324 Eh
FINAL SINGLE POINT ENERGY      -848.756387323633
MP2 TOTAL ENERGY:     -849.095230704 Eh
FINAL SINGLE POINT ENERGY      -849.095230704426

CARTESIAN COORDINATES (ANGSTROEM)
---------------------------------
  Si     1.138853    1.154797    0.270606
  Si    -1.138853    1.154797   -0.270606
  N     -1.863841   -0.364144    0.089538
  H     -1.356584    1.402064   -1.717358
  H     -1.753062    2.322055    0.431181
  N      1.863841   -0.364144   -0.089538
  H      1.356584    1.402064    1.717358
  H      1.753062    2.322055   -0.431181
  C     -1.506998   -1.132310    1.261818
  H     -2.157276   -0.917989    2.120481
  H     -0.477160   -0.933292    1.555789
  H     -1.585309   -2.203293    1.049313
  C      1.506998   -1.132310   -1.261818
  H      2.157276   -0.917990   -2.120481
  H      0.477160   -0.933292   -1.555789
  H      1.585309   -2.203293   -1.049313
  C     -3.175035   -0.690090   -0.427050
  H     -3.370403   -0.141192   -1.348126
  H     -3.977680   -0.453128    0.284240
  H     -3.240668   -1.758975   -0.654480
  C      3.175035   -0.690090    0.427050
  H      3.370403   -0.141192    1.348126
  H      3.977680   -0.453128   -0.284240
  H      3.240668   -1.758975    0.654480

 Multiplicity           Mult            ....    1
 Number of Electrons    NEL             ....   82
 Basis Dimension        Dim             .... 1384

ORBITAL ENERGIES
----------------

  NO   OCC          E(Eh)            E(eV)
   0   2.0000     -68.762555     -1871.1243
   1   2.0000     -68.762554     -1871.1242
   2   2.0000     -15.532122      -422.6505
   3   2.0000     -15.532122      -422.6505
   4   2.0000     -11.247068      -306.0483
   5   2.0000     -11.247068      -306.0483
   6   2.0000     -11.246195      -306.0245
   7   2.0000     -11.246195      -306.0245
   8   2.0000      -6.110754      -166.2821
   9   2.0000      -6.110606      -166.2780
  10   2.0000      -4.217692      -114.7692
  11   2.0000      -4.217232      -114.7567
  12   2.0000      -4.217054      -114.7519
  13   2.0000      -4.216851      -114.7464
  14   2.0000      -4.216802      -114.7450
  15   2.0000      -4.216731      -114.7431
  16   2.0000      -1.199464       -32.6391
  17   2.0000      -1.196448       -32.5570
  18   2.0000      -0.955837       -26.0097
  19   2.0000      -0.954325       -25.9685
  20   2.0000      -0.861003       -23.4291
  21   2.0000      -0.855836       -23.2885
  22   2.0000      -0.730265       -19.8715
  23   2.0000      -0.682529       -18.5726
  24   2.0000      -0.630557       -17.1583
  25   2.0000      -0.622338       -16.9347
  26   2.0000      -0.613773       -16.7016
  27   2.0000      -0.610454       -16.6113
  28   2.0000      -0.607600       -16.5336
  29   2.0000      -0.584031       -15.8923
  30   2.0000      -0.543558       -14.7910
  31   2.0000      -0.541830       -14.7440
  32   2.0000      -0.517546       -14.0831
  33   2.0000      -0.516424       -14.0526
  34   2.0000      -0.493424       -13.4268
  35   2.0000      -0.490142       -13.3374
  36   2.0000      -0.479645       -13.0518
  37   2.0000      -0.461762       -12.5652
  38   2.0000      -0.396603       -10.7921
  39   2.0000      -0.354367        -9.6428
  40   2.0000      -0.344332        -9.3697
  41   0.0000       0.023874         0.6497
  42   0.0000       0.028647         0.7795
  43   0.0000       0.031923         0.8687
  44   0.0000       0.033468         0.9107
  45   0.0000       0.043256         1.1771

MULLIKEN ATOMIC CHARGES
-----------------------
   0 Si:    1.092176
   1 Si:    1.092177
   2 N :   -0.235317
   3 H :   -0.314975
   4 H :   -0.551606
   5 N :   -0.235317
   6 H :   -0.314975
   7 H :   -0.551605
   8 C :   -1.058413
   9 H :    0.333997
  10 H :    0.479968
  11 H :    0.300356
  12 C :   -1.058414
  13 H :    0.333998
  14 H :    0.479968
  15 H :    0.300356
  16 C :   -0.960746
  17 H :    0.294896
  18 H :    0.332139
  19 H :    0.287524
  20 C :   -0.960746
  21 H :    0.294895
  22 H :    0.332139
  23 H :    0.287524
Sum of atomic charges:    0.0000000

LOEWDIN ATOMIC CHARGES
----------------------
   0 Si:    0.597534
   1 Si:    0.597534
   2 N :    0.328762
   3 H :   -0.227933
   4 H :   -0.236659
   5 N :    0.328762
   6 H :   -0.227933
   7 H :   -0.236659
   8 C :    0.666468
   9 H :   -0.270011
  10 H :   -0.343918
  11 H :   -0.286405
  12 C :    0.666468
  13 H :   -0.270011
  14 H :   -0.343918
  15 H :   -0.286405
  16 C :    0.666011
  17 H :   -0.325220
  18 H :   -0.277177
  19 H :   -0.291452
  20 C :    0.666011
  21 H :   -0.325220
  22 H :   -0.277177
  23 H :   -0.291452

  Mayer bond orders larger than 0.100000
B(  0-Si,  1-Si) :   0.7100 B(  0-Si,  5-N ) :   0.9059 B(  0-Si,  6-H ) :   0.8145
B(  0-Si,  7-H ) :   0.5187 B(  1-Si,  2-N ) :   0.9059 B(  1-Si,  3-H ) :   0.8145
B(  1-Si,  4-H ) :   0.5187 B(  2-N ,  8-C ) :   1.0155 B(  2-N , 16-C ) :   0.8339
B(  5-N , 12-C ) :   1.0155 B(  5-N , 20-C ) :   0.8339 B(  8-C ,  9-H ) :   0.9139
B(  8-C , 10-H ) :   0.7640 B(  8-C , 11-H ) :   0.9469 B( 12-C , 13-H ) :   0.9139
B( 12-C , 14-H ) :   0.7640 B( 12-C , 15-H ) :   0.9469 B( 16-C , 17-H ) :   0.9476
B( 16-C , 18-H ) :   0.9474 B( 16-C , 19-H ) :   0.9671 B( 20-C , 21-H ) :   0.9476
B( 20-C , 22-H ) :   0.9474 B( 20-C , 23-H ) :   0.9671

MP2 TOTAL ENERGY:     -849.198353449 Eh
FINAL SINGLE POINT ENERGY      -849.198353448584

DIPOLE MOMENT
-------------
                                X             Y             Z
Electronic contribution:      0.00000       5.13425      -0.00000
Nuclear contribution   :      0.00000      -5.72168      -0.00000
                        -----------------------------------------
Total Dipole Moment    :      0.00000      -0.58742      -0.00000
                        -----------------------------------------
Magnitude (a.u.)       :      0.58742
Magnitude (Debye)      :      1.49311

Rotational constants in cm-1:     0.073432     0.026266     0.023313
Rotational constants in MHz :  2201.438333   787.423208   698.907557

                             ****ORCA TERMINATED NORMALLY****
TOTAL RUN TIME: 0 days 6 hours 24 minutes 22 seconds 803 msec
