                         Program Version 5.0.4 -  RELEASE  -
|  1> ! ri-mp2 aug-cc-pvdz aug-cc-pvdz/c tightscf
|  2> %pal nprocs 16 end
|  3> %maxcore 3800
|  4> %base "DZ_Si-Si_22_AB"
|  5> %scf
|  6> STABPerform true
|  7> STABRestartUHFifUnstable true
|  8> end
|  9>
| 10> *xyz 0 1
| 11> Si        -2.117968    0.000000   -0.142036
| 12> Si         0.110443    0.000000    0.541145
| 13> H         0.314404    0.000000    1.999178
| 14> H        -2.788269    1.208695    0.382673
| 15> Cl         1.044878    1.673535   -0.198050
| 16> H        -2.158361    0.000000   -1.618362
| 17> Cl         1.044878   -1.673535   -0.198050
| 18> H        -2.788269   -1.208695    0.382673
| 19> *
| 20>
| 21> $new_job
| 22> ! ri-mp2 aug-cc-pvtz aug-cc-pvtz/c tightscf
| 23> %pal nprocs 16 end
| 24> %maxcore 3800
| 25> %base "TZ_Si-Si_22_AB"
| 26>
| 27> *xyz 0 1
| 28> Si        -2.117968    0.000000   -0.142036
| 29> Si         0.110443    0.000000    0.541145
| 30> H         0.314404    0.000000    1.999178
| 31> H        -2.788269    1.208695    0.382673
| 32> Cl         1.044878    1.673535   -0.198050
| 33> H        -2.158361    0.000000   -1.618362
| 34> Cl         1.044878   -1.673535   -0.198050
| 35> H        -2.788269   -1.208695    0.382673
| 36> *
| 37>
| 38> $new_job
| 39> ! ri-mp2 aug-cc-pvqz aug-cc-pvqz/c tightscf
| 40> %pal nprocs 16 end
| 41> %maxcore 3800
| 42> %base "QZ_Si-Si_22_AB"
| 43>
| 44> *xyz 0 1
| 45> Si        -2.117968    0.000000   -0.142036
| 46> Si         0.110443    0.000000    0.541145
| 47> H         0.314404    0.000000    1.999178
| 48> H        -2.788269    1.208695    0.382673
| 49> Cl         1.044878    1.673535   -0.198050
| 50> H        -2.158361    0.000000   -1.618362
| 51> Cl         1.044878   -1.673535   -0.198050
| 52> H        -2.788269   -1.208695    0.382673
| 53> *
| 54>
| 55>
| 56>
| 57>
| 58>                          ****END OF INPUT****
 Total Charge           Charge          ....    0
 Multiplicity           Mult            ....    1
 Number of Electrons    NEL             ....   66
MP2 TOTAL ENERGY:    -1499.801781609 Eh
FINAL SINGLE POINT ENERGY     -1499.801781608822
MP2 TOTAL ENERGY:    -1500.000323898 Eh
FINAL SINGLE POINT ENERGY     -1500.000323897953

CARTESIAN COORDINATES (ANGSTROEM)
---------------------------------
  Si    -2.117968    0.000000   -0.142036
  Si     0.110443    0.000000    0.541145
  H      0.314404    0.000000    1.999178
  H     -2.788269    1.208695    0.382673
  Cl     1.044878    1.673535   -0.198050
  H     -2.158361    0.000000   -1.618362
  Cl     1.044878   -1.673535   -0.198050
  H     -2.788269   -1.208695    0.382673

 Multiplicity           Mult            ....    1
 Number of Electrons    NEL             ....   66
 Basis Dimension        Dim             ....  520

ORBITAL ENERGIES
----------------

  NO   OCC          E(Eh)            E(eV)
   0   2.0000    -104.838186     -2852.7921
   1   2.0000    -104.838186     -2852.7921
   2   2.0000     -68.856585     -1873.6829
   3   2.0000     -68.785825     -1871.7575
   4   2.0000     -10.565630      -287.5054
   5   2.0000     -10.565625      -287.5053
   6   2.0000      -8.032391      -218.5725
   7   2.0000      -8.032390      -218.5724
   8   2.0000      -8.031266      -218.5419
   9   2.0000      -8.031265      -218.5418
  10   2.0000      -8.031219      -218.5406
  11   2.0000      -8.031219      -218.5406
  12   2.0000      -6.197863      -168.6524
  13   2.0000      -6.136888      -166.9932
  14   2.0000      -4.304820      -117.1401
  15   2.0000      -4.304093      -117.1203
  16   2.0000      -4.303200      -117.0960
  17   2.0000      -4.243079      -115.4601
  18   2.0000      -4.242872      -115.4544
  19   2.0000      -4.242835      -115.4534
  20   2.0000      -1.121924       -30.5291
  21   2.0000      -1.094481       -29.7823
  22   2.0000      -0.763997       -20.7894
  23   2.0000      -0.686134       -18.6707
  24   2.0000      -0.558947       -15.2097
  25   2.0000      -0.554563       -15.0904
  26   2.0000      -0.521843       -14.2001
  27   2.0000      -0.504351       -13.7241
  28   2.0000      -0.500941       -13.6313
  29   2.0000      -0.478939       -13.0326
  30   2.0000      -0.473628       -12.8881
  31   2.0000      -0.463356       -12.6085
  32   2.0000      -0.408107       -11.1052
  33   0.0000       0.025396         0.6910
  34   0.0000       0.031662         0.8616
  35   0.0000       0.039207         1.0669
  36   0.0000       0.040954         1.1144
  37   0.0000       0.051199         1.3932

MULLIKEN ATOMIC CHARGES
-----------------------
   0 Si:    0.402788
   1 Si:    1.423548
   2 H :   -0.220388
   3 H :   -0.146171
   4 Cl:   -0.588723
   5 H :   -0.136160
   6 Cl:   -0.588723
   7 H :   -0.146171
Sum of atomic charges:    0.0000000

LOEWDIN ATOMIC CHARGES
----------------------
   0 Si:    0.926774
   1 Si:   -1.254403
   2 H :   -0.375336
   3 H :   -0.319524
   4 Cl:    0.829564
   5 H :   -0.317115
   6 Cl:    0.829564
   7 H :   -0.319524

  Mayer bond orders larger than 0.100000
B(  0-Si,  1-Si) :   0.7648 B(  0-Si,  3-H ) :   0.8057 B(  0-Si,  5-H ) :   0.7962
B(  0-Si,  7-H ) :   0.8057 B(  1-Si,  2-H ) :   0.9269 B(  1-Si,  4-Cl) :   0.5453
B(  1-Si,  6-Cl) :   0.5453

MP2 TOTAL ENERGY:    -1500.067597659 Eh
FINAL SINGLE POINT ENERGY     -1500.067597658775

DIPOLE MOMENT
-------------
                                X             Y             Z
Electronic contribution:      9.09685      -0.00000      -1.29885
Nuclear contribution   :     -9.72671       0.00000       1.59644
                        -----------------------------------------
Total Dipole Moment    :     -0.62986      -0.00000       0.29759
                        -----------------------------------------
Magnitude (a.u.)       :      0.69662
Magnitude (Debye)      :      1.77067

Rotational constants in cm-1:     0.076619     0.069680     0.039667
Rotational constants in MHz :  2296.974425  2088.951651  1189.194720

                             ****ORCA TERMINATED NORMALLY****
TOTAL RUN TIME: 0 days 0 hours 12 minutes 24 seconds 245 msec
