                         Program Version 5.0.4 -  RELEASE  -
|  1> ! ri-mp2 aug-cc-pvdz aug-cc-pvdz/c tightscf
|  2> %pal nprocs 16 end
|  3> %maxcore 3800
|  4> %base "DZ_S-Cl_27_AB"
|  5> %scf
|  6> STABPerform true
|  7> STABRestartUHFifUnstable true
|  8> end
|  9>
| 10> *xyz 0 1
| 11> Cl        -2.146594   -0.384005    0.014131
| 12> S        -0.750292    1.105505   -0.024613
| 13> P         1.013240   -0.009875   -0.024993
| 14> O         2.097716    0.953322   -0.092895
| 15> O         0.948448   -0.982074    1.228044
| 16> H         1.063771   -0.536048    2.075593
| 17> O         0.936902   -1.053467   -1.198296
| 18> H         0.369876   -1.818071   -1.041935
| 19> *
| 20>
| 21> $new_job
| 22> ! ri-mp2 aug-cc-pvtz aug-cc-pvtz/c tightscf
| 23> %pal nprocs 16 end
| 24> %maxcore 3800
| 25> %base "TZ_S-Cl_27_AB"
| 26>
| 27> *xyz 0 1
| 28> Cl        -2.146594   -0.384005    0.014131
| 29> S        -0.750292    1.105505   -0.024613
| 30> P         1.013240   -0.009875   -0.024993
| 31> O         2.097716    0.953322   -0.092895
| 32> O         0.948448   -0.982074    1.228044
| 33> H         1.063771   -0.536048    2.075593
| 34> O         0.936902   -1.053467   -1.198296
| 35> H         0.369876   -1.818071   -1.041935
| 36> *
| 37>
| 38> $new_job
| 39> ! ri-mp2 aug-cc-pvqz aug-cc-pvqz/c tightscf
| 40> %pal nprocs 16 end
| 41> %maxcore 3800
| 42> %base "QZ_S-Cl_27_AB"
| 43>
| 44> *xyz 0 1
| 45> Cl        -2.146594   -0.384005    0.014131
| 46> S        -0.750292    1.105505   -0.024613
| 47> P         1.013240   -0.009875   -0.024993
| 48> O         2.097716    0.953322   -0.092895
| 49> O         0.948448   -0.982074    1.228044
| 50> H         1.063771   -0.536048    2.075593
| 51> O         0.936902   -1.053467   -1.198296
| 52> H         0.369876   -1.818071   -1.041935
| 53> *
| 54>
| 55>
| 56>
| 57>
| 58>                          ****END OF INPUT****
 Total Charge           Charge          ....    0
 Multiplicity           Mult            ....    1
 Number of Electrons    NEL             ....   74
MP2 TOTAL ENERGY:    -1424.637392924 Eh
FINAL SINGLE POINT ENERGY     -1424.637392923755
MP2 TOTAL ENERGY:    -1425.023460071 Eh
FINAL SINGLE POINT ENERGY     -1425.023460070572

CARTESIAN COORDINATES (ANGSTROEM)
---------------------------------
  Cl    -2.146594   -0.384005    0.014131
  S     -0.750292    1.105505   -0.024613
  P      1.013240   -0.009875   -0.024993
  O      2.097716    0.953322   -0.092895
  O      0.948448   -0.982074    1.228044
  H      1.063771   -0.536048    2.075593
  O      0.936902   -1.053467   -1.198296
  H      0.369876   -1.818071   -1.041935

 Multiplicity           Mult            ....    1
 Number of Electrons    NEL             ....   74
 Basis Dimension        Dim             ....  584

ORBITAL ENERGIES
----------------

  NO   OCC          E(Eh)            E(eV)
   0   2.0000    -104.880103     -2853.9327
   1   2.0000     -92.034390     -2504.3831
   2   2.0000     -80.112362     -2179.9682
   3   2.0000     -20.630397      -561.3817
   4   2.0000     -20.626738      -561.2821
   5   2.0000     -20.532044      -558.7053
   6   2.0000     -10.604220      -288.5555
   7   2.0000      -9.033771      -245.8214
   8   2.0000      -8.071240      -219.6296
   9   2.0000      -8.069252      -219.5755
  10   2.0000      -8.069079      -219.5708
  11   2.0000      -7.632570      -207.6928
  12   2.0000      -6.714807      -182.7192
  13   2.0000      -6.713245      -182.6767
  14   2.0000      -6.712150      -182.6469
  15   2.0000      -5.530953      -150.5049
  16   2.0000      -5.530644      -150.4965
  17   2.0000      -5.529493      -150.4652
  18   2.0000      -1.471464       -40.0406
  19   2.0000      -1.412809       -38.4445
  20   2.0000      -1.329785       -36.1853
  21   2.0000      -1.166952       -31.7544
  22   2.0000      -0.969074       -26.3699
  23   2.0000      -0.861431       -23.4407
  24   2.0000      -0.794919       -21.6308
  25   2.0000      -0.702373       -19.1126
  26   2.0000      -0.672201       -18.2915
  27   2.0000      -0.624406       -16.9910
  28   2.0000      -0.615268       -16.7423
  29   2.0000      -0.592089       -16.1115
  30   2.0000      -0.568699       -15.4751
  31   2.0000      -0.539352       -14.6765
  32   2.0000      -0.535410       -14.5692
  33   2.0000      -0.502777       -13.6813
  34   2.0000      -0.498776       -13.5724
  35   2.0000      -0.449096       -12.2205
  36   2.0000      -0.400062       -10.8862
  37   0.0000       0.020142         0.5481
  38   0.0000       0.030604         0.8328
  39   0.0000       0.040518         1.1025
  40   0.0000       0.047771         1.2999
  41   0.0000       0.067770         1.8441

MULLIKEN ATOMIC CHARGES
-----------------------
   0 Cl:   -0.293529
   1 S :    0.070382
   2 P :    2.280555
   3 O :   -1.135259
   4 O :   -0.827450
   5 H :    0.362424
   6 O :   -0.837721
   7 H :    0.380597
Sum of atomic charges:   -0.0000000

LOEWDIN ATOMIC CHARGES
----------------------
   0 Cl:    0.437278
   1 S :    0.257156
   2 P :   -1.251528
   3 O :    0.220209
   4 O :    1.047569
   5 H :   -0.862008
   6 O :    1.040214
   7 H :   -0.888888

  Mayer bond orders larger than 0.100000
B(  0-Cl,  1-S ) :   0.9333 B(  1-S ,  2-P ) :   0.9031 B(  2-P ,  3-O ) :   1.4053
B(  2-P ,  4-O ) :   0.7045 B(  2-P ,  6-O ) :   0.6938 B(  3-O ,  6-O ) :  -0.1188
B(  4-O ,  5-H ) :   0.8920 B(  6-O ,  7-H ) :   0.8573

MP2 TOTAL ENERGY:    -1425.150098514 Eh
FINAL SINGLE POINT ENERGY     -1425.150098513659

DIPOLE MOMENT
-------------
                                X             Y             Z
Electronic contribution:     -4.28679       0.82754      -0.26229
Nuclear contribution   :      3.39315      -1.72810       0.97051
                        -----------------------------------------
Total Dipole Moment    :     -0.89365      -0.90056       0.70822
                        -----------------------------------------
Magnitude (a.u.)       :      1.45299
Magnitude (Debye)      :      3.69321

Rotational constants in cm-1:     0.113587     0.046063     0.041216
Rotational constants in MHz :  3405.249191  1380.940705  1235.634323

                             ****ORCA TERMINATED NORMALLY****
TOTAL RUN TIME: 0 days 0 hours 21 minutes 48 seconds 57 msec
