                         Program Version 5.0.4 -  RELEASE  -
|  1> ! ri-mp2 aug-cc-pvdz aug-cc-pvdz/c tightscf
|  2> %pal nprocs 16 end
|  3> %maxcore 3800
|  4> %base "DZ_B-Si_7_AB"
|  5> %scf
|  6> STABPerform true
|  7> STABRestartUHFifUnstable true
|  8> end
|  9>
| 10> *xyz 0 1
| 11> B        -0.681964    1.992019   -0.247402
| 12> Si        -0.485919    0.070400    0.300146
| 13> C         1.080222   -0.746788   -0.346721
| 14> C         2.371436   -0.052320    0.082442
| 15> H         1.023254   -0.789268   -1.438571
| 16> H         1.084882   -1.787413   -0.010384
| 17> H         2.402379    0.982038   -0.263024
| 18> H         3.252598   -0.557002   -0.316418
| 19> C        -1.989419   -0.963226   -0.138101
| 20> H        -2.898744   -0.525101    0.274395
| 21> H        -1.896483   -1.977492    0.252229
| 22> H        -2.116513   -1.034357   -1.219627
| 23> H         2.468141   -0.033959    1.169255
| 24> H         0.245297    2.672161   -0.563740
| 25> H        -1.746481    2.530516   -0.224106
| 26> H        -0.379083    0.148182    1.789235
| 27> *
| 28>
| 29> $new_job
| 30> ! ri-mp2 aug-cc-pvtz aug-cc-pvtz/c tightscf
| 31> %pal nprocs 16 end
| 32> %maxcore 3800
| 33> %base "TZ_B-Si_7_AB"
| 34>
| 35> *xyz 0 1
| 36> B        -0.681964    1.992019   -0.247402
| 37> Si        -0.485919    0.070400    0.300146
| 38> C         1.080222   -0.746788   -0.346721
| 39> C         2.371436   -0.052320    0.082442
| 40> H         1.023254   -0.789268   -1.438571
| 41> H         1.084882   -1.787413   -0.010384
| 42> H         2.402379    0.982038   -0.263024
| 43> H         3.252598   -0.557002   -0.316418
| 44> C        -1.989419   -0.963226   -0.138101
| 45> H        -2.898744   -0.525101    0.274395
| 46> H        -1.896483   -1.977492    0.252229
| 47> H        -2.116513   -1.034357   -1.219627
| 48> H         2.468141   -0.033959    1.169255
| 49> H         0.245297    2.672161   -0.563740
| 50> H        -1.746481    2.530516   -0.224106
| 51> H        -0.379083    0.148182    1.789235
| 52> *
| 53>
| 54> $new_job
| 55> ! ri-mp2 aug-cc-pvqz aug-cc-pvqz/c tightscf
| 56> %pal nprocs 16 end
| 57> %maxcore 3800
| 58> %base "QZ_B-Si_7_AB"
| 59>
| 60> *xyz 0 1
| 61> B        -0.681964    1.992019   -0.247402
| 62> Si        -0.485919    0.070400    0.300146
| 63> C         1.080222   -0.746788   -0.346721
| 64> C         2.371436   -0.052320    0.082442
| 65> H         1.023254   -0.789268   -1.438571
| 66> H         1.084882   -1.787413   -0.010384
| 67> H         2.402379    0.982038   -0.263024
| 68> H         3.252598   -0.557002   -0.316418
| 69> C        -1.989419   -0.963226   -0.138101
| 70> H        -2.898744   -0.525101    0.274395
| 71> H        -1.896483   -1.977492    0.252229
| 72> H        -2.116513   -1.034357   -1.219627
| 73> H         2.468141   -0.033959    1.169255
| 74> H         0.245297    2.672161   -0.563740
| 75> H        -1.746481    2.530516   -0.224106
| 76> H        -0.379083    0.148182    1.789235
| 77> *
| 78>
| 79>
| 80>
| 81>
| 82>                          ****END OF INPUT****
 Total Charge           Charge          ....    0
 Multiplicity           Mult            ....    1
 Number of Electrons    NEL             ....   48
MP2 TOTAL ENERGY:     -434.259446807 Eh
FINAL SINGLE POINT ENERGY      -434.259446807443
MP2 TOTAL ENERGY:     -434.441596535 Eh
FINAL SINGLE POINT ENERGY      -434.441596534992

CARTESIAN COORDINATES (ANGSTROEM)
---------------------------------
  B     -0.681964    1.992019   -0.247402
  Si    -0.485919    0.070400    0.300146
  C      1.080222   -0.746788   -0.346721
  C      2.371436   -0.052320    0.082442
  H      1.023254   -0.789268   -1.438571
  H      1.084882   -1.787413   -0.010384
  H      2.402379    0.982038   -0.263024
  H      3.252598   -0.557002   -0.316418
  C     -1.989419   -0.963226   -0.138101
  H     -2.898744   -0.525101    0.274395
  H     -1.896483   -1.977492    0.252229
  H     -2.116513   -1.034357   -1.219627
  H      2.468141   -0.033959    1.169255
  H      0.245297    2.672161   -0.563740
  H     -1.746481    2.530516   -0.224106
  H     -0.379083    0.148182    1.789235

 Multiplicity           Mult            ....    1
 Number of Electrons    NEL             ....   48
 Basis Dimension        Dim             ....  910

ORBITAL ENERGIES
----------------

  NO   OCC          E(Eh)            E(eV)
   0   2.0000     -68.738309     -1870.4645
   1   2.0000     -11.213034      -305.1222
   2   2.0000     -11.201972      -304.8211
   3   2.0000     -11.198341      -304.7224
   4   2.0000      -7.599549      -206.7942
   5   2.0000      -6.089822      -165.7125
   6   2.0000      -4.196433      -114.1908
   7   2.0000      -4.195821      -114.1741
   8   2.0000      -4.195657      -114.1696
   9   2.0000      -1.018275       -27.7087
  10   2.0000      -0.941024       -25.6066
  11   2.0000      -0.838548       -22.8181
  12   2.0000      -0.714356       -19.4386
  13   2.0000      -0.629566       -17.1314
  14   2.0000      -0.600958       -16.3529
  15   2.0000      -0.565401       -15.3854
  16   2.0000      -0.554194       -15.0804
  17   2.0000      -0.553577       -15.0636
  18   2.0000      -0.509012       -13.8509
  19   2.0000      -0.491850       -13.3839
  20   2.0000      -0.489222       -13.3124
  21   2.0000      -0.444131       -12.0854
  22   2.0000      -0.414151       -11.2696
  23   2.0000      -0.392373       -10.6770
  24   0.0000       0.021155         0.5757
  25   0.0000       0.028340         0.7712
  26   0.0000       0.029640         0.8065
  27   0.0000       0.031006         0.8437
  28   0.0000       0.042818         1.1652

MULLIKEN ATOMIC CHARGES
-----------------------
   0 B :    0.224452
   1 Si:    1.115593
   2 C :   -0.568719
   3 C :   -0.892864
   4 H :    0.200700
   5 H :    0.227893
   6 H :    0.256630
   7 H :    0.309621
   8 C :   -1.116346
   9 H :    0.298226
  10 H :    0.264895
  11 H :    0.247138
  12 H :    0.230843
  13 H :   -0.215780
  14 H :   -0.256912
  15 H :   -0.325372
Sum of atomic charges:   -0.0000000

LOEWDIN ATOMIC CHARGES
----------------------
   0 B :    0.419256
   1 Si:    0.559767
   2 C :    0.510293
   3 C :    0.848836
   4 H :   -0.330813
   5 H :   -0.333653
   6 H :   -0.307734
   7 H :   -0.283130
   8 C :    0.927781
   9 H :   -0.353366
  10 H :   -0.348214
  11 H :   -0.346738
  12 H :   -0.295212
  13 H :   -0.241554
  14 H :   -0.245538
  15 H :   -0.179982

  Mayer bond orders larger than 0.100000
B(  0-B ,  1-Si) :   0.8591 B(  0-B , 13-H ) :   0.8781 B(  0-B , 14-H ) :   0.8610
B(  1-Si,  2-C ) :   0.7374 B(  1-Si,  8-C ) :   0.9089 B(  1-Si, 15-H ) :   0.8161
B(  2-C ,  3-C ) :   0.9651 B(  2-C ,  4-H ) :   0.9334 B(  2-C ,  5-H ) :   0.9235
B(  3-C ,  6-H ) :   0.9187 B(  3-C ,  7-H ) :   0.9484 B(  3-C , 12-H ) :   0.9556
B(  8-C ,  9-H ) :   0.9438 B(  8-C , 10-H ) :   0.9326 B(  8-C , 11-H ) :   0.9435

MP2 TOTAL ENERGY:     -434.496028249 Eh
FINAL SINGLE POINT ENERGY      -434.496028248768

DIPOLE MOMENT
-------------
                                X             Y             Z
Electronic contribution:     -2.11132       1.90009       0.16147
Nuclear contribution   :      2.11519      -2.07628      -0.38737
                        -----------------------------------------
Total Dipole Moment    :      0.00387      -0.17619      -0.22590
                        -----------------------------------------
Magnitude (a.u.)       :      0.28651
Magnitude (Debye)      :      0.72824

Rotational constants in cm-1:     0.170744     0.084568     0.062334
Rotational constants in MHz :  5118.769880  2535.275525  1868.730976

                             ****ORCA TERMINATED NORMALLY****
TOTAL RUN TIME: 0 days 1 hours 19 minutes 24 seconds 996 msec
