                         Program Version 5.0.4 -  RELEASE  -
|  1> ! ri-mp2 aug-cc-pvdz aug-cc-pvdz/c tightscf
|  2> %pal nprocs 16 end
|  3> %maxcore 3800
|  4> %base "DZ_S-F_64_AB"
|  5> %scf
|  6> STABPerform true
|  7> STABRestartUHFifUnstable true
|  8> end
|  9>
| 10> *xyz 0 1
| 11> F         2.389949   -0.137669    0.300062
| 12> S         1.265485   -0.407115   -0.843925
| 13> C        -0.227496   -0.215494    0.209701
| 14> O        -1.181341   -0.357254   -0.804919
| 15> O        -0.307251    1.003680    0.856588
| 16> C        -2.529929   -0.478770   -0.387062
| 17> H        -3.135887   -0.387320   -1.284511
| 18> H        -2.796587    0.314729    0.313197
| 19> H        -2.718402   -1.449715    0.074629
| 20> C        -0.242768    2.175829    0.060187
| 21> H        -0.496356    2.999390    0.722302
| 22> H        -0.953064    2.134470   -0.765784
| 23> H         0.761288    2.321496   -0.338513
| 24> C        -0.277320   -1.275999    1.285321
| 25> H        -0.357739   -2.261983    0.833790
| 26> H        -1.121695   -1.096280    1.949350
| 27> H         0.634952   -1.226732    1.875544
| 28> *
| 29>
| 30> $new_job
| 31> ! ri-mp2 aug-cc-pvtz aug-cc-pvtz/c tightscf
| 32> %pal nprocs 16 end
| 33> %maxcore 3800
| 34> %base "TZ_S-F_64_AB"
| 35>
| 36> *xyz 0 1
| 37> F         2.389949   -0.137669    0.300062
| 38> S         1.265485   -0.407115   -0.843925
| 39> C        -0.227496   -0.215494    0.209701
| 40> O        -1.181341   -0.357254   -0.804919
| 41> O        -0.307251    1.003680    0.856588
| 42> C        -2.529929   -0.478770   -0.387062
| 43> H        -3.135887   -0.387320   -1.284511
| 44> H        -2.796587    0.314729    0.313197
| 45> H        -2.718402   -1.449715    0.074629
| 46> C        -0.242768    2.175829    0.060187
| 47> H        -0.496356    2.999390    0.722302
| 48> H        -0.953064    2.134470   -0.765784
| 49> H         0.761288    2.321496   -0.338513
| 50> C        -0.277320   -1.275999    1.285321
| 51> H        -0.357739   -2.261983    0.833790
| 52> H        -1.121695   -1.096280    1.949350
| 53> H         0.634952   -1.226732    1.875544
| 54> *
| 55>
| 56> $new_job
| 57> ! ri-mp2 aug-cc-pvqz aug-cc-pvqz/c tightscf
| 58> %pal nprocs 16 end
| 59> %maxcore 3800
| 60> %base "QZ_S-F_64_AB"
| 61>
| 62> *xyz 0 1
| 63> F         2.389949   -0.137669    0.300062
| 64> S         1.265485   -0.407115   -0.843925
| 65> C        -0.227496   -0.215494    0.209701
| 66> O        -1.181341   -0.357254   -0.804919
| 67> O        -0.307251    1.003680    0.856588
| 68> C        -2.529929   -0.478770   -0.387062
| 69> H        -3.135887   -0.387320   -1.284511
| 70> H        -2.796587    0.314729    0.313197
| 71> H        -2.718402   -1.449715    0.074629
| 72> C        -0.242768    2.175829    0.060187
| 73> H        -0.496356    2.999390    0.722302
| 74> H        -0.953064    2.134470   -0.765784
| 75> H         0.761288    2.321496   -0.338513
| 76> C        -0.277320   -1.275999    1.285321
| 77> H        -0.357739   -2.261983    0.833790
| 78> H        -1.121695   -1.096280    1.949350
| 79> H         0.634952   -1.226732    1.875544
| 80> *
| 81>
| 82>
| 83>
| 84>
| 85>                          ****END OF INPUT****
 Total Charge           Charge          ....    0
 Multiplicity           Mult            ....    1
 Number of Electrons    NEL             ....   74
MP2 TOTAL ENERGY:     -804.737477136 Eh
FINAL SINGLE POINT ENERGY      -804.737477135974
MP2 TOTAL ENERGY:     -805.150875006 Eh
FINAL SINGLE POINT ENERGY      -805.150875005631

CARTESIAN COORDINATES (ANGSTROEM)
---------------------------------
  F      2.389949   -0.137669    0.300062
  S      1.265485   -0.407115   -0.843925
  C     -0.227496   -0.215494    0.209701
  O     -1.181341   -0.357254   -0.804919
  O     -0.307251    1.003680    0.856588
  C     -2.529929   -0.478770   -0.387062
  H     -3.135887   -0.387320   -1.284511
  H     -2.796587    0.314729    0.313197
  H     -2.718402   -1.449715    0.074629
  C     -0.242768    2.175829    0.060187
  H     -0.496356    2.999390    0.722302
  H     -0.953064    2.134470   -0.765784
  H      0.761288    2.321496   -0.338513
  C     -0.277320   -1.275999    1.285321
  H     -0.357739   -2.261983    0.833790
  H     -1.121695   -1.096280    1.949350
  H      0.634952   -1.226732    1.875544

 Multiplicity           Mult            ....    1
 Number of Electrons    NEL             ....   74
 Basis Dimension        Dim             .... 1058

ORBITAL ENERGIES
----------------

  NO   OCC          E(Eh)            E(eV)
   0   2.0000     -92.017388     -2503.9204
   1   2.0000     -26.297858      -715.6011
   2   2.0000     -20.583264      -560.0991
   3   2.0000     -20.576739      -559.9215
   4   2.0000     -11.381927      -309.7180
   5   2.0000     -11.287126      -307.1383
   6   2.0000     -11.273927      -306.7792
   7   2.0000     -11.227386      -305.5127
   8   2.0000      -9.012875      -245.2528
   9   2.0000      -6.694386      -182.1635
  10   2.0000      -6.692125      -182.1020
  11   2.0000      -6.690991      -182.0711
  12   2.0000      -1.596889       -43.4536
  13   2.0000      -1.447884       -39.3989
  14   2.0000      -1.370896       -37.3040
  15   2.0000      -1.064915       -28.9778
  16   2.0000      -0.981555       -26.7095
  17   2.0000      -0.939939       -25.5770
  18   2.0000      -0.928088       -25.2546
  19   2.0000      -0.794466       -21.6185
  20   2.0000      -0.720238       -19.5987
  21   2.0000      -0.717191       -19.5158
  22   2.0000      -0.687303       -18.7025
  23   2.0000      -0.680800       -18.5255
  24   2.0000      -0.665800       -18.1173
  25   2.0000      -0.635445       -17.2913
  26   2.0000      -0.615104       -16.7378
  27   2.0000      -0.606484       -16.5033
  28   2.0000      -0.599201       -16.3051
  29   2.0000      -0.562078       -15.2949
  30   2.0000      -0.546899       -14.8819
  31   2.0000      -0.536519       -14.5994
  32   2.0000      -0.517755       -14.0888
  33   2.0000      -0.471442       -12.8286
  34   2.0000      -0.463916       -12.6238
  35   2.0000      -0.428999       -11.6736
  36   2.0000      -0.368879       -10.0377
  37   0.0000       0.023337         0.6350
  38   0.0000       0.030904         0.8410
  39   0.0000       0.033595         0.9142
  40   0.0000       0.038863         1.0575
  41   0.0000       0.047906         1.3036

MULLIKEN ATOMIC CHARGES
-----------------------
   0 F :   -0.699160
   1 S :    0.393002
   2 C :    1.819320
   3 O :   -0.931092
   4 O :   -0.854442
   5 C :   -0.727386
   6 H :    0.420226
   7 H :    0.262470
   8 H :    0.302893
   9 C :   -0.797724
  10 H :    0.384694
  11 H :    0.337744
  12 H :    0.337093
  13 C :   -1.157657
  14 H :    0.286947
  15 H :    0.247664
  16 H :    0.375408
Sum of atomic charges:   -0.0000000

LOEWDIN ATOMIC CHARGES
----------------------
   0 F :    0.105428
   1 S :    0.713198
   2 C :   -1.472705
   3 O :    0.773533
   4 O :    0.829249
   5 C :    0.578267
   6 H :   -0.313409
   7 H :   -0.307880
   8 H :   -0.312545
   9 C :    0.542143
  10 H :   -0.319462
  11 H :   -0.327366
  12 H :   -0.346889
  13 C :    0.775442
  14 H :   -0.303036
  15 H :   -0.299217
  16 H :   -0.314751

  Mayer bond orders larger than 0.100000
B(  0-F ,  1-S ) :   0.6085 B(  0-F ,  2-C ) :  -0.2174 B(  1-S ,  2-C ) :   0.5353
B(  1-S ,  3-O ) :   0.1191 B(  2-C ,  3-O ) :   0.2737 B(  2-C ,  4-O ) :   0.3620
B(  2-C ,  9-C ) :  -0.1153 B(  2-C , 13-C ) :   0.6520 B(  3-O ,  5-C ) :   0.8768
B(  4-O ,  9-C ) :   0.9612 B(  4-O , 13-C ) :   0.1232 B(  5-C ,  6-H ) :   0.8438
B(  5-C ,  7-H ) :   0.9212 B(  5-C ,  8-H ) :   0.9103 B(  9-C , 10-H ) :   0.8837
B(  9-C , 11-H ) :   0.8937 B(  9-C , 12-H ) :   0.8881 B( 13-C , 14-H ) :   0.9816
B( 13-C , 15-H ) :   0.9628 B( 13-C , 16-H ) :   0.9163

MP2 TOTAL ENERGY:     -805.283009700 Eh
FINAL SINGLE POINT ENERGY      -805.283009699546

DIPOLE MOMENT
-------------
                                X             Y             Z
Electronic contribution:     11.31866      -1.43169      -3.02084
Nuclear contribution   :    -12.49886       1.49393       3.08401
                        -----------------------------------------
Total Dipole Moment    :     -1.18019       0.06223       0.06318
                        -----------------------------------------
Magnitude (a.u.)       :      1.18352
Magnitude (Debye)      :      3.00827

Rotational constants in cm-1:     0.079269     0.045584     0.039753
Rotational constants in MHz :  2376.437562  1366.584265  1191.760718

                             ****ORCA TERMINATED NORMALLY****
TOTAL RUN TIME: 0 days 2 hours 28 minutes 12 seconds 609 msec
