                         Program Version 5.0.4 -  RELEASE  -
|  1> ! ri-mp2 aug-cc-pvdz aug-cc-pvdz/c tightscf
|  2> %pal nprocs 16 end
|  3> %maxcore 3800
|  4> %base "DZ_S-Cl_82_AB"
|  5>
|  6> *xyz 0 1
|  7> Cl        -2.782961   -0.883269    0.876369
|  8> C        -0.595544    0.728702   -0.325422
|  9> S        -2.159683    0.094978   -0.818660
| 10> C         0.552261   -0.109936   -0.206735
| 11> C         0.514687   -1.506664   -0.401155
| 12> H        -0.423346   -1.974084   -0.661481
| 13> C         1.643603   -2.259578   -0.263937
| 14> H         1.596889   -3.329419   -0.417307
| 15> C         2.869681   -1.659803    0.075291
| 16> H         3.755536   -2.271278    0.182107
| 17> C         2.938170   -0.312697    0.265339
| 18> H         3.877108    0.160633    0.523143
| 19> C         1.788207    0.495556    0.129850
| 20> C         1.850568    1.895262    0.315708
| 21> H         2.804951    2.340916    0.566797
| 22> C         0.740393    2.672096    0.184889
| 23> H         0.797332    3.742042    0.330463
| 24> C        -0.495356    2.079746   -0.126425
| 25> H        -1.383230    2.691004   -0.207846
| 26> *
| 27>
| 28> $new_job
| 29> ! ri-mp2 aug-cc-pvtz aug-cc-pvtz/c tightscf
| 30> %pal nprocs 16 end
| 31> %maxcore 3800
| 32> %base "TZ_S-Cl_82_AB"
| 33>
| 34> *xyz 0 1
| 35> Cl        -2.782961   -0.883269    0.876369
| 36> C        -0.595544    0.728702   -0.325422
| 37> S        -2.159683    0.094978   -0.818660
| 38> C         0.552261   -0.109936   -0.206735
| 39> C         0.514687   -1.506664   -0.401155
| 40> H        -0.423346   -1.974084   -0.661481
| 41> C         1.643603   -2.259578   -0.263937
| 42> H         1.596889   -3.329419   -0.417307
| 43> C         2.869681   -1.659803    0.075291
| 44> H         3.755536   -2.271278    0.182107
| 45> C         2.938170   -0.312697    0.265339
| 46> H         3.877108    0.160633    0.523143
| 47> C         1.788207    0.495556    0.129850
| 48> C         1.850568    1.895262    0.315708
| 49> H         2.804951    2.340916    0.566797
| 50> C         0.740393    2.672096    0.184889
| 51> H         0.797332    3.742042    0.330463
| 52> C        -0.495356    2.079746   -0.126425
| 53> H        -1.383230    2.691004   -0.207846
| 54> *
| 55>
| 56> $new_job
| 57> ! ri-mp2 aug-cc-pvqz aug-cc-pvqz/c tightscf
| 58> %pal nprocs 16 end
| 59> %maxcore 3800
| 60> %base "QZ_S-Cl_82_AB"
| 61>
| 62> *xyz 0 1
| 63> Cl        -2.782961   -0.883269    0.876369
| 64> C        -0.595544    0.728702   -0.325422
| 65> S        -2.159683    0.094978   -0.818660
| 66> C         0.552261   -0.109936   -0.206735
| 67> C         0.514687   -1.506664   -0.401155
| 68> H        -0.423346   -1.974084   -0.661481
| 69> C         1.643603   -2.259578   -0.263937
| 70> H         1.596889   -3.329419   -0.417307
| 71> C         2.869681   -1.659803    0.075291
| 72> H         3.755536   -2.271278    0.182107
| 73> C         2.938170   -0.312697    0.265339
| 74> H         3.877108    0.160633    0.523143
| 75> C         1.788207    0.495556    0.129850
| 76> C         1.850568    1.895262    0.315708
| 77> H         2.804951    2.340916    0.566797
| 78> C         0.740393    2.672096    0.184889
| 79> H         0.797332    3.742042    0.330463
| 80> C        -0.495356    2.079746   -0.126425
| 81> H        -1.383230    2.691004   -0.207846
| 82> *
| 83>
| 84>
| 85>
| 86>
| 87>                          ****END OF INPUT****
 Total Charge           Charge          ....    0
 Multiplicity           Mult            ....    1
 Number of Electrons    NEL             ....  100
MP2 TOTAL ENERGY:    -1241.464481514 Eh
FINAL SINGLE POINT ENERGY     -1241.464481514455
MP2 TOTAL ENERGY:    -1241.909495378 Eh
FINAL SINGLE POINT ENERGY     -1241.909495377844

CARTESIAN COORDINATES (ANGSTROEM)
---------------------------------
  Cl    -2.782961   -0.883269    0.876369
  C     -0.595544    0.728702   -0.325422
  S     -2.159683    0.094978   -0.818660
  C      0.552261   -0.109936   -0.206735
  C      0.514687   -1.506664   -0.401155
  H     -0.423346   -1.974084   -0.661481
  C      1.643603   -2.259578   -0.263937
  H      1.596889   -3.329419   -0.417307
  C      2.869681   -1.659803    0.075291
  H      3.755536   -2.271278    0.182107
  C      2.938170   -0.312697    0.265339
  H      3.877108    0.160633    0.523143
  C      1.788207    0.495556    0.129850
  C      1.850568    1.895262    0.315708
  H      2.804951    2.340916    0.566797
  C      0.740393    2.672096    0.184889
  H      0.797332    3.742042    0.330463
  C     -0.495356    2.079746   -0.126425
  H     -1.383230    2.691004   -0.207846

 Multiplicity           Mult            ....    1
 Number of Electrons    NEL             ....  100
 Basis Dimension        Dim             .... 1290

ORBITAL ENERGIES
----------------

  NO   OCC          E(Eh)            E(eV)
   0   2.0000    -104.842973     -2852.9223
   1   2.0000     -92.006813     -2503.6327
   2   2.0000     -11.275959      -306.8344
   3   2.0000     -11.259167      -306.3775
   4   2.0000     -11.258648      -306.3634
   5   2.0000     -11.255381      -306.2745
   6   2.0000     -11.253557      -306.2248
   7   2.0000     -11.246190      -306.0244
   8   2.0000     -11.244406      -305.9758
   9   2.0000     -11.242791      -305.9319
  10   2.0000     -11.241276      -305.8907
  11   2.0000     -11.238507      -305.8153
  12   2.0000     -10.567353      -287.5523
  13   2.0000      -9.004901      -245.0358
  14   2.0000      -8.034319      -218.6249
  15   2.0000      -8.032434      -218.5737
  16   2.0000      -8.032256      -218.5688
  17   2.0000      -6.686187      -181.9404
  18   2.0000      -6.684661      -181.8989
  19   2.0000      -6.683555      -181.8688
  20   2.0000      -1.201740       -32.7010
  21   2.0000      -1.143621       -31.1195
  22   2.0000      -1.123710       -30.5777
  23   2.0000      -1.069717       -29.1085
  24   2.0000      -1.027069       -27.9480
  25   2.0000      -1.008202       -27.4346
  26   2.0000      -0.921841       -25.0846
  27   2.0000      -0.861420       -23.4404
  28   2.0000      -0.855847       -23.2888
  29   2.0000      -0.799025       -21.7426
  30   2.0000      -0.721997       -19.6465
  31   2.0000      -0.706113       -19.2143
  32   2.0000      -0.694136       -18.8884
  33   2.0000      -0.633288       -17.2326
  34   2.0000      -0.621193       -16.9035
  35   2.0000      -0.603752       -16.4289
  36   2.0000      -0.589976       -16.0541
  37   2.0000      -0.579434       -15.7672
  38   2.0000      -0.565722       -15.3941
  39   2.0000      -0.540325       -14.7030
  40   2.0000      -0.520207       -14.1556
  41   2.0000      -0.509778       -13.8718
  42   2.0000      -0.500845       -13.6287
  43   2.0000      -0.492491       -13.4014
  44   2.0000      -0.463535       -12.6134
  45   2.0000      -0.436312       -11.8726
  46   2.0000      -0.401914       -10.9366
  47   2.0000      -0.358568        -9.7571
  48   2.0000      -0.335309        -9.1242
  49   2.0000      -0.307022        -8.3545
  50   0.0000       0.021528         0.5858
  51   0.0000       0.024601         0.6694
  52   0.0000       0.030557         0.8315
  53   0.0000       0.037549         1.0218
  54   0.0000       0.041740         1.1358

MULLIKEN ATOMIC CHARGES
-----------------------
   0 Cl:   -0.355480
   1 C :   -0.089292
   2 S :    0.002027
   3 C :    0.732015
   4 C :   -0.455120
   5 H :    0.308756
   6 C :   -0.482466
   7 H :    0.221939
   8 C :   -0.424445
   9 H :    0.267671
  10 C :   -0.434608
  11 H :    0.179256
  12 C :    0.931073
  13 C :   -0.520381
  14 H :    0.201721
  15 C :   -0.180571
  16 H :    0.264196
  17 C :   -0.510733
  18 H :    0.344441
Sum of atomic charges:    0.0000000

LOEWDIN ATOMIC CHARGES
----------------------
   0 Cl:    0.516454
   1 C :   -0.630057
   2 S :    0.498351
   3 C :   -0.222120
   4 C :    0.293695
   5 H :   -0.402507
   6 C :    0.359866
   7 H :   -0.317245
   8 C :    0.357644
   9 H :   -0.319488
  10 C :    0.354735
  11 H :   -0.318090
  12 C :   -0.117926
  13 C :    0.361650
  14 H :   -0.312840
  15 C :    0.363357
  16 H :   -0.319939
  17 C :    0.213530
  18 H :   -0.359068

  Mayer bond orders larger than 0.100000
B(  0-Cl,  1-C ) :  -0.2366 B(  0-Cl,  2-S ) :   1.0184 B(  1-C ,  2-S ) :   1.1729
B(  1-C ,  3-C ) :   0.7235 B(  1-C ,  5-H ) :   0.1388 B(  1-C , 12-C ) :  -0.4689
B(  1-C , 15-C ) :  -0.2116 B(  1-C , 17-C ) :   1.1736 B(  2-S ,  3-C ) :  -0.2751
B(  2-S , 17-C ) :  -0.2867 B(  3-C ,  4-C ) :   0.6660 B(  3-C ,  5-H ) :  -0.1672
B(  3-C ,  6-C ) :  -0.3634 B(  3-C , 10-C ) :  -0.3842 B(  3-C , 12-C ) :   1.0068
B(  3-C , 15-C ) :   0.1154 B(  4-C ,  5-H ) :   0.9639 B(  4-C ,  6-C ) :   1.2753
B(  4-C ,  7-H ) :  -0.2075 B(  4-C , 10-C ) :   0.1716 B(  4-C , 12-C ) :  -0.2197
B(  6-C ,  7-H ) :   1.1923 B(  6-C ,  8-C ) :   1.1636 B(  8-C ,  9-H ) :   1.1269
B(  8-C , 10-C ) :   1.2745 B(  8-C , 12-C ) :  -0.2468 B(  9-H , 10-C ) :  -0.1810
B( 10-C , 11-H ) :   1.1374 B( 10-C , 12-C ) :   0.7139 B( 10-C , 13-C ) :  -0.1885
B( 11-H , 12-C ) :  -0.1699 B( 12-C , 13-C ) :   0.4454 B( 12-C , 14-H ) :  -0.1899
B( 12-C , 15-C ) :  -0.4409 B( 13-C , 14-H ) :   1.0968 B( 13-C , 15-C ) :   1.2796
B( 13-C , 16-H ) :  -0.2255 B( 13-C , 17-C ) :   0.2644 B( 15-C , 16-H ) :   1.1623
B( 15-C , 17-C ) :   1.1204 B( 16-H , 17-C ) :  -0.1708 B( 17-C , 18-H ) :   0.9463

MP2 TOTAL ENERGY:    -1242.052744544 Eh
FINAL SINGLE POINT ENERGY     -1242.052744544083

DIPOLE MOMENT
-------------
                                X             Y             Z
Electronic contribution:    -13.47590      -2.07757       0.82350
Nuclear contribution   :     14.54129       2.52804      -0.88043
                        -----------------------------------------
Total Dipole Moment    :      1.06538       0.45047      -0.05693
                        -----------------------------------------
Magnitude (a.u.)       :      1.15811
Magnitude (Debye)      :      2.94367

Rotational constants in cm-1:     0.037829     0.019635     0.014174
Rotational constants in MHz :  1134.080198   588.649072   424.926260

                             ****ORCA TERMINATED NORMALLY****
TOTAL RUN TIME: 0 days 1 hours 14 minutes 49 seconds 2 msec
