                         Program Version 5.0.4 -  RELEASE  -
|  1> ! ri-mp2 aug-cc-pvdz aug-cc-pvdz/c tightscf
|  2> %pal nprocs 16 end
|  3> %maxcore 3800
|  4> %base "DZ_B-B_63_AB"
|  5> %scf
|  6> STABPerform true
|  7> STABRestartUHFifUnstable true
|  8> end
|  9>
| 10> *xyz 0 1
| 11> B        -0.741417   -0.479385   -0.328001
| 12> B         0.741417   -0.479385    0.328001
| 13> B         2.029876    0.422873   -0.078040
| 14> H         2.822200    0.066595   -0.896347
| 15> H         2.234902    1.475617    0.447631
| 16> B        -2.029876    0.422873    0.078040
| 17> H        -2.822200    0.066595    0.896348
| 18> H        -2.234902    1.475617   -0.447631
| 19> H         0.899499   -1.259654    1.228894
| 20> H        -0.899499   -1.259653   -1.228895
| 21> *
| 22>
| 23> $new_job
| 24> ! ri-mp2 aug-cc-pvtz aug-cc-pvtz/c tightscf
| 25> %pal nprocs 16 end
| 26> %maxcore 3800
| 27> %base "TZ_B-B_63_AB"
| 28>
| 29> *xyz 0 1
| 30> B        -0.741417   -0.479385   -0.328001
| 31> B         0.741417   -0.479385    0.328001
| 32> B         2.029876    0.422873   -0.078040
| 33> H         2.822200    0.066595   -0.896347
| 34> H         2.234902    1.475617    0.447631
| 35> B        -2.029876    0.422873    0.078040
| 36> H        -2.822200    0.066595    0.896348
| 37> H        -2.234902    1.475617   -0.447631
| 38> H         0.899499   -1.259654    1.228894
| 39> H        -0.899499   -1.259653   -1.228895
| 40> *
| 41>
| 42> $new_job
| 43> ! ri-mp2 aug-cc-pvqz aug-cc-pvqz/c tightscf
| 44> %pal nprocs 16 end
| 45> %maxcore 3800
| 46> %base "QZ_B-B_63_AB"
| 47>
| 48> *xyz 0 1
| 49> B        -0.741417   -0.479385   -0.328001
| 50> B         0.741417   -0.479385    0.328001
| 51> B         2.029876    0.422873   -0.078040
| 52> H         2.822200    0.066595   -0.896347
| 53> H         2.234902    1.475617    0.447631
| 54> B        -2.029876    0.422873    0.078040
| 55> H        -2.822200    0.066595    0.896348
| 56> H        -2.234902    1.475617   -0.447631
| 57> H         0.899499   -1.259654    1.228894
| 58> H        -0.899499   -1.259653   -1.228895
| 59> *
| 60>
| 61>
| 62>
| 63>
| 64>                          ****END OF INPUT****
 Total Charge           Charge          ....    0
 Multiplicity           Mult            ....    1
 Number of Electrons    NEL             ....   26
MP2 TOTAL ENERGY:     -102.461000285 Eh
FINAL SINGLE POINT ENERGY      -102.461000284697
MP2 TOTAL ENERGY:     -102.555462390 Eh
FINAL SINGLE POINT ENERGY      -102.555462390108

CARTESIAN COORDINATES (ANGSTROEM)
---------------------------------
  B     -0.741417   -0.479385   -0.328001
  B      0.741417   -0.479385    0.328001
  B      2.029876    0.422873   -0.078040
  H      2.822200    0.066595   -0.896347
  H      2.234902    1.475617    0.447631
  B     -2.029876    0.422873    0.078040
  H     -2.822200    0.066595    0.896348
  H     -2.234902    1.475617   -0.447631
  H      0.899499   -1.259654    1.228894
  H     -0.899499   -1.259653   -1.228895

 Multiplicity           Mult            ....    1
 Number of Electrons    NEL             ....   26
 Basis Dimension        Dim             ....  596

ORBITAL ENERGIES
----------------

  NO   OCC          E(Eh)            E(eV)
   0   2.0000      -7.588843      -206.5029
   1   2.0000      -7.588843      -206.5029
   2   2.0000      -7.569182      -205.9679
   3   2.0000      -7.568105      -205.9386
   4   2.0000      -0.774183       -21.0666
   5   2.0000      -0.714885       -19.4530
   6   2.0000      -0.641260       -17.4496
   7   2.0000      -0.576196       -15.6791
   8   2.0000      -0.496302       -13.5051
   9   2.0000      -0.494094       -13.4450
  10   2.0000      -0.458787       -12.4842
  11   2.0000      -0.442990       -12.0544
  12   2.0000      -0.410883       -11.1807
  13   0.0000       0.022371         0.6088
  14   0.0000       0.026535         0.7221
  15   0.0000       0.027946         0.7605
  16   0.0000       0.029678         0.8076
  17   0.0000       0.039573         1.0768

MULLIKEN ATOMIC CHARGES
-----------------------
   0 B :    0.321903
   1 B :    0.321904
   2 B :    0.245546
   3 H :   -0.176672
   4 H :   -0.188589
   5 B :    0.245546
   6 H :   -0.176672
   7 H :   -0.188589
   8 H :   -0.202189
   9 H :   -0.202189
Sum of atomic charges:   -0.0000000

LOEWDIN ATOMIC CHARGES
----------------------
   0 B :    0.112294
   1 B :    0.112294
   2 B :    0.472095
   3 H :   -0.203372
   4 H :   -0.202601
   5 B :    0.472094
   6 H :   -0.203372
   7 H :   -0.202601
   8 H :   -0.178416
   9 H :   -0.178416

  Mayer bond orders larger than 0.100000
B(  0-B ,  1-B ) :   0.9863 B(  0-B ,  5-B ) :   0.9975 B(  0-B ,  9-H ) :   0.9057
B(  1-B ,  2-B ) :   0.9975 B(  1-B ,  8-H ) :   0.9057 B(  2-B ,  3-H ) :   0.9633
B(  2-B ,  4-H ) :   0.9756 B(  5-B ,  6-H ) :   0.9633 B(  5-B ,  7-H ) :   0.9756

MP2 TOTAL ENERGY:     -102.583903202 Eh
FINAL SINGLE POINT ENERGY      -102.583903202273

DIPOLE MOMENT
-------------
                                X             Y             Z
Electronic contribution:      0.00000      -0.71537      -0.00000
Nuclear contribution   :      0.00000       0.65009      -0.00000
                        -----------------------------------------
Total Dipole Moment    :      0.00000      -0.06528      -0.00000
                        -----------------------------------------
Magnitude (a.u.)       :      0.06528
Magnitude (Debye)      :      0.16593

Rotational constants in cm-1:     0.704119     0.123725     0.116134
Rotational constants in MHz : 21108.962203  3709.179180  3481.616553

                             ****ORCA TERMINATED NORMALLY****
TOTAL RUN TIME: 0 days 0 hours 20 minutes 14 seconds 747 msec
