                         Program Version 5.0.4 -  RELEASE  -
|  1> ! ri-mp2 aug-cc-pvdz aug-cc-pvdz/c tightscf
|  2> %pal nprocs 16 end
|  3> %maxcore 3800
|  4> %base "DZ_B-F_53_A"
|  5> %scf
|  6> STABPerform true
|  7> STABRestartUHFifUnstable true
|  8> end
|  9>
| 10> *xyz 0 2
| 11> F        -2.354990    0.718993   -0.008984
| 12> B        -1.459220    0.071006   -0.694950
| 13> C        -0.033936   -0.340347   -0.090147
| 14> O         0.716005    0.813663   -0.418767
| 15> O         0.498680   -1.491844   -0.697247
| 16> C         2.044359    0.868740    0.071387
| 17> H         2.067644    1.070566    1.144699
| 18> H         2.531198    1.688238   -0.451647
| 19> H         2.577888   -0.059906   -0.136499
| 20> C        -0.088157   -0.623554    1.398552
| 21> H        -0.381585    0.270472    1.946163
| 22> H         0.883381   -0.966452    1.752689
| 23> H        -0.811118   -1.413025    1.599620
| 24> H         0.372524   -1.419448   -1.650057
| 25> *
| 26>
| 27> $new_job
| 28> ! ri-mp2 aug-cc-pvtz aug-cc-pvtz/c tightscf
| 29> %pal nprocs 16 end
| 30> %maxcore 3800
| 31> %base "TZ_B-F_53_A"
| 32>
| 33> *xyz 0 2
| 34> F        -2.354990    0.718993   -0.008984
| 35> B        -1.459220    0.071006   -0.694950
| 36> C        -0.033936   -0.340347   -0.090147
| 37> O         0.716005    0.813663   -0.418767
| 38> O         0.498680   -1.491844   -0.697247
| 39> C         2.044359    0.868740    0.071387
| 40> H         2.067644    1.070566    1.144699
| 41> H         2.531198    1.688238   -0.451647
| 42> H         2.577888   -0.059906   -0.136499
| 43> C        -0.088157   -0.623554    1.398552
| 44> H        -0.381585    0.270472    1.946163
| 45> H         0.883381   -0.966452    1.752689
| 46> H        -0.811118   -1.413025    1.599620
| 47> H         0.372524   -1.419448   -1.650057
| 48> *
| 49>
| 50> $new_job
| 51> ! ri-mp2 aug-cc-pvqz aug-cc-pvqz/c tightscf
| 52> %pal nprocs 16 end
| 53> %maxcore 3800
| 54> %base "QZ_B-F_53_A"
| 55>
| 56> *xyz 0 2
| 57> F        -2.354990    0.718993   -0.008984
| 58> B        -1.459220    0.071006   -0.694950
| 59> C        -0.033936   -0.340347   -0.090147
| 60> O         0.716005    0.813663   -0.418767
| 61> O         0.498680   -1.491844   -0.697247
| 62> C         2.044359    0.868740    0.071387
| 63> H         2.067644    1.070566    1.144699
| 64> H         2.531198    1.688238   -0.451647
| 65> H         2.577888   -0.059906   -0.136499
| 66> C        -0.088157   -0.623554    1.398552
| 67> H        -0.381585    0.270472    1.946163
| 68> H         0.883381   -0.966452    1.752689
| 69> H        -0.811118   -1.413025    1.599620
| 70> H         0.372524   -1.419448   -1.650057
| 71> *
| 72>
| 73>
| 74>
| 75>
| 76>                          ****END OF INPUT****
 Total Charge           Charge          ....    0
 Multiplicity           Mult            ....    2
 Number of Electrons    NEL             ....   55
MP2 TOTAL ENERGY:     -392.653535819 Eh
FINAL SINGLE POINT ENERGY      -392.653535818955
MP2 TOTAL ENERGY:     -392.999033863 Eh
FINAL SINGLE POINT ENERGY      -392.999033863270

CARTESIAN COORDINATES (ANGSTROEM)
---------------------------------
  F     -2.354990    0.718993   -0.008984
  B     -1.459220    0.071006   -0.694950
  C     -0.033936   -0.340347   -0.090147
  O      0.716005    0.813663   -0.418767
  O      0.498680   -1.491844   -0.697247
  C      2.044359    0.868740    0.071387
  H      2.067644    1.070566    1.144699
  H      2.531198    1.688238   -0.451647
  H      2.577888   -0.059906   -0.136499
  C     -0.088157   -0.623554    1.398552
  H     -0.381585    0.270472    1.946163
  H      0.883381   -0.966452    1.752689
  H     -0.811118   -1.413025    1.599620
  H      0.372524   -1.419448   -1.650057

 Multiplicity           Mult            ....    2
 Number of Electrons    NEL             ....   55
 Basis Dimension        Dim             ....  882

ORBITAL ENERGIES
----------------
                 SPIN UP ORBITALS
  NO   OCC          E(Eh)            E(eV)
   0   1.0000     -26.324687      -716.3312
   1   1.0000     -20.568347      -559.6932
   2   1.0000     -20.566942      -559.6550
   3   1.0000     -11.332393      -308.3701
   4   1.0000     -11.272785      -306.7481
   5   1.0000     -11.223901      -305.4179
   6   1.0000      -7.685303      -209.1277
   7   1.0000      -1.644197       -44.7409
   8   1.0000      -1.420809       -38.6622
   9   1.0000      -1.346423       -36.6380
  10   1.0000      -1.027569       -27.9616
  11   1.0000      -0.950891       -25.8751
  12   1.0000      -0.831554       -22.6277
  13   1.0000      -0.798547       -21.7296
  14   1.0000      -0.745895       -20.2968
  15   1.0000      -0.711530       -19.3617
  16   1.0000      -0.696327       -18.9480
  17   1.0000      -0.687274       -18.7017
  18   1.0000      -0.658553       -17.9202
  19   1.0000      -0.604504       -16.4494
  20   1.0000      -0.589338       -16.0367
  21   1.0000      -0.566138       -15.4054
  22   1.0000      -0.548517       -14.9259
  23   1.0000      -0.537937       -14.6380
  24   1.0000      -0.482185       -13.1209
  25   1.0000      -0.477029       -12.9806
  26   1.0000      -0.447529       -12.1779
  27   1.0000      -0.352934        -9.6038
  28   0.0000       0.023586         0.6418
  29   0.0000       0.032129         0.8743
  30   0.0000       0.033148         0.9020
  31   0.0000       0.035728         0.9722
  32   0.0000       0.046563         1.2670

                 SPIN DOWN ORBITALS
  NO   OCC          E(Eh)            E(eV)
   0   1.0000     -26.321531      -716.2453
   1   1.0000     -20.568722      -559.7034
   2   1.0000     -20.567182      -559.6615
   3   1.0000     -11.328722      -308.2702
   4   1.0000     -11.272781      -306.7480
   5   1.0000     -11.223723      -305.4130
   6   1.0000      -7.666768      -208.6234
   7   1.0000      -1.635426       -44.5022
   8   1.0000      -1.419880       -38.6369
   9   1.0000      -1.346856       -36.6498
  10   1.0000      -1.022632       -27.8272
  11   1.0000      -0.949477       -25.8366
  12   1.0000      -0.820807       -22.3353
  13   1.0000      -0.791015       -21.5246
  14   1.0000      -0.730693       -19.8832
  15   1.0000      -0.701838       -19.0980
  16   1.0000      -0.691237       -18.8095
  17   1.0000      -0.674389       -18.3511
  18   1.0000      -0.656853       -17.8739
  19   1.0000      -0.603974       -16.4350
  20   1.0000      -0.587136       -15.9768
  21   1.0000      -0.564765       -15.3680
  22   1.0000      -0.547484       -14.8978
  23   1.0000      -0.533340       -14.5129
  24   1.0000      -0.479593       -13.0504
  25   1.0000      -0.457453       -12.4479
  26   1.0000      -0.443975       -12.0812
  27   0.0000       0.021006         0.5716
  28   0.0000       0.030588         0.8323
  29   0.0000       0.032536         0.8853
  30   0.0000       0.035794         0.9740
  31   0.0000       0.047067         1.2807

MULLIKEN ATOMIC CHARGES AND SPIN POPULATIONS
--------------------------------------------
   0 F :   -0.758912   -0.021870
   1 B :    0.793177    1.038446
   2 C :    1.484774   -0.020896
   3 O :   -0.875047   -0.006584
   4 O :   -0.930055   -0.013793
   5 C :   -0.688475   -0.000022
   6 H :    0.257715    0.000082
   7 H :    0.405046   -0.000081
   8 H :    0.282021    0.000658
   9 C :   -1.161235    0.014813
  10 H :    0.245778   -0.000053
  11 H :    0.272587    0.009632
  12 H :    0.325190    0.000344
  13 H :    0.347438   -0.000677
Sum of atomic charges         :   -0.0000000

LOEWDIN ATOMIC CHARGES AND SPIN POPULATIONS
-------------------------------------------
   0 F :    0.772308    0.146626
   1 B :   -0.720907    0.563559
   2 C :   -0.948920    0.175632
   3 O :    0.849199    0.021917
   4 O :    1.251880    0.017562
   5 C :    0.574107    0.003411
   6 H :   -0.314936    0.000471
   7 H :   -0.319935    0.000787
   8 H :   -0.315801    0.000685
   9 C :    0.838867    0.026582
  10 H :   -0.283642    0.003182
  11 H :   -0.298176    0.004953
  12 H :   -0.280279    0.003115
  13 H :   -0.803765    0.031518

  Mayer bond orders larger than 0.100000
B(  0-F ,  1-B ) :   0.3832 B(  0-F ,  2-C ) :  -0.1118 B(  1-B ,  2-C ) :   0.6888
B(  2-C ,  3-O ) :   0.3770 B(  2-C ,  4-O ) :   0.3699 B(  2-C ,  9-C ) :   0.7538
B(  3-O ,  5-C ) :   0.9137 B(  4-O ,  9-C ) :   0.1382 B(  4-O , 13-H ) :   0.8875
B(  5-C ,  6-H ) :   0.9335 B(  5-C ,  7-H ) :   0.8475 B(  5-C ,  8-H ) :   0.8890
B(  9-C , 10-H ) :   0.9716 B(  9-C , 11-H ) :   0.9414 B(  9-C , 12-H ) :   0.9166

MP2 TOTAL ENERGY:     -393.108971770 Eh
FINAL SINGLE POINT ENERGY      -393.108971770146

DIPOLE MOMENT
-------------
                                X             Y             Z
Electronic contribution:    -10.18008       1.51952      -4.54663
Nuclear contribution   :     10.59645      -1.58300       4.68365
                        -----------------------------------------
Total Dipole Moment    :      0.41637      -0.06347       0.13702
                        -----------------------------------------
Magnitude (a.u.)       :      0.44291
Magnitude (Debye)      :      1.12579

Rotational constants in cm-1:     0.126889     0.064237     0.058277
Rotational constants in MHz :  3804.026662  1925.761965  1747.113970

                             ****ORCA TERMINATED NORMALLY****
TOTAL RUN TIME: 0 days 3 hours 19 minutes 10 seconds 801 msec
