                         Program Version 5.0.4 -  RELEASE  -
|  1> ! ri-mp2 aug-cc-pvdz aug-cc-pvdz/c tightscf
|  2> %pal nprocs 16 end
|  3> %maxcore 3800
|  4> %base "DZ_B-S_50_AB"
|  5> %scf
|  6> STABPerform true
|  7> STABRestartUHFifUnstable true
|  8> end
|  9>
| 10> *xyz 0 1
| 11> B        -1.693492    0.187605   -0.112733
| 12> S        -0.598462   -1.179523    0.256201
| 13> F        -1.432873    1.435343    0.236403
| 14> F        -2.831214   -0.046145   -0.740326
| 15> C         0.819786   -0.307945    1.026627
| 16> C         1.779563    0.260048    0.025925
| 17> C         1.923293    1.570403   -0.100561
| 18> C         2.553906   -0.728415   -0.788918
| 19> H         2.619445    1.993325   -0.812982
| 20> H         1.346548    2.263583    0.497186
| 21> H         3.215635   -0.229024   -1.493589
| 22> H         3.159117   -1.370478   -0.143949
| 23> H         1.882799   -1.381520   -1.349776
| 24> H         1.304080   -1.070458    1.637002
| 25> H         0.432731    0.461584    1.687434
| 26> *
| 27>
| 28> $new_job
| 29> ! ri-mp2 aug-cc-pvtz aug-cc-pvtz/c tightscf
| 30> %pal nprocs 16 end
| 31> %maxcore 3800
| 32> %base "TZ_B-S_50_AB"
| 33>
| 34> *xyz 0 1
| 35> B        -1.693492    0.187605   -0.112733
| 36> S        -0.598462   -1.179523    0.256201
| 37> F        -1.432873    1.435343    0.236403
| 38> F        -2.831214   -0.046145   -0.740326
| 39> C         0.819786   -0.307945    1.026627
| 40> C         1.779563    0.260048    0.025925
| 41> C         1.923293    1.570403   -0.100561
| 42> C         2.553906   -0.728415   -0.788918
| 43> H         2.619445    1.993325   -0.812982
| 44> H         1.346548    2.263583    0.497186
| 45> H         3.215635   -0.229024   -1.493589
| 46> H         3.159117   -1.370478   -0.143949
| 47> H         1.882799   -1.381520   -1.349776
| 48> H         1.304080   -1.070458    1.637002
| 49> H         0.432731    0.461584    1.687434
| 50> *
| 51>
| 52> $new_job
| 53> ! ri-mp2 aug-cc-pvqz aug-cc-pvqz/c tightscf
| 54> %pal nprocs 16 end
| 55> %maxcore 3800
| 56> %base "QZ_B-S_50_AB"
| 57>
| 58> *xyz 0 1
| 59> B        -1.693492    0.187605   -0.112733
| 60> S        -0.598462   -1.179523    0.256201
| 61> F        -1.432873    1.435343    0.236403
| 62> F        -2.831214   -0.046145   -0.740326
| 63> C         0.819786   -0.307945    1.026627
| 64> C         1.779563    0.260048    0.025925
| 65> C         1.923293    1.570403   -0.100561
| 66> C         2.553906   -0.728415   -0.788918
| 67> H         2.619445    1.993325   -0.812982
| 68> H         1.346548    2.263583    0.497186
| 69> H         3.215635   -0.229024   -1.493589
| 70> H         3.159117   -1.370478   -0.143949
| 71> H         1.882799   -1.381520   -1.349776
| 72> H         1.304080   -1.070458    1.637002
| 73> H         0.432731    0.461584    1.687434
| 74> *
| 75>
| 76>
| 77>
| 78>
| 79>                          ****END OF INPUT****
 Total Charge           Charge          ....    0
 Multiplicity           Mult            ....    1
 Number of Electrons    NEL             ....   70
MP2 TOTAL ENERGY:     -778.016322869 Eh
FINAL SINGLE POINT ENERGY      -778.016322868833
MP2 TOTAL ENERGY:     -778.407914749 Eh
FINAL SINGLE POINT ENERGY      -778.407914749172

CARTESIAN COORDINATES (ANGSTROEM)
---------------------------------
  B     -1.693492    0.187605   -0.112733
  S     -0.598462   -1.179523    0.256201
  F     -1.432873    1.435343    0.236403
  F     -2.831214   -0.046145   -0.740326
  C      0.819786   -0.307945    1.026627
  C      1.779563    0.260048    0.025925
  C      1.923293    1.570403   -0.100561
  C      2.553906   -0.728415   -0.788918
  H      2.619445    1.993325   -0.812982
  H      1.346548    2.263583    0.497186
  H      3.215635   -0.229024   -1.493589
  H      3.159117   -1.370478   -0.143949
  H      1.882799   -1.381520   -1.349776
  H      1.304080   -1.070458    1.637002
  H      0.432731    0.461584    1.687434

 Multiplicity           Mult            ....    1
 Number of Electrons    NEL             ....   70
 Basis Dimension        Dim             ....  966

ORBITAL ENERGIES
----------------

  NO   OCC          E(Eh)            E(eV)
   0   2.0000     -91.960714     -2502.3782
   1   2.0000     -26.316708      -716.1140
   2   2.0000     -26.312638      -716.0033
   3   2.0000     -11.276875      -306.8594
   4   2.0000     -11.250715      -306.1475
   5   2.0000     -11.227372      -305.5123
   6   2.0000     -11.224028      -305.4213
   7   2.0000      -8.965742      -243.9703
   8   2.0000      -7.731266      -210.3784
   9   2.0000      -6.647232      -180.8804
  10   2.0000      -6.646370      -180.8569
  11   2.0000      -6.645918      -180.8446
  12   2.0000      -1.648556       -44.8595
  13   2.0000      -1.616997       -44.0007
  14   2.0000      -1.124606       -30.6021
  15   2.0000      -1.028237       -27.9797
  16   2.0000      -0.948656       -25.8142
  17   2.0000      -0.900075       -24.4923
  18   2.0000      -0.816553       -22.2195
  19   2.0000      -0.766312       -20.8524
  20   2.0000      -0.739161       -20.1136
  21   2.0000      -0.721589       -19.6354
  22   2.0000      -0.718269       -19.5451
  23   2.0000      -0.664837       -18.0911
  24   2.0000      -0.660450       -17.9718
  25   2.0000      -0.641534       -17.4570
  26   2.0000      -0.638394       -17.3716
  27   2.0000      -0.590333       -16.0638
  28   2.0000      -0.563635       -15.3373
  29   2.0000      -0.536394       -14.5960
  30   2.0000      -0.529287       -14.4026
  31   2.0000      -0.506248       -13.7757
  32   2.0000      -0.461127       -12.5479
  33   2.0000      -0.390159       -10.6168
  34   2.0000      -0.362991        -9.8775
  35   0.0000       0.023079         0.6280
  36   0.0000       0.030369         0.8264
  37   0.0000       0.031615         0.8603
  38   0.0000       0.035510         0.9663
  39   0.0000       0.045553         1.2396

MULLIKEN ATOMIC CHARGES
-----------------------
   0 B :    1.545487
   1 S :   -0.097756
   2 F :   -0.773410
   3 F :   -0.832099
   4 C :   -0.420835
   5 C :    0.284478
   6 C :   -0.871687
   7 C :   -0.781633
   8 H :    0.285099
   9 H :    0.278217
  10 H :    0.250193
  11 H :    0.258163
  12 H :    0.263527
  13 H :    0.350261
  14 H :    0.261995
Sum of atomic charges:    0.0000000

LOEWDIN ATOMIC CHARGES
----------------------
   0 B :   -2.235614
   1 S :    1.422621
   2 F :    0.791858
   3 F :    0.736580
   4 C :    0.109655
   5 C :   -0.146855
   6 C :    0.797746
   7 C :    0.868032
   8 H :   -0.339833
   9 H :   -0.346600
  10 H :   -0.305777
  11 H :   -0.282067
  12 H :   -0.308549
  13 H :   -0.364858
  14 H :   -0.396339

  Mayer bond orders larger than 0.100000
B(  0-B ,  1-S ) :   1.3274 B(  0-B ,  2-F ) :   0.2962 B(  0-B ,  3-F ) :   0.2680
B(  1-S ,  4-C ) :   0.8843 B(  4-C ,  5-C ) :   0.7434 B(  4-C , 13-H ) :   0.8451
B(  4-C , 14-H ) :   0.9504 B(  5-C ,  6-C ) :   1.5375 B(  5-C ,  7-C ) :   0.6941
B(  6-C ,  8-H ) :   1.0325 B(  6-C ,  9-H ) :   1.0249 B(  7-C , 10-H ) :   1.0331
B(  7-C , 11-H ) :   0.9726 B(  7-C , 12-H ) :   0.9696

MP2 TOTAL ENERGY:     -778.531581139 Eh
FINAL SINGLE POINT ENERGY      -778.531581139387

DIPOLE MOMENT
-------------
                                X             Y             Z
Electronic contribution:    -18.04289       0.74979      -0.28278
Nuclear contribution   :     18.90729      -0.79259       0.58200
                        -----------------------------------------
Total Dipole Moment    :      0.86441      -0.04279       0.29922
                        -----------------------------------------
Magnitude (a.u.)       :      0.91573
Magnitude (Debye)      :      2.32760

Rotational constants in cm-1:     0.093183     0.035182     0.029509
Rotational constants in MHz :  2793.559533  1054.736727   884.664598

                             ****ORCA TERMINATED NORMALLY****
TOTAL RUN TIME: 0 days 1 hours 51 minutes 20 seconds 780 msec
