                         Program Version 5.0.4 -  RELEASE  -
|  1> ! ri-mp2 aug-cc-pvdz aug-cc-pvdz/c tightscf
|  2> %pal nprocs 16 end
|  3> %maxcore 3800
|  4> %base "DZ_S-F_37_AB"
|  5>
|  6> *xyz 0 1
|  7> F        -1.564726    1.094369   -0.003768
|  8> S        -1.212674   -0.480485   -0.073850
|  9> O         0.234446   -0.538187    0.511877
| 10> O         1.271488   -0.283391   -0.541941
| 11> C         2.290264    0.430449    0.115582
| 12> H         3.052821    0.576086   -0.649789
| 13> H         2.710244   -0.146588    0.941613
| 14> H         1.933204    1.398872    0.470706
| 15> *
| 16>
| 17> $new_job
| 18> ! ri-mp2 aug-cc-pvtz aug-cc-pvtz/c tightscf
| 19> %pal nprocs 16 end
| 20> %maxcore 3800
| 21> %base "TZ_S-F_37_AB"
| 22>
| 23> *xyz 0 1
| 24> F        -1.564726    1.094369   -0.003768
| 25> S        -1.212674   -0.480485   -0.073850
| 26> O         0.234446   -0.538187    0.511877
| 27> O         1.271488   -0.283391   -0.541941
| 28> C         2.290264    0.430449    0.115582
| 29> H         3.052821    0.576086   -0.649789
| 30> H         2.710244   -0.146588    0.941613
| 31> H         1.933204    1.398872    0.470706
| 32> *
| 33>
| 34> $new_job
| 35> ! ri-mp2 aug-cc-pvqz aug-cc-pvqz/c tightscf
| 36> %pal nprocs 16 end
| 37> %maxcore 3800
| 38> %base "QZ_S-F_37_AB"
| 39>
| 40> *xyz 0 1
| 41> F        -1.564726    1.094369   -0.003768
| 42> S        -1.212674   -0.480485   -0.073850
| 43> O         0.234446   -0.538187    0.511877
| 44> O         1.271488   -0.283391   -0.541941
| 45> C         2.290264    0.430449    0.115582
| 46> H         3.052821    0.576086   -0.649789
| 47> H         2.710244   -0.146588    0.941613
| 48> H         1.933204    1.398872    0.470706
| 49> *
| 50>
| 51>
| 52>
| 53>
| 54>                          ****END OF INPUT****
 Total Charge           Charge          ....    0
 Multiplicity           Mult            ....    1
 Number of Electrons    NEL             ....   50
MP2 TOTAL ENERGY:     -687.078346222 Eh
FINAL SINGLE POINT ENERGY      -687.078346222015
MP2 TOTAL ENERGY:     -687.386516610 Eh
FINAL SINGLE POINT ENERGY      -687.386516609559

CARTESIAN COORDINATES (ANGSTROEM)
---------------------------------
  F     -1.564726    1.094369   -0.003768
  S     -1.212674   -0.480485   -0.073850
  O      0.234446   -0.538187    0.511877
  O      1.271488   -0.283391   -0.541941
  C      2.290264    0.430449    0.115582
  H      3.052821    0.576086   -0.649789
  H      2.710244   -0.146588    0.941613
  H      1.933204    1.398872    0.470706

 Multiplicity           Mult            ....    1
 Number of Electrons    NEL             ....   50
 Basis Dimension        Dim             ....  542

ORBITAL ENERGIES
----------------

  NO   OCC          E(Eh)            E(eV)
   0   2.0000     -92.081044     -2505.6526
   1   2.0000     -26.315661      -716.0855
   2   2.0000     -20.680919      -562.7564
   3   2.0000     -20.654088      -562.0263
   4   2.0000     -11.294744      -307.3456
   5   2.0000      -9.070248      -246.8140
   6   2.0000      -6.751607      -183.7206
   7   2.0000      -6.749947      -183.6754
   8   2.0000      -6.747966      -183.6215
   9   2.0000      -1.621137       -44.1134
  10   2.0000      -1.505918       -40.9781
  11   2.0000      -1.307385       -35.5758
  12   2.0000      -0.954156       -25.9639
  13   2.0000      -0.921643       -25.0792
  14   2.0000      -0.747378       -20.3372
  15   2.0000      -0.721471       -19.6322
  16   2.0000      -0.711819       -19.3696
  17   2.0000      -0.677362       -18.4319
  18   2.0000      -0.672608       -18.3026
  19   2.0000      -0.627001       -17.0616
  20   2.0000      -0.593326       -16.1452
  21   2.0000      -0.549260       -14.9461
  22   2.0000      -0.536734       -14.6053
  23   2.0000      -0.479816       -13.0565
  24   2.0000      -0.376374       -10.2417
  25   0.0000       0.025989         0.7072
  26   0.0000       0.040528         1.1028
  27   0.0000       0.043473         1.1830
  28   0.0000       0.053815         1.4644
  29   0.0000       0.068049         1.8517

MULLIKEN ATOMIC CHARGES
-----------------------
   0 F :   -0.569486
   1 S :    0.984183
   2 O :   -0.537579
   3 O :   -0.333218
   4 C :   -0.462707
   5 H :    0.375593
   6 H :    0.264284
   7 H :    0.278931
Sum of atomic charges:   -0.0000000

LOEWDIN ATOMIC CHARGES
----------------------
   0 F :    0.035783
   1 S :    0.237474
   2 O :   -0.157242
   3 O :    0.448645
   4 C :    0.455438
   5 H :   -0.352915
   6 H :   -0.333513
   7 H :   -0.333670

  Mayer bond orders larger than 0.100000
B(  0-F ,  1-S ) :   0.6220 B(  1-S ,  2-O ) :   0.9740 B(  2-O ,  3-O ) :   0.7550
B(  3-O ,  4-C ) :   0.8120 B(  4-C ,  5-H ) :   0.8525 B(  4-C ,  6-H ) :   0.9256
B(  4-C ,  7-H ) :   0.9075

MP2 TOTAL ENERGY:     -687.486334512 Eh
FINAL SINGLE POINT ENERGY      -687.486334512035

DIPOLE MOMENT
-------------
                                X             Y             Z
Electronic contribution:     -8.18350      -0.74224      -0.63151
Nuclear contribution   :      8.90562       0.71746       0.73527
                        -----------------------------------------
Total Dipole Moment    :      0.72212      -0.02477       0.10376
                        -----------------------------------------
Magnitude (a.u.)       :      0.72995
Magnitude (Debye)      :      1.85539

Rotational constants in cm-1:     0.329452     0.078749     0.069163
Rotational constants in MHz :  9876.725215  2360.843657  2073.467876

                             ****ORCA TERMINATED NORMALLY****
TOTAL RUN TIME: 0 days 0 hours 3 minutes 41 seconds 884 msec
