                         Program Version 5.0.4 -  RELEASE  -
|  1> ! ri-mp2 aug-cc-pvdz aug-cc-pvdz/c tightscf
|  2> %pal nprocs 16 end
|  3> %maxcore 3800
|  4> %base "DZ_Si-S_51_AB"
|  5>
|  6> *xyz 0 1
|  7> C        -1.880510   -0.684963    1.387933
|  8> C        -0.625546   -1.229548    1.238158
|  9> C        -2.617062   -0.306843    0.269856
| 10> C        -2.086192   -0.495297   -0.997800
| 11> C        -0.820684   -1.044640   -1.135796
| 12> C        -0.075165   -1.406703   -0.028224
| 13> H        -0.052980   -1.513845    2.109720
| 14> H        -2.314243   -0.538934    2.367625
| 15> O        -3.836183    0.231345    0.515367
| 16> H        -2.639715   -0.219115   -1.882149
| 17> H        -0.403818   -1.181395   -2.123684
| 18> S         1.554949   -2.096820   -0.217986
| 19> Si         2.710828   -0.289708   -0.168420
| 20> C         2.522510    0.626491    1.417932
| 21> C         2.288101    0.858595   -1.544967
| 22> C         1.328500    1.793273   -1.534606
| 23> C         1.583514    1.538455    1.702654
| 24> C         0.531130    2.074886    0.865215
| 25> C         0.426567    2.180666   -0.470256
| 26> H         3.216438    0.388640    2.219170
| 27> H         1.565253    1.938352    2.713572
| 28> H         2.845959    0.756466   -2.471512
| 29> H         1.159182    2.345916   -2.455657
| 30> H        -0.282796    2.520193    1.426496
| 31> H        -0.458095    2.700361   -0.821442
| 32> C        -4.628822    0.621974   -0.582379
| 33> H        -4.136358    1.398225   -1.173993
| 34> H        -5.549993    1.019420   -0.165397
| 35> H        -4.862473   -0.228067   -1.228410
| 36> H         4.094283   -0.790014   -0.317949
| 37> *
| 38>
| 39> $new_job
| 40> ! ri-mp2 aug-cc-pvtz aug-cc-pvtz/c tightscf
| 41> %pal nprocs 16 end
| 42> %maxcore 3800
| 43> %base "TZ_Si-S_51_AB"
| 44>
| 45> *xyz 0 1
| 46> C        -1.880510   -0.684963    1.387933
| 47> C        -0.625546   -1.229548    1.238158
| 48> C        -2.617062   -0.306843    0.269856
| 49> C        -2.086192   -0.495297   -0.997800
| 50> C        -0.820684   -1.044640   -1.135796
| 51> C        -0.075165   -1.406703   -0.028224
| 52> H        -0.052980   -1.513845    2.109720
| 53> H        -2.314243   -0.538934    2.367625
| 54> O        -3.836183    0.231345    0.515367
| 55> H        -2.639715   -0.219115   -1.882149
| 56> H        -0.403818   -1.181395   -2.123684
| 57> S         1.554949   -2.096820   -0.217986
| 58> Si         2.710828   -0.289708   -0.168420
| 59> C         2.522510    0.626491    1.417932
| 60> C         2.288101    0.858595   -1.544967
| 61> C         1.328500    1.793273   -1.534606
| 62> C         1.583514    1.538455    1.702654
| 63> C         0.531130    2.074886    0.865215
| 64> C         0.426567    2.180666   -0.470256
| 65> H         3.216438    0.388640    2.219170
| 66> H         1.565253    1.938352    2.713572
| 67> H         2.845959    0.756466   -2.471512
| 68> H         1.159182    2.345916   -2.455657
| 69> H        -0.282796    2.520193    1.426496
| 70> H        -0.458095    2.700361   -0.821442
| 71> C        -4.628822    0.621974   -0.582379
| 72> H        -4.136358    1.398225   -1.173993
| 73> H        -5.549993    1.019420   -0.165397
| 74> H        -4.862473   -0.228067   -1.228410
| 75> H         4.094283   -0.790014   -0.317949
| 76> *
| 77>
| 78> $new_job
| 79> ! ri-mp2 aug-cc-pvqz aug-cc-pvqz/c tightscf
| 80> %pal nprocs 16 end
| 81> %maxcore 3800
| 82> %base "QZ_Si-S_51_AB"
| 83>
| 84> *xyz 0 1
| 85> C        -1.880510   -0.684963    1.387933
| 86> C        -0.625546   -1.229548    1.238158
| 87> C        -2.617062   -0.306843    0.269856
| 88> C        -2.086192   -0.495297   -0.997800
| 89> C        -0.820684   -1.044640   -1.135796
| 90> C        -0.075165   -1.406703   -0.028224
| 91> H        -0.052980   -1.513845    2.109720
| 92> H        -2.314243   -0.538934    2.367625
| 93> O        -3.836183    0.231345    0.515367
| 94> H        -2.639715   -0.219115   -1.882149
| 95> H        -0.403818   -1.181395   -2.123684
| 96> S         1.554949   -2.096820   -0.217986
| 97> Si         2.710828   -0.289708   -0.168420
| 98> C         2.522510    0.626491    1.417932
| 99> C         2.288101    0.858595   -1.544967
|100> C         1.328500    1.793273   -1.534606
|101> C         1.583514    1.538455    1.702654
|102> C         0.531130    2.074886    0.865215
|103> C         0.426567    2.180666   -0.470256
|104> H         3.216438    0.388640    2.219170
|105> H         1.565253    1.938352    2.713572
|106> H         2.845959    0.756466   -2.471512
|107> H         1.159182    2.345916   -2.455657
|108> H        -0.282796    2.520193    1.426496
|109> H        -0.458095    2.700361   -0.821442
|110> C        -4.628822    0.621974   -0.582379
|111> H        -4.136358    1.398225   -1.173993
|112> H        -5.549993    1.019420   -0.165397
|113> H        -4.862473   -0.228067   -1.228410
|114> H         4.094283   -0.790014   -0.317949
|115> *
|116>
|117>
|118>
|119>
|120>                          ****END OF INPUT****
 Total Charge           Charge          ....    0
 Multiplicity           Mult            ....    1
 Number of Electrons    NEL             ....  130
MP2 TOTAL ENERGY:    -1264.014847922 Eh
FINAL SINGLE POINT ENERGY     -1264.014847922372
MP2 TOTAL ENERGY:    -1264.606984826 Eh
FINAL SINGLE POINT ENERGY     -1264.606984826216

CARTESIAN COORDINATES (ANGSTROEM)
---------------------------------
  C     -1.880510   -0.684963    1.387933
  C     -0.625546   -1.229548    1.238158
  C     -2.617062   -0.306843    0.269856
  C     -2.086192   -0.495297   -0.997800
  C     -0.820684   -1.044640   -1.135796
  C     -0.075165   -1.406703   -0.028224
  H     -0.052980   -1.513845    2.109720
  H     -2.314243   -0.538934    2.367625
  O     -3.836183    0.231345    0.515367
  H     -2.639715   -0.219115   -1.882149
  H     -0.403818   -1.181395   -2.123684
  S      1.554949   -2.096820   -0.217986
  Si     2.710828   -0.289708   -0.168420
  C      2.522510    0.626491    1.417932
  C      2.288101    0.858595   -1.544967
  C      1.328500    1.793273   -1.534606
  C      1.583514    1.538455    1.702654
  C      0.531130    2.074886    0.865215
  C      0.426567    2.180666   -0.470256
  H      3.216438    0.388640    2.219170
  H      1.565253    1.938352    2.713572
  H      2.845959    0.756466   -2.471512
  H      1.159182    2.345916   -2.455657
  H     -0.282796    2.520193    1.426496
  H     -0.458095    2.700361   -0.821442
  C     -4.628822    0.621974   -0.582379
  H     -4.136358    1.398225   -1.173993
  H     -5.549993    1.019420   -0.165397
  H     -4.862473   -0.228067   -1.228410
  H      4.094283   -0.790014   -0.317949

 Multiplicity           Mult            ....    1
 Number of Electrons    NEL             ....  130
 Basis Dimension        Dim             .... 1932

ORBITAL ENERGIES
----------------

  NO   OCC          E(Eh)            E(eV)
   0   2.0000     -91.930743     -2501.5627
   1   2.0000     -68.778164     -1871.5490
   2   2.0000     -20.587185      -560.2058
   3   2.0000     -11.301789      -307.5373
   4   2.0000     -11.287228      -307.1411
   5   2.0000     -11.252571      -306.1980
   6   2.0000     -11.247917      -306.0714
   7   2.0000     -11.247424      -306.0580
   8   2.0000     -11.241554      -305.8982
   9   2.0000     -11.239944      -305.8544
  10   2.0000     -11.239865      -305.8523
  11   2.0000     -11.238424      -305.8131
  12   2.0000     -11.229777      -305.5778
  13   2.0000     -11.225535      -305.4623
  14   2.0000     -11.217354      -305.2397
  15   2.0000     -11.217047      -305.2314
  16   2.0000      -8.934987      -243.1334
  17   2.0000      -6.616468      -180.0433
  18   2.0000      -6.615685      -180.0219
  19   2.0000      -6.615101      -180.0060
  20   2.0000      -6.125826      -166.6922
  21   2.0000      -4.232708      -115.1778
  22   2.0000      -4.232032      -115.1594
  23   2.0000      -4.231969      -115.1577
  24   2.0000      -1.419921       -38.6380
  25   2.0000      -1.162469       -31.6324
  26   2.0000      -1.116701       -30.3870
  27   2.0000      -1.051945       -28.6249
  28   2.0000      -1.048597       -28.5338
  29   2.0000      -1.026681       -27.9374
  30   2.0000      -0.994214       -27.0540
  31   2.0000      -0.966540       -26.3009
  32   2.0000      -0.911124       -24.7929
  33   2.0000      -0.866439       -23.5770
  34   2.0000      -0.841477       -22.8977
  35   2.0000      -0.809083       -22.0163
  36   2.0000      -0.790786       -21.5184
  37   2.0000      -0.725352       -19.7378
  38   2.0000      -0.693427       -18.8691
  39   2.0000      -0.679846       -18.4995
  40   2.0000      -0.675454       -18.3800
  41   2.0000      -0.673337       -18.3224
  42   2.0000      -0.663309       -18.0496
  43   2.0000      -0.632951       -17.2235
  44   2.0000      -0.624750       -17.0003
  45   2.0000      -0.614124       -16.7112
  46   2.0000      -0.593944       -16.1620
  47   2.0000      -0.586388       -15.9564
  48   2.0000      -0.581895       -15.8342
  49   2.0000      -0.552346       -15.0301
  50   2.0000      -0.540417       -14.7055
  51   2.0000      -0.527608       -14.3569
  52   2.0000      -0.517319       -14.0770
  53   2.0000      -0.503627       -13.7044
  54   2.0000      -0.491420       -13.3722
  55   2.0000      -0.486721       -13.2443
  56   2.0000      -0.460920       -12.5423
  57   2.0000      -0.454555       -12.3691
  58   2.0000      -0.454377       -12.3642
  59   2.0000      -0.426878       -11.6159
  60   2.0000      -0.387721       -10.5504
  61   2.0000      -0.354407        -9.6439
  62   2.0000      -0.342616        -9.3230
  63   2.0000      -0.316473        -8.6117
  64   2.0000      -0.304280        -8.2799
  65   0.0000       0.018473         0.5027
  66   0.0000       0.025214         0.6861
  67   0.0000       0.026057         0.7090
  68   0.0000       0.031816         0.8658
  69   0.0000       0.035926         0.9776

MULLIKEN ATOMIC CHARGES
-----------------------
   0 C :   -0.470447
   1 C :   -0.241770
   2 C :    1.705866
   3 C :   -0.487321
   4 C :   -0.087613
   5 C :   -0.202548
   6 H :    0.292167
   7 H :    0.188736
   8 O :   -0.936014
   9 H :    0.183424
  10 H :    0.226321
  11 S :   -0.708482
  12 Si:    1.916300
  13 C :   -0.954883
  14 C :   -0.961748
  15 C :   -0.037536
  16 C :   -0.041337
  17 C :   -0.212633
  18 C :   -0.264385
  19 H :    0.302543
  20 H :    0.292625
  21 H :    0.289908
  22 H :    0.289679
  23 H :    0.170652
  24 H :    0.192837
  25 C :   -0.800143
  26 H :    0.280308
  27 H :    0.491154
  28 H :    0.298645
  29 H :   -0.714305
Sum of atomic charges:    0.0000000

LOEWDIN ATOMIC CHARGES
----------------------
   0 C :    0.319059
   1 C :    0.213312
   2 C :   -0.466137
   3 C :    0.324209
   4 C :    0.219003
   5 C :   -0.604555
   6 H :   -0.333130
   7 H :   -0.319075
   8 O :    0.886124
   9 H :   -0.353234
  10 H :   -0.332193
  11 S :    1.247585
  12 Si:    0.000970
  13 C :    0.360621
  14 C :    0.360274
  15 C :    0.279870
  16 C :    0.280732
  17 C :    0.329414
  18 C :    0.328155
  19 H :   -0.396353
  20 H :   -0.336817
  21 H :   -0.396735
  22 H :   -0.337611
  23 H :   -0.340264
  24 H :   -0.341735
  25 C :    0.571683
  26 H :   -0.307064
  27 H :   -0.316181
  28 H :   -0.305066
  29 H :   -0.234859

  Mayer bond orders larger than 0.100000
B(  0-C ,  1-C ) :   1.4316 B(  0-C ,  2-C ) :   0.9841 B(  0-C ,  4-C ) :   0.1526
B(  0-C ,  6-H ) :  -0.1140 B(  0-C ,  7-H ) :   1.0755 B(  0-C ,  8-O ) :   0.2941
B(  1-C ,  2-C ) :  -0.2766 B(  1-C ,  3-C ) :   0.1487 B(  1-C ,  5-C ) :   0.9466
B(  1-C ,  6-H ) :   1.0736 B(  1-C , 11-S ) :  -0.2523 B(  2-C ,  3-C ) :   1.2060
B(  2-C ,  4-C ) :  -0.2126 B(  2-C ,  7-H ) :  -0.1330 B(  2-C ,  8-O ) :  -0.3198
B(  2-C ,  9-H ) :  -0.1052 B(  2-C , 25-C ) :  -0.2383 B(  3-C ,  4-C ) :   1.0487
B(  3-C ,  5-C ) :  -0.1959 B(  3-C ,  8-O ) :   0.2834 B(  3-C ,  9-H ) :   1.1365
B(  3-C , 10-H ) :  -0.1455 B(  3-C , 11-S ) :  -0.1021 B(  3-C , 25-C ) :   0.2072
B(  4-C ,  5-C ) :   0.9635 B(  4-C , 10-H ) :   1.1221 B(  4-C , 11-S ) :  -0.2793
B(  5-C ,  6-H ) :  -0.1027 B(  5-C , 11-S ) :   1.0982 B(  8-O , 25-C ) :   0.9833
B( 11-S , 12-Si) :   0.8344 B( 12-Si, 13-C ) :   0.7803 B( 12-Si, 14-C ) :   0.7865
B( 12-Si, 29-H ) :   0.3280 B( 13-C , 14-C ) :   0.2002 B( 13-C , 16-C ) :   1.5726
B( 13-C , 19-H ) :   0.8979 B( 14-C , 15-C ) :   1.5624 B( 14-C , 21-H ) :   0.9198
B( 15-C , 16-C ) :   0.1271 B( 15-C , 18-C ) :   0.9367 B( 15-C , 22-H ) :   0.9900
B( 16-C , 17-C ) :   0.9449 B( 16-C , 20-H ) :   0.9898 B( 17-C , 18-C ) :   1.6141
B( 17-C , 23-H ) :   1.0719 B( 18-C , 24-H ) :   1.0608 B( 25-C , 26-H ) :   0.8773
B( 25-C , 27-H ) :   0.7718 B( 25-C , 28-H ) :   0.9063

MP2 TOTAL ENERGY:    -1264.795199957 Eh
FINAL SINGLE POINT ENERGY     -1264.795199956546

DIPOLE MOMENT
-------------
                                X             Y             Z
Electronic contribution:      7.20469      -7.57639       1.42577
Nuclear contribution   :     -8.01847       8.60284      -1.76229
                        -----------------------------------------
Total Dipole Moment    :     -0.81378       1.02645      -0.33651
                        -----------------------------------------
Magnitude (a.u.)       :      1.35243
Magnitude (Debye)      :      3.43762

Rotational constants in cm-1:     0.024401     0.010921     0.009793
Rotational constants in MHz :   731.526500   327.416515   293.601586

                             ****ORCA TERMINATED NORMALLY****
TOTAL RUN TIME: 0 days 4 hours 35 minutes 45 seconds 117 msec
