                         Program Version 5.0.4 -  RELEASE  -
|  1> ! ri-mp2 aug-cc-pvdz aug-cc-pvdz/c tightscf
|  2> %pal nprocs 16 end
|  3> %maxcore 3800
|  4> %base "DZ_Si-Si_114_AB"
|  5>
|  6> *xyz 0 1
|  7> Si         2.351669   -0.243248   -0.000001
|  8> Si         0.253456    0.780784   -0.000001
|  9> S        -1.217615   -0.759116    0.000002
| 10> H         0.089624    1.648018   -1.191986
| 11> H         0.089626    1.648021    1.191981
| 12> H         3.404542    0.797552   -0.000004
| 13> H         2.511745   -1.085791   -1.204839
| 14> C        -2.738342    0.238819    0.000002
| 15> H        -3.574708   -0.456044    0.000003
| 16> H        -2.796218    0.860736   -0.890353
| 17> H        -2.796217    0.860738    0.890354
| 18> H         2.511747   -1.085787    1.204839
| 19> *
| 20>
| 21> $new_job
| 22> ! ri-mp2 aug-cc-pvtz aug-cc-pvtz/c tightscf
| 23> %pal nprocs 16 end
| 24> %maxcore 3800
| 25> %base "TZ_Si-Si_114_AB"
| 26>
| 27> *xyz 0 1
| 28> Si         2.351669   -0.243248   -0.000001
| 29> Si         0.253456    0.780784   -0.000001
| 30> S        -1.217615   -0.759116    0.000002
| 31> H         0.089624    1.648018   -1.191986
| 32> H         0.089626    1.648021    1.191981
| 33> H         3.404542    0.797552   -0.000004
| 34> H         2.511745   -1.085791   -1.204839
| 35> C        -2.738342    0.238819    0.000002
| 36> H        -3.574708   -0.456044    0.000003
| 37> H        -2.796218    0.860736   -0.890353
| 38> H        -2.796217    0.860738    0.890354
| 39> H         2.511747   -1.085787    1.204839
| 40> *
| 41>
| 42> $new_job
| 43> ! ri-mp2 aug-cc-pvqz aug-cc-pvqz/c tightscf
| 44> %pal nprocs 16 end
| 45> %maxcore 3800
| 46> %base "QZ_Si-Si_114_AB"
| 47>
| 48> *xyz 0 1
| 49> Si         2.351669   -0.243248   -0.000001
| 50> Si         0.253456    0.780784   -0.000001
| 51> S        -1.217615   -0.759116    0.000002
| 52> H         0.089624    1.648018   -1.191986
| 53> H         0.089626    1.648021    1.191981
| 54> H         3.404542    0.797552   -0.000004
| 55> H         2.511745   -1.085791   -1.204839
| 56> C        -2.738342    0.238819    0.000002
| 57> H        -3.574708   -0.456044    0.000003
| 58> H        -2.796218    0.860736   -0.890353
| 59> H        -2.796217    0.860738    0.890354
| 60> H         2.511747   -1.085787    1.204839
| 61> *
| 62>
| 63>
| 64>
| 65>
| 66>                          ****END OF INPUT****
 Total Charge           Charge          ....    0
 Multiplicity           Mult            ....    1
 Number of Electrons    NEL             ....   58
MP2 TOTAL ENERGY:    -1018.452394325 Eh
FINAL SINGLE POINT ENERGY     -1018.452394324692
MP2 TOTAL ENERGY:    -1018.620938019 Eh
FINAL SINGLE POINT ENERGY     -1018.620938018845

CARTESIAN COORDINATES (ANGSTROEM)
---------------------------------
  Si     2.351669   -0.243248   -0.000001
  Si     0.253456    0.780784   -0.000001
  S     -1.217615   -0.759116    0.000002
  H      0.089624    1.648018   -1.191986
  H      0.089626    1.648021    1.191981
  H      3.404542    0.797552   -0.000004
  H      2.511745   -1.085791   -1.204839
  C     -2.738342    0.238819    0.000002
  H     -3.574708   -0.456044    0.000003
  H     -2.796218    0.860736   -0.890353
  H     -2.796217    0.860738    0.890354
  H      2.511747   -1.085787    1.204839

 Multiplicity           Mult            ....    1
 Number of Electrons    NEL             ....   58
 Basis Dimension        Dim             ....  700

ORBITAL ENERGIES
----------------

  NO   OCC          E(Eh)            E(eV)
   0   2.0000     -91.940397     -2501.8254
   1   2.0000     -68.787428     -1871.8011
   2   2.0000     -68.769424     -1871.3112
   3   2.0000     -11.260444      -306.4123
   4   2.0000      -8.944345      -243.3880
   5   2.0000      -6.625852      -180.2986
   6   2.0000      -6.625092      -180.2779
   7   2.0000      -6.624339      -180.2574
   8   2.0000      -6.135575      -166.9575
   9   2.0000      -6.120374      -166.5439
  10   2.0000      -4.242017      -115.4311
  11   2.0000      -4.241589      -115.4195
  12   2.0000      -4.241362      -115.4133
  13   2.0000      -4.226502      -115.0090
  14   2.0000      -4.226429      -115.0070
  15   2.0000      -4.226390      -115.0059
  16   2.0000      -1.036719       -28.2106
  17   2.0000      -0.867980       -23.6189
  18   2.0000      -0.743974       -20.2446
  19   2.0000      -0.668348       -18.1867
  20   2.0000      -0.597174       -16.2499
  21   2.0000      -0.591306       -16.0902
  22   2.0000      -0.515931       -14.0392
  23   2.0000      -0.505009       -13.7420
  24   2.0000      -0.484518       -13.1844
  25   2.0000      -0.477041       -12.9809
  26   2.0000      -0.423164       -11.5149
  27   2.0000      -0.402754       -10.9595
  28   2.0000      -0.357325        -9.7233
  29   0.0000       0.025297         0.6884
  30   0.0000       0.029368         0.7991
  31   0.0000       0.034329         0.9341
  32   0.0000       0.039345         1.0706
  33   0.0000       0.047454         1.2913

MULLIKEN ATOMIC CHARGES
-----------------------
   0 Si:    0.396026
   1 Si:    0.694841
   2 S :   -0.285947
   3 H :   -0.182237
   4 H :   -0.182237
   5 H :   -0.157903
   6 H :   -0.134150
   7 C :   -0.955685
   8 H :    0.397018
   9 H :    0.272212
  10 H :    0.272213
  11 H :   -0.134150
Sum of atomic charges:    0.0000000

LOEWDIN ATOMIC CHARGES
----------------------
   0 Si:    0.974790
   1 Si:    0.201933
   2 S :    1.084232
   3 H :   -0.301028
   4 H :   -0.301029
   5 H :   -0.321366
   6 H :   -0.318530
   7 C :    0.456905
   8 H :   -0.393699
   9 H :   -0.381838
  10 H :   -0.381840
  11 H :   -0.318530

  Mayer bond orders larger than 0.100000
B(  0-Si,  1-Si) :   0.7390 B(  0-Si,  5-H ) :   0.7809 B(  0-Si,  6-H ) :   0.7826
B(  0-Si, 11-H ) :   0.7826 B(  1-Si,  2-S ) :   0.7646 B(  1-Si,  3-H ) :   0.7927
B(  1-Si,  4-H ) :   0.7927 B(  2-S ,  7-C ) :   1.0010 B(  7-C ,  8-H ) :   0.8151
B(  7-C ,  9-H ) :   0.9148 B(  7-C , 10-H ) :   0.9148

MP2 TOTAL ENERGY:    -1018.674613646 Eh
FINAL SINGLE POINT ENERGY     -1018.674613645643

DIPOLE MOMENT
-------------
                                X             Y             Z
Electronic contribution:      0.36775      -2.71155       0.00001
Nuclear contribution   :     -0.68434       3.19646      -0.00001
                        -----------------------------------------
Total Dipole Moment    :     -0.31659       0.48491       0.00000
                        -----------------------------------------
Magnitude (a.u.)       :      0.57911
Magnitude (Debye)      :      1.47199

Rotational constants in cm-1:     0.304665     0.047449     0.042588
Rotational constants in MHz :  9133.624154  1422.489922  1276.753164

                             ****ORCA TERMINATED NORMALLY****
TOTAL RUN TIME: 0 days 0 hours 6 minutes 25 seconds 71 msec
