                         Program Version 5.0.4 -  RELEASE  -
|  1> ! ri-mp2 aug-cc-pvdz aug-cc-pvdz/c tightscf
|  2> %pal nprocs 16 end
|  3> %maxcore 3800
|  4> %base "DZ_B-Si_5_AB"
|  5> %scf
|  6> STABPerform true
|  7> STABRestartUHFifUnstable true
|  8> end
|  9>
| 10> *xyz 0 1
| 11> B         1.838239    1.068861   -0.163218
| 12> Si         0.734289   -0.578812    0.144933
| 13> C        -1.840547    0.648629    0.236662
| 14> C        -1.045249   -0.464183   -0.445153
| 15> H        -1.531541   -1.428909   -0.281344
| 16> H        -1.039448   -0.311116   -1.527833
| 17> H        -1.386567    1.626306    0.064897
| 18> H        -2.865464    0.695991   -0.133690
| 19> H        -1.889393    0.497238    1.316421
| 20> H         1.405754    2.070112   -0.644510
| 21> H         2.989580    1.077075    0.144577
| 22> H         0.746928   -0.846087    1.609818
| 23> H         1.413677   -1.728223   -0.510358
| 24> *
| 25>
| 26> $new_job
| 27> ! ri-mp2 aug-cc-pvtz aug-cc-pvtz/c tightscf
| 28> %pal nprocs 16 end
| 29> %maxcore 3800
| 30> %base "TZ_B-Si_5_AB"
| 31>
| 32> *xyz 0 1
| 33> B         1.838239    1.068861   -0.163218
| 34> Si         0.734289   -0.578812    0.144933
| 35> C        -1.840547    0.648629    0.236662
| 36> C        -1.045249   -0.464183   -0.445153
| 37> H        -1.531541   -1.428909   -0.281344
| 38> H        -1.039448   -0.311116   -1.527833
| 39> H        -1.386567    1.626306    0.064897
| 40> H        -2.865464    0.695991   -0.133690
| 41> H        -1.889393    0.497238    1.316421
| 42> H         1.405754    2.070112   -0.644510
| 43> H         2.989580    1.077075    0.144577
| 44> H         0.746928   -0.846087    1.609818
| 45> H         1.413677   -1.728223   -0.510358
| 46> *
| 47>
| 48> $new_job
| 49> ! ri-mp2 aug-cc-pvqz aug-cc-pvqz/c tightscf
| 50> %pal nprocs 16 end
| 51> %maxcore 3800
| 52> %base "QZ_B-Si_5_AB"
| 53>
| 54> *xyz 0 1
| 55> B         1.838239    1.068861   -0.163218
| 56> Si         0.734289   -0.578812    0.144933
| 57> C        -1.840547    0.648629    0.236662
| 58> C        -1.045249   -0.464183   -0.445153
| 59> H        -1.531541   -1.428909   -0.281344
| 60> H        -1.039448   -0.311116   -1.527833
| 61> H        -1.386567    1.626306    0.064897
| 62> H        -2.865464    0.695991   -0.133690
| 63> H        -1.889393    0.497238    1.316421
| 64> H         1.405754    2.070112   -0.644510
| 65> H         2.989580    1.077075    0.144577
| 66> H         0.746928   -0.846087    1.609818
| 67> H         1.413677   -1.728223   -0.510358
| 68> *
| 69>
| 70>
| 71>
| 72>
| 73>                          ****END OF INPUT****
 Total Charge           Charge          ....    0
 Multiplicity           Mult            ....    1
 Number of Electrons    NEL             ....   40
MP2 TOTAL ENERGY:     -395.059663128 Eh
FINAL SINGLE POINT ENERGY      -395.059663127924
MP2 TOTAL ENERGY:     -395.201458611 Eh
FINAL SINGLE POINT ENERGY      -395.201458610790

CARTESIAN COORDINATES (ANGSTROEM)
---------------------------------
  B      1.838239    1.068861   -0.163218
  Si     0.734289   -0.578812    0.144933
  C     -1.840547    0.648629    0.236662
  C     -1.045249   -0.464183   -0.445153
  H     -1.531541   -1.428909   -0.281344
  H     -1.039448   -0.311116   -1.527833
  H     -1.386567    1.626306    0.064897
  H     -2.865464    0.695991   -0.133690
  H     -1.889393    0.497238    1.316421
  H      1.405754    2.070112   -0.644510
  H      2.989580    1.077075    0.144577
  H      0.746928   -0.846087    1.609818
  H      1.413677   -1.728223   -0.510358

 Multiplicity           Mult            ....    1
 Number of Electrons    NEL             ....   40
 Basis Dimension        Dim             ....  738

ORBITAL ENERGIES
----------------

  NO   OCC          E(Eh)            E(eV)
   0   2.0000     -68.745133     -1870.6502
   1   2.0000     -11.218046      -305.2586
   2   2.0000     -11.207179      -304.9628
   3   2.0000      -7.606029      -206.9706
   4   2.0000      -6.096943      -165.9063
   5   2.0000      -4.203392      -114.3801
   6   2.0000      -4.203110      -114.3724
   7   2.0000      -4.202545      -114.3571
   8   2.0000      -1.022404       -27.8210
   9   2.0000      -0.846929       -23.0461
  10   2.0000      -0.727801       -19.8045
  11   2.0000      -0.642379       -17.4800
  12   2.0000      -0.605672       -16.4812
  13   2.0000      -0.575525       -15.6608
  14   2.0000      -0.518135       -14.0992
  15   2.0000      -0.497169       -13.5286
  16   2.0000      -0.496701       -13.5159
  17   2.0000      -0.462482       -12.5848
  18   2.0000      -0.424957       -11.5637
  19   2.0000      -0.402774       -10.9600
  20   0.0000       0.023496         0.6394
  21   0.0000       0.027286         0.7425
  22   0.0000       0.030437         0.8282
  23   0.0000       0.032232         0.8771
  24   0.0000       0.042711         1.1622

MULLIKEN ATOMIC CHARGES
-----------------------
   0 B :    0.341193
   1 Si:    0.698117
   2 C :   -0.924592
   3 C :   -0.522775
   4 H :    0.275296
   5 H :    0.205006
   6 H :    0.257827
   7 H :    0.329801
   8 H :    0.240595
   9 H :   -0.176672
  10 H :   -0.272934
  11 H :   -0.203696
  12 H :   -0.247164
Sum of atomic charges:    0.0000000

LOEWDIN ATOMIC CHARGES
----------------------
   0 B :    0.372846
   1 Si:    0.862514
   2 C :    0.840421
   3 C :    0.466937
   4 H :   -0.343000
   5 H :   -0.342091
   6 H :   -0.305086
   7 H :   -0.283582
   8 H :   -0.296738
   9 H :   -0.248035
  10 H :   -0.259632
  11 H :   -0.227198
  12 H :   -0.237357

  Mayer bond orders larger than 0.100000
B(  0-B ,  1-Si) :   0.8384 B(  0-B ,  9-H ) :   0.9037 B(  0-B , 10-H ) :   0.9317
B(  1-Si,  3-C ) :   0.7583 B(  1-Si, 11-H ) :   0.7960 B(  1-Si, 12-H ) :   0.7896
B(  2-C ,  3-C ) :   0.9794 B(  2-C ,  6-H ) :   0.9171 B(  2-C ,  7-H ) :   0.9162
B(  2-C ,  8-H ) :   0.9399 B(  3-C ,  4-H ) :   0.8964 B(  3-C ,  5-H ) :   0.9338

MP2 TOTAL ENERGY:     -395.244301729 Eh
FINAL SINGLE POINT ENERGY      -395.244301728699

DIPOLE MOMENT
-------------
                                X             Y             Z
Electronic contribution:      3.61310      -0.74213      -0.31100
Nuclear contribution   :     -3.84256       0.86219       0.16769
                        -----------------------------------------
Total Dipole Moment    :     -0.22946       0.12006      -0.14331
                        -----------------------------------------
Magnitude (a.u.)       :      0.29598
Magnitude (Debye)      :      0.75232

Rotational constants in cm-1:     0.303181     0.114209     0.093491
Rotational constants in MHz :  9089.132257  3423.888644  2802.789777

                             ****ORCA TERMINATED NORMALLY****
TOTAL RUN TIME: 0 days 0 hours 38 minutes 45 seconds 645 msec
