                         Program Version 5.0.4 -  RELEASE  -
|  1> ! ri-mp2 aug-cc-pvdz aug-cc-pvdz/c tightscf
|  2> %pal nprocs 16 end
|  3> %maxcore 3800
|  4> %base "DZ_B-Si_19_AB"
|  5>
|  6> *xyz 0 1
|  7> C         0.108095   -0.180036    0.121271
|  8> C        -0.442135    1.090931    0.256375
|  9> C        -1.808714    1.262504    0.127683
| 10> N        -2.649645    0.267602   -0.128204
| 11> C        -2.132874   -0.945895   -0.262520
| 12> C        -0.778860   -1.215718   -0.148036
| 13> H         0.181415    1.953161    0.458071
| 14> H        -2.248977    2.248080    0.232923
| 15> H        -2.833949   -1.746309   -0.472987
| 16> H        -0.427849   -2.232499   -0.270474
| 17> B         3.083099    0.849069   -0.688105
| 18> Si         1.952828   -0.480836    0.295087
| 19> H         2.689743    1.947648   -0.925994
| 20> H         4.198273    0.586870   -1.011230
| 21> H         2.338876   -0.330558    1.724805
| 22> H         2.221818   -1.883962   -0.097018
| 23> *
| 24>
| 25> $new_job
| 26> ! ri-mp2 aug-cc-pvtz aug-cc-pvtz/c tightscf
| 27> %pal nprocs 16 end
| 28> %maxcore 3800
| 29> %base "TZ_B-Si_19_AB"
| 30>
| 31> *xyz 0 1
| 32> C         0.108095   -0.180036    0.121271
| 33> C        -0.442135    1.090931    0.256375
| 34> C        -1.808714    1.262504    0.127683
| 35> N        -2.649645    0.267602   -0.128204
| 36> C        -2.132874   -0.945895   -0.262520
| 37> C        -0.778860   -1.215718   -0.148036
| 38> H         0.181415    1.953161    0.458071
| 39> H        -2.248977    2.248080    0.232923
| 40> H        -2.833949   -1.746309   -0.472987
| 41> H        -0.427849   -2.232499   -0.270474
| 42> B         3.083099    0.849069   -0.688105
| 43> Si         1.952828   -0.480836    0.295087
| 44> H         2.689743    1.947648   -0.925994
| 45> H         4.198273    0.586870   -1.011230
| 46> H         2.338876   -0.330558    1.724805
| 47> H         2.221818   -1.883962   -0.097018
| 48> *
| 49>
| 50> $new_job
| 51> ! ri-mp2 aug-cc-pvqz aug-cc-pvqz/c tightscf
| 52> %pal nprocs 16 end
| 53> %maxcore 3800
| 54> %base "QZ_B-Si_19_AB"
| 55>
| 56> *xyz 0 1
| 57> C         0.108095   -0.180036    0.121271
| 58> C        -0.442135    1.090931    0.256375
| 59> C        -1.808714    1.262504    0.127683
| 60> N        -2.649645    0.267602   -0.128204
| 61> C        -2.132874   -0.945895   -0.262520
| 62> C        -0.778860   -1.215718   -0.148036
| 63> H         0.181415    1.953161    0.458071
| 64> H        -2.248977    2.248080    0.232923
| 65> H        -2.833949   -1.746309   -0.472987
| 66> H        -0.427849   -2.232499   -0.270474
| 67> B         3.083099    0.849069   -0.688105
| 68> Si         1.952828   -0.480836    0.295087
| 69> H         2.689743    1.947648   -0.925994
| 70> H         4.198273    0.586870   -1.011230
| 71> H         2.338876   -0.330558    1.724805
| 72> H         2.221818   -1.883962   -0.097018
| 73> *
| 74>
| 75>
| 76>
| 77>
| 78>                          ****END OF INPUT****
 Total Charge           Charge          ....    0
 Multiplicity           Mult            ....    1
 Number of Electrons    NEL             ....   64
MP2 TOTAL ENERGY:     -563.075252752 Eh
FINAL SINGLE POINT ENERGY      -563.075252752195
MP2 TOTAL ENERGY:     -563.347566379 Eh
FINAL SINGLE POINT ENERGY      -563.347566379063

CARTESIAN COORDINATES (ANGSTROEM)
---------------------------------
  C      0.108095   -0.180036    0.121271
  C     -0.442135    1.090931    0.256375
  C     -1.808714    1.262504    0.127683
  N     -2.649645    0.267602   -0.128204
  C     -2.132874   -0.945895   -0.262520
  C     -0.778860   -1.215718   -0.148036
  H      0.181415    1.953161    0.458071
  H     -2.248977    2.248080    0.232923
  H     -2.833949   -1.746309   -0.472987
  H     -0.427849   -2.232499   -0.270474
  B      3.083099    0.849069   -0.688105
  Si     1.952828   -0.480836    0.295087
  H      2.689743    1.947648   -0.925994
  H      4.198273    0.586870   -1.011230
  H      2.338876   -0.330558    1.724805
  H      2.221818   -1.883962   -0.097018

 Multiplicity           Mult            ....    1
 Number of Electrons    NEL             ....   64
 Basis Dimension        Dim             .... 1012

ORBITAL ENERGIES
----------------

  NO   OCC          E(Eh)            E(eV)
   0   2.0000     -68.765389     -1871.2014
   1   2.0000     -15.563588      -423.5068
   2   2.0000     -11.271201      -306.7050
   3   2.0000     -11.271081      -306.7017
   4   2.0000     -11.243791      -305.9591
   5   2.0000     -11.241125      -305.8866
   6   2.0000     -11.240722      -305.8756
   7   2.0000      -7.618786      -207.3177
   8   2.0000      -6.117012      -166.4524
   9   2.0000      -4.223401      -114.9246
  10   2.0000      -4.223162      -114.9181
  11   2.0000      -4.222866      -114.9100
  12   2.0000      -1.265083       -34.4247
  13   2.0000      -1.088980       -29.6326
  14   2.0000      -1.036400       -28.2019
  15   2.0000      -0.859084       -23.3769
  16   2.0000      -0.858788       -23.3688
  17   2.0000      -0.758670       -20.6445
  18   2.0000      -0.701201       -19.0806
  19   2.0000      -0.667847       -18.1730
  20   2.0000      -0.653490       -17.7824
  21   2.0000      -0.640685       -17.4339
  22   2.0000      -0.598393       -16.2831
  23   2.0000      -0.548545       -14.9267
  24   2.0000      -0.519573       -14.1383
  25   2.0000      -0.518092       -14.0980
  26   2.0000      -0.491780       -13.3820
  27   2.0000      -0.480788       -13.0829
  28   2.0000      -0.434666       -11.8279
  29   2.0000      -0.409154       -11.1336
  30   2.0000      -0.377772       -10.2797
  31   2.0000      -0.349786        -9.5182
  32   0.0000       0.019808         0.5390
  33   0.0000       0.021755         0.5920
  34   0.0000       0.027253         0.7416
  35   0.0000       0.029105         0.7920
  36   0.0000       0.035643         0.9699

MULLIKEN ATOMIC CHARGES
-----------------------
   0 C :    0.203165
   1 C :   -0.494603
   2 C :   -0.136912
   3 N :   -0.653451
   4 C :   -0.131143
   5 C :   -0.629321
   6 H :    0.328039
   7 H :    0.470036
   8 H :    0.483392
   9 H :    0.291676
  10 B :    0.295131
  11 Si:    0.806249
  12 H :   -0.152873
  13 H :   -0.253951
  14 H :   -0.173657
  15 H :   -0.251778
Sum of atomic charges:    0.0000000

LOEWDIN ATOMIC CHARGES
----------------------
   0 C :   -0.132474
   1 C :    0.241190
   2 C :    0.075633
   3 N :    0.594505
   4 C :    0.073461
   5 C :    0.245697
   6 H :   -0.341737
   7 H :   -0.347637
   8 H :   -0.348217
   9 H :   -0.347289
  10 B :    0.381994
  11 Si:    0.862432
  12 H :   -0.245893
  13 H :   -0.255235
  14 H :   -0.225812
  15 H :   -0.230620

  Mayer bond orders larger than 0.100000
B(  0-C ,  1-C ) :   0.9285 B(  0-C ,  2-C ) :  -0.2857 B(  0-C ,  4-C ) :  -0.3486
B(  0-C ,  5-C ) :   0.8966 B(  0-C ,  6-H ) :  -0.1218 B(  0-C , 11-Si) :   0.8987
B(  1-C ,  2-C ) :   1.2980 B(  1-C ,  4-C ) :   0.1010 B(  1-C ,  6-H ) :   0.9390
B(  1-C ,  7-H ) :  -0.1409 B(  1-C , 11-Si) :  -0.1338 B(  2-C ,  3-N ) :   1.1307
B(  2-C ,  5-C ) :   0.1143 B(  2-C ,  7-H ) :   0.9017 B(  3-N ,  4-C ) :   1.1468
B(  3-N ,  7-H ) :  -0.1180 B(  3-N ,  8-H ) :  -0.1295 B(  4-C ,  5-C ) :   1.3875
B(  4-C ,  8-H ) :   0.8845 B(  5-C ,  8-H ) :  -0.1392 B(  5-C ,  9-H ) :   0.9839
B(  5-C , 11-Si) :  -0.1225 B( 10-B , 11-Si) :   0.8399 B( 10-B , 12-H ) :   0.9022
B( 10-B , 13-H ) :   0.9128 B( 11-Si, 14-H ) :   0.7569 B( 11-Si, 15-H ) :   0.6773

MP2 TOTAL ENERGY:     -563.434797242 Eh
FINAL SINGLE POINT ENERGY      -563.434797241566

DIPOLE MOMENT
-------------
                                X             Y             Z
Electronic contribution:     -2.67453       0.08113      -0.23216
Nuclear contribution   :      3.47700      -0.11023       0.17272
                        -----------------------------------------
Total Dipole Moment    :      0.80247      -0.02911      -0.05944
                        -----------------------------------------
Magnitude (a.u.)       :      0.80520
Magnitude (Debye)      :      2.04665

Rotational constants in cm-1:     0.142839     0.035394     0.029927
Rotational constants in MHz :  4282.204572  1061.075654   897.202189

                             ****ORCA TERMINATED NORMALLY****
TOTAL RUN TIME: 0 days 0 hours 28 minutes 54 seconds 571 msec
