                         Program Version 5.0.4 -  RELEASE  -
|  1> ! ri-mp2 aug-cc-pvdz aug-cc-pvdz/c tightscf
|  2> %pal nprocs 16 end
|  3> %maxcore 3800
|  4> %base "DZ_P-N_63_AB"
|  5>
|  6> *xyz 0 1
|  7> C        -1.810984    1.758887   -0.333662
|  8> C        -0.521645    1.623230    0.155156
|  9> C        -2.654091    0.668871   -0.417047
| 10> C        -2.222805   -0.592061   -0.006965
| 11> C        -0.931532   -0.721303    0.496528
| 12> C        -0.077702    0.371836    0.576025
| 13> H        -0.587731   -1.693300    0.830480
| 14> H        -3.660712    0.789637   -0.798344
| 15> H        -2.164640    2.729235   -0.656908
| 16> H         0.133302    2.481739    0.210281
| 17> N         2.517097   -0.207499   -0.277418
| 18> O         2.200277   -1.521119   -0.700853
| 19> O         2.239243    0.661959   -1.328064
| 20> N        -3.077690   -1.680409   -0.045687
| 21> H        -3.851886   -1.617864   -0.684396
| 22> H        -2.642918   -2.587300   -0.035620
| 23> H         3.031052   -1.852205   -1.061370
| 24> H         1.276879    0.637084   -1.474601
| 25> P         1.612143    0.074558    1.204422
| 26> H         2.005046    1.426468    1.277018
| 27> *
| 28>
| 29> $new_job
| 30> ! ri-mp2 aug-cc-pvtz aug-cc-pvtz/c tightscf
| 31> %pal nprocs 16 end
| 32> %maxcore 3800
| 33> %base "TZ_P-N_63_AB"
| 34>
| 35> *xyz 0 1
| 36> C        -1.810984    1.758887   -0.333662
| 37> C        -0.521645    1.623230    0.155156
| 38> C        -2.654091    0.668871   -0.417047
| 39> C        -2.222805   -0.592061   -0.006965
| 40> C        -0.931532   -0.721303    0.496528
| 41> C        -0.077702    0.371836    0.576025
| 42> H        -0.587731   -1.693300    0.830480
| 43> H        -3.660712    0.789637   -0.798344
| 44> H        -2.164640    2.729235   -0.656908
| 45> H         0.133302    2.481739    0.210281
| 46> N         2.517097   -0.207499   -0.277418
| 47> O         2.200277   -1.521119   -0.700853
| 48> O         2.239243    0.661959   -1.328064
| 49> N        -3.077690   -1.680409   -0.045687
| 50> H        -3.851886   -1.617864   -0.684396
| 51> H        -2.642918   -2.587300   -0.035620
| 52> H         3.031052   -1.852205   -1.061370
| 53> H         1.276879    0.637084   -1.474601
| 54> P         1.612143    0.074558    1.204422
| 55> H         2.005046    1.426468    1.277018
| 56> *
| 57>
| 58> $new_job
| 59> ! ri-mp2 aug-cc-pvqz aug-cc-pvqz/c tightscf
| 60> %pal nprocs 16 end
| 61> %maxcore 3800
| 62> %base "QZ_P-N_63_AB"
| 63>
| 64> *xyz 0 1
| 65> C        -1.810984    1.758887   -0.333662
| 66> C        -0.521645    1.623230    0.155156
| 67> C        -2.654091    0.668871   -0.417047
| 68> C        -2.222805   -0.592061   -0.006965
| 69> C        -0.931532   -0.721303    0.496528
| 70> C        -0.077702    0.371836    0.576025
| 71> H        -0.587731   -1.693300    0.830480
| 72> H        -3.660712    0.789637   -0.798344
| 73> H        -2.164640    2.729235   -0.656908
| 74> H         0.133302    2.481739    0.210281
| 75> N         2.517097   -0.207499   -0.277418
| 76> O         2.200277   -1.521119   -0.700853
| 77> O         2.239243    0.661959   -1.328064
| 78> N        -3.077690   -1.680409   -0.045687
| 79> H        -3.851886   -1.617864   -0.684396
| 80> H        -2.642918   -2.587300   -0.035620
| 81> H         3.031052   -1.852205   -1.061370
| 82> H         1.276879    0.637084   -1.474601
| 83> P         1.612143    0.074558    1.204422
| 84> H         2.005046    1.426468    1.277018
| 85> *
| 86>
| 87>
| 88>
| 89>
| 90>                          ****END OF INPUT****
 Total Charge           Charge          ....    0
 Multiplicity           Mult            ....    1
 Number of Electrons    NEL             ....   90
MP2 TOTAL ENERGY:     -833.459900125 Eh
FINAL SINGLE POINT ENERGY      -833.459900125487
MP2 TOTAL ENERGY:     -833.928190287 Eh
FINAL SINGLE POINT ENERGY      -833.928190287235

CARTESIAN COORDINATES (ANGSTROEM)
---------------------------------
  C     -1.810984    1.758887   -0.333662
  C     -0.521645    1.623230    0.155156
  C     -2.654091    0.668871   -0.417047
  C     -2.222805   -0.592061   -0.006965
  C     -0.931532   -0.721303    0.496528
  C     -0.077702    0.371836    0.576025
  H     -0.587731   -1.693300    0.830480
  H     -3.660712    0.789637   -0.798344
  H     -2.164640    2.729235   -0.656908
  H      0.133302    2.481739    0.210281
  N      2.517097   -0.207499   -0.277418
  O      2.200277   -1.521119   -0.700853
  O      2.239243    0.661959   -1.328064
  N     -3.077690   -1.680409   -0.045687
  H     -3.851886   -1.617864   -0.684396
  H     -2.642918   -2.587300   -0.035620
  H      3.031052   -1.852205   -1.061370
  H      1.276879    0.637084   -1.474601
  P      1.612143    0.074558    1.204422
  H      2.005046    1.426468    1.277018

 Multiplicity           Mult            ....    1
 Number of Electrons    NEL             ....   90
 Basis Dimension        Dim             .... 1298

ORBITAL ENERGIES
----------------

  NO   OCC          E(Eh)            E(eV)
   0   2.0000     -79.963710     -2175.9232
   1   2.0000     -20.597245      -560.4795
   2   2.0000     -20.592529      -560.3512
   3   2.0000     -15.661313      -426.1660
   4   2.0000     -15.572263      -423.7428
   5   2.0000     -11.287682      -307.1534
   6   2.0000     -11.245229      -305.9982
   7   2.0000     -11.244382      -305.9752
   8   2.0000     -11.236477      -305.7601
   9   2.0000     -11.235945      -305.7456
  10   2.0000     -11.233656      -305.6833
  11   2.0000      -7.503689      -204.1857
  12   2.0000      -5.397440      -146.8718
  13   2.0000      -5.397196      -146.8652
  14   2.0000      -5.396130      -146.8362
  15   2.0000      -1.467824       -39.9415
  16   2.0000      -1.346604       -36.6430
  17   2.0000      -1.239868       -33.7385
  18   2.0000      -1.146598       -31.2005
  19   2.0000      -1.049492       -28.5581
  20   2.0000      -1.020591       -27.7717
  21   2.0000      -1.002298       -27.2739
  22   2.0000      -0.867146       -23.5962
  23   2.0000      -0.834827       -22.7168
  24   2.0000      -0.795781       -21.6543
  25   2.0000      -0.749556       -20.3965
  26   2.0000      -0.711833       -19.3699
  27   2.0000      -0.698998       -19.0207
  28   2.0000      -0.669713       -18.2238
  29   2.0000      -0.651388       -17.7252
  30   2.0000      -0.632943       -17.2232
  31   2.0000      -0.626977       -17.0609
  32   2.0000      -0.613522       -16.6948
  33   2.0000      -0.602798       -16.4030
  34   2.0000      -0.560653       -15.2561
  35   2.0000      -0.550295       -14.9743
  36   2.0000      -0.517752       -14.0887
  37   2.0000      -0.499760       -13.5992
  38   2.0000      -0.493783       -13.4365
  39   2.0000      -0.488451       -13.2914
  40   2.0000      -0.464387       -12.6366
  41   2.0000      -0.405414       -11.0319
  42   2.0000      -0.380638       -10.3577
  43   2.0000      -0.347155        -9.4466
  44   2.0000      -0.307493        -8.3673
  45   0.0000       0.019106         0.5199
  46   0.0000       0.027152         0.7389
  47   0.0000       0.031111         0.8466
  48   0.0000       0.039751         1.0817
  49   0.0000       0.042795         1.1645

MULLIKEN ATOMIC CHARGES
-----------------------
   0 C :   -0.425566
   1 C :   -0.315449
   2 C :   -0.339638
   3 C :    0.551707
   4 C :   -0.213133
   5 C :   -0.105807
   6 H :    0.377834
   7 H :    0.307760
   8 H :    0.200450
   9 H :    0.311325
  10 N :   -0.050544
  11 O :   -0.615135
  12 O :   -0.630999
  13 N :   -0.851505
  14 H :    0.270514
  15 H :    0.274943
  16 H :    0.354778
  17 H :    0.372668
  18 P :    0.671682
  19 H :   -0.145884
Sum of atomic charges:   -0.0000000

LOEWDIN ATOMIC CHARGES
----------------------
   0 C :    0.341654
   1 C :    0.244472
   2 C :    0.344320
   3 C :   -0.238844
   4 C :    0.240710
   5 C :   -0.307217
   6 H :   -0.342378
   7 H :   -0.317819
   8 H :   -0.315911
   9 H :   -0.346823
  10 N :   -0.418794
  11 O :    0.985732
  12 O :    1.009410
  13 N :    1.277206
  14 H :   -0.502912
  15 H :   -0.501954
  16 H :   -0.851395
  17 H :   -0.910612
  18 P :    1.054871
  19 H :   -0.443716

  Mayer bond orders larger than 0.100000
B(  0-C ,  1-C ) :   1.3218 B(  0-C ,  2-C ) :   1.2308 B(  0-C ,  3-C ) :  -0.2258
B(  0-C ,  4-C ) :   0.1027 B(  0-C ,  5-C ) :  -0.2873 B(  0-C ,  8-H ) :   1.2195
B(  1-C ,  2-C ) :   0.1488 B(  1-C ,  5-C ) :   0.8294 B(  1-C ,  8-H ) :  -0.1316
B(  1-C ,  9-H ) :   0.9820 B(  2-C ,  3-C ) :   1.0984 B(  2-C ,  7-H ) :   0.9376
B(  2-C ,  8-H ) :  -0.1680 B(  3-C ,  4-C ) :   1.3691 B(  3-C ,  5-C ) :  -0.3046
B(  3-C ,  6-H ) :  -0.1134 B(  3-C ,  7-H ) :  -0.1268 B(  3-C , 13-N ) :   0.6852
B(  4-C ,  5-C ) :   1.0433 B(  4-C ,  6-H ) :   0.8446 B(  4-C , 18-P ) :  -0.3976
B(  5-C ,  6-H ) :  -0.1477 B(  5-C , 18-P ) :   0.9753 B(  5-C , 19-H ) :  -0.1908
B( 10-N , 11-O ) :   0.7145 B( 10-N , 12-O ) :   0.6118 B( 10-N , 18-P ) :   0.5719
B( 11-O , 16-H ) :   0.8989 B( 12-O , 17-H ) :   0.7895 B( 13-N , 14-H ) :   0.9432
B( 13-N , 15-H ) :   0.9271 B( 18-P , 19-H ) :   0.9946

MP2 TOTAL ENERGY:     -834.080145622 Eh
FINAL SINGLE POINT ENERGY      -834.080145621783

DIPOLE MOMENT
-------------
                                X             Y             Z
Electronic contribution:      6.71062      -0.54991       3.01494
Nuclear contribution   :     -7.78757       0.21394      -3.51008
                        -----------------------------------------
Total Dipole Moment    :     -1.07694      -0.33597      -0.49514
                        -----------------------------------------
Magnitude (a.u.)       :      1.23201
Magnitude (Debye)      :      3.13151

Rotational constants in cm-1:     0.055612     0.020764     0.018422
Rotational constants in MHz :  1667.203738   622.476553   552.262749

                             ****ORCA TERMINATED NORMALLY****
TOTAL RUN TIME: 0 days 0 hours 53 minutes 7 seconds 87 msec
