                         Program Version 5.0.4 -  RELEASE  -
|  1> ! ri-mp2 aug-cc-pvdz aug-cc-pvdz/c tightscf
|  2> %pal nprocs 16 end
|  3> %maxcore 3800
|  4> %base "DZ_Si-Cl_21_AB"
|  5> %scf
|  6> STABPerform true
|  7> STABRestartUHFifUnstable true
|  8> end
|  9>
| 10> *xyz 0 1
| 11> C         0.888121   -1.688836    0.542999
| 12> Si         0.333424   -0.000007   -0.000002
| 13> C         0.888136    0.374117   -1.734072
| 14> H         0.520835   -2.458801   -0.135942
| 15> H         0.520918   -1.918825    1.543485
| 16> H         1.978605   -1.745243    0.561078
| 17> C         0.888256    1.314655    1.191022
| 18> Cl        -1.748040    0.000042    0.000031
| 19> H         0.520956   -0.377377   -2.433461
| 20> H         1.978622    0.386679   -1.791931
| 21> H         0.520980    1.111727    2.197317
| 22> H         0.521148    2.296122    0.889919
| 23> H         1.978747    1.358405    1.230803
| 24> H         0.520842    1.347064   -2.061449
| 25> *
| 26>
| 27> $new_job
| 28> ! ri-mp2 aug-cc-pvtz aug-cc-pvtz/c tightscf
| 29> %pal nprocs 16 end
| 30> %maxcore 3800
| 31> %base "TZ_Si-Cl_21_AB"
| 32>
| 33> *xyz 0 1
| 34> C         0.888121   -1.688836    0.542999
| 35> Si         0.333424   -0.000007   -0.000002
| 36> C         0.888136    0.374117   -1.734072
| 37> H         0.520835   -2.458801   -0.135942
| 38> H         0.520918   -1.918825    1.543485
| 39> H         1.978605   -1.745243    0.561078
| 40> C         0.888256    1.314655    1.191022
| 41> Cl        -1.748040    0.000042    0.000031
| 42> H         0.520956   -0.377377   -2.433461
| 43> H         1.978622    0.386679   -1.791931
| 44> H         0.520980    1.111727    2.197317
| 45> H         0.521148    2.296122    0.889919
| 46> H         1.978747    1.358405    1.230803
| 47> H         0.520842    1.347064   -2.061449
| 48> *
| 49>
| 50> $new_job
| 51> ! ri-mp2 aug-cc-pvqz aug-cc-pvqz/c tightscf
| 52> %pal nprocs 16 end
| 53> %maxcore 3800
| 54> %base "QZ_Si-Cl_21_AB"
| 55>
| 56> *xyz 0 1
| 57> C         0.888121   -1.688836    0.542999
| 58> Si         0.333424   -0.000007   -0.000002
| 59> C         0.888136    0.374117   -1.734072
| 60> H         0.520835   -2.458801   -0.135942
| 61> H         0.520918   -1.918825    1.543485
| 62> H         1.978605   -1.745243    0.561078
| 63> C         0.888256    1.314655    1.191022
| 64> Cl        -1.748040    0.000042    0.000031
| 65> H         0.520956   -0.377377   -2.433461
| 66> H         1.978622    0.386679   -1.791931
| 67> H         0.520980    1.111727    2.197317
| 68> H         0.521148    2.296122    0.889919
| 69> H         1.978747    1.358405    1.230803
| 70> H         0.520842    1.347064   -2.061449
| 71> *
| 72>
| 73>
| 74>
| 75>
| 76>                          ****END OF INPUT****
 Total Charge           Charge          ....    0
 Multiplicity           Mult            ....    1
 Number of Electrons    NEL             ....   58
MP2 TOTAL ENERGY:     -868.094725447 Eh
FINAL SINGLE POINT ENERGY      -868.094725447084
MP2 TOTAL ENERGY:     -868.318322528 Eh
FINAL SINGLE POINT ENERGY      -868.318322527908

CARTESIAN COORDINATES (ANGSTROEM)
---------------------------------
  C      0.888121   -1.688836    0.542999
  Si     0.333424   -0.000007   -0.000002
  C      0.888136    0.374117   -1.734072
  H      0.520835   -2.458801   -0.135942
  H      0.520918   -1.918825    1.543485
  H      1.978605   -1.745243    0.561078
  C      0.888256    1.314655    1.191022
  Cl    -1.748040    0.000042    0.000031
  H      0.520956   -0.377377   -2.433461
  H      1.978622    0.386679   -1.791931
  H      0.520980    1.111727    2.197317
  H      0.521148    2.296122    0.889919
  H      1.978747    1.358405    1.230803
  H      0.520842    1.347064   -2.061449

 Multiplicity           Mult            ....    1
 Number of Electrons    NEL             ....   58
 Basis Dimension        Dim             ....  822

ORBITAL ENERGIES
----------------

  NO   OCC          E(Eh)            E(eV)
   0   2.0000    -104.805983     -2851.9158
   1   2.0000     -68.789841     -1871.8667
   2   2.0000     -11.205900      -304.9281
   3   2.0000     -11.205900      -304.9280
   4   2.0000     -11.205888      -304.9277
   5   2.0000     -10.533657      -286.6354
   6   2.0000      -8.000443      -217.7031
   7   2.0000      -7.999444      -217.6759
   8   2.0000      -7.999444      -217.6759
   9   2.0000      -6.135884      -166.9659
  10   2.0000      -4.243247      -115.4646
  11   2.0000      -4.241695      -115.4224
  12   2.0000      -4.241695      -115.4224
  13   2.0000      -1.079613       -29.3778
  14   2.0000      -0.974020       -26.5044
  15   2.0000      -0.936927       -25.4951
  16   2.0000      -0.936926       -25.4951
  17   2.0000      -0.646687       -17.5972
  18   2.0000      -0.584632       -15.9086
  19   2.0000      -0.575341       -15.6558
  20   2.0000      -0.575340       -15.6558
  21   2.0000      -0.556429       -15.1412
  22   2.0000      -0.556427       -15.1412
  23   2.0000      -0.541648       -14.7390
  24   2.0000      -0.485672       -13.2158
  25   2.0000      -0.474774       -12.9193
  26   2.0000      -0.474773       -12.9192
  27   2.0000      -0.424947       -11.5634
  28   2.0000      -0.424946       -11.5634
  29   0.0000       0.020135         0.5479
  30   0.0000       0.034518         0.9393
  31   0.0000       0.034518         0.9393
  32   0.0000       0.036440         0.9916
  33   0.0000       0.050625         1.3776

MULLIKEN ATOMIC CHARGES
-----------------------
   0 C :   -1.182633
   1 Si:    2.011703
   2 C :   -1.182624
   3 H :    0.260866
   4 H :    0.260876
   5 H :    0.257465
   6 C :   -1.182627
   7 Cl:   -0.801440
   8 H :    0.260878
   9 H :    0.257461
  10 H :    0.260871
  11 H :    0.260876
  12 H :    0.257460
  13 H :    0.260868
Sum of atomic charges:    0.0000000

LOEWDIN ATOMIC CHARGES
----------------------
   0 C :    0.921528
   1 Si:   -0.598319
   2 C :    0.921525
   3 H :   -0.353839
   4 H :   -0.353834
   5 H :   -0.342799
   6 C :    0.921536
   7 Cl:    0.985144
   8 H :   -0.353832
   9 H :   -0.342800
  10 H :   -0.353841
  11 H :   -0.353831
  12 H :   -0.342801
  13 H :   -0.353838

  Mayer bond orders larger than 0.100000
B(  0-C ,  1-Si) :   0.7777 B(  0-C ,  3-H ) :   0.9614 B(  0-C ,  4-H ) :   0.9614
B(  0-C ,  5-H ) :   0.9547 B(  1-Si,  2-C ) :   0.7778 B(  1-Si,  6-C ) :   0.7778
B(  2-C ,  8-H ) :   0.9614 B(  2-C ,  9-H ) :   0.9547 B(  2-C , 13-H ) :   0.9614
B(  6-C , 10-H ) :   0.9614 B(  6-C , 11-H ) :   0.9614 B(  6-C , 12-H ) :   0.9547

MP2 TOTAL ENERGY:     -868.387626093 Eh
FINAL SINGLE POINT ENERGY      -868.387626093326

DIPOLE MOMENT
-------------
                                X             Y             Z
Electronic contribution:    -10.64952       0.00028       0.00022
Nuclear contribution   :     11.57245      -0.00031      -0.00023
                        -----------------------------------------
Total Dipole Moment    :      0.92294      -0.00003      -0.00001
                        -----------------------------------------
Magnitude (a.u.)       :      0.92294
Magnitude (Debye)      :      2.34592

Rotational constants in cm-1:     0.105208     0.072580     0.072579
Rotational constants in MHz :  3154.049330  2175.888769  2175.878394

                             ****ORCA TERMINATED NORMALLY****
TOTAL RUN TIME: 0 days 1 hours 30 minutes 15 seconds 280 msec
