                         Program Version 5.0.4 -  RELEASE  -
|  1> ! ri-mp2 aug-cc-pvdz aug-cc-pvdz/c tightscf
|  2> %pal nprocs 16 end
|  3> %maxcore 3800
|  4> %base "DZ_S-F_36_AB"
|  5> %scf
|  6> STABPerform true
|  7> STABRestartUHFifUnstable true
|  8> end
|  9>
| 10> *xyz 0 1
| 11> F        -1.378181    0.843178    0.073287
| 12> S        -0.608926   -0.554730   -0.169914
| 13> O         0.763184   -0.321291    0.553764
| 14> O         1.759702    0.342484   -0.323989
| 15> H         1.963348    1.117532    0.220841
| 16> *
| 17>
| 18> $new_job
| 19> ! ri-mp2 aug-cc-pvtz aug-cc-pvtz/c tightscf
| 20> %pal nprocs 16 end
| 21> %maxcore 3800
| 22> %base "TZ_S-F_36_AB"
| 23>
| 24> *xyz 0 1
| 25> F        -1.378181    0.843178    0.073287
| 26> S        -0.608926   -0.554730   -0.169914
| 27> O         0.763184   -0.321291    0.553764
| 28> O         1.759702    0.342484   -0.323989
| 29> H         1.963348    1.117532    0.220841
| 30> *
| 31>
| 32> $new_job
| 33> ! ri-mp2 aug-cc-pvqz aug-cc-pvqz/c tightscf
| 34> %pal nprocs 16 end
| 35> %maxcore 3800
| 36> %base "QZ_S-F_36_AB"
| 37>
| 38> *xyz 0 1
| 39> F        -1.378181    0.843178    0.073287
| 40> S        -0.608926   -0.554730   -0.169914
| 41> O         0.763184   -0.321291    0.553764
| 42> O         1.759702    0.342484   -0.323989
| 43> H         1.963348    1.117532    0.220841
| 44> *
| 45>
| 46>
| 47>
| 48>
| 49>                          ****END OF INPUT****
 Total Charge           Charge          ....    0
 Multiplicity           Mult            ....    1
 Number of Electrons    NEL             ....   42
MP2 TOTAL ENERGY:     -647.902423175 Eh
FINAL SINGLE POINT ENERGY      -647.902423175250
MP2 TOTAL ENERGY:     -648.171431961 Eh
FINAL SINGLE POINT ENERGY      -648.171431961145

CARTESIAN COORDINATES (ANGSTROEM)
---------------------------------
  F     -1.378181    0.843178    0.073287
  S     -0.608926   -0.554730   -0.169914
  O      0.763184   -0.321291    0.553764
  O      1.759702    0.342484   -0.323989
  H      1.963348    1.117532    0.220841

 Multiplicity           Mult            ....    1
 Number of Electrons    NEL             ....   42
 Basis Dimension        Dim             ....  370

ORBITAL ENERGIES
----------------

  NO   OCC          E(Eh)            E(eV)
   0   2.0000     -92.088329     -2505.8508
   1   2.0000     -26.323259      -716.2923
   2   2.0000     -20.693180      -563.0901
   3   2.0000     -20.662624      -562.2586
   4   2.0000      -9.077578      -247.0135
   5   2.0000      -6.758874      -183.9183
   6   2.0000      -6.757226      -183.8735
   7   2.0000      -6.755218      -183.8188
   8   2.0000      -1.628880       -44.3241
   9   2.0000      -1.514987       -41.2249
  10   2.0000      -1.293940       -35.2099
  11   2.0000      -0.941315       -25.6145
  12   2.0000      -0.757835       -20.6217
  13   2.0000      -0.745408       -20.2836
  14   2.0000      -0.718176       -19.5426
  15   2.0000      -0.699838       -19.0435
  16   2.0000      -0.653787       -17.7904
  17   2.0000      -0.605441       -16.4749
  18   2.0000      -0.544839       -14.8258
  19   2.0000      -0.527728       -14.3602
  20   2.0000      -0.386143       -10.5075
  21   0.0000       0.026439         0.7194
  22   0.0000       0.059487         1.6187
  23   0.0000       0.061687         1.6786
  24   0.0000       0.070762         1.9255
  25   0.0000       0.092018         2.5039

MULLIKEN ATOMIC CHARGES
-----------------------
   0 F :   -0.562675
   1 S :    1.009611
   2 O :   -0.492933
   3 O :   -0.302758
   4 H :    0.348755
Sum of atomic charges:    0.0000000

LOEWDIN ATOMIC CHARGES
----------------------
   0 F :    0.030197
   1 S :    0.232072
   2 O :   -0.167821
   3 O :    0.834519
   4 H :   -0.928967

  Mayer bond orders larger than 0.100000
B(  0-F ,  1-S ) :   0.6306 B(  1-S ,  2-O ) :   0.9732 B(  2-O ,  3-O ) :   0.7979
B(  3-O ,  4-H ) :   0.9125

MP2 TOTAL ENERGY:     -648.260219368 Eh
FINAL SINGLE POINT ENERGY      -648.260219368000

DIPOLE MOMENT
-------------
                                X             Y             Z
Electronic contribution:     -2.85832      -0.10902      -0.03262
Nuclear contribution   :      3.17433       0.28363       0.14762
                        -----------------------------------------
Total Dipole Moment    :      0.31601       0.17461       0.11500
                        -----------------------------------------
Magnitude (a.u.)       :      0.37892
Magnitude (Debye)      :      0.96313

Rotational constants in cm-1:     0.472422     0.142405     0.121500
Rotational constants in MHz : 14162.849580  4269.208959  3642.471618

                             ****ORCA TERMINATED NORMALLY****
TOTAL RUN TIME: 0 days 0 hours 3 minutes 50 seconds 508 msec
