                         Program Version 5.0.4 -  RELEASE  -
|  1> ! ri-mp2 aug-cc-pvdz aug-cc-pvdz/c tightscf
|  2> %pal nprocs 16 end
|  3> %maxcore 3800
|  4> %base "DZ_P-N_11_AB"
|  5> %scf
|  6> STABPerform true
|  7> STABRestartUHFifUnstable true
|  8> end
|  9>
| 10> *xyz 0 1
| 11> P         0.135868    0.611415   -0.630190
| 12> N        -0.776409   -0.814179   -0.132470
| 13> O        -2.063581   -0.669456   -0.698262
| 14> O        -0.946464   -0.869148    1.267993
| 15> C         1.667972    0.278662    0.323457
| 16> C         2.470021   -0.897823   -0.217329
| 17> H         1.420735    0.136430    1.376072
| 18> H         2.255442    1.198319    0.252381
| 19> H         2.729518   -0.751175   -1.266389
| 20> H         1.901695   -1.825176   -0.147214
| 21> C        -0.610967    1.923973    0.407040
| 22> H        -0.050256    2.846198    0.249372
| 23> H        -0.606183    1.671937    1.465848
| 24> H        -1.636512    2.093890    0.082506
| 25> H         3.396540   -1.028735    0.342549
| 26> H        -2.248125   -1.529576   -1.091049
| 27> H        -0.847810   -1.804134    1.479206
| 28> *
| 29>
| 30> $new_job
| 31> ! ri-mp2 aug-cc-pvtz aug-cc-pvtz/c tightscf
| 32> %pal nprocs 16 end
| 33> %maxcore 3800
| 34> %base "TZ_P-N_11_AB"
| 35>
| 36> *xyz 0 1
| 37> P         0.135868    0.611415   -0.630190
| 38> N        -0.776409   -0.814179   -0.132470
| 39> O        -2.063581   -0.669456   -0.698262
| 40> O        -0.946464   -0.869148    1.267993
| 41> C         1.667972    0.278662    0.323457
| 42> C         2.470021   -0.897823   -0.217329
| 43> H         1.420735    0.136430    1.376072
| 44> H         2.255442    1.198319    0.252381
| 45> H         2.729518   -0.751175   -1.266389
| 46> H         1.901695   -1.825176   -0.147214
| 47> C        -0.610967    1.923973    0.407040
| 48> H        -0.050256    2.846198    0.249372
| 49> H        -0.606183    1.671937    1.465848
| 50> H        -1.636512    2.093890    0.082506
| 51> H         3.396540   -1.028735    0.342549
| 52> H        -2.248125   -1.529576   -1.091049
| 53> H        -0.847810   -1.804134    1.479206
| 54> *
| 55>
| 56> $new_job
| 57> ! ri-mp2 aug-cc-pvqz aug-cc-pvqz/c tightscf
| 58> %pal nprocs 16 end
| 59> %maxcore 3800
| 60> %base "QZ_P-N_11_AB"
| 61>
| 62> *xyz 0 1
| 63> P         0.135868    0.611415   -0.630190
| 64> N        -0.776409   -0.814179   -0.132470
| 65> O        -2.063581   -0.669456   -0.698262
| 66> O        -0.946464   -0.869148    1.267993
| 67> C         1.667972    0.278662    0.323457
| 68> C         2.470021   -0.897823   -0.217329
| 69> H         1.420735    0.136430    1.376072
| 70> H         2.255442    1.198319    0.252381
| 71> H         2.729518   -0.751175   -1.266389
| 72> H         1.901695   -1.825176   -0.147214
| 73> C        -0.610967    1.923973    0.407040
| 74> H        -0.050256    2.846198    0.249372
| 75> H        -0.606183    1.671937    1.465848
| 76> H        -1.636512    2.093890    0.082506
| 77> H         3.396540   -1.028735    0.342549
| 78> H        -2.248125   -1.529576   -1.091049
| 79> H        -0.847810   -1.804134    1.479206
| 80> *
| 81>
| 82>
| 83>
| 84>
| 85>                          ****END OF INPUT****
 Total Charge           Charge          ....    0
 Multiplicity           Mult            ....    1
 Number of Electrons    NEL             ....   66
MP2 TOTAL ENERGY:     -665.438657167 Eh
FINAL SINGLE POINT ENERGY      -665.438657167035
MP2 TOTAL ENERGY:     -665.777423640 Eh
FINAL SINGLE POINT ENERGY      -665.777423640198

CARTESIAN COORDINATES (ANGSTROEM)
---------------------------------
  P      0.135868    0.611415   -0.630190
  N     -0.776409   -0.814179   -0.132470
  O     -2.063581   -0.669456   -0.698262
  O     -0.946464   -0.869148    1.267993
  C      1.667972    0.278662    0.323457
  C      2.470021   -0.897823   -0.217329
  H      1.420735    0.136430    1.376072
  H      2.255442    1.198319    0.252381
  H      2.729518   -0.751175   -1.266389
  H      1.901695   -1.825176   -0.147214
  C     -0.610967    1.923973    0.407040
  H     -0.050256    2.846198    0.249372
  H     -0.606183    1.671937    1.465848
  H     -1.636512    2.093890    0.082506
  H      3.396540   -1.028735    0.342549
  H     -2.248125   -1.529576   -1.091049
  H     -0.847810   -1.804134    1.479206

 Multiplicity           Mult            ....    1
 Number of Electrons    NEL             ....   66
 Basis Dimension        Dim             .... 1024

ORBITAL ENERGIES
----------------

  NO   OCC          E(Eh)            E(eV)
   0   2.0000     -79.948024     -2175.4963
   1   2.0000     -20.597091      -560.4754
   2   2.0000     -20.595809      -560.4405
   3   2.0000     -15.659301      -426.1112
   4   2.0000     -11.222287      -305.3740
   5   2.0000     -11.216828      -305.2254
   6   2.0000     -11.211796      -305.0885
   7   2.0000      -7.487764      -203.7524
   8   2.0000      -5.381925      -146.4496
   9   2.0000      -5.381193      -146.4297
  10   2.0000      -5.380214      -146.4031
  11   2.0000      -1.464134       -39.8411
  12   2.0000      -1.349720       -36.7277
  13   2.0000      -1.065507       -28.9939
  14   2.0000      -1.014430       -27.6040
  15   2.0000      -0.958203       -26.0740
  16   2.0000      -0.856245       -23.2996
  17   2.0000      -0.746052       -20.3011
  18   2.0000      -0.717684       -19.5292
  19   2.0000      -0.710029       -19.3209
  20   2.0000      -0.640136       -17.4190
  21   2.0000      -0.609080       -16.5739
  22   2.0000      -0.596573       -16.2336
  23   2.0000      -0.578224       -15.7343
  24   2.0000      -0.565728       -15.3942
  25   2.0000      -0.556235       -15.1359
  26   2.0000      -0.519793       -14.1443
  27   2.0000      -0.502374       -13.6703
  28   2.0000      -0.489017       -13.3068
  29   2.0000      -0.488355       -13.2888
  30   2.0000      -0.446751       -12.1567
  31   2.0000      -0.402315       -10.9475
  32   2.0000      -0.343589        -9.3495
  33   0.0000       0.023590         0.6419
  34   0.0000       0.030673         0.8347
  35   0.0000       0.033678         0.9164
  36   0.0000       0.036974         1.0061
  37   0.0000       0.048104         1.3090

MULLIKEN ATOMIC CHARGES
-----------------------
   0 P :    0.836666
   1 N :    0.117471
   2 O :   -0.734960
   3 O :   -0.616906
   4 C :   -0.644889
   5 C :   -0.851875
   6 H :    0.282694
   7 H :    0.301834
   8 H :    0.245578
   9 H :    0.244715
  10 C :   -1.130369
  11 H :    0.322823
  12 H :    0.323153
  13 H :    0.337290
  14 H :    0.280393
  15 H :    0.352636
  16 H :    0.333745
Sum of atomic charges:   -0.0000000

LOEWDIN ATOMIC CHARGES
----------------------
   0 P :    0.758496
   1 N :   -0.359449
   2 O :    0.990220
   3 O :    1.018709
   4 C :    0.340745
   5 C :    0.846959
   6 H :   -0.359644
   7 H :   -0.347458
   8 H :   -0.301324
   9 H :   -0.307834
  10 C :    0.779211
  11 H :   -0.359071
  12 H :   -0.364786
  13 H :   -0.360493
  14 H :   -0.286318
  15 H :   -0.850222
  16 H :   -0.837743

  Mayer bond orders larger than 0.100000
B(  0-P ,  1-N ) :   0.6821 B(  0-P ,  4-C ) :   0.8154 B(  0-P , 10-C ) :   0.8770
B(  1-N ,  2-O ) :   0.5581 B(  1-N ,  3-O ) :   0.6746 B(  2-O , 15-H ) :   0.9159
B(  3-O , 16-H ) :   0.9183 B(  4-C ,  5-C ) :   0.8679 B(  4-C ,  6-H ) :   0.8993
B(  4-C ,  7-H ) :   0.8696 B(  5-C ,  8-H ) :   0.9565 B(  5-C ,  9-H ) :   0.9413
B(  5-C , 14-H ) :   0.9797 B( 10-C , 11-H ) :   0.9178 B( 10-C , 12-H ) :   0.8838
B( 10-C , 13-H ) :   0.9021

MP2 TOTAL ENERGY:     -665.884630405 Eh
FINAL SINGLE POINT ENERGY      -665.884630405014

DIPOLE MOMENT
-------------
                                X             Y             Z
Electronic contribution:     -5.82295      -0.98300      -3.04014
Nuclear contribution   :      6.17653       0.39942       3.37510
                        -----------------------------------------
Total Dipole Moment    :      0.35359      -0.58357       0.33496
                        -----------------------------------------
Magnitude (a.u.)       :      0.76012
Magnitude (Debye)      :      1.93207

Rotational constants in cm-1:     0.092837     0.056121     0.046294
Rotational constants in MHz :  2783.170775  1682.474816  1387.860129

                             ****ORCA TERMINATED NORMALLY****
TOTAL RUN TIME: 0 days 1 hours 34 minutes 57 seconds 851 msec
