                         Program Version 5.0.4 -  RELEASE  -
|  1> ! ri-mp2 aug-cc-pvdz aug-cc-pvdz/c tightscf
|  2> %pal nprocs 16 end
|  3> %maxcore 3800
|  4> %base "DZ_S-Cl_44_AB"
|  5> %scf
|  6> STABPerform true
|  7> STABRestartUHFifUnstable true
|  8> end
|  9>
| 10> *xyz 0 1
| 11> Cl         2.546792   -0.241689    0.002041
| 12> S         0.884833    0.882914    0.016544
| 13> C        -0.368477   -0.444145   -0.026407
| 14> O        -0.056116   -1.602401   -0.011413
| 15> N        -1.632976    0.033258   -0.070067
| 16> C        -2.734463   -0.902525    0.040755
| 17> H        -2.347593   -1.912395   -0.041298
| 18> H        -3.454785   -0.723246   -0.758691
| 19> H        -3.242105   -0.790378    1.002222
| 20> C        -1.957971    1.439376   -0.001314
| 21> H        -1.185378    2.043703   -0.474633
| 22> H        -2.095759    1.780809    1.028086
| 23> H        -2.881926    1.613769   -0.551526
| 24> *
| 25>
| 26> $new_job
| 27> ! ri-mp2 aug-cc-pvtz aug-cc-pvtz/c tightscf
| 28> %pal nprocs 16 end
| 29> %maxcore 3800
| 30> %base "TZ_S-Cl_44_AB"
| 31>
| 32> *xyz 0 1
| 33> Cl         2.546792   -0.241689    0.002041
| 34> S         0.884833    0.882914    0.016544
| 35> C        -0.368477   -0.444145   -0.026407
| 36> O        -0.056116   -1.602401   -0.011413
| 37> N        -1.632976    0.033258   -0.070067
| 38> C        -2.734463   -0.902525    0.040755
| 39> H        -2.347593   -1.912395   -0.041298
| 40> H        -3.454785   -0.723246   -0.758691
| 41> H        -3.242105   -0.790378    1.002222
| 42> C        -1.957971    1.439376   -0.001314
| 43> H        -1.185378    2.043703   -0.474633
| 44> H        -2.095759    1.780809    1.028086
| 45> H        -2.881926    1.613769   -0.551526
| 46> *
| 47>
| 48> $new_job
| 49> ! ri-mp2 aug-cc-pvqz aug-cc-pvqz/c tightscf
| 50> %pal nprocs 16 end
| 51> %maxcore 3800
| 52> %base "QZ_S-Cl_44_AB"
| 53>
| 54> *xyz 0 1
| 55> Cl         2.546792   -0.241689    0.002041
| 56> S         0.884833    0.882914    0.016544
| 57> C        -0.368477   -0.444145   -0.026407
| 58> O        -0.056116   -1.602401   -0.011413
| 59> N        -1.632976    0.033258   -0.070067
| 60> C        -2.734463   -0.902525    0.040755
| 61> H        -2.347593   -1.912395   -0.041298
| 62> H        -3.454785   -0.723246   -0.758691
| 63> H        -3.242105   -0.790378    1.002222
| 64> C        -1.957971    1.439376   -0.001314
| 65> H        -1.185378    2.043703   -0.474633
| 66> H        -2.095759    1.780809    1.028086
| 67> H        -2.881926    1.613769   -0.551526
| 68> *
| 69>
| 70>
| 71>
| 72>
| 73>                          ****END OF INPUT****
 Total Charge           Charge          ....    0
 Multiplicity           Mult            ....    1
 Number of Electrons    NEL             ....   72
MP2 TOTAL ENERGY:    -1104.557877337 Eh
FINAL SINGLE POINT ENERGY     -1104.557877337320
MP2 TOTAL ENERGY:    -1104.893989616 Eh
FINAL SINGLE POINT ENERGY     -1104.893989616380

CARTESIAN COORDINATES (ANGSTROEM)
---------------------------------
  Cl     2.546792   -0.241689    0.002041
  S      0.884833    0.882914    0.016544
  C     -0.368477   -0.444145   -0.026407
  O     -0.056116   -1.602401   -0.011413
  N     -1.632976    0.033258   -0.070067
  C     -2.734463   -0.902525    0.040755
  H     -2.347593   -1.912395   -0.041298
  H     -3.454785   -0.723246   -0.758691
  H     -3.242105   -0.790378    1.002222
  C     -1.957971    1.439376   -0.001314
  H     -1.185378    2.043703   -0.474633
  H     -2.095759    1.780809    1.028086
  H     -2.881926    1.613769   -0.551526

 Multiplicity           Mult            ....    1
 Number of Electrons    NEL             ....   72
 Basis Dimension        Dim             ....  844

ORBITAL ENERGIES
----------------

  NO   OCC          E(Eh)            E(eV)
   0   2.0000    -104.854664     -2853.2405
   1   2.0000     -92.021262     -2504.0258
   2   2.0000     -20.539399      -558.9055
   3   2.0000     -15.608721      -424.7349
   4   2.0000     -11.390971      -309.9641
   5   2.0000     -11.285386      -307.0910
   6   2.0000     -11.269858      -306.6684
   7   2.0000     -10.578915      -287.8669
   8   2.0000      -9.020022      -245.4473
   9   2.0000      -8.045965      -218.9418
  10   2.0000      -8.043879      -218.8851
  11   2.0000      -8.043700      -218.8802
  12   2.0000      -6.701249      -182.3503
  13   2.0000      -6.699696      -182.3080
  14   2.0000      -6.698640      -182.2793
  15   2.0000      -1.416815       -38.5535
  16   2.0000      -1.277849       -34.7720
  17   2.0000      -1.151102       -31.3231
  18   2.0000      -1.007305       -27.4102
  19   2.0000      -0.984850       -26.7991
  20   2.0000      -0.916033       -24.9265
  21   2.0000      -0.755000       -20.5446
  22   2.0000      -0.694052       -18.8861
  23   2.0000      -0.680558       -18.5189
  24   2.0000      -0.678779       -18.4705
  25   2.0000      -0.599553       -16.3147
  26   2.0000      -0.584192       -15.8967
  27   2.0000      -0.582744       -15.8573
  28   2.0000      -0.573234       -15.5985
  29   2.0000      -0.559096       -15.2138
  30   2.0000      -0.533883       -14.5277
  31   2.0000      -0.510236       -13.8842
  32   2.0000      -0.466850       -12.7036
  33   2.0000      -0.421830       -11.4786
  34   2.0000      -0.400553       -10.8996
  35   2.0000      -0.372454       -10.1350
  36   0.0000       0.019516         0.5311
  37   0.0000       0.031423         0.8551
  38   0.0000       0.033337         0.9071
  39   0.0000       0.041285         1.1234
  40   0.0000       0.052003         1.4151

MULLIKEN ATOMIC CHARGES
-----------------------
   0 Cl:   -0.333039
   1 S :    0.332081
   2 C :    0.883882
   3 O :   -0.743769
   4 N :   -0.382399
   5 C :   -0.834331
   6 H :    0.344131
   7 H :    0.305786
   8 H :    0.301961
   9 C :   -0.732067
  10 H :    0.254194
  11 H :    0.315057
  12 H :    0.288514
Sum of atomic charges:   -0.0000000

LOEWDIN ATOMIC CHARGES
----------------------
   0 Cl:    0.508884
   1 S :    0.409164
   2 C :   -1.372982
   3 O :    0.591660
   4 N :    0.292505
   5 C :    0.758859
   6 H :   -0.354009
   7 H :   -0.280831
   8 H :   -0.267987
   9 C :    0.688759
  10 H :   -0.420251
  11 H :   -0.264894
  12 H :   -0.288879

  Mayer bond orders larger than 0.100000
B(  0-Cl,  1-S ) :   0.9520 B(  1-S ,  2-C ) :   0.8876 B(  2-C ,  3-O ) :   1.4142
B(  2-C ,  4-N ) :   1.2378 B(  3-O ,  4-N ) :   0.2399 B(  4-N ,  5-C ) :   0.7967
B(  4-N ,  9-C ) :   0.7615 B(  5-C ,  6-H ) :   0.8833 B(  5-C ,  7-H ) :   0.9400
B(  5-C ,  8-H ) :   0.9524 B(  9-C , 10-H ) :   0.9569 B(  9-C , 11-H ) :   0.9233
B(  9-C , 12-H ) :   0.9413

MP2 TOTAL ENERGY:    -1105.002654982 Eh
FINAL SINGLE POINT ENERGY     -1105.002654981667

DIPOLE MOMENT
-------------
                                X             Y             Z
Electronic contribution:     16.80609      -1.17212      -0.17278
Nuclear contribution   :    -18.29642       2.23340       0.19386
                        -----------------------------------------
Total Dipole Moment    :     -1.49033       1.06128       0.02108
                        -----------------------------------------
Magnitude (a.u.)       :      1.82971
Magnitude (Debye)      :      4.65077

Rotational constants in cm-1:     0.136684     0.035631     0.028580
Rotational constants in MHz :  4097.675831  1068.189934   856.793129

                             ****ORCA TERMINATED NORMALLY****
TOTAL RUN TIME: 0 days 1 hours 28 minutes 30 seconds 430 msec
