                         Program Version 5.0.4 -  RELEASE  -
|  1> ! ri-mp2 aug-cc-pvdz aug-cc-pvdz/c tightscf
|  2> %pal nprocs 16 end
|  3> %maxcore 3800
|  4> %base "DZ_P-O_16_AB"
|  5> %scf
|  6> STABPerform true
|  7> STABRestartUHFifUnstable true
|  8> end
|  9>
| 10> *xyz 0 1
| 11> O         0.907592   -0.757333   -0.496631
| 12> P        -0.359634    0.034045    0.112958
| 13> O        -0.261851    0.283258    1.545107
| 14> O        -1.508101   -0.908414   -0.403258
| 15> O         2.081505   -0.012016   -0.144054
| 16> H         2.205624   -0.265634    0.785066
| 17> O        -0.542328    1.300448   -0.799726
| 18> H        -0.495721    2.124344   -0.302262
| 19> H        -1.729922   -1.616943    0.211329
| 20> *
| 21>
| 22> $new_job
| 23> ! ri-mp2 aug-cc-pvtz aug-cc-pvtz/c tightscf
| 24> %pal nprocs 16 end
| 25> %maxcore 3800
| 26> %base "TZ_P-O_16_AB"
| 27>
| 28> *xyz 0 1
| 29> O         0.907592   -0.757333   -0.496631
| 30> P        -0.359634    0.034045    0.112958
| 31> O        -0.261851    0.283258    1.545107
| 32> O        -1.508101   -0.908414   -0.403258
| 33> O         2.081505   -0.012016   -0.144054
| 34> H         2.205624   -0.265634    0.785066
| 35> O        -0.542328    1.300448   -0.799726
| 36> H        -0.495721    2.124344   -0.302262
| 37> H        -1.729922   -1.616943    0.211329
| 38> *
| 39>
| 40> $new_job
| 41> ! ri-mp2 aug-cc-pvqz aug-cc-pvqz/c tightscf
| 42> %pal nprocs 16 end
| 43> %maxcore 3800
| 44> %base "QZ_P-O_16_AB"
| 45>
| 46> *xyz 0 1
| 47> O         0.907592   -0.757333   -0.496631
| 48> P        -0.359634    0.034045    0.112958
| 49> O        -0.261851    0.283258    1.545107
| 50> O        -1.508101   -0.908414   -0.403258
| 51> O         2.081505   -0.012016   -0.144054
| 52> H         2.205624   -0.265634    0.785066
| 53> O        -0.542328    1.300448   -0.799726
| 54> H        -0.495721    2.124344   -0.302262
| 55> H        -1.729922   -1.616943    0.211329
| 56> *
| 57>
| 58>
| 59>
| 60>
| 61>                          ****END OF INPUT****
 Total Charge           Charge          ....    0
 Multiplicity           Mult            ....    1
 Number of Electrons    NEL             ....   58
MP2 TOTAL ENERGY:     -717.965577444 Eh
FINAL SINGLE POINT ENERGY      -717.965577444254
MP2 TOTAL ENERGY:     -718.369078096 Eh
FINAL SINGLE POINT ENERGY      -718.369078096386

CARTESIAN COORDINATES (ANGSTROEM)
---------------------------------
  O      0.907592   -0.757333   -0.496631
  P     -0.359634    0.034045    0.112958
  O     -0.261851    0.283258    1.545107
  O     -1.508101   -0.908414   -0.403258
  O      2.081505   -0.012016   -0.144054
  H      2.205624   -0.265634    0.785066
  O     -0.542328    1.300448   -0.799726
  H     -0.495721    2.124344   -0.302262
  H     -1.729922   -1.616943    0.211329

 Multiplicity           Mult            ....    1
 Number of Electrons    NEL             ....   58
 Basis Dimension        Dim             ....  622

ORBITAL ENERGIES
----------------

  NO   OCC          E(Eh)            E(eV)
   0   2.0000     -80.111195     -2179.9364
   1   2.0000     -20.661446      -562.2265
   2   2.0000     -20.654302      -562.0321
   3   2.0000     -20.621332      -561.1350
   4   2.0000     -20.618295      -561.0523
   5   2.0000     -20.528571      -558.6108
   6   2.0000      -7.630006      -207.6230
   7   2.0000      -5.528856      -150.4478
   8   2.0000      -5.528473      -150.4374
   9   2.0000      -5.527435      -150.4092
  10   2.0000      -1.528650       -41.5967
  11   2.0000      -1.456600       -39.6361
  12   2.0000      -1.410525       -38.3823
  13   2.0000      -1.324785       -36.0492
  14   2.0000      -1.246215       -33.9112
  15   2.0000      -0.880541       -23.9608
  16   2.0000      -0.780206       -21.2305
  17   2.0000      -0.761032       -20.7087
  18   2.0000      -0.718060       -19.5394
  19   2.0000      -0.691695       -18.8220
  20   2.0000      -0.667254       -18.1569
  21   2.0000      -0.648816       -17.6552
  22   2.0000      -0.595787       -16.2122
  23   2.0000      -0.586784       -15.9672
  24   2.0000      -0.574089       -15.6218
  25   2.0000      -0.541879       -14.7453
  26   2.0000      -0.518166       -14.1000
  27   2.0000      -0.492835       -13.4107
  28   2.0000      -0.488739       -13.2993
  29   0.0000       0.022569         0.6141
  30   0.0000       0.032162         0.8752
  31   0.0000       0.038235         1.0404
  32   0.0000       0.060521         1.6469
  33   0.0000       0.069121         1.8809

MULLIKEN ATOMIC CHARGES
-----------------------
   0 O :   -0.531852
   1 P :    2.545077
   2 O :   -1.082629
   3 O :   -0.878121
   4 O :   -0.369385
   5 H :    0.385044
   6 O :   -0.836233
   7 H :    0.372105
   8 H :    0.395995
Sum of atomic charges:    0.0000000

LOEWDIN ATOMIC CHARGES
----------------------
   0 O :    0.315834
   1 P :   -1.064309
   2 O :    0.303524
   3 O :    1.082695
   4 O :    0.883639
   5 H :   -0.907531
   6 O :    1.094491
   7 H :   -0.858932
   8 H :   -0.849411

  Mayer bond orders larger than 0.100000
B(  0-O ,  1-P ) :   0.6718 B(  0-O ,  4-O ) :   0.8211 B(  1-P ,  2-O ) :   1.4680
B(  1-P ,  3-O ) :   0.6545 B(  1-P ,  6-O ) :   0.7106 B(  3-O ,  8-H ) :   0.8745
B(  4-O ,  5-H ) :   0.8697 B(  6-O ,  7-H ) :   0.8987

MP2 TOTAL ENERGY:     -718.500849261 Eh
FINAL SINGLE POINT ENERGY      -718.500849261258

DIPOLE MOMENT
-------------
                                X             Y             Z
Electronic contribution:     -0.50478      -0.28818      -0.30474
Nuclear contribution   :      0.31835       0.19863       0.55600
                        -----------------------------------------
Total Dipole Moment    :     -0.18642      -0.08955       0.25125
                        -----------------------------------------
Magnitude (a.u.)       :      0.32542
Magnitude (Debye)      :      0.82716

Rotational constants in cm-1:     0.147327     0.087473     0.086219
Rotational constants in MHz :  4416.746814  2622.384565  2584.777126

                             ****ORCA TERMINATED NORMALLY****
TOTAL RUN TIME: 0 days 0 hours 25 minutes 4 seconds 273 msec
