                         Program Version 5.0.4 -  RELEASE  -
|  1> ! ri-mp2 aug-cc-pvdz aug-cc-pvdz/c tightscf
|  2> %pal nprocs 16 end
|  3> %maxcore 3800
|  4> %base "DZ_S-Cl_72_A"
|  5> %scf
|  6> STABPerform true
|  7> STABRestartUHFifUnstable true
|  8> end
|  9>
| 10> *xyz 0 2
| 11> S         2.454838    0.128769   -0.000003
| 12> O         0.888419    0.567472    0.000007
| 13> C        -0.099475   -0.429175    0.000003
| 14> O         0.158943   -1.596581    0.000002
| 15> N        -1.322207    0.133064   -0.000002
| 16> C        -1.594389    1.555745   -0.000001
| 17> H        -2.176558    1.822553    0.884929
| 18> H        -2.176568    1.822550   -0.884925
| 19> H        -0.673001    2.123112   -0.000007
| 20> C        -2.479876   -0.736161   -0.000002
| 21> H        -3.090466   -0.550021   -0.886208
| 22> H        -3.090464   -0.550026    0.886205
| 23> H        -2.151353   -1.769502   -0.000005
| 24> *
| 25>
| 26> $new_job
| 27> ! ri-mp2 aug-cc-pvtz aug-cc-pvtz/c tightscf
| 28> %pal nprocs 16 end
| 29> %maxcore 3800
| 30> %base "TZ_S-Cl_72_A"
| 31>
| 32> *xyz 0 2
| 33> S         2.454838    0.128769   -0.000003
| 34> O         0.888419    0.567472    0.000007
| 35> C        -0.099475   -0.429175    0.000003
| 36> O         0.158943   -1.596581    0.000002
| 37> N        -1.322207    0.133064   -0.000002
| 38> C        -1.594389    1.555745   -0.000001
| 39> H        -2.176558    1.822553    0.884929
| 40> H        -2.176568    1.822550   -0.884925
| 41> H        -0.673001    2.123112   -0.000007
| 42> C        -2.479876   -0.736161   -0.000002
| 43> H        -3.090466   -0.550021   -0.886208
| 44> H        -3.090464   -0.550026    0.886205
| 45> H        -2.151353   -1.769502   -0.000005
| 46> *
| 47>
| 48> $new_job
| 49> ! ri-mp2 aug-cc-pvqz aug-cc-pvqz/c tightscf
| 50> %pal nprocs 16 end
| 51> %maxcore 3800
| 52> %base "QZ_S-Cl_72_A"
| 53>
| 54> *xyz 0 2
| 55> S         2.454838    0.128769   -0.000003
| 56> O         0.888419    0.567472    0.000007
| 57> C        -0.099475   -0.429175    0.000003
| 58> O         0.158943   -1.596581    0.000002
| 59> N        -1.322207    0.133064   -0.000002
| 60> C        -1.594389    1.555745   -0.000001
| 61> H        -2.176558    1.822553    0.884929
| 62> H        -2.176568    1.822550   -0.884925
| 63> H        -0.673001    2.123112   -0.000007
| 64> C        -2.479876   -0.736161   -0.000002
| 65> H        -3.090466   -0.550021   -0.886208
| 66> H        -3.090464   -0.550026    0.886205
| 67> H        -2.151353   -1.769502   -0.000005
| 68> *
| 69>
| 70>
| 71>
| 72>
| 73>                          ****END OF INPUT****
 Total Charge           Charge          ....    0
 Multiplicity           Mult            ....    2
 Number of Electrons    NEL             ....   63
MP2 TOTAL ENERGY:     -719.923127994 Eh
FINAL SINGLE POINT ENERGY      -719.923127993504
MP2 TOTAL ENERGY:     -720.255982063 Eh
FINAL SINGLE POINT ENERGY      -720.255982063197

CARTESIAN COORDINATES (ANGSTROEM)
---------------------------------
  S      2.454838    0.128769   -0.000003
  O      0.888419    0.567472    0.000007
  C     -0.099475   -0.429175    0.000003
  O      0.158943   -1.596581    0.000002
  N     -1.322207    0.133064   -0.000002
  C     -1.594389    1.555745   -0.000001
  H     -2.176558    1.822553    0.884929
  H     -2.176568    1.822550   -0.884925
  H     -0.673001    2.123112   -0.000007
  C     -2.479876   -0.736161   -0.000002
  H     -3.090466   -0.550021   -0.886208
  H     -3.090464   -0.550026    0.886205
  H     -2.151353   -1.769502   -0.000005

 Multiplicity           Mult            ....    2
 Number of Electrons    NEL             ....   63
 Basis Dimension        Dim             ....  840

ORBITAL ENERGIES
----------------
                 SPIN UP ORBITALS
  NO   OCC          E(Eh)            E(eV)
   0   1.0000     -92.021018     -2504.0192
   1   1.0000     -20.635991      -561.5339
   2   1.0000     -20.534076      -558.7606
   3   1.0000     -15.603571      -424.5948
   4   1.0000     -11.411963      -310.5353
   5   1.0000     -11.271914      -306.7244
   6   1.0000     -11.265842      -306.5591
   7   1.0000      -9.017586      -245.3810
   8   1.0000      -6.712466      -182.6555
   9   1.0000      -6.694968      -182.1793
  10   1.0000      -6.692666      -182.1167
  11   1.0000      -1.480428       -40.2845
  12   1.0000      -1.379676       -37.5429
  13   1.0000      -1.272950       -34.6387
  14   1.0000      -1.008451       -27.4414
  15   1.0000      -0.985302       -26.8114
  16   1.0000      -0.922800       -25.1107
  17   1.0000      -0.765297       -20.8248
  18   1.0000      -0.739177       -20.1140
  19   1.0000      -0.699985       -19.0476
  20   1.0000      -0.686239       -18.6735
  21   1.0000      -0.642483       -17.4828
  22   1.0000      -0.620073       -16.8731
  23   1.0000      -0.591877       -16.1058
  24   1.0000      -0.575970       -15.6729
  25   1.0000      -0.570960       -15.5366
  26   1.0000      -0.545864       -14.8537
  27   1.0000      -0.538465       -14.6524
  28   1.0000      -0.467440       -12.7197
  29   1.0000      -0.429062       -11.6754
  30   1.0000      -0.392538       -10.6815
  31   1.0000      -0.380967       -10.3667
  32   0.0000       0.021611         0.5881
  33   0.0000       0.033954         0.9239
  34   0.0000       0.035440         0.9644
  35   0.0000       0.041258         1.1227
  36   0.0000       0.054559         1.4846

                 SPIN DOWN ORBITALS
  NO   OCC          E(Eh)            E(eV)
   0   1.0000     -92.012199     -2503.7792
   1   1.0000     -20.630149      -561.3749
   2   1.0000     -20.534401      -558.7694
   3   1.0000     -15.603146      -424.5832
   4   1.0000     -11.412138      -310.5401
   5   1.0000     -11.271951      -306.7254
   6   1.0000     -11.265891      -306.5605
   7   1.0000      -9.007861      -245.1163
   8   1.0000      -6.691425      -182.0829
   9   1.0000      -6.687650      -181.9802
  10   1.0000      -6.671532      -181.5416
  11   1.0000      -1.470825       -40.0232
  12   1.0000      -1.372999       -37.3612
  13   1.0000      -1.271693       -34.6045
  14   1.0000      -0.992236       -27.0001
  15   1.0000      -0.980051       -26.6685
  16   1.0000      -0.883501       -24.0413
  17   1.0000      -0.744930       -20.2706
  18   1.0000      -0.737505       -20.0685
  19   1.0000      -0.685425       -18.6514
  20   1.0000      -0.677055       -18.4236
  21   1.0000      -0.619295       -16.8519
  22   1.0000      -0.613992       -16.7076
  23   1.0000      -0.579236       -15.7618
  24   1.0000      -0.572725       -15.5846
  25   1.0000      -0.570670       -15.5287
  26   1.0000      -0.544759       -14.8237
  27   1.0000      -0.512717       -13.9517
  28   1.0000      -0.466798       -12.7022
  29   1.0000      -0.393731       -10.7140
  30   1.0000      -0.363645        -9.8953
  31   0.0000       0.019114         0.5201
  32   0.0000       0.021638         0.5888
  33   0.0000       0.033977         0.9246
  34   0.0000       0.035785         0.9738
  35   0.0000       0.041769         1.1366

MULLIKEN ATOMIC CHARGES AND SPIN POPULATIONS
--------------------------------------------
   0 S :    0.184094    1.005106
   1 O :   -0.589722   -0.007090
   2 C :    1.274792    0.000772
   3 O :   -0.681975   -0.003956
   4 N :   -0.392909    0.008714
   5 C :   -0.796436   -0.003859
   6 H :    0.293068    0.000401
   7 H :    0.293067    0.000401
   8 H :    0.343746    0.000067
   9 C :   -0.787521   -0.001969
  10 H :    0.285070    0.000703
  11 H :    0.285073    0.000703
  12 H :    0.289651    0.000007
Sum of atomic charges         :    0.0000000

LOEWDIN ATOMIC CHARGES AND SPIN POPULATIONS
-------------------------------------------
   0 S :    0.654790    0.765753
   1 O :    0.069501    0.216277
   2 C :   -1.429763    0.017003
   3 O :    0.651901   -0.005175
   4 N :    0.352426    0.005661
   5 C :    0.765198    0.000078
   6 H :   -0.277928    0.000051
   7 H :   -0.277929    0.000051
   8 H :   -0.363525   -0.000576
   9 C :    0.758899    0.000664
  10 H :   -0.275399    0.000123
  11 H :   -0.275399    0.000123
  12 H :   -0.352773   -0.000033

  Mayer bond orders larger than 0.100000
B(  0-S ,  1-O ) :   0.8056 B(  1-O ,  2-C ) :   0.9225 B(  2-C ,  3-O ) :   1.4526
B(  2-C ,  4-N ) :   1.3360 B(  3-O ,  4-N ) :   0.2450 B(  4-N ,  5-C ) :   0.7725
B(  4-N ,  9-C ) :   0.7895 B(  5-C ,  6-H ) :   0.9521 B(  5-C ,  7-H ) :   0.9521
B(  5-C ,  8-H ) :   0.8934 B(  9-C , 10-H ) :   0.9592 B(  9-C , 11-H ) :   0.9592
B(  9-C , 12-H ) :   0.9357

MP2 TOTAL ENERGY:     -720.362925891 Eh
FINAL SINGLE POINT ENERGY      -720.362925890917

DIPOLE MOMENT
-------------
                                X             Y             Z
Electronic contribution:     12.15628      -1.90661       0.00001
Nuclear contribution   :    -13.22121       2.83546      -0.00001
                        -----------------------------------------
Total Dipole Moment    :     -1.06493       0.92885      -0.00000
                        -----------------------------------------
Magnitude (a.u.)       :      1.41309
Magnitude (Debye)      :      3.59180

Rotational constants in cm-1:     0.164330     0.045455     0.036088
Rotational constants in MHz :  4926.498056  1362.695606  1081.887957

                             ****ORCA TERMINATED NORMALLY****
TOTAL RUN TIME: 0 days 3 hours 7 minutes 9 seconds 499 msec
