                         Program Version 5.0.4 -  RELEASE  -
|  1> ! ri-mp2 aug-cc-pvdz aug-cc-pvdz/c tightscf
|  2> %pal nprocs 16 end
|  3> %maxcore 3800
|  4> %base "DZ_Si-Si_152_A"
|  5> %scf
|  6> STABPerform true
|  7> STABRestartUHFifUnstable true
|  8> end
|  9>
| 10> *xyz 0 2
| 11> Si         1.486862   -0.161495   -0.064220
| 12> B        -0.495318    0.110226   -0.001735
| 13> H         2.054053   -1.461162    0.353623
| 14> H         2.371134    0.955394    0.348825
| 15> O        -1.024324    1.363597    0.007310
| 16> C        -1.492719   -1.094743    0.003695
| 17> H        -0.389581    2.084399    0.032217
| 18> H        -1.566481   -1.494482    1.020429
| 19> H        -1.163020   -1.923428   -0.624748
| 20> H        -2.494680   -0.791230   -0.303235
| 21> *
| 22>
| 23> $new_job
| 24> ! ri-mp2 aug-cc-pvtz aug-cc-pvtz/c tightscf
| 25> %pal nprocs 16 end
| 26> %maxcore 3800
| 27> %base "TZ_Si-Si_152_A"
| 28>
| 29> *xyz 0 2
| 30> Si         1.486862   -0.161495   -0.064220
| 31> B        -0.495318    0.110226   -0.001735
| 32> H         2.054053   -1.461162    0.353623
| 33> H         2.371134    0.955394    0.348825
| 34> O        -1.024324    1.363597    0.007310
| 35> C        -1.492719   -1.094743    0.003695
| 36> H        -0.389581    2.084399    0.032217
| 37> H        -1.566481   -1.494482    1.020429
| 38> H        -1.163020   -1.923428   -0.624748
| 39> H        -2.494680   -0.791230   -0.303235
| 40> *
| 41>
| 42> $new_job
| 43> ! ri-mp2 aug-cc-pvqz aug-cc-pvqz/c tightscf
| 44> %pal nprocs 16 end
| 45> %maxcore 3800
| 46> %base "QZ_Si-Si_152_A"
| 47>
| 48> *xyz 0 2
| 49> Si         1.486862   -0.161495   -0.064220
| 50> B        -0.495318    0.110226   -0.001735
| 51> H         2.054053   -1.461162    0.353623
| 52> H         2.371134    0.955394    0.348825
| 53> O        -1.024324    1.363597    0.007310
| 54> C        -1.492719   -1.094743    0.003695
| 55> H        -0.389581    2.084399    0.032217
| 56> H        -1.566481   -1.494482    1.020429
| 57> H        -1.163020   -1.923428   -0.624748
| 58> H        -2.494680   -0.791230   -0.303235
| 59> *
| 60>
| 61>
| 62>
| 63>
| 64>                          ****END OF INPUT****
 Total Charge           Charge          ....    0
 Multiplicity           Mult            ....    2
 Number of Electrons    NEL             ....   39
MP2 TOTAL ENERGY:     -430.397476726 Eh
FINAL SINGLE POINT ENERGY      -430.397476726453
MP2 TOTAL ENERGY:     -430.557402852 Eh
FINAL SINGLE POINT ENERGY      -430.557402852239

CARTESIAN COORDINATES (ANGSTROEM)
---------------------------------
  Si     1.486862   -0.161495   -0.064220
  B     -0.495318    0.110226   -0.001735
  H      2.054053   -1.461162    0.353623
  H      2.371134    0.955394    0.348825
  O     -1.024324    1.363597    0.007310
  C     -1.492719   -1.094743    0.003695
  H     -0.389581    2.084399    0.032217
  H     -1.566481   -1.494482    1.020429
  H     -1.163020   -1.923428   -0.624748
  H     -2.494680   -0.791230   -0.303235

 Multiplicity           Mult            ....    2
 Number of Electrons    NEL             ....   39
 Basis Dimension        Dim             ....  600

ORBITAL ENERGIES
----------------
                 SPIN UP ORBITALS
  NO   OCC          E(Eh)            E(eV)
   0   1.0000     -68.763998     -1871.1635
   1   1.0000     -20.578479      -559.9689
   2   1.0000     -11.192838      -304.5726
   3   1.0000      -7.625229      -207.4930
   4   1.0000      -6.117267      -166.4593
   5   1.0000      -4.230851      -115.1273
   6   1.0000      -4.220448      -114.8442
   7   1.0000      -4.219762      -114.8256
   8   1.0000      -1.374162       -37.3929
   9   1.0000      -0.952008       -25.9054
  10   1.0000      -0.759681       -20.6720
  11   1.0000      -0.729986       -19.8639
  12   1.0000      -0.609985       -16.5985
  13   1.0000      -0.569787       -15.5047
  14   1.0000      -0.558431       -15.1957
  15   1.0000      -0.529250       -14.4016
  16   1.0000      -0.524475       -14.2717
  17   1.0000      -0.484672       -13.1886
  18   1.0000      -0.409878       -11.1534
  19   1.0000      -0.308891        -8.4053
  20   0.0000       0.021950         0.5973
  21   0.0000       0.032355         0.8804
  22   0.0000       0.035721         0.9720
  23   0.0000       0.038361         1.0439
  24   0.0000       0.049128         1.3368

                 SPIN DOWN ORBITALS
  NO   OCC          E(Eh)            E(eV)
   0   1.0000     -68.758766     -1871.0211
   1   1.0000     -20.577511      -559.9425
   2   1.0000     -11.192910      -304.5746
   3   1.0000      -7.625787      -207.5082
   4   1.0000      -6.109727      -166.2541
   5   1.0000      -4.216667      -114.7413
   6   1.0000      -4.216274      -114.7306
   7   1.0000      -4.208323      -114.5143
   8   1.0000      -1.371791       -37.3283
   9   1.0000      -0.951519       -25.8921
  10   1.0000      -0.757437       -20.6109
  11   1.0000      -0.691549       -18.8180
  12   1.0000      -0.603967       -16.4348
  13   1.0000      -0.564235       -15.3536
  14   1.0000      -0.557313       -15.1652
  15   1.0000      -0.526525       -14.3275
  16   1.0000      -0.521157       -14.1814
  17   1.0000      -0.483423       -13.1546
  18   1.0000      -0.403289       -10.9740
  19   0.0000       0.020965         0.5705
  20   0.0000       0.023272         0.6333
  21   0.0000       0.033031         0.8988
  22   0.0000       0.035837         0.9752
  23   0.0000       0.045426         1.2361

MULLIKEN ATOMIC CHARGES AND SPIN POPULATIONS
--------------------------------------------
   0 Si:    0.513366    1.085185
   1 B :    0.773810   -0.031006
   2 H :   -0.217469   -0.028410
   3 H :   -0.246261   -0.027435
   4 O :   -1.132145    0.007653
   5 C :   -0.905423    0.000395
   6 H :    0.370886    0.001901
   7 H :    0.257793   -0.004383
   8 H :    0.285095   -0.004671
   9 H :    0.300348    0.000771
Sum of atomic charges         :   -0.0000000

LOEWDIN ATOMIC CHARGES AND SPIN POPULATIONS
-------------------------------------------
   0 Si:    1.215357    0.476857
   1 B :   -0.956268    0.200585
   2 H :   -0.363195    0.128562
   3 H :   -0.367710    0.129610
   4 O :    1.303018    0.023071
   5 C :    0.953388    0.026150
   6 H :   -0.819931    0.006446
   7 H :   -0.315596    0.004633
   8 H :   -0.330294    0.003226
   9 H :   -0.318767    0.000860

  Mayer bond orders larger than 0.100000
B(  0-Si,  1-B ) :   0.9329 B(  0-Si,  2-H ) :   0.8641 B(  0-Si,  3-H ) :   0.8858
B(  1-B ,  4-O ) :   0.5043 B(  1-B ,  5-C ) :   0.9275 B(  4-O ,  6-H ) :   0.8937
B(  5-C ,  7-H ) :   0.9239 B(  5-C ,  8-H ) :   0.9390 B(  5-C ,  9-H ) :   0.8900

MP2 TOTAL ENERGY:     -430.608276034 Eh
FINAL SINGLE POINT ENERGY      -430.608276033503

DIPOLE MOMENT
-------------
                                X             Y             Z
Electronic contribution:      1.09866       2.85177      -0.74443
Nuclear contribution   :     -0.89943      -2.69875       0.83584
                        -----------------------------------------
Total Dipole Moment    :      0.19923       0.15302       0.09141
                        -----------------------------------------
Magnitude (a.u.)       :      0.26733
Magnitude (Debye)      :      0.67950

Rotational constants in cm-1:     0.278705     0.128958     0.089929
Rotational constants in MHz :  8355.380065  3866.053613  2696.012677

                             ****ORCA TERMINATED NORMALLY****
TOTAL RUN TIME: 0 days 0 hours 50 minutes 6 seconds 400 msec
