                         Program Version 5.0.4 -  RELEASE  -
|  1> ! ri-mp2 aug-cc-pvdz aug-cc-pvdz/c tightscf
|  2> %pal nprocs 16 end
|  3> %maxcore 3800
|  4> %base "DZ_B-B_54_AB"
|  5> %scf
|  6> STABPerform true
|  7> STABRestartUHFifUnstable true
|  8> end
|  9>
| 10> *xyz 0 1
| 11> B        -3.051662   -0.623409    0.000008
| 12> B        -1.934909    0.604108    0.000041
| 13> N        -0.546847    0.370563   -0.000030
| 14> C         0.612626    0.130758   -0.000016
| 15> S         2.146969   -0.180524   -0.000003
| 16> H        -2.288717    1.748289    0.000125
| 17> H        -3.488841   -1.071004    1.015704
| 18> H        -3.488914   -1.070880   -1.015712
| 19> *
| 20>
| 21> $new_job
| 22> ! ri-mp2 aug-cc-pvtz aug-cc-pvtz/c tightscf
| 23> %pal nprocs 16 end
| 24> %maxcore 3800
| 25> %base "TZ_B-B_54_AB"
| 26>
| 27> *xyz 0 1
| 28> B        -3.051662   -0.623409    0.000008
| 29> B        -1.934909    0.604108    0.000041
| 30> N        -0.546847    0.370563   -0.000030
| 31> C         0.612626    0.130758   -0.000016
| 32> S         2.146969   -0.180524   -0.000003
| 33> H        -2.288717    1.748289    0.000125
| 34> H        -3.488841   -1.071004    1.015704
| 35> H        -3.488914   -1.070880   -1.015712
| 36> *
| 37>
| 38> $new_job
| 39> ! ri-mp2 aug-cc-pvqz aug-cc-pvqz/c tightscf
| 40> %pal nprocs 16 end
| 41> %maxcore 3800
| 42> %base "QZ_B-B_54_AB"
| 43>
| 44> *xyz 0 1
| 45> B        -3.051662   -0.623409    0.000008
| 46> B        -1.934909    0.604108    0.000041
| 47> N        -0.546847    0.370563   -0.000030
| 48> C         0.612626    0.130758   -0.000016
| 49> S         2.146969   -0.180524   -0.000003
| 50> H        -2.288717    1.748289    0.000125
| 51> H        -3.488841   -1.071004    1.015704
| 52> H        -3.488914   -1.070880   -1.015712
| 53> *
| 54>
| 55>
| 56>
| 57>
| 58>                          ****END OF INPUT****
 Total Charge           Charge          ....    0
 Multiplicity           Mult            ....    1
 Number of Electrons    NEL             ....   42
MP2 TOTAL ENERGY:     -541.553240575 Eh
FINAL SINGLE POINT ENERGY      -541.553240575305
MP2 TOTAL ENERGY:     -541.726468195 Eh
FINAL SINGLE POINT ENERGY      -541.726468195499

CARTESIAN COORDINATES (ANGSTROEM)
---------------------------------
  B     -3.051662   -0.623409    0.000008
  B     -1.934909    0.604108    0.000041
  N     -0.546847    0.370563   -0.000030
  C      0.612626    0.130758   -0.000016
  S      2.146969   -0.180524   -0.000003
  H     -2.288717    1.748289    0.000125
  H     -3.488841   -1.071004    1.015704
  H     -3.488914   -1.070880   -1.015712

 Multiplicity           Mult            ....    1
 Number of Electrons    NEL             ....   42
 Basis Dimension        Dim             ....  542

ORBITAL ENERGIES
----------------

  NO   OCC          E(Eh)            E(eV)
   0   2.0000     -91.957613     -2502.2939
   1   2.0000     -15.605551      -424.6486
   2   2.0000     -11.383939      -309.7727
   3   2.0000      -8.962272      -243.8758
   4   2.0000      -7.637270      -207.8207
   5   2.0000      -7.607488      -207.0103
   6   2.0000      -6.644138      -180.7962
   7   2.0000      -6.641811      -180.7329
   8   2.0000      -6.641502      -180.7245
   9   2.0000      -1.289263       -35.0826
  10   2.0000      -1.049333       -28.5538
  11   2.0000      -0.873412       -23.7667
  12   2.0000      -0.715448       -19.4683
  13   2.0000      -0.617032       -16.7903
  14   2.0000      -0.605500       -16.4765
  15   2.0000      -0.585434       -15.9305
  16   2.0000      -0.568050       -15.4574
  17   2.0000      -0.507295       -13.8042
  18   2.0000      -0.461757       -12.5650
  19   2.0000      -0.382439       -10.4067
  20   2.0000      -0.358707        -9.7609
  21   0.0000       0.024715         0.6725
  22   0.0000       0.026265         0.7147
  23   0.0000       0.028776         0.7830
  24   0.0000       0.028971         0.7883
  25   0.0000       0.040566         1.1038

MULLIKEN ATOMIC CHARGES
-----------------------
   0 B :    0.276541
   1 B :    0.576527
   2 N :   -0.563139
   3 C :    0.147864
   4 S :    0.147172
   5 H :   -0.266367
   6 H :   -0.159296
   7 H :   -0.159303
Sum of atomic charges:    0.0000000

LOEWDIN ATOMIC CHARGES
----------------------
   0 B :    0.485940
   1 B :   -0.243815
   2 N :    0.435801
   3 C :   -1.030251
   4 S :    0.982667
   5 H :   -0.201945
   6 H :   -0.214199
   7 H :   -0.214198

  Mayer bond orders larger than 0.100000
B(  0-B ,  1-B ) :   1.0375 B(  0-B ,  6-H ) :   0.9663 B(  0-B ,  7-H ) :   0.9663
B(  1-B ,  2-N ) :   0.9638 B(  1-B ,  5-H ) :   0.9062 B(  2-N ,  3-C ) :   2.2097
B(  3-C ,  4-S ) :   1.5525

MP2 TOTAL ENERGY:     -541.782601161 Eh
FINAL SINGLE POINT ENERGY      -541.782601160752

DIPOLE MOMENT
-------------
                                X             Y             Z
Electronic contribution:      4.31713       0.44059      -0.00006
Nuclear contribution   :     -5.07070      -0.35309       0.00007
                        -----------------------------------------
Total Dipole Moment    :     -0.75357       0.08749       0.00002
                        -----------------------------------------
Magnitude (a.u.)       :      0.75863
Magnitude (Debye)      :      1.92828

Rotational constants in cm-1:     0.898397     0.051207     0.049032
Rotational constants in MHz : 26933.277841  1535.147174  1469.936799

                             ****ORCA TERMINATED NORMALLY****
TOTAL RUN TIME: 0 days 0 hours 13 minutes 57 seconds 278 msec
