                         Program Version 5.0.4 -  RELEASE  -
|  1> ! ri-mp2 aug-cc-pvdz aug-cc-pvdz/c tightscf
|  2> %pal nprocs 16 end
|  3> %maxcore 3800
|  4> %base "DZ_B-Cl_35_AB"
|  5> %scf
|  6> STABPerform true
|  7> STABRestartUHFifUnstable true
|  8> end
|  9>
| 10> *xyz 0 1
| 11> Cl        -1.417973    1.511805   -0.146260
| 12> Cl        -1.417918   -1.511848   -0.146172
| 13> B        -0.609763    0.000002    0.089142
| 14> C         0.904643    0.000042    0.559087
| 15> O         1.186636    0.000116    1.726557
| 16> S         2.185729   -0.000022   -0.681144
| 17> H         1.366349   -0.000109   -1.743040
| 18> *
| 19>
| 20> $new_job
| 21> ! ri-mp2 aug-cc-pvtz aug-cc-pvtz/c tightscf
| 22> %pal nprocs 16 end
| 23> %maxcore 3800
| 24> %base "TZ_B-Cl_35_AB"
| 25>
| 26> *xyz 0 1
| 27> Cl        -1.417973    1.511805   -0.146260
| 28> Cl        -1.417918   -1.511848   -0.146172
| 29> B        -0.609763    0.000002    0.089142
| 30> C         0.904643    0.000042    0.559087
| 31> O         1.186636    0.000116    1.726557
| 32> S         2.185729   -0.000022   -0.681144
| 33> H         1.366349   -0.000109   -1.743040
| 34> *
| 35>
| 36> $new_job
| 37> ! ri-mp2 aug-cc-pvqz aug-cc-pvqz/c tightscf
| 38> %pal nprocs 16 end
| 39> %maxcore 3800
| 40> %base "QZ_B-Cl_35_AB"
| 41>
| 42> *xyz 0 1
| 43> Cl        -1.417973    1.511805   -0.146260
| 44> Cl        -1.417918   -1.511848   -0.146172
| 45> B        -0.609763    0.000002    0.089142
| 46> C         0.904643    0.000042    0.559087
| 47> O         1.186636    0.000116    1.726557
| 48> S         2.185729   -0.000022   -0.681144
| 49> H         1.366349   -0.000109   -1.743040
| 50> *
| 51>
| 52>
| 53>
| 54>
| 55>                          ****END OF INPUT****
 Total Charge           Charge          ....    0
 Multiplicity           Mult            ....    1
 Number of Electrons    NEL             ....   70
MP2 TOTAL ENERGY:    -1455.476182895 Eh
FINAL SINGLE POINT ENERGY     -1455.476182895108
MP2 TOTAL ENERGY:    -1455.758208621 Eh
FINAL SINGLE POINT ENERGY     -1455.758208621105

CARTESIAN COORDINATES (ANGSTROEM)
---------------------------------
  Cl    -1.417973    1.511805   -0.146260
  Cl    -1.417918   -1.511848   -0.146172
  B     -0.609763    0.000002    0.089142
  C      0.904643    0.000042    0.559087
  O      1.186636    0.000116    1.726557
  S      2.185729   -0.000022   -0.681144
  H      1.366349   -0.000109   -1.743040

 Multiplicity           Mult            ....    1
 Number of Electrons    NEL             ....   70
 Basis Dimension        Dim             ....  538

ORBITAL ENERGIES
----------------

  NO   OCC          E(Eh)            E(eV)
   0   2.0000    -104.871080     -2853.6872
   1   2.0000    -104.871080     -2853.6872
   2   2.0000     -91.996670     -2503.3567
   3   2.0000     -20.582843      -560.0876
   4   2.0000     -11.373350      -309.4846
   5   2.0000     -10.598741      -288.4064
   6   2.0000     -10.598732      -288.4062
   7   2.0000      -8.999935      -244.9007
   8   2.0000      -8.065556      -219.4749
   9   2.0000      -8.065555      -219.4749
  10   2.0000      -8.064428      -219.4442
  11   2.0000      -8.064427      -219.4442
  12   2.0000      -8.064132      -219.4362
  13   2.0000      -8.064131      -219.4362
  14   2.0000      -7.746076      -210.7815
  15   2.0000      -6.681135      -181.8029
  16   2.0000      -6.680325      -181.7809
  17   2.0000      -6.679408      -181.7559
  18   2.0000      -1.429440       -38.8970
  19   2.0000      -1.175753       -31.9939
  20   2.0000      -1.131755       -30.7966
  21   2.0000      -1.046652       -28.4808
  22   2.0000      -0.839277       -22.8379
  23   2.0000      -0.722069       -19.6485
  24   2.0000      -0.663038       -18.0422
  25   2.0000      -0.643789       -17.5184
  26   2.0000      -0.622170       -16.9301
  27   2.0000      -0.563096       -15.3226
  28   2.0000      -0.557603       -15.1731
  29   2.0000      -0.528521       -14.3818
  30   2.0000      -0.522039       -14.2054
  31   2.0000      -0.494748       -13.4628
  32   2.0000      -0.483458       -13.1556
  33   2.0000      -0.416096       -11.3225
  34   2.0000      -0.408236       -11.1087
  35   0.0000       0.023309         0.6343
  36   0.0000       0.034714         0.9446
  37   0.0000       0.038300         1.0422
  38   0.0000       0.040373         1.0986
  39   0.0000       0.053495         1.4557

MULLIKEN ATOMIC CHARGES
-----------------------
   0 Cl:   -0.186818
   1 Cl:   -0.186823
   2 B :    0.592839
   3 C :    0.415416
   4 O :   -0.745114
   5 S :    0.081423
   6 H :    0.029075
Sum of atomic charges:   -0.0000000

LOEWDIN ATOMIC CHARGES
----------------------
   0 Cl:    1.283116
   1 Cl:    1.283112
   2 B :   -2.602937
   3 C :   -1.273511
   4 O :    0.566114
   5 S :    1.556441
   6 H :   -0.812336

  Mayer bond orders larger than 0.100000
B(  0-Cl,  2-B ) :   1.0882 B(  1-Cl,  2-B ) :   1.0882 B(  2-B ,  3-C ) :   0.8816
B(  3-C ,  4-O ) :   1.4664 B(  3-C ,  5-S ) :   1.0554 B(  5-S ,  6-H ) :   1.0352

MP2 TOTAL ENERGY:    -1455.854187675 Eh
FINAL SINGLE POINT ENERGY     -1455.854187674963

DIPOLE MOMENT
-------------
                                X             Y             Z
Electronic contribution:     -5.80915      -0.00002       0.18521
Nuclear contribution   :      5.40074      -0.00004      -1.24130
                        -----------------------------------------
Total Dipole Moment    :     -0.40841      -0.00007      -1.05608
                        -----------------------------------------
Magnitude (a.u.)       :      1.13230
Magnitude (Debye)      :      2.87809

Rotational constants in cm-1:     0.072349     0.041653     0.033998
Rotational constants in MHz :  2168.955489  1248.714695  1019.234786

                             ****ORCA TERMINATED NORMALLY****
TOTAL RUN TIME: 0 days 0 hours 20 minutes 17 seconds 485 msec
