                         Program Version 5.0.4 -  RELEASE  -
|  1> ! ri-mp2 aug-cc-pvdz aug-cc-pvdz/c tightscf
|  2> %pal nprocs 16 end
|  3> %maxcore 3800
|  4> %base "DZ_Si-Si_38_A"
|  5> %scf
|  6> STABPerform true
|  7> STABRestartUHFifUnstable true
|  8> end
|  9>
| 10> *xyz 0 2
| 11> Si         0.567115    0.018820   -0.106499
| 12> O        -1.067632   -0.112648    0.066859
| 13> H        -1.617147    0.647966   -0.131727
| 14> H         1.130774   -1.223212    0.470346
| 15> H         1.087818    1.212958    0.617499
| 16> *
| 17>
| 18> $new_job
| 19> ! ri-mp2 aug-cc-pvtz aug-cc-pvtz/c tightscf
| 20> %pal nprocs 16 end
| 21> %maxcore 3800
| 22> %base "TZ_Si-Si_38_A"
| 23>
| 24> *xyz 0 2
| 25> Si         0.567115    0.018820   -0.106499
| 26> O        -1.067632   -0.112648    0.066859
| 27> H        -1.617147    0.647966   -0.131727
| 28> H         1.130774   -1.223212    0.470346
| 29> H         1.087818    1.212958    0.617499
| 30> *
| 31>
| 32> $new_job
| 33> ! ri-mp2 aug-cc-pvqz aug-cc-pvqz/c tightscf
| 34> %pal nprocs 16 end
| 35> %maxcore 3800
| 36> %base "QZ_Si-Si_38_A"
| 37>
| 38> *xyz 0 2
| 39> Si         0.567115    0.018820   -0.106499
| 40> O        -1.067632   -0.112648    0.066859
| 41> H        -1.617147    0.647966   -0.131727
| 42> H         1.130774   -1.223212    0.470346
| 43> H         1.087818    1.212958    0.617499
| 44> *
| 45>
| 46>
| 47>
| 48>
| 49>                          ****END OF INPUT****
 Total Charge           Charge          ....    0
 Multiplicity           Mult            ....    2
 Number of Electrons    NEL             ....   25
MP2 TOTAL ENERGY:     -365.839127195 Eh
FINAL SINGLE POINT ENERGY      -365.839127194917
MP2 TOTAL ENERGY:     -365.944730107 Eh
FINAL SINGLE POINT ENERGY      -365.944730107097

CARTESIAN COORDINATES (ANGSTROEM)
---------------------------------
  Si     0.567115    0.018820   -0.106499
  O     -1.067632   -0.112648    0.066859
  H     -1.617147    0.647966   -0.131727
  H      1.130774   -1.223212    0.470346
  H      1.087818    1.212958    0.617499

 Multiplicity           Mult            ....    2
 Number of Electrons    NEL             ....   25
 Basis Dimension        Dim             ....  302

ORBITAL ENERGIES
----------------
                 SPIN UP ORBITALS
  NO   OCC          E(Eh)            E(eV)
   0   1.0000     -68.802128     -1872.2011
   1   1.0000     -20.567265      -559.6637
   2   1.0000      -6.147903      -167.2930
   3   1.0000      -4.259897      -115.9177
   4   1.0000      -4.251220      -115.6816
   5   1.0000      -4.250856      -115.6717
   6   1.0000      -1.353526       -36.8313
   7   1.0000      -0.765070       -20.8186
   8   1.0000      -0.645270       -17.5587
   9   1.0000      -0.569667       -15.5014
  10   1.0000      -0.551363       -15.0033
  11   1.0000      -0.479224       -13.0403
  12   1.0000      -0.329994        -8.9796
  13   0.0000       0.024363         0.6630
  14   0.0000       0.037394         1.0175
  15   0.0000       0.043160         1.1744
  16   0.0000       0.046964         1.2780
  17   0.0000       0.058765         1.5991

                 SPIN DOWN ORBITALS
  NO   OCC          E(Eh)            E(eV)
   0   1.0000     -68.796785     -1872.0557
   1   1.0000     -20.563102      -559.5504
   2   1.0000      -6.139381      -167.0610
   3   1.0000      -4.248032      -115.5948
   4   1.0000      -4.247613      -115.5834
   5   1.0000      -4.239509      -115.3629
   6   1.0000      -1.342083       -36.5199
   7   1.0000      -0.747979       -20.3536
   8   1.0000      -0.620360       -16.8809
   9   1.0000      -0.549199       -14.9445
  10   1.0000      -0.525199       -14.2914
  11   1.0000      -0.465310       -12.6617
  12   0.0000       0.022923         0.6238
  13   0.0000       0.034189         0.9303
  14   0.0000       0.038541         1.0487
  15   0.0000       0.043712         1.1895
  16   0.0000       0.058831         1.6009

MULLIKEN ATOMIC CHARGES AND SPIN POPULATIONS
--------------------------------------------
   0 Si:    0.939246    0.893804
   1 O :   -0.854258    0.033612
   2 H :    0.338929   -0.013303
   3 H :   -0.203940    0.034936
   4 H :   -0.219977    0.050951
Sum of atomic charges         :    0.0000000

LOEWDIN ATOMIC CHARGES AND SPIN POPULATIONS
-------------------------------------------
   0 Si:    0.750381    0.578927
   1 O :    0.943300    0.133108
   2 H :   -0.942289    0.018236
   3 H :   -0.378094    0.129195
   4 H :   -0.373298    0.140534

  Mayer bond orders larger than 0.100000
B(  0-Si,  1-O ) :   0.5768 B(  0-Si,  3-H ) :   0.9130 B(  0-Si,  4-H ) :   0.8933
B(  1-O ,  2-H ) :   0.9157

MP2 TOTAL ENERGY:     -365.979062385 Eh
FINAL SINGLE POINT ENERGY      -365.979062385097

DIPOLE MOMENT
-------------
                                X             Y             Z
Electronic contribution:     -0.63424      -0.12421      -1.10116
Nuclear contribution   :      0.54835       0.63267       0.96042
                        -----------------------------------------
Total Dipole Moment    :     -0.08589       0.50847      -0.14074
                        -----------------------------------------
Magnitude (a.u.)       :      0.53453
Magnitude (Debye)      :      1.35867

Rotational constants in cm-1:     3.739245     0.504462     0.467425
Rotational constants in MHz : 112099.749217 15123.402499 14013.043629

                             ****ORCA TERMINATED NORMALLY****
TOTAL RUN TIME: 0 days 0 hours 9 minutes 14 seconds 164 msec
