                         Program Version 5.0.4 -  RELEASE  -
|  1> ! ri-mp2 aug-cc-pvdz aug-cc-pvdz/c tightscf
|  2> %pal nprocs 16 end
|  3> %maxcore 3800
|  4> %base "DZ_B-S_6_A"
|  5> %scf
|  6> STABPerform true
|  7> STABRestartUHFifUnstable true
|  8> end
|  9>
| 10> *xyz 0 2
| 11> Cl         0.000000    0.000000    0.959906
| 12> S         0.000000    0.000000   -1.019900
| 13> *
| 14>
| 15> $new_job
| 16> ! ri-mp2 aug-cc-pvtz aug-cc-pvtz/c tightscf
| 17> %pal nprocs 16 end
| 18> %maxcore 3800
| 19> %base "TZ_B-S_6_A"
| 20>
| 21> *xyz 0 2
| 22> Cl         0.000000    0.000000    0.959906
| 23> S         0.000000    0.000000   -1.019900
| 24> *
| 25>
| 26> $new_job
| 27> ! ri-mp2 aug-cc-pvqz aug-cc-pvqz/c tightscf
| 28> %pal nprocs 16 end
| 29> %maxcore 3800
| 30> %base "QZ_B-S_6_A"
| 31>
| 32> *xyz 0 2
| 33> Cl         0.000000    0.000000    0.959906
| 34> S         0.000000    0.000000   -1.019900
| 35> *
| 36>
| 37>
| 38>
| 39>
| 40>                          ****END OF INPUT****
 Total Charge           Charge          ....    0
 Multiplicity           Mult            ....    2
 Number of Electrons    NEL             ....   33
MP2 TOTAL ENERGY:     -857.266075709 Eh
FINAL SINGLE POINT ENERGY      -857.266075708973
MP2 TOTAL ENERGY:     -857.378094898 Eh
FINAL SINGLE POINT ENERGY      -857.378094898052

CARTESIAN COORDINATES (ANGSTROEM)
---------------------------------
  Cl     0.000000    0.000000    0.959906
  S      0.000000    0.000000   -1.019900

 Multiplicity           Mult            ....    2
 Number of Electrons    NEL             ....   33
 Basis Dimension        Dim             ....  168

ORBITAL ENERGIES
----------------
                 SPIN UP ORBITALS
  NO   OCC          E(Eh)            E(eV)
   0   1.0000    -104.877290     -2853.8561
   1   1.0000     -92.035854     -2504.4229
   2   1.0000     -10.601421      -288.4793
   3   1.0000      -9.033943      -245.8261
   4   1.0000      -8.069047      -219.5699
   5   1.0000      -8.067542      -219.5290
   6   1.0000      -8.065910      -219.4846
   7   1.0000      -6.728721      -183.0978
   8   1.0000      -6.711446      -182.6277
   9   1.0000      -6.708733      -182.5539
  10   1.0000      -1.176576       -32.0163
  11   1.0000      -0.927671       -25.2432
  12   1.0000      -0.569101       -15.4860
  13   1.0000      -0.563099       -15.3227
  14   1.0000      -0.540368       -14.7042
  15   1.0000      -0.434379       -11.8201
  16   1.0000      -0.385085       -10.4787
  17   0.0000       0.040443         1.1005
  18   0.0000       0.068243         1.8570
  19   0.0000       0.078463         2.1351
  20   0.0000       0.083714         2.2780
  21   0.0000       0.099293         2.7019

                 SPIN DOWN ORBITALS
  NO   OCC          E(Eh)            E(eV)
   0   1.0000    -104.876018     -2853.8215
   1   1.0000     -92.026755     -2504.1753
   2   1.0000     -10.600097      -288.4433
   3   1.0000      -9.023962      -245.5545
   4   1.0000      -8.067920      -219.5393
   5   1.0000      -8.065168      -219.4644
   6   1.0000      -8.062818      -219.4004
   7   1.0000      -6.706637      -182.4969
   8   1.0000      -6.703554      -182.4130
   9   1.0000      -6.687500      -181.9761
  10   1.0000      -1.155978       -31.4558
  11   1.0000      -0.845483       -23.0068
  12   1.0000      -0.547397       -14.8954
  13   1.0000      -0.534875       -14.5547
  14   1.0000      -0.499070       -13.5804
  15   1.0000      -0.370225       -10.0743
  16   0.0000      -0.007806        -0.2124
  17   0.0000       0.044320         1.2060
  18   0.0000       0.070905         1.9294
  19   0.0000       0.084123         2.2891
  20   0.0000       0.088546         2.4095

MULLIKEN ATOMIC CHARGES AND SPIN POPULATIONS
--------------------------------------------
   0 Cl:   -0.162965    0.030436
   1 S :    0.162965    0.969564
Sum of atomic charges         :    0.0000000

LOEWDIN ATOMIC CHARGES AND SPIN POPULATIONS
-------------------------------------------
   0 Cl:    0.150588    0.200760
   1 S :   -0.150588    0.799240

  Mayer bond orders larger than 0.100000
B(  0-Cl,  1-S ) :   1.0693

MP2 TOTAL ENERGY:     -857.414933217 Eh
FINAL SINGLE POINT ENERGY      -857.414933217072

DIPOLE MOMENT
-------------
                                X             Y             Z
Electronic contribution:     -0.00000      -0.00000       1.07228
Nuclear contribution   :      0.00000       0.00000      -1.23178
                        -----------------------------------------
Total Dipole Moment    :     -0.00000      -0.00000      -0.15951
                        -----------------------------------------
Magnitude (a.u.)       :      0.15951
Magnitude (Debye)      :      0.40543

Rotational constants in cm-1:     0.000000     0.255460     0.255460
Rotational constants in MHz :     0.000000  7658.491413  7658.491413

                             ****ORCA TERMINATED NORMALLY****
TOTAL RUN TIME: 0 days 0 hours 0 minutes 59 seconds 981 msec
