                         Program Version 5.0.4 -  RELEASE  -
|  1> ! ri-mp2 aug-cc-pvdz aug-cc-pvdz/c tightscf
|  2> %pal nprocs 16 end
|  3> %maxcore 3800
|  4> %base "DZ_B-Cl_22_AB"
|  5> %scf
|  6> STABPerform true
|  7> STABRestartUHFifUnstable true
|  8> end
|  9>
| 10> *xyz 0 1
| 11> Cl         1.722532   -1.465975   -0.018868
| 12> Cl         1.552061    1.542743    0.012842
| 13> B         0.788118   -0.018729   -0.040624
| 14> P        -1.146836   -0.135148   -0.086431
| 15> O        -1.712511   -1.320222   -0.718035
| 16> O        -1.482211    0.030040    1.472563
| 17> H        -2.113209   -0.630421    1.785691
| 18> O        -1.664334    1.217754   -0.742893
| 19> H        -1.420463    2.025652   -0.276757
| 20> *
| 21>
| 22> $new_job
| 23> ! ri-mp2 aug-cc-pvtz aug-cc-pvtz/c tightscf
| 24> %pal nprocs 16 end
| 25> %maxcore 3800
| 26> %base "TZ_B-Cl_22_AB"
| 27>
| 28> *xyz 0 1
| 29> Cl         1.722532   -1.465975   -0.018868
| 30> Cl         1.552061    1.542743    0.012842
| 31> B         0.788118   -0.018729   -0.040624
| 32> P        -1.146836   -0.135148   -0.086431
| 33> O        -1.712511   -1.320222   -0.718035
| 34> O        -1.482211    0.030040    1.472563
| 35> H        -2.113209   -0.630421    1.785691
| 36> O        -1.664334    1.217754   -0.742893
| 37> H        -1.420463    2.025652   -0.276757
| 38> *
| 39>
| 40> $new_job
| 41> ! ri-mp2 aug-cc-pvqz aug-cc-pvqz/c tightscf
| 42> %pal nprocs 16 end
| 43> %maxcore 3800
| 44> %base "QZ_B-Cl_22_AB"
| 45>
| 46> *xyz 0 1
| 47> Cl         1.722532   -1.465975   -0.018868
| 48> Cl         1.552061    1.542743    0.012842
| 49> B         0.788118   -0.018729   -0.040624
| 50> P        -1.146836   -0.135148   -0.086431
| 51> O        -1.712511   -1.320222   -0.718035
| 52> O        -1.482211    0.030040    1.472563
| 53> H        -2.113209   -0.630421    1.785691
| 54> O        -1.664334    1.217754   -0.742893
| 55> H        -1.420463    2.025652   -0.276757
| 56> *
| 57>
| 58>
| 59>
| 60>
| 61>                          ****END OF INPUT****
 Total Charge           Charge          ....    0
 Multiplicity           Mult            ....    1
 Number of Electrons    NEL             ....   80
MP2 TOTAL ENERGY:    -1511.464143804 Eh
FINAL SINGLE POINT ENERGY     -1511.464143804492
MP2 TOTAL ENERGY:    -1511.870110772 Eh
FINAL SINGLE POINT ENERGY     -1511.870110772040

CARTESIAN COORDINATES (ANGSTROEM)
---------------------------------
  Cl     1.722532   -1.465975   -0.018868
  Cl     1.552061    1.542743    0.012842
  B      0.788118   -0.018729   -0.040624
  P     -1.146836   -0.135148   -0.086431
  O     -1.712511   -1.320222   -0.718035
  O     -1.482211    0.030040    1.472563
  H     -2.113209   -0.630421    1.785691
  O     -1.664334    1.217754   -0.742893
  H     -1.420463    2.025652   -0.276757

 Multiplicity           Mult            ....    1
 Number of Electrons    NEL             ....   80
 Basis Dimension        Dim             ....  664

ORBITAL ENERGIES
----------------

  NO   OCC          E(Eh)            E(eV)
   0   2.0000    -104.873059     -2853.7410
   1   2.0000    -104.867115     -2853.5793
   2   2.0000     -80.076206     -2178.9843
   3   2.0000     -20.613958      -560.9343
   4   2.0000     -20.610750      -560.8470
   5   2.0000     -20.514593      -558.2305
   6   2.0000     -10.600758      -288.4613
   7   2.0000     -10.594778      -288.2986
   8   2.0000      -8.067538      -219.5289
   9   2.0000      -8.066469      -219.4998
  10   2.0000      -8.066183      -219.4920
  11   2.0000      -8.061571      -219.3665
  12   2.0000      -8.060477      -219.3367
  13   2.0000      -8.060130      -219.3273
  14   2.0000      -7.743329      -210.7067
  15   2.0000      -7.599901      -206.8038
  16   2.0000      -5.498162      -149.6126
  17   2.0000      -5.497297      -149.5891
  18   2.0000      -5.496344      -149.5631
  19   2.0000      -1.448638       -39.4194
  20   2.0000      -1.397075       -38.0164
  21   2.0000      -1.309029       -35.6205
  22   2.0000      -1.173668       -31.9371
  23   2.0000      -1.130039       -30.7499
  24   2.0000      -0.873895       -23.7799
  25   2.0000      -0.781548       -21.2670
  26   2.0000      -0.734304       -19.9814
  27   2.0000      -0.669586       -18.2204
  28   2.0000      -0.657634       -17.8951
  29   2.0000      -0.638764       -17.3816
  30   2.0000      -0.604873       -16.4594
  31   2.0000      -0.578776       -15.7493
  32   2.0000      -0.560174       -15.2431
  33   2.0000      -0.557443       -15.1688
  34   2.0000      -0.539373       -14.6771
  35   2.0000      -0.504247       -13.7213
  36   2.0000      -0.492083       -13.3903
  37   2.0000      -0.482120       -13.1192
  38   2.0000      -0.476757       -12.9732
  39   2.0000      -0.441181       -12.0051
  40   0.0000       0.020911         0.5690
  41   0.0000       0.030402         0.8273
  42   0.0000       0.033850         0.9211
  43   0.0000       0.040560         1.1037
  44   0.0000       0.041194         1.1209

MULLIKEN ATOMIC CHARGES
-----------------------
   0 Cl:   -0.104965
   1 Cl:   -0.197578
   2 B :    0.228081
   3 P :    2.276973
   4 O :   -1.190281
   5 O :   -0.868614
   6 H :    0.372182
   7 O :   -0.884584
   8 H :    0.368788
Sum of atomic charges:    0.0000000

LOEWDIN ATOMIC CHARGES
----------------------
   0 Cl:    1.264304
   1 Cl:    1.247081
   2 B :   -2.420110
   3 P :   -0.753663
   4 O :    0.268797
   5 O :    1.074777
   6 H :   -0.860315
   7 O :    1.065898
   8 H :   -0.886769

  Mayer bond orders larger than 0.100000
B(  0-Cl,  2-B ) :   1.1094 B(  1-Cl,  2-B ) :   1.0510 B(  2-B ,  3-P ) :   0.8928
B(  3-P ,  4-O ) :   1.4347 B(  3-P ,  5-O ) :   0.6344 B(  3-P ,  7-O ) :   0.6351
B(  5-O ,  6-H ) :   0.9170 B(  7-O ,  8-H ) :   0.8674

MP2 TOTAL ENERGY:    -1512.005338185 Eh
FINAL SINGLE POINT ENERGY     -1512.005338185252

DIPOLE MOMENT
-------------
                                X             Y             Z
Electronic contribution:      7.68677      -0.34543      -0.52499
Nuclear contribution   :     -7.23783       1.31873       1.50778
                        -----------------------------------------
Total Dipole Moment    :      0.44894       0.97330       0.98279
                        -----------------------------------------
Magnitude (a.u.)       :      1.45421
Magnitude (Debye)      :      3.69631

Rotational constants in cm-1:     0.061851     0.039580     0.028672
Rotational constants in MHz :  1854.257581  1186.590720   859.569454

                             ****ORCA TERMINATED NORMALLY****
TOTAL RUN TIME: 0 days 0 hours 44 minutes 18 seconds 276 msec
