                         Program Version 5.0.4 -  RELEASE  -
|  1> ! ri-mp2 aug-cc-pvdz aug-cc-pvdz/c tightscf
|  2> %pal nprocs 16 end
|  3> %maxcore 3800
|  4> %base "DZ_Si-Si_46_AB"
|  5> %scf
|  6> STABPerform true
|  7> STABRestartUHFifUnstable true
|  8> end
|  9>
| 10> *xyz 0 1
| 11> Si        -0.825485    1.186041    0.831266
| 12> Si         0.825484    1.186019   -0.831299
| 13> C         2.264941   -0.849807    0.425818
| 14> O         1.615623   -1.219633    1.372011
| 15> C         1.684551   -0.504866   -0.895901
| 16> H         0.892736   -1.210425   -1.154847
| 17> H         2.448083   -0.495514   -1.673680
| 18> H         1.826623    2.238144   -0.528808
| 19> H         0.254149    1.465977   -2.165301
| 20> H         3.359246   -0.717456    0.531608
| 21> C        -1.684550   -0.504843    0.895916
| 22> H        -1.826625    2.238157    0.528747
| 23> H        -0.254149    1.466037    2.165260
| 24> C        -2.264940   -0.849821   -0.425793
| 25> H        -0.892733   -1.210394    1.154880
| 26> H        -2.448081   -0.495473    1.673696
| 27> O        -1.615621   -1.219665   -1.371979
| 28> H        -3.359247   -0.717484   -0.531585
| 29> *
| 30>
| 31> $new_job
| 32> ! ri-mp2 aug-cc-pvtz aug-cc-pvtz/c tightscf
| 33> %pal nprocs 16 end
| 34> %maxcore 3800
| 35> %base "TZ_Si-Si_46_AB"
| 36>
| 37> *xyz 0 1
| 38> Si        -0.825485    1.186041    0.831266
| 39> Si         0.825484    1.186019   -0.831299
| 40> C         2.264941   -0.849807    0.425818
| 41> O         1.615623   -1.219633    1.372011
| 42> C         1.684551   -0.504866   -0.895901
| 43> H         0.892736   -1.210425   -1.154847
| 44> H         2.448083   -0.495514   -1.673680
| 45> H         1.826623    2.238144   -0.528808
| 46> H         0.254149    1.465977   -2.165301
| 47> H         3.359246   -0.717456    0.531608
| 48> C        -1.684550   -0.504843    0.895916
| 49> H        -1.826625    2.238157    0.528747
| 50> H        -0.254149    1.466037    2.165260
| 51> C        -2.264940   -0.849821   -0.425793
| 52> H        -0.892733   -1.210394    1.154880
| 53> H        -2.448081   -0.495473    1.673696
| 54> O        -1.615621   -1.219665   -1.371979
| 55> H        -3.359247   -0.717484   -0.531585
| 56> *
| 57>
| 58> $new_job
| 59> ! ri-mp2 aug-cc-pvqz aug-cc-pvqz/c tightscf
| 60> %pal nprocs 16 end
| 61> %maxcore 3800
| 62> %base "QZ_Si-Si_46_AB"
| 63>
| 64> *xyz 0 1
| 65> Si        -0.825485    1.186041    0.831266
| 66> Si         0.825484    1.186019   -0.831299
| 67> C         2.264941   -0.849807    0.425818
| 68> O         1.615623   -1.219633    1.372011
| 69> C         1.684551   -0.504866   -0.895901
| 70> H         0.892736   -1.210425   -1.154847
| 71> H         2.448083   -0.495514   -1.673680
| 72> H         1.826623    2.238144   -0.528808
| 73> H         0.254149    1.465977   -2.165301
| 74> H         3.359246   -0.717456    0.531608
| 75> C        -1.684550   -0.504843    0.895916
| 76> H        -1.826625    2.238157    0.528747
| 77> H        -0.254149    1.466037    2.165260
| 78> C        -2.264940   -0.849821   -0.425793
| 79> H        -0.892733   -1.210394    1.154880
| 80> H        -2.448081   -0.495473    1.673696
| 81> O        -1.615621   -1.219665   -1.371979
| 82> H        -3.359247   -0.717484   -0.531585
| 83> *
| 84>
| 85>
| 86>
| 87>
| 88>                          ****END OF INPUT****
 Total Charge           Charge          ....    0
 Multiplicity           Mult            ....    1
 Number of Electrons    NEL             ....   78
MP2 TOTAL ENERGY:     -886.075704116 Eh
FINAL SINGLE POINT ENERGY      -886.075704116170
MP2 TOTAL ENERGY:     -886.414048752 Eh
FINAL SINGLE POINT ENERGY      -886.414048751599

CARTESIAN COORDINATES (ANGSTROEM)
---------------------------------
  Si    -0.825485    1.186041    0.831266
  Si     0.825484    1.186019   -0.831299
  C      2.264941   -0.849807    0.425818
  O      1.615623   -1.219633    1.372011
  C      1.684551   -0.504866   -0.895901
  H      0.892736   -1.210425   -1.154847
  H      2.448083   -0.495514   -1.673680
  H      1.826623    2.238144   -0.528808
  H      0.254149    1.465977   -2.165301
  H      3.359246   -0.717456    0.531608
  C     -1.684550   -0.504843    0.895916
  H     -1.826625    2.238157    0.528747
  H     -0.254149    1.466037    2.165260
  C     -2.264940   -0.849821   -0.425793
  H     -0.892733   -1.210394    1.154880
  H     -2.448081   -0.495473    1.673696
  O     -1.615621   -1.219665   -1.371979
  H     -3.359247   -0.717484   -0.531585

 Multiplicity           Mult            ....    1
 Number of Electrons    NEL             ....   78
 Basis Dimension        Dim             .... 1108

ORBITAL ENERGIES
----------------

  NO   OCC          E(Eh)            E(eV)
   0   2.0000     -68.775298     -1871.4710
   1   2.0000     -68.775296     -1871.4710
   2   2.0000     -20.555410      -559.3411
   3   2.0000     -20.555410      -559.3411
   4   2.0000     -11.338147      -308.5267
   5   2.0000     -11.338147      -308.5267
   6   2.0000     -11.226541      -305.4897
   7   2.0000     -11.226541      -305.4897
   8   2.0000      -6.125507      -166.6835
   9   2.0000      -6.125359      -166.6795
  10   2.0000      -4.231803      -115.1532
  11   2.0000      -4.231567      -115.1468
  12   2.0000      -4.231561      -115.1466
  13   2.0000      -4.231453      -115.1437
  14   2.0000      -4.231437      -115.1433
  15   2.0000      -4.231067      -115.1332
  16   2.0000      -1.400608       -38.1125
  17   2.0000      -1.400130       -38.0995
  18   2.0000      -1.020202       -27.7611
  19   2.0000      -1.017582       -27.6898
  20   2.0000      -0.814188       -22.1552
  21   2.0000      -0.797772       -21.7085
  22   2.0000      -0.734021       -19.9737
  23   2.0000      -0.684198       -18.6180
  24   2.0000      -0.682250       -18.5650
  25   2.0000      -0.662749       -18.0343
  26   2.0000      -0.639716       -17.4076
  27   2.0000      -0.622959       -16.9516
  28   2.0000      -0.574618       -15.6361
  29   2.0000      -0.563094       -15.3226
  30   2.0000      -0.556917       -15.1545
  31   2.0000      -0.551470       -15.0063
  32   2.0000      -0.494050       -13.4438
  33   2.0000      -0.478017       -13.0075
  34   2.0000      -0.461968       -12.5708
  35   2.0000      -0.449038       -12.2190
  36   2.0000      -0.427942       -11.6449
  37   2.0000      -0.417645       -11.3647
  38   2.0000      -0.400144       -10.8885
  39   0.0000       0.022486         0.6119
  40   0.0000       0.025345         0.6897
  41   0.0000       0.033843         0.9209
  42   0.0000       0.033871         0.9217
  43   0.0000       0.040643         1.1060

MULLIKEN ATOMIC CHARGES
-----------------------
   0 Si:    0.922817
   1 Si:    0.922817
   2 C :    0.183401
   3 O :   -0.863207
   4 C :   -0.676584
   5 H :    0.311215
   6 H :    0.295971
   7 H :   -0.412852
   8 H :   -0.289276
   9 H :    0.528515
  10 C :   -0.676584
  11 H :   -0.412851
  12 H :   -0.289276
  13 C :    0.183397
  14 H :    0.311216
  15 H :    0.295971
  16 O :   -0.863207
  17 H :    0.528519
Sum of atomic charges:   -0.0000000

LOEWDIN ATOMIC CHARGES
----------------------
   0 Si:    0.760883
   1 Si:    0.760883
   2 C :   -0.329760
   3 O :    0.734018
   4 C :    0.432211
   5 H :   -0.411645
   6 H :   -0.352820
   7 H :   -0.251913
   8 H :   -0.243165
   9 H :   -0.337808
  10 C :    0.432210
  11 H :   -0.251913
  12 H :   -0.243165
  13 C :   -0.329760
  14 H :   -0.411644
  15 H :   -0.352820
  16 O :    0.734017
  17 H :   -0.337808

  Mayer bond orders larger than 0.100000
B(  0-Si,  1-Si) :   0.8449 B(  0-Si, 10-C ) :   0.7263 B(  0-Si, 11-H ) :   0.7000
B(  0-Si, 12-H ) :   0.7759 B(  1-Si,  4-C ) :   0.7263 B(  1-Si,  7-H ) :   0.7000
B(  1-Si,  8-H ) :   0.7759 B(  2-C ,  3-O ) :   1.5412 B(  2-C ,  4-C ) :   1.0640
B(  2-C ,  9-H ) :   0.6915 B(  4-C ,  5-H ) :   0.8485 B(  4-C ,  6-H ) :   0.9422
B( 10-C , 13-C ) :   1.0640 B( 10-C , 14-H ) :   0.8485 B( 10-C , 15-H ) :   0.9422
B( 13-C , 16-O ) :   1.5412 B( 13-C , 17-H ) :   0.6915

MP2 TOTAL ENERGY:     -886.523291426 Eh
FINAL SINGLE POINT ENERGY      -886.523291425905

DIPOLE MOMENT
-------------
                                X             Y             Z
Electronic contribution:     -0.00000      -1.87369       0.00002
Nuclear contribution   :      0.00000       2.38230      -0.00003
                        -----------------------------------------
Total Dipole Moment    :     -0.00000       0.50861      -0.00001
                        -----------------------------------------
Magnitude (a.u.)       :      0.50861
Magnitude (Debye)      :      1.29277

Rotational constants in cm-1:     0.054353     0.033844     0.032056
Rotational constants in MHz :  1629.457764  1014.613662   961.021850

                             ****ORCA TERMINATED NORMALLY****
TOTAL RUN TIME: 0 days 3 hours 6 minutes 44 seconds 469 msec
