                         Program Version 5.0.4 -  RELEASE  -
|  1> ! ri-mp2 aug-cc-pvdz aug-cc-pvdz/c tightscf
|  2> %pal nprocs 16 end
|  3> %maxcore 3800
|  4> %base "DZ_B-F_27_AB"
|  5> %scf
|  6> STABPerform true
|  7> STABRestartUHFifUnstable true
|  8> end
|  9>
| 10> *xyz 0 1
| 11> F        -1.850934    1.190238    0.085930
| 12> F        -2.720170   -0.898759   -0.033290
| 13> B        -1.670951   -0.111203    0.006473
| 14> P         1.001384    0.002658    0.091534
| 15> O         1.293030    0.612992    1.377985
| 16> O         1.939765   -1.191352   -0.329055
| 17> H         2.424607   -1.561093    0.417473
| 18> O         1.026648    0.953872   -1.166588
| 19> H         1.460284    1.796103   -0.988219
| 20> O        -0.435813   -0.668284   -0.045889
| 21> *
| 22>
| 23> $new_job
| 24> ! ri-mp2 aug-cc-pvtz aug-cc-pvtz/c tightscf
| 25> %pal nprocs 16 end
| 26> %maxcore 3800
| 27> %base "TZ_B-F_27_AB"
| 28>
| 29> *xyz 0 1
| 30> F        -1.850934    1.190238    0.085930
| 31> F        -2.720170   -0.898759   -0.033290
| 32> B        -1.670951   -0.111203    0.006473
| 33> P         1.001384    0.002658    0.091534
| 34> O         1.293030    0.612992    1.377985
| 35> O         1.939765   -1.191352   -0.329055
| 36> H         2.424607   -1.561093    0.417473
| 37> O         1.026648    0.953872   -1.166588
| 38> H         1.460284    1.796103   -0.988219
| 39> O        -0.435813   -0.668284   -0.045889
| 40> *
| 41>
| 42> $new_job
| 43> ! ri-mp2 aug-cc-pvqz aug-cc-pvqz/c tightscf
| 44> %pal nprocs 16 end
| 45> %maxcore 3800
| 46> %base "QZ_B-F_27_AB"
| 47>
| 48> *xyz 0 1
| 49> F        -1.850934    1.190238    0.085930
| 50> F        -2.720170   -0.898759   -0.033290
| 51> B        -1.670951   -0.111203    0.006473
| 52> P         1.001384    0.002658    0.091534
| 53> O         1.293030    0.612992    1.377985
| 54> O         1.939765   -1.191352   -0.329055
| 55> H         2.424607   -1.561093    0.417473
| 56> O         1.026648    0.953872   -1.166588
| 57> H         1.460284    1.796103   -0.988219
| 58> O        -0.435813   -0.668284   -0.045889
| 59> *
| 60>
| 61>
| 62>
| 63>
| 64>                          ****END OF INPUT****
 Total Charge           Charge          ....    0
 Multiplicity           Mult            ....    1
 Number of Electrons    NEL             ....   72
MP2 TOTAL ENERGY:     -866.654705825 Eh
FINAL SINGLE POINT ENERGY      -866.654705825427
MP2 TOTAL ENERGY:     -867.192432031 Eh
FINAL SINGLE POINT ENERGY      -867.192432030791

CARTESIAN COORDINATES (ANGSTROEM)
---------------------------------
  F     -1.850934    1.190238    0.085930
  F     -2.720170   -0.898759   -0.033290
  B     -1.670951   -0.111203    0.006473
  P      1.001384    0.002658    0.091534
  O      1.293030    0.612992    1.377985
  O      1.939765   -1.191352   -0.329055
  H      2.424607   -1.561093    0.417473
  O      1.026648    0.953872   -1.166588
  H      1.460284    1.796103   -0.988219
  O     -0.435813   -0.668284   -0.045889

 Multiplicity           Mult            ....    1
 Number of Electrons    NEL             ....   72
 Basis Dimension        Dim             ....  736

ORBITAL ENERGIES
----------------

  NO   OCC          E(Eh)            E(eV)
   0   2.0000     -80.121470     -2180.2160
   1   2.0000     -26.330635      -716.4930
   2   2.0000     -26.327041      -716.3952
   3   2.0000     -20.623732      -561.2003
   4   2.0000     -20.623114      -561.1835
   5   2.0000     -20.620756      -561.1193
   6   2.0000     -20.529960      -558.6486
   7   2.0000      -7.762547      -211.2296
   8   2.0000      -7.639052      -207.8692
   9   2.0000      -5.538039      -150.6977
  10   2.0000      -5.537644      -150.6870
  11   2.0000      -5.536715      -150.6617
  12   2.0000      -1.665706       -45.3262
  13   2.0000      -1.634102       -44.4662
  14   2.0000      -1.489359       -40.5275
  15   2.0000      -1.419544       -38.6277
  16   2.0000      -1.413451       -38.4619
  17   2.0000      -1.324988       -36.0548
  18   2.0000      -0.918814       -25.0022
  19   2.0000      -0.837814       -22.7981
  20   2.0000      -0.804663       -21.8960
  21   2.0000      -0.796029       -21.6610
  22   2.0000      -0.765559       -20.8319
  23   2.0000      -0.742072       -20.1928
  24   2.0000      -0.710859       -19.3435
  25   2.0000      -0.694787       -18.9061
  26   2.0000      -0.679173       -18.4812
  27   2.0000      -0.675634       -18.3849
  28   2.0000      -0.658780       -17.9263
  29   2.0000      -0.632443       -17.2097
  30   2.0000      -0.617836       -16.8122
  31   2.0000      -0.599897       -16.3240
  32   2.0000      -0.574798       -15.6411
  33   2.0000      -0.559857       -15.2345
  34   2.0000      -0.493943       -13.4409
  35   2.0000      -0.492871       -13.4117
  36   0.0000       0.021002         0.5715
  37   0.0000       0.029906         0.8138
  38   0.0000       0.036706         0.9988
  39   0.0000       0.043694         1.1890
  40   0.0000       0.050736         1.3806

MULLIKEN ATOMIC CHARGES
-----------------------
   0 F :   -0.720141
   1 F :   -0.754064
   2 B :    1.882803
   3 P :    2.649739
   4 O :   -1.088772
   5 O :   -0.872197
   6 H :    0.355463
   7 O :   -0.856612
   8 H :    0.378083
   9 O :   -0.974302
Sum of atomic charges:    0.0000000

LOEWDIN ATOMIC CHARGES
----------------------
   0 F :    0.826564
   1 F :    0.803581
   2 B :   -2.182983
   3 P :   -0.980407
   4 O :    0.321102
   5 O :    1.098527
   6 H :   -0.856100
   7 O :    1.111367
   8 H :   -0.844513
   9 O :    0.702863

  Mayer bond orders larger than 0.100000
B(  0-F ,  2-B ) :   0.5240 B(  0-F ,  9-O ) :  -0.1193 B(  1-F ,  2-B ) :   0.4616
B(  1-F ,  9-O ) :  -0.1248 B(  2-B ,  9-O ) :   0.6300 B(  3-P ,  4-O ) :   1.4272
B(  3-P ,  5-O ) :   0.6171 B(  3-P ,  7-O ) :   0.6602 B(  3-P ,  9-O ) :   0.6346
B(  5-O ,  6-H ) :   0.9242 B(  7-O ,  8-H ) :   0.9105

MP2 TOTAL ENERGY:     -867.365980698 Eh
FINAL SINGLE POINT ENERGY      -867.365980698405

DIPOLE MOMENT
-------------
                                X             Y             Z
Electronic contribution:     -7.55145      -0.15529       0.20730
Nuclear contribution   :      8.21047       0.02746      -0.66566
                        -----------------------------------------
Total Dipole Moment    :      0.65902      -0.12783      -0.45837
                        -----------------------------------------
Magnitude (a.u.)       :      0.81286
Magnitude (Debye)      :      2.06613

Rotational constants in cm-1:     0.109457     0.038607     0.035122
Rotational constants in MHz :  3281.440694  1157.397025  1052.942264

                             ****ORCA TERMINATED NORMALLY****
TOTAL RUN TIME: 0 days 0 hours 32 minutes 55 seconds 401 msec
