                         Program Version 5.0.4 -  RELEASE  -
|  1> ! ri-mp2 aug-cc-pvdz aug-cc-pvdz/c tightscf
|  2> %pal nprocs 16 end
|  3> %maxcore 3800
|  4> %base "DZ_S-Cl_61_AB"
|  5>
|  6> *xyz 0 1
|  7> Cl         2.187483    0.307011   -0.407002
|  8> S         0.766095   -0.869866    0.464374
|  9> C        -0.699333    0.038881    0.120614
| 10> N        -1.635643   -0.714002   -0.289364
| 11> O        -2.844356   -0.039735   -0.342506
| 12> H        -3.450656   -0.704105   -0.685812
| 13> C        -0.827393    1.488489    0.440585
| 14> H         0.144742    1.940651    0.611013
| 15> H        -1.439999    1.609006    1.335491
| 16> H        -1.334119    2.004794   -0.373231
| 17> *
| 18>
| 19> $new_job
| 20> ! ri-mp2 aug-cc-pvtz aug-cc-pvtz/c tightscf
| 21> %pal nprocs 16 end
| 22> %maxcore 3800
| 23> %base "TZ_S-Cl_61_AB"
| 24>
| 25> *xyz 0 1
| 26> Cl         2.187483    0.307011   -0.407002
| 27> S         0.766095   -0.869866    0.464374
| 28> C        -0.699333    0.038881    0.120614
| 29> N        -1.635643   -0.714002   -0.289364
| 30> O        -2.844356   -0.039735   -0.342506
| 31> H        -3.450656   -0.704105   -0.685812
| 32> C        -0.827393    1.488489    0.440585
| 33> H         0.144742    1.940651    0.611013
| 34> H        -1.439999    1.609006    1.335491
| 35> H        -1.334119    2.004794   -0.373231
| 36> *
| 37>
| 38> $new_job
| 39> ! ri-mp2 aug-cc-pvqz aug-cc-pvqz/c tightscf
| 40> %pal nprocs 16 end
| 41> %maxcore 3800
| 42> %base "QZ_S-Cl_61_AB"
| 43>
| 44> *xyz 0 1
| 45> Cl         2.187483    0.307011   -0.407002
| 46> S         0.766095   -0.869866    0.464374
| 47> C        -0.699333    0.038881    0.120614
| 48> N        -1.635643   -0.714002   -0.289364
| 49> O        -2.844356   -0.039735   -0.342506
| 50> H        -3.450656   -0.704105   -0.685812
| 51> C        -0.827393    1.488489    0.440585
| 52> H         0.144742    1.940651    0.611013
| 53> H        -1.439999    1.609006    1.335491
| 54> H        -1.334119    2.004794   -0.373231
| 55> *
| 56>
| 57>
| 58>
| 59>
| 60>                          ****END OF INPUT****
 Total Charge           Charge          ....    0
 Multiplicity           Mult            ....    1
 Number of Electrons    NEL             ....   64
MP2 TOTAL ENERGY:    -1065.308037355 Eh
FINAL SINGLE POINT ENERGY     -1065.308037354504
MP2 TOTAL ENERGY:    -1065.603347465 Eh
FINAL SINGLE POINT ENERGY     -1065.603347465283

CARTESIAN COORDINATES (ANGSTROEM)
---------------------------------
  Cl     2.187483    0.307011   -0.407002
  S      0.766095   -0.869866    0.464374
  C     -0.699333    0.038881    0.120614
  N     -1.635643   -0.714002   -0.289364
  O     -2.844356   -0.039735   -0.342506
  H     -3.450656   -0.704105   -0.685812
  C     -0.827393    1.488489    0.440585
  H      0.144742    1.940651    0.611013
  H     -1.439999    1.609006    1.335491
  H     -1.334119    2.004794   -0.373231

 Multiplicity           Mult            ....    1
 Number of Electrons    NEL             ....   64
 Basis Dimension        Dim             ....  672

ORBITAL ENERGIES
----------------

  NO   OCC          E(Eh)            E(eV)
   0   2.0000    -104.859020     -2853.3590
   1   2.0000     -92.022687     -2504.0646
   2   2.0000     -20.616483      -561.0030
   3   2.0000     -15.642434      -425.6523
   4   2.0000     -11.321771      -308.0810
   5   2.0000     -11.244391      -305.9754
   6   2.0000     -10.583384      -287.9885
   7   2.0000      -9.020819      -245.4690
   8   2.0000      -8.050383      -219.0621
   9   2.0000      -8.048477      -219.0102
  10   2.0000      -8.048272      -219.0046
  11   2.0000      -6.701968      -182.3698
  12   2.0000      -6.700466      -182.3289
  13   2.0000      -6.699233      -182.2954
  14   2.0000      -1.453665       -39.5562
  15   2.0000      -1.208348       -32.8808
  16   2.0000      -1.139119       -30.9970
  17   2.0000      -1.008227       -27.4353
  18   2.0000      -0.946764       -25.7627
  19   2.0000      -0.755799       -20.5663
  20   2.0000      -0.722158       -19.6509
  21   2.0000      -0.666757       -18.1434
  22   2.0000      -0.641676       -17.4609
  23   2.0000      -0.602437       -16.3931
  24   2.0000      -0.574053       -15.6208
  25   2.0000      -0.562578       -15.3085
  26   2.0000      -0.532930       -14.5018
  27   2.0000      -0.512522       -13.9464
  28   2.0000      -0.475472       -12.9383
  29   2.0000      -0.445393       -12.1198
  30   2.0000      -0.425139       -11.5686
  31   2.0000      -0.360039        -9.7971
  32   0.0000       0.025103         0.6831
  33   0.0000       0.034983         0.9519
  34   0.0000       0.040013         1.0888
  35   0.0000       0.047711         1.2983
  36   0.0000       0.053924         1.4673

MULLIKEN ATOMIC CHARGES
-----------------------
   0 Cl:   -0.315846
   1 S :    0.282092
   2 C :    0.252310
   3 N :   -0.185876
   4 O :   -0.538492
   5 H :    0.308353
   6 C :   -0.742889
   7 H :    0.391272
   8 H :    0.278867
   9 H :    0.270209
Sum of atomic charges:    0.0000000

LOEWDIN ATOMIC CHARGES
----------------------
   0 Cl:    0.506768
   1 S :    0.426416
   2 C :   -0.978305
   3 N :    0.142491
   4 O :    1.004882
   5 H :   -0.857262
   6 C :    0.750232
   7 H :   -0.384847
   8 H :   -0.297569
   9 H :   -0.312807

  Mayer bond orders larger than 0.100000
B(  0-Cl,  1-S ) :   1.0294 B(  0-Cl,  2-C ) :  -0.1473 B(  1-S ,  2-C ) :   0.7771
B(  2-C ,  3-N ) :   1.6460 B(  2-C ,  6-C ) :   0.8444 B(  3-N ,  4-O ) :   0.7942
B(  4-O ,  5-H ) :   0.9478 B(  6-C ,  7-H ) :   0.8861 B(  6-C ,  8-H ) :   0.9077
B(  6-C ,  9-H ) :   0.9564

MP2 TOTAL ENERGY:    -1065.700347942 Eh
FINAL SINGLE POINT ENERGY     -1065.700347942166

DIPOLE MOMENT
-------------
                                X             Y             Z
Electronic contribution:      8.29299      -3.91372      -1.28157
Nuclear contribution   :     -8.89000       4.24334       1.38630
                        -----------------------------------------
Total Dipole Moment    :     -0.59701       0.32962       0.10474
                        -----------------------------------------
Magnitude (a.u.)       :      0.68996
Magnitude (Debye)      :      1.75374

Rotational constants in cm-1:     0.180760     0.041558     0.036878
Rotational constants in MHz :  5419.056394  1245.868898  1105.575727

                             ****ORCA TERMINATED NORMALLY****
TOTAL RUN TIME: 0 days 0 hours 6 minutes 55 seconds 790 msec
