                         Program Version 5.0.4 -  RELEASE  -
|  1> ! ri-mp2 aug-cc-pvdz aug-cc-pvdz/c tightscf
|  2> %pal nprocs 16 end
|  3> %maxcore 3800
|  4> %base "DZ_S-Cl_11_A"
|  5> %scf
|  6> STABPerform true
|  7> STABRestartUHFifUnstable true
|  8> end
|  9>
| 10> *xyz 0 2
| 11> S         1.703956   -0.447546   -0.000050
| 12> Si         0.004137    0.825267    0.000016
| 13> Cl        -1.600191   -0.453986    0.000031
| 14> H        -0.058994    1.662358    1.208814
| 15> H        -0.058973    1.662388   -1.208765
| 16> *
| 17>
| 18> $new_job
| 19> ! ri-mp2 aug-cc-pvtz aug-cc-pvtz/c tightscf
| 20> %pal nprocs 16 end
| 21> %maxcore 3800
| 22> %base "TZ_S-Cl_11_A"
| 23>
| 24> *xyz 0 2
| 25> S         1.703956   -0.447546   -0.000050
| 26> Si         0.004137    0.825267    0.000016
| 27> Cl        -1.600191   -0.453986    0.000031
| 28> H        -0.058994    1.662358    1.208814
| 29> H        -0.058973    1.662388   -1.208765
| 30> *
| 31>
| 32> $new_job
| 33> ! ri-mp2 aug-cc-pvqz aug-cc-pvqz/c tightscf
| 34> %pal nprocs 16 end
| 35> %maxcore 3800
| 36> %base "QZ_S-Cl_11_A"
| 37>
| 38> *xyz 0 2
| 39> S         1.703956   -0.447546   -0.000050
| 40> Si         0.004137    0.825267    0.000016
| 41> Cl        -1.600191   -0.453986    0.000031
| 42> H        -0.058994    1.662358    1.208814
| 43> H        -0.058973    1.662388   -1.208765
| 44> *
| 45>
| 46>
| 47>
| 48>
| 49>                          ****END OF INPUT****
 Total Charge           Charge          ....    0
 Multiplicity           Mult            ....    2
 Number of Electrons    NEL             ....   49
MP2 TOTAL ENERGY:    -1147.548209099 Eh
FINAL SINGLE POINT ENERGY     -1147.548209099489
MP2 TOTAL ENERGY:    -1147.695799622 Eh
FINAL SINGLE POINT ENERGY     -1147.695799621547

CARTESIAN COORDINATES (ANGSTROEM)
---------------------------------
  S      1.703956   -0.447546   -0.000050
  Si     0.004137    0.825267    0.000016
  Cl    -1.600191   -0.453986    0.000031
  H     -0.058994    1.662358    1.208814
  H     -0.058973    1.662388   -1.208765

 Multiplicity           Mult            ....    2
 Number of Electrons    NEL             ....   49
 Basis Dimension        Dim             ....  344

ORBITAL ENERGIES
----------------
                 SPIN UP ORBITALS
  NO   OCC          E(Eh)            E(eV)
   0   1.0000    -104.830222     -2852.5754
   1   1.0000     -91.985758     -2503.0597
   2   1.0000     -68.847878     -1873.4460
   3   1.0000     -10.557943      -287.2962
   4   1.0000      -8.989083      -244.6054
   5   1.0000      -8.024674      -218.3625
   6   1.0000      -8.023586      -218.3329
   7   1.0000      -8.023545      -218.3318
   8   1.0000      -6.684591      -181.8970
   9   1.0000      -6.666306      -181.3994
  10   1.0000      -6.665306      -181.3722
  11   1.0000      -6.190553      -168.4535
  12   1.0000      -4.297566      -116.9427
  13   1.0000      -4.296730      -116.9200
  14   1.0000      -4.296541      -116.9148
  15   1.0000      -1.104291       -30.0493
  16   1.0000      -0.987645       -26.8752
  17   1.0000      -0.715465       -19.4688
  18   1.0000      -0.558342       -15.1933
  19   1.0000      -0.545976       -14.8568
  20   1.0000      -0.511361       -13.9148
  21   1.0000      -0.474226       -12.9044
  22   1.0000      -0.455665       -12.3993
  23   1.0000      -0.454619       -12.3708
  24   1.0000      -0.404627       -11.0104
  25   0.0000       0.028910         0.7867
  26   0.0000       0.036968         1.0059
  27   0.0000       0.040040         1.0896
  28   0.0000       0.041154         1.1199
  29   0.0000       0.063155         1.7185

                 SPIN DOWN ORBITALS
  NO   OCC          E(Eh)            E(eV)
   0   1.0000    -104.830284     -2852.5771
   1   1.0000     -91.977033     -2502.8223
   2   1.0000     -68.848256     -1873.4563
   3   1.0000     -10.558015      -287.2982
   4   1.0000      -8.979535      -244.3456
   5   1.0000      -8.024811      -218.3662
   6   1.0000      -8.023672      -218.3352
   7   1.0000      -8.023624      -218.3339
   8   1.0000      -6.661480      -181.2681
   9   1.0000      -6.660235      -181.2342
  10   1.0000      -6.644871      -180.8161
  11   1.0000      -6.191109      -168.4687
  12   1.0000      -4.298135      -116.9582
  13   1.0000      -4.297349      -116.9368
  14   1.0000      -4.297086      -116.9296
  15   1.0000      -1.103810       -30.0362
  16   1.0000      -0.898153       -24.4400
  17   1.0000      -0.703506       -19.1434
  18   1.0000      -0.544071       -14.8049
  19   1.0000      -0.542568       -14.7640
  20   1.0000      -0.503435       -13.6992
  21   1.0000      -0.458348       -12.4723
  22   1.0000      -0.447384       -12.1739
  23   1.0000      -0.386145       -10.5075
  24   0.0000      -0.019673        -0.5353
  25   0.0000       0.029152         0.7933
  26   0.0000       0.037678         1.0253
  27   0.0000       0.041268         1.1229
  28   0.0000       0.041497         1.1292

MULLIKEN ATOMIC CHARGES AND SPIN POPULATIONS
--------------------------------------------
   0 S :   -0.368659    1.045559
   1 Si:    1.285041   -0.078732
   2 Cl:   -0.534925   -0.001470
   3 H :   -0.190720    0.017336
   4 H :   -0.190737    0.017308
Sum of atomic charges         :    0.0000000

LOEWDIN ATOMIC CHARGES AND SPIN POPULATIONS
-------------------------------------------
   0 S :    0.683062    0.764630
   1 Si:   -0.750268    0.211345
   2 Cl:    0.791547   -0.001483
   3 H :   -0.362161    0.012766
   4 H :   -0.362180    0.012741

  Mayer bond orders larger than 0.100000
B(  0-S ,  1-Si) :   0.7966 B(  1-Si,  2-Cl) :   0.6043 B(  1-Si,  3-H ) :   0.9186
B(  1-Si,  4-H ) :   0.9186

MP2 TOTAL ENERGY:    -1147.745506490 Eh
FINAL SINGLE POINT ENERGY     -1147.745506490490

DIPOLE MOMENT
-------------
                                X             Y             Z
Electronic contribution:     -1.82077      -3.16274       0.00006
Nuclear contribution   :      1.99722       3.71247       0.00000
                        -----------------------------------------
Total Dipole Moment    :      0.17645       0.54972       0.00006
                        -----------------------------------------
Magnitude (a.u.)       :      0.57735
Magnitude (Debye)      :      1.46750

Rotational constants in cm-1:     0.409084     0.090253     0.075901
Rotational constants in MHz : 12264.022350  2705.705325  2275.461734

                             ****ORCA TERMINATED NORMALLY****
TOTAL RUN TIME: 0 days 0 hours 17 minutes 28 seconds 175 msec
