                         Program Version 5.0.3 -  RELEASE  -
|  1> !ri-mp2 aug-cc-pvtz aug-cc-pvtz/c tightscf
|  2> %pal nprocs 16 end
|  3> %maxcore 3800
|  4>
|  5> * xyz 0 1
|  6> C     0.258550    2.382485    0.824917
|  7> C     2.419735   -0.329563   -1.144869
|  8> C     0.651202   -1.608396    1.651249
|  9> C     0.344674    0.105814   -0.045876
| 10> C    -1.170238   -0.211734   -0.324776
| 11> O     0.585595    1.459026   -0.221890
| 12> O     1.018793   -0.603637   -1.020083
| 13> O     0.713817   -0.233280    1.257402
| 14> F    -1.581732    0.353567   -1.464232
| 15> F    -1.943092    0.265655    0.672940
| 16> F    -1.406607   -1.532928   -0.413131
| 17> H    -0.817668    2.438539    0.985805
| 18> H     0.620817    3.344736    0.473213
| 19> H     0.757167    2.116247    1.753875
| 20> H     2.924788   -0.411858   -0.181994
| 21> H     2.583857    0.662861   -1.559989
| 22> H     2.802661   -1.084794   -1.825432
| 23> H     1.042909   -2.260936    0.872164
| 24> H    -0.370179   -1.902674    1.893061
| 25> H     1.269351   -1.687276    2.541803
| 26> *
| 27>
| 28>                          ****END OF INPUT****

CARTESIAN COORDINATES (ANGSTROEM)
---------------------------------
  C      0.258550    2.382485    0.824917
  C      2.419735   -0.329563   -1.144869
  C      0.651202   -1.608396    1.651249
  C      0.344674    0.105814   -0.045876
  C     -1.170238   -0.211734   -0.324776
  O      0.585595    1.459026   -0.221890
  O      1.018793   -0.603637   -1.020083
  O      0.713817   -0.233280    1.257402
  F     -1.581732    0.353567   -1.464232
  F     -1.943092    0.265655    0.672940
  F     -1.406607   -1.532928   -0.413131
  H     -0.817668    2.438539    0.985805
  H      0.620817    3.344736    0.473213
  H      0.757167    2.116247    1.753875
  H      2.924788   -0.411858   -0.181994
  H      2.583857    0.662861   -1.559989
  H      2.802661   -1.084794   -1.825432
  H      1.042909   -2.260936    0.872164
  H     -0.370179   -1.902674    1.893061
  H      1.269351   -1.687276    2.541803

 Total Charge           Charge          ....    0
 Multiplicity           Mult            ....    1
 Number of Electrons    NEL             ....   90
 Basis Dimension        Dim             ....  713

ORBITAL ENERGIES
----------------

  NO   OCC          E(Eh)            E(eV)
   0   2.0000     -26.336721      -716.6586
   1   2.0000     -26.335901      -716.6363
   2   2.0000     -26.333565      -716.5727
   3   2.0000     -20.588710      -560.2473
   4   2.0000     -20.585284      -560.1540
   5   2.0000     -20.583823      -560.1143
   6   2.0000     -11.503419      -313.0239
   7   2.0000     -11.429108      -311.0018
   8   2.0000     -11.287005      -307.1350
   9   2.0000     -11.282452      -307.0111
  10   2.0000     -11.280769      -306.9653
  11   2.0000      -1.724678       -46.9309
  12   2.0000      -1.630463       -44.3671
  13   2.0000      -1.629769       -44.3483
  14   2.0000      -1.481633       -40.3173
  15   2.0000      -1.375072       -37.4176
  16   2.0000      -1.370348       -37.2891
  17   2.0000      -1.043443       -28.3935
  18   2.0000      -0.965473       -26.2719
  19   2.0000      -0.952119       -25.9085
  20   2.0000      -0.944532       -25.7020
  21   2.0000      -0.861197       -23.4343
  22   2.0000      -0.818818       -22.2812
  23   2.0000      -0.816972       -22.2309
  24   2.0000      -0.781667       -21.2702
  25   2.0000      -0.730914       -19.8892
  26   2.0000      -0.726424       -19.7670
  27   2.0000      -0.701617       -19.0920
  28   2.0000      -0.698696       -19.0125
  29   2.0000      -0.676654       -18.4127
  30   2.0000      -0.665373       -18.1057
  31   2.0000      -0.661904       -18.0113
  32   2.0000      -0.646116       -17.5817
  33   2.0000      -0.643003       -17.4970
  34   2.0000      -0.632677       -17.2160
  35   2.0000      -0.615133       -16.7386
  36   2.0000      -0.603949       -16.4343
  37   2.0000      -0.594285       -16.1713
  38   2.0000      -0.571988       -15.5646
  39   2.0000      -0.542007       -14.7488
  40   2.0000      -0.512575       -13.9479
  41   2.0000      -0.501875       -13.6567
  42   2.0000      -0.473283       -12.8787
  43   2.0000      -0.467712       -12.7271
  44   2.0000      -0.454524       -12.3682
  45   0.0000       0.026659         0.7254
  46   0.0000       0.035429         0.9641
  47   0.0000       0.037109         1.0098
  48   0.0000       0.043320         1.1788
  49   0.0000       0.053125         1.4456

MULLIKEN ATOMIC CHARGES
-----------------------
   0 C :   -0.957762
   1 C :   -0.994153
   2 C :   -0.954801
   3 C :    1.792181
   4 C :    1.048082
   5 O :   -0.601632
   6 O :   -0.699026
   7 O :   -0.561209
   8 F :   -0.430352
   9 F :   -0.459624
  10 F :   -0.449108
  11 H :    0.393477
  12 H :    0.319638
  13 H :    0.410352
  14 H :    0.366493
  15 H :    0.385543
  16 H :    0.341557
  17 H :    0.396756
  18 H :    0.346199
  19 H :    0.307389
Sum of atomic charges:   -0.0000000

LOEWDIN ATOMIC CHARGES
----------------------
   0 C :    0.361871
   1 C :    0.366069
   2 C :    0.352597
   3 C :   -1.168338
   4 C :   -1.480824
   5 O :    0.572594
   6 O :    0.563671
   7 O :    0.570622
   8 F :    0.517734
   9 F :    0.507630
  10 F :    0.511003
  11 H :   -0.193968
  12 H :   -0.184272
  13 H :   -0.196067
  14 H :   -0.178428
  15 H :   -0.183802
  16 H :   -0.182896
  17 H :   -0.186631
  18 H :   -0.187904
  19 H :   -0.180660

  Mayer bond orders larger than 0.100000
B(  0-C ,  5-O ) :   0.9832 B(  0-C , 11-H ) :   0.8415 B(  0-C , 12-H ) :   0.9771
B(  0-C , 13-H ) :   0.8318 B(  1-C ,  6-O ) :   0.9473 B(  1-C , 14-H ) :   0.8727
B(  1-C , 15-H ) :   0.8586 B(  1-C , 16-H ) :   0.9457 B(  2-C ,  7-O ) :   0.9412
B(  2-C , 17-H ) :   0.8289 B(  2-C , 18-H ) :   0.8809 B(  2-C , 19-H ) :   0.9845
B(  3-C ,  4-C ) :   0.8635 B(  3-C ,  5-O ) :   0.5348 B(  3-C ,  6-O ) :   0.5797
B(  3-C ,  7-O ) :   0.4044 B(  4-C ,  8-F ) :   0.7218 B(  4-C ,  9-F ) :   0.8259
B(  4-C , 10-F ) :   0.7559

MP2 TOTAL ENERGY:     -720.093358832 Eh
FINAL SINGLE POINT ENERGY      -720.093358831619

DIPOLE MOMENT
-------------
                                X             Y             Z
Electronic contribution:    -14.28438      -2.06335      -5.25424
Nuclear contribution   :     15.26079       2.06482       5.96262
                        -----------------------------------------
Total Dipole Moment    :      0.97641       0.00147       0.70837
                        -----------------------------------------
Magnitude (a.u.)       :      1.20631
Magnitude (Debye)      :      3.06619

Rotational constants in cm-1:     0.042251     0.034974     0.031600
Rotational constants in MHz :  1266.645534  1048.502502   947.358194

                             ****ORCA TERMINATED NORMALLY****
TOTAL RUN TIME: 0 days 0 hours 12 minutes 30 seconds 233 msec
