                         Program Version 5.0.3 -  RELEASE  -
|  1> !ri-mp2 aug-cc-pvtz aug-cc-pvtz/c tightscf
|  2> %pal nprocs 16 end
|  3>
|  4> * xyz 0 1
|  5> F      0.000000    1.080780   -0.696531
|  6> F      0.000000   -1.080780   -0.696531
|  7> C      0.000000    0.000000    0.067620
|  8> C      0.000000    0.000000    1.382761
|  9> H      0.000000    0.934350    1.917633
| 10> H      0.000000   -0.934350    1.917633
| 11> *
| 12>
| 13>                          ****END OF INPUT****

CARTESIAN COORDINATES (ANGSTROEM)
---------------------------------
  F      0.000000    1.080780   -0.696531
  F      0.000000   -1.080780   -0.696531
  C      0.000000    0.000000    0.067620
  C      0.000000    0.000000    1.382761
  H      0.000000    0.934350    1.917633
  H      0.000000   -0.934350    1.917633

 Total Charge           Charge          ....    0
 Multiplicity           Mult            ....    1
 Number of Electrons    NEL             ....   32
 Basis Dimension        Dim             ....  230

ORBITAL ENERGIES
----------------

  NO   OCC          E(Eh)            E(eV)
   0   2.0000     -26.348430      -716.9772
   1   2.0000     -26.348407      -716.9766
   2   2.0000     -11.429529      -311.0133
   3   2.0000     -11.245135      -305.9957
   4   2.0000      -1.703625       -46.3580
   5   2.0000      -1.638970       -44.5986
   6   2.0000      -1.074502       -29.2387
   7   2.0000      -0.886541       -24.1240
   8   2.0000      -0.802915       -21.8484
   9   2.0000      -0.762868       -20.7587
  10   2.0000      -0.752933       -20.4884
  11   2.0000      -0.690268       -18.7832
  12   2.0000      -0.668188       -18.1823
  13   2.0000      -0.640419       -17.4267
  14   2.0000      -0.600064       -16.3286
  15   2.0000      -0.395950       -10.7743
  16   0.0000       0.029586         0.8051
  17   0.0000       0.043339         1.1793
  18   0.0000       0.059635         1.6228
  19   0.0000       0.083573         2.2741
  20   0.0000       0.102424         2.7871

MULLIKEN ATOMIC CHARGES
-----------------------
   0 F :   -0.252263
   1 F :   -0.252263
   2 C :    0.769950
   3 C :   -1.129013
   4 H :    0.431794
   5 H :    0.431794
Sum of atomic charges:    0.0000000

LOEWDIN ATOMIC CHARGES
----------------------
   0 F :    0.481732
   1 F :    0.481732
   2 C :   -0.933799
   3 C :    0.465145
   4 H :   -0.247405
   5 H :   -0.247405

  Mayer bond orders larger than 0.100000
B(  0-F ,  1-F ) :  -0.1076 B(  0-F ,  2-C ) :   0.8146 B(  0-F ,  3-C ) :   0.1147
B(  1-F ,  2-C ) :   0.8146 B(  1-F ,  3-C ) :   0.1147 B(  2-C ,  3-C ) :   1.7183
B(  3-C ,  4-H ) :   0.8113 B(  3-C ,  5-H ) :   0.8113

MP2 TOTAL ENERGY:     -276.686597167 Eh
FINAL SINGLE POINT ENERGY      -276.686597167378

DIPOLE MOMENT
-------------
                                X             Y             Z
Electronic contribution:      0.00000      -0.00000      -4.27587
Nuclear contribution   :      0.00000       0.00000       4.89076
                        -----------------------------------------
Total Dipole Moment    :      0.00000      -0.00000       0.61489
                        -----------------------------------------
Magnitude (a.u.)       :      0.61489
Magnitude (Debye)      :      1.56291

Rotational constants in cm-1:     0.365338     0.347947     0.178215
Rotational constants in MHz : 10952.566714 10431.193372  5342.762024

                             ****ORCA TERMINATED NORMALLY****
TOTAL RUN TIME: 0 days 0 hours 1 minutes 5 seconds 660 msec
