                         Program Version 5.0.3 -  RELEASE  -
|  1> !ri-mp2 aug-cc-pvtz aug-cc-pvtz/c tightscf
|  2> %pal nprocs 16 end
|  3> %maxcore 3800
|  4>
|  5> * xyz 0 1
|  6> C     2.000783   -2.375333    0.000000
|  7> C     1.952841   -0.953690    0.000000
|  8> C     0.709392   -2.839143    0.000000
|  9> C     0.619213   -0.612080    0.000000
| 10> C    -0.282242    2.841230    0.000000
| 11> C     0.654875    1.876810    0.000000
| 12> C    -1.378739    0.841614    0.000000
| 13> N    -0.129515   -1.752458    0.000000
| 14> N    -1.520850    2.212219    0.000000
| 15> N     0.000000    0.643566    0.000000
| 16> O    -2.261036   -0.010039    0.000000
| 17> H     2.889351   -2.982383    0.000000
| 18> H     2.791003   -0.279563    0.000000
| 19> H     0.317417   -3.839971    0.000000
| 20> H    -0.176176    3.909258    0.000000
| 21> H     1.724825    1.950503    0.000000
| 22> H    -1.139214   -1.728251    0.000000
| 23> H    -2.423096    2.650993    0.000000
| 24> *
| 25>
| 26>                          ****END OF INPUT****

CARTESIAN COORDINATES (ANGSTROEM)
---------------------------------
  C      2.000783   -2.375333    0.000000
  C      1.952841   -0.953690    0.000000
  C      0.709392   -2.839143    0.000000
  C      0.619213   -0.612080    0.000000
  C     -0.282242    2.841230    0.000000
  C      0.654875    1.876810    0.000000
  C     -1.378739    0.841614    0.000000
  N     -0.129515   -1.752458    0.000000
  N     -1.520850    2.212219    0.000000
  N      0.000000    0.643566    0.000000
  O     -2.261036   -0.010039    0.000000
  H      2.889351   -2.982383    0.000000
  H      2.791003   -0.279563    0.000000
  H      0.317417   -3.839971    0.000000
  H     -0.176176    3.909258    0.000000
  H      1.724825    1.950503    0.000000
  H     -1.139214   -1.728251    0.000000
  H     -2.423096    2.650993    0.000000

 Total Charge           Charge          ....    0
 Multiplicity           Mult            ....    1
 Number of Electrons    NEL             ....   78
 Basis Dimension        Dim             ....  667

ORBITAL ENERGIES
----------------

  NO   OCC          E(Eh)            E(eV)
   0   2.0000     -20.528124      -558.5986
   1   2.0000     -15.634106      -425.4256
   2   2.0000     -15.622218      -425.1022
   3   2.0000     -15.598359      -424.4529
   4   2.0000     -11.394245      -310.0532
   5   2.0000     -11.306189      -307.6571
   6   2.0000     -11.290082      -307.2188
   7   2.0000     -11.285984      -307.1072
   8   2.0000     -11.247081      -306.0486
   9   2.0000     -11.211186      -305.0719
  10   2.0000     -11.210143      -305.0435
  11   2.0000      -1.420485       -38.6534
  12   2.0000      -1.330882       -36.2151
  13   2.0000      -1.301100       -35.4047
  14   2.0000      -1.225459       -33.3464
  15   2.0000      -1.047625       -28.5073
  16   2.0000      -1.038636       -28.2627
  17   2.0000      -0.982223       -26.7276
  18   2.0000      -0.873532       -23.7700
  19   2.0000      -0.858219       -23.3533
  20   2.0000      -0.790850       -21.5201
  21   2.0000      -0.771425       -20.9915
  22   2.0000      -0.741653       -20.1814
  23   2.0000      -0.719521       -19.5792
  24   2.0000      -0.669019       -18.2049
  25   2.0000      -0.653225       -17.7752
  26   2.0000      -0.634446       -17.2642
  27   2.0000      -0.626028       -17.0351
  28   2.0000      -0.608155       -16.5487
  29   2.0000      -0.595450       -16.2030
  30   2.0000      -0.578986       -15.7550
  31   2.0000      -0.553029       -15.0487
  32   2.0000      -0.536254       -14.5922
  33   2.0000      -0.503876       -13.7112
  34   2.0000      -0.482247       -13.1226
  35   2.0000      -0.455319       -12.3899
  36   2.0000      -0.350832        -9.5466
  37   2.0000      -0.336148        -9.1470
  38   2.0000      -0.274149        -7.4600
  39   0.0000       0.019869         0.5407
  40   0.0000       0.031013         0.8439
  41   0.0000       0.034882         0.9492
  42   0.0000       0.043100         1.1728
  43   0.0000       0.046174         1.2565

MULLIKEN ATOMIC CHARGES
-----------------------
   0 C :   -0.705993
   1 C :   -0.692808
   2 C :   -0.949569
   3 C :    0.888982
   4 C :   -0.422187
   5 C :   -0.766305
   6 C :   -0.022761
   7 N :   -0.046374
   8 N :   -0.120112
   9 N :    0.413908
  10 O :   -0.800890
  11 H :    0.431385
  12 H :    0.482234
  13 H :    0.683204
  14 H :    0.627071
  15 H :    0.610254
  16 H :    0.265823
  17 H :    0.124139
Sum of atomic charges:    0.0000000

LOEWDIN ATOMIC CHARGES
----------------------
   0 C :    0.173071
   1 C :    0.204948
   2 C :    0.126225
   3 C :   -0.302626
   4 C :    0.143445
   5 C :    0.140574
   6 C :   -0.732171
   7 N :    0.538515
   8 N :    0.543148
   9 N :    0.246343
  10 O :    0.453478
  11 H :   -0.199578
  12 H :   -0.201162
  13 H :   -0.182118
  14 H :   -0.175172
  15 H :   -0.173971
  16 H :   -0.349649
  17 H :   -0.253299

  Mayer bond orders larger than 0.100000
B(  0-C ,  1-C ) :   1.3356 B(  0-C ,  2-C ) :   1.0593 B(  0-C ,  3-C ) :  -0.1333
B(  0-C ,  7-N ) :  -0.2945 B(  0-C , 11-H ) :   0.9479 B(  1-C ,  2-C ) :   0.2229
B(  1-C ,  3-C ) :   0.8921 B(  1-C ,  4-C ) :   0.1191 B(  1-C ,  9-N ) :  -0.1592
B(  1-C , 12-H ) :   0.8937 B(  2-C ,  3-C ) :  -0.2272 B(  2-C ,  7-N ) :   1.1739
B(  2-C , 13-H ) :   0.4436 B(  3-C ,  4-C ) :  -0.1110 B(  3-C ,  5-C ) :  -0.1952
B(  3-C ,  6-C ) :  -0.2798 B(  3-C ,  7-N ) :   0.9446 B(  3-C ,  9-N ) :   0.9186
B(  4-C ,  5-C ) :   1.3538 B(  4-C ,  6-C ) :  -0.1354 B(  4-C ,  8-N ) :   1.0265
B(  4-C ,  9-N ) :  -0.3177 B(  4-C , 14-H ) :   0.6108 B(  4-C , 17-H ) :  -0.1004
B(  5-C ,  8-N ) :  -0.1031 B(  5-C ,  9-N ) :   0.9710 B(  5-C , 15-H ) :   0.7400
B(  6-C ,  8-N ) :   1.1868 B(  6-C ,  9-N ) :   1.0207 B(  6-C , 10-O ) :   1.4985
B(  7-N , 16-H ) :   0.9697 B(  8-N ,  9-N ) :  -0.2409 B(  8-N , 10-O ) :  -0.2287
B(  8-N , 17-H ) :   1.1510

MP2 TOTAL ENERGY:     -509.511992411 Eh
FINAL SINGLE POINT ENERGY      -509.511992410922

DIPOLE MOMENT
-------------
                                X             Y             Z
Electronic contribution:     -3.62779       1.74401      -0.00000
Nuclear contribution   :      3.86845      -0.30751       0.00000
                        -----------------------------------------
Total Dipole Moment    :      0.24065       1.43650      -0.00000
                        -----------------------------------------
Magnitude (a.u.)       :      1.45652
Magnitude (Debye)      :      3.70217

Rotational constants in cm-1:     0.093515     0.028449     0.021813
Rotational constants in MHz :  2803.506835   852.886277   653.942952

                             ****ORCA TERMINATED NORMALLY****
TOTAL RUN TIME: 0 days 0 hours 13 minutes 27 seconds 172 msec
