                         Program Version 5.0.3 -  RELEASE  -
|  1> !ri-mp2 aug-cc-pvtz aug-cc-pvtz/c tightscf
|  2> %pal nprocs 16 end
|  3>
|  4> * xyz 0 1
|  5> C     -1.932966    1.927138        0.000000
|  6> C      0.000000    0.897330        0.000000
|  7> C     -1.047973    0.007447        0.000000
|  8> C      1.374607    0.492230        0.000000
|  9> C      0.451293   -1.869624        0.000000
| 10> N     -2.246899    0.640758        0.000000
| 11> N     -0.597110    2.140003        0.000000
| 12> N     -0.830130   -1.346171        0.000000
| 13> N      1.466665   -0.911751        0.000000
| 14> O      2.362098    1.204052        0.000000
| 15> O      0.680205   -3.060162        0.000000
| 16> H     -2.646470    2.733790        0.000000
| 17> H     -0.115294    3.023307        0.000000
| 18> H     -1.595394   -2.001005        0.000000
| 19> H      2.401286   -1.294218        0.000000
| 20> *
| 21>
| 22>                          ****END OF INPUT****

CARTESIAN COORDINATES (ANGSTROEM)
---------------------------------
  C     -1.932966    1.927138    0.000000
  C      0.000000    0.897330    0.000000
  C     -1.047973    0.007447    0.000000
  C      1.374607    0.492230    0.000000
  C      0.451293   -1.869624    0.000000
  N     -2.246899    0.640758    0.000000
  N     -0.597110    2.140003    0.000000
  N     -0.830130   -1.346171    0.000000
  N      1.466665   -0.911751    0.000000
  O      2.362098    1.204052    0.000000
  O      0.680205   -3.060162    0.000000
  H     -2.646470    2.733790    0.000000
  H     -0.115294    3.023307    0.000000
  H     -1.595394   -2.001005    0.000000
  H      2.401286   -1.294218    0.000000

 Total Charge           Charge          ....    0
 Multiplicity           Mult            ....    1
 Number of Electrons    NEL             ....   78
 Basis Dimension        Dim             ....  598

ORBITAL ENERGIES
----------------

  NO   OCC          E(Eh)            E(eV)
   0   2.0000     -20.547307      -559.1206
   1   2.0000     -20.541749      -558.9694
   2   2.0000     -15.659874      -426.1268
   3   2.0000     -15.634383      -425.4332
   4   2.0000     -15.626925      -425.2302
   5   2.0000     -15.588368      -424.1811
   6   2.0000     -11.416740      -310.6653
   7   2.0000     -11.390271      -309.9450
   8   2.0000     -11.352713      -308.9230
   9   2.0000     -11.344482      -308.6990
  10   2.0000     -11.282828      -307.0214
  11   2.0000      -1.434999       -39.0483
  12   2.0000      -1.405645       -38.2495
  13   2.0000      -1.389340       -37.8059
  14   2.0000      -1.300469       -35.3875
  15   2.0000      -1.246907       -33.9301
  16   2.0000      -1.205020       -32.7903
  17   2.0000      -1.067352       -29.0441
  18   2.0000      -0.925916       -25.1955
  19   2.0000      -0.906583       -24.6694
  20   2.0000      -0.868810       -23.6415
  21   2.0000      -0.836963       -22.7749
  22   2.0000      -0.782158       -21.2836
  23   2.0000      -0.730082       -19.8666
  24   2.0000      -0.694970       -18.9111
  25   2.0000      -0.683782       -18.6067
  26   2.0000      -0.679778       -18.4977
  27   2.0000      -0.645007       -17.5515
  28   2.0000      -0.637034       -17.3346
  29   2.0000      -0.625834       -17.0298
  30   2.0000      -0.623606       -16.9692
  31   2.0000      -0.579228       -15.7616
  32   2.0000      -0.506272       -13.7764
  33   2.0000      -0.499108       -13.5814
  34   2.0000      -0.481211       -13.0944
  35   2.0000      -0.449921       -12.2430
  36   2.0000      -0.439386       -11.9563
  37   2.0000      -0.427776       -11.6404
  38   2.0000      -0.337641        -9.1877
  39   0.0000       0.015856         0.4315
  40   0.0000       0.035373         0.9625
  41   0.0000       0.037003         1.0069
  42   0.0000       0.047797         1.3006
  43   0.0000       0.055665         1.5147

MULLIKEN ATOMIC CHARGES
-----------------------
   0 C :   -0.754098
   1 C :    0.823682
   2 C :    0.851288
   3 C :    0.150804
   4 C :    0.132007
   5 N :   -0.627319
   6 N :   -0.250610
   7 N :    0.142045
   8 N :    0.176609
   9 O :   -0.889916
  10 O :   -0.777757
  11 H :    0.679286
  12 H :    0.066229
  13 H :    0.111077
  14 H :    0.166672
Sum of atomic charges:    0.0000000

LOEWDIN ATOMIC CHARGES
----------------------
   0 C :   -0.024416
   1 C :   -0.213679
   2 C :   -0.432002
   3 C :   -0.649659
   4 C :   -0.753468
   5 N :    0.421747
   6 N :    0.557148
   7 N :    0.575638
   8 N :    0.566353
   9 O :    0.431316
  10 O :    0.438099
  11 H :   -0.159983
  12 H :   -0.226071
  13 H :   -0.254396
  14 H :   -0.276627

  Mayer bond orders larger than 0.100000
B(  0-C ,  1-C ) :  -0.2298 B(  0-C ,  2-C ) :  -0.4497 B(  0-C ,  5-N ) :   1.5454
B(  0-C ,  6-N ) :   1.4679 B(  0-C , 11-H ) :   0.4375 B(  1-C ,  2-C ) :   1.1420
B(  1-C ,  5-N ) :   0.3100 B(  1-C ,  6-N ) :   0.7196 B(  1-C ,  8-N ) :  -0.3176
B(  1-C ,  9-O ) :   0.1749 B(  2-C ,  3-C ) :   0.6695 B(  2-C ,  4-C ) :  -0.3041
B(  2-C ,  5-N ) :   0.2113 B(  2-C ,  6-N ) :  -0.1887 B(  2-C ,  7-N ) :   0.8409
B(  2-C ,  8-N ) :   0.1075 B(  3-C ,  4-C ) :  -0.1937 B(  3-C ,  6-N ) :  -0.1277
B(  3-C ,  8-N ) :   1.0662 B(  3-C ,  9-O ) :   0.9798 B(  4-C ,  7-N ) :   1.0502
B(  4-C ,  8-N ) :   1.0265 B(  4-C , 10-O ) :   1.6248 B(  5-N ,  6-N ) :  -0.1018
B(  5-N ,  7-N ) :  -0.1913 B(  6-N , 12-H ) :   1.2133 B(  7-N , 10-O ) :  -0.1605
B(  7-N , 13-H ) :   1.0920 B(  8-N ,  9-O ) :  -0.1162 B(  8-N , 10-O ) :  -0.1092
B(  8-N , 14-H ) :   1.0297

MP2 TOTAL ENERGY:     -561.509605093 Eh
FINAL SINGLE POINT ENERGY      -561.509605092861

DIPOLE MOMENT
-------------
                                X             Y             Z
Electronic contribution:      0.69911      -0.78130      -0.00000
Nuclear contribution   :     -1.84986       2.34564       0.00000
                        -----------------------------------------
Total Dipole Moment    :     -1.15075       1.56435      -0.00000
                        -----------------------------------------
Magnitude (a.u.)       :      1.94201
Magnitude (Debye)      :      4.93620

Rotational constants in cm-1:     0.064513     0.037375     0.023665
Rotational constants in MHz :  1934.061651  1120.468307   709.456058

                             ****ORCA TERMINATED NORMALLY****
TOTAL RUN TIME: 0 days 0 hours 8 minutes 35 seconds 578 msec
