                         Program Version 5.0.3 -  RELEASE  -
|  1> !ri-mp2 aug-cc-pvtz aug-cc-pvtz/c tightscf
|  2> %pal nprocs 16 end
|  3>
|  4> * xyz 0 1
|  5> S      0.913405   -0.731150   -0.602876
|  6> S     -1.659560    0.749648   -0.498267
|  7> N      3.513666   -0.356225    0.501355
|  8> N     -2.753361   -1.506382    0.868888
|  9> C      0.061580    0.725895    0.003060
| 10> C      2.453147   -0.497661    0.065289
| 11> C     -2.270244   -0.603474    0.334802
| 12> C      0.589938    1.764744    0.634480
| 13> H      1.649607    1.825737    0.840445
| 14> H     -0.039790    2.579515    0.960377
| 15> *
| 16>
| 17>                          ****END OF INPUT****

CARTESIAN COORDINATES (ANGSTROEM)
---------------------------------
  S      0.913405   -0.731150   -0.602876
  S     -1.659560    0.749648   -0.498267
  N      3.513666   -0.356225    0.501355
  N     -2.753361   -1.506382    0.868888
  C      0.061580    0.725895    0.003060
  C      2.453147   -0.497661    0.065289
  C     -2.270244   -0.603474    0.334802
  C      0.589938    1.764744    0.634480
  H      1.649607    1.825737    0.840445
  H     -0.039790    2.579515    0.960377

 Total Charge           Charge          ....    0
 Multiplicity           Mult            ....    1
 Number of Electrons    NEL             ....   72
 Basis Dimension        Dim             ....  422

ORBITAL ENERGIES
----------------

  NO   OCC          E(Eh)            E(eV)
   0   2.0000     -92.056364     -2504.9810
   1   2.0000     -92.053845     -2504.9125
   2   2.0000     -15.607991      -424.7150
   3   2.0000     -15.603987      -424.6061
   4   2.0000     -11.359671      -309.1124
   5   2.0000     -11.319530      -308.0201
   6   2.0000     -11.315899      -307.9213
   7   2.0000     -11.296436      -307.3916
   8   2.0000      -9.055071      -246.4010
   9   2.0000      -9.052838      -246.3402
  10   2.0000      -6.736395      -183.3066
  11   2.0000      -6.735000      -183.2687
  12   2.0000      -6.734244      -183.2481
  13   2.0000      -6.733990      -183.2412
  14   2.0000      -6.732602      -183.2034
  15   2.0000      -6.731581      -183.1756
  16   2.0000      -1.256286       -34.1853
  17   2.0000      -1.250951       -34.0401
  18   2.0000      -1.178683       -32.0736
  19   2.0000      -1.069623       -29.1059
  20   2.0000      -1.035172       -28.1685
  21   2.0000      -0.834282       -22.7020
  22   2.0000      -0.732256       -19.9257
  23   2.0000      -0.707344       -19.2478
  24   2.0000      -0.656781       -17.8719
  25   2.0000      -0.611359       -16.6359
  26   2.0000      -0.584729       -15.9113
  27   2.0000      -0.577870       -15.7246
  28   2.0000      -0.559000       -15.2112
  29   2.0000      -0.555010       -15.1026
  30   2.0000      -0.547502       -14.8983
  31   2.0000      -0.498329       -13.5602
  32   2.0000      -0.482384       -13.1263
  33   2.0000      -0.475323       -12.9342
  34   2.0000      -0.414819       -11.2878
  35   2.0000      -0.385507       -10.4902
  36   0.0000       0.022046         0.5999
  37   0.0000       0.044027         1.1980
  38   0.0000       0.044762         1.2180
  39   0.0000       0.049605         1.3498
  40   0.0000       0.059093         1.6080

MULLIKEN ATOMIC CHARGES
-----------------------
   0 S :    0.053292
   1 S :   -0.031158
   2 N :   -0.458682
   3 N :   -0.450776
   4 C :    0.588054
   5 C :    0.232736
   6 C :    0.284101
   7 C :   -1.106987
   8 H :    0.516838
   9 H :    0.372582
Sum of atomic charges:    0.0000000

LOEWDIN ATOMIC CHARGES
----------------------
   0 S :    1.116042
   1 S :    1.095712
   2 N :    0.172865
   3 N :    0.150536
   4 C :   -0.921636
   5 C :   -0.755847
   6 C :   -0.759082
   7 C :    0.378474
   8 H :   -0.244461
   9 H :   -0.232603

  Mayer bond orders larger than 0.100000
B(  0-S ,  4-C ) :   0.9017 B(  0-S ,  5-C ) :   1.0412 B(  1-S ,  4-C ) :   1.0322
B(  1-S ,  6-C ) :   1.0664 B(  1-S ,  9-H ) :  -0.1201 B(  2-N ,  5-C ) :   2.4667
B(  3-N ,  6-C ) :   2.4637 B(  4-C ,  7-C ) :   1.3679 B(  7-C ,  8-H ) :   0.6968
B(  7-C ,  9-H ) :   0.9666

MP2 TOTAL ENERGY:    -1057.999239743 Eh
FINAL SINGLE POINT ENERGY     -1057.999239743141

DIPOLE MOMENT
-------------
                                X             Y             Z
Electronic contribution:     -1.79780      -2.76054      -2.34569
Nuclear contribution   :      1.55702       4.17829       1.75247
                        -----------------------------------------
Total Dipole Moment    :     -0.24079       1.41775      -0.59322
                        -----------------------------------------
Magnitude (a.u.)       :      1.55561
Magnitude (Debye)      :      3.95404

Rotational constants in cm-1:     0.098429     0.029231     0.025341
Rotational constants in MHz :  2950.829160   876.337826   759.716011

                             ****ORCA TERMINATED NORMALLY****
TOTAL RUN TIME: 0 days 0 hours 3 minutes 35 seconds 879 msec
