                         Program Version 5.0.3 -  RELEASE  -
|  1> !ri-mp2 aug-cc-pvtz aug-cc-pvtz/c tightscf
|  2> %pal nprocs 16 end
|  3>
|  4> * xyz 0 1
|  5> C     -1.663197    0.594398    0.145760
|  6> C     -1.313787   -0.870942    0.411302
|  7> C     -0.347274    1.331041   -0.152189
|  8> N     -0.238792   -1.138186   -0.555395
|  9> O      1.706481   -0.033622    0.889358
| 10> S      0.987654    0.059920   -0.421492
| 11> H     -2.320976    0.654479   -0.720214
| 12> H     -2.180873    1.039574    0.994418
| 13> H     -0.990263   -1.021403    1.445604
| 14> H     -2.153940   -1.534637    0.209646
| 15> H     -0.400187    1.966309   -1.033577
| 16> H      0.034328    1.907959    0.686849
| 17> H      0.174693   -2.061706   -0.495193
| 18> *
| 19>
| 20>                          ****END OF INPUT****

CARTESIAN COORDINATES (ANGSTROEM)
---------------------------------
  C     -1.663197    0.594398    0.145760
  C     -1.313787   -0.870942    0.411302
  C     -0.347274    1.331041   -0.152189
  N     -0.238792   -1.138186   -0.555395
  O      1.706481   -0.033622    0.889358
  S      0.987654    0.059920   -0.421492
  H     -2.320976    0.654479   -0.720214
  H     -2.180873    1.039574    0.994418
  H     -0.990263   -1.021403    1.445604
  H     -2.153940   -1.534637    0.209646
  H     -0.400187    1.966309   -1.033577
  H      0.034328    1.907959    0.686849
  H      0.174693   -2.061706   -0.495193

 Total Charge           Charge          ....    0
 Multiplicity           Mult            ....    1
 Number of Electrons    NEL             ....   56
 Basis Dimension        Dim             ....  441

ORBITAL ENERGIES
----------------

  NO   OCC          E(Eh)            E(eV)
   0   2.0000     -92.088568     -2505.8573
   1   2.0000     -20.509134      -558.0819
   2   2.0000     -15.587721      -424.1635
   3   2.0000     -11.273657      -306.7718
   4   2.0000     -11.266665      -306.5815
   5   2.0000     -11.249073      -306.1028
   6   2.0000      -9.071303      -246.8427
   7   2.0000      -6.752910      -183.7560
   8   2.0000      -6.752355      -183.7409
   9   2.0000      -6.751097      -183.7067
  10   2.0000      -1.347341       -36.6630
  11   2.0000      -1.226980       -33.3878
  12   2.0000      -1.061195       -28.8766
  13   2.0000      -0.988739       -26.9050
  14   2.0000      -0.831284       -22.6204
  15   2.0000      -0.818737       -22.2790
  16   2.0000      -0.702130       -19.1059
  17   2.0000      -0.678820       -18.4716
  18   2.0000      -0.621169       -16.9029
  19   2.0000      -0.590461       -16.0672
  20   2.0000      -0.562787       -15.3142
  21   2.0000      -0.555685       -15.1209
  22   2.0000      -0.545949       -14.8560
  23   2.0000      -0.514961       -14.0128
  24   2.0000      -0.500353       -13.6153
  25   2.0000      -0.449192       -12.2231
  26   2.0000      -0.403820       -10.9885
  27   2.0000      -0.374851       -10.2002
  28   0.0000       0.025389         0.6909
  29   0.0000       0.034439         0.9371
  30   0.0000       0.038176         1.0388
  31   0.0000       0.042879         1.1668
  32   0.0000       0.055080         1.4988

MULLIKEN ATOMIC CHARGES
-----------------------
   0 C :   -0.563858
   1 C :   -0.256991
   2 C :   -0.474678
   3 N :   -0.351466
   4 O :   -0.938759
   5 S :    0.755867
   6 H :    0.247883
   7 H :    0.350773
   8 H :    0.293237
   9 H :    0.346507
  10 H :    0.318268
  11 H :    0.253617
  12 H :    0.019600
Sum of atomic charges:    0.0000000

LOEWDIN ATOMIC CHARGES
----------------------
   0 C :    0.246767
   1 C :    0.103965
   2 C :    0.159268
   3 N :    0.307774
   4 O :   -0.186360
   5 S :    0.792265
   6 H :   -0.158246
   7 H :   -0.149935
   8 H :   -0.151978
   9 H :   -0.151625
  10 H :   -0.209628
  11 H :   -0.220106
  12 H :   -0.382161

  Mayer bond orders larger than 0.100000
B(  0-C ,  1-C ) :   0.9553 B(  0-C ,  2-C ) :   0.9772 B(  0-C ,  6-H ) :   0.9802
B(  0-C ,  7-H ) :   0.8619 B(  1-C ,  3-N ) :   0.7284 B(  1-C ,  8-H ) :   0.9617
B(  1-C ,  9-H ) :   0.9050 B(  2-C ,  5-S ) :   0.8715 B(  2-C , 10-H ) :   0.9014
B(  2-C , 11-H ) :   0.9483 B(  3-N ,  5-S ) :   0.9181 B(  3-N , 12-H ) :   1.0060
B(  4-O ,  5-S ) :   1.3614

MP2 TOTAL ENERGY:     -645.748455605 Eh
FINAL SINGLE POINT ENERGY      -645.748455604741

DIPOLE MOMENT
-------------
                                X             Y             Z
Electronic contribution:      6.37502      -0.86736      -1.62518
Nuclear contribution   :     -7.84347       0.94167       1.11148
                        -----------------------------------------
Total Dipole Moment    :     -1.46845       0.07431      -0.51370
                        -----------------------------------------
Magnitude (a.u.)       :      1.55749
Magnitude (Debye)      :      3.95882

Rotational constants in cm-1:     0.167978     0.093523     0.076859
Rotational constants in MHz :  5035.858093  2803.756584  2304.179496

                             ****ORCA TERMINATED NORMALLY****
TOTAL RUN TIME: 0 days 0 hours 3 minutes 24 seconds 191 msec
