                         Program Version 5.0.3 -  RELEASE  -
|  1> !ri-mp2 aug-cc-pvtz aug-cc-pvtz/c tightscf
|  2> %pal nprocs 16 end
|  3>
|  4> * xyz 0 1
|  5> S      0.104910   -0.330209    1.416746
|  6> S      0.104910   -0.330209   -1.416746
|  7> N     -0.487995   -1.151970    0.000000
|  8> C      0.104910    1.282613    0.665107
|  9> C      0.104910    1.282613   -0.665107
| 10> H      0.150997    2.157376    1.295596
| 11> H      0.150997    2.157376   -1.295596
| 12> H     -1.502056   -1.075624    0.000000
| 13> *
| 14>
| 15>                          ****END OF INPUT****

CARTESIAN COORDINATES (ANGSTROEM)
---------------------------------
  S      0.104910   -0.330209    1.416746
  S      0.104910   -0.330209   -1.416746
  N     -0.487995   -1.151970    0.000000
  C      0.104910    1.282613    0.665107
  C      0.104910    1.282613   -0.665107
  H      0.150997    2.157376    1.295596
  H      0.150997    2.157376   -1.295596
  H     -1.502056   -1.075624    0.000000

 Total Charge           Charge          ....    0
 Multiplicity           Mult            ....    1
 Number of Electrons    NEL             ....   54
 Basis Dimension        Dim             ....  307

ORBITAL ENERGIES
----------------

  NO   OCC          E(Eh)            E(eV)
   0   2.0000     -92.000758     -2503.4679
   1   2.0000     -92.000757     -2503.4679
   2   2.0000     -15.619136      -425.0183
   3   2.0000     -11.279616      -306.9340
   4   2.0000     -11.277867      -306.8864
   5   2.0000      -8.997670      -244.8390
   6   2.0000      -8.997661      -244.8388
   7   2.0000      -6.678739      -181.7377
   8   2.0000      -6.678737      -181.7377
   9   2.0000      -6.677664      -181.7085
  10   2.0000      -6.677658      -181.7083
  11   2.0000      -6.676475      -181.6761
  12   2.0000      -6.676473      -181.6761
  13   2.0000      -1.245257       -33.8852
  14   2.0000      -1.079884       -29.3851
  15   2.0000      -0.998273       -27.1644
  16   2.0000      -0.853605       -23.2278
  17   2.0000      -0.771357       -20.9897
  18   2.0000      -0.683794       -18.6070
  19   2.0000      -0.655869       -17.8471
  20   2.0000      -0.557200       -15.1622
  21   2.0000      -0.544155       -14.8072
  22   2.0000      -0.502861       -13.6835
  23   2.0000      -0.462813       -12.5938
  24   2.0000      -0.434924       -11.8349
  25   2.0000      -0.387858       -10.5542
  26   2.0000      -0.311240        -8.4693
  27   0.0000       0.027886         0.7588
  28   0.0000       0.037734         1.0268
  29   0.0000       0.040082         1.0907
  30   0.0000       0.064007         1.7417
  31   0.0000       0.073006         1.9866

MULLIKEN ATOMIC CHARGES
-----------------------
   0 S :    0.059241
   1 S :    0.059241
   2 N :   -0.355507
   3 C :   -0.390156
   4 C :   -0.390156
   5 H :    0.452603
   6 H :    0.452603
   7 H :    0.112132
Sum of atomic charges:    0.0000000

LOEWDIN ATOMIC CHARGES
----------------------
   0 S :    0.970008
   1 S :    0.970008
   2 N :   -0.234551
   3 C :   -0.308342
   4 C :   -0.308342
   5 H :   -0.276895
   6 H :   -0.276895
   7 H :   -0.534991

  Mayer bond orders larger than 0.100000
B(  0-S ,  2-N ) :   0.8985 B(  0-S ,  3-C ) :   0.9543 B(  1-S ,  2-N ) :   0.8985
B(  1-S ,  4-C ) :   0.9543 B(  2-N ,  7-H ) :   0.9655 B(  3-C ,  4-C ) :   1.6929
B(  3-C ,  5-H ) :   0.7968 B(  4-C ,  6-H ) :   0.7968

MP2 TOTAL ENERGY:     -927.896006590 Eh
FINAL SINGLE POINT ENERGY      -927.896006589782

DIPOLE MOMENT
-------------
                                X             Y             Z
Electronic contribution:      0.77040      -2.24842      -0.00000
Nuclear contribution   :     -1.16620       3.13655       0.00000
                        -----------------------------------------
Total Dipole Moment    :     -0.39580       0.88812      -0.00000
                        -----------------------------------------
Magnitude (a.u.)       :      0.97233
Magnitude (Debye)      :      2.47146

Rotational constants in cm-1:     0.205181     0.114253     0.076614
Rotational constants in MHz :  6151.174969  3425.231720  2296.822132

                             ****ORCA TERMINATED NORMALLY****
TOTAL RUN TIME: 0 days 0 hours 1 minutes 53 seconds 961 msec
