                         Program Version 5.0.3 -  RELEASE  -
|  1> !ri-mp2 aug-cc-pvtz aug-cc-pvtz/c tightscf
|  2> %pal nprocs 16 end
|  3>
|  4> * xyz 0 1
|  5> C     0.599705     1.744134       0.000000
|  6> C    -0.599705    -1.744134       0.000000
|  7> C     0.599705     0.409791       0.000000
|  8> C    -0.599705    -0.409791       0.000000
|  9> H     1.519840     2.311174       0.000000
| 10> H    -0.324442     2.309081       0.000000
| 11> H    -1.519840    -2.311174       0.000000
| 12> H     0.324442    -2.309081       0.000000
| 13> H     1.546374    -0.121919       0.000000
| 14> H    -1.546374     0.121919       0.000000
| 15> *
| 16>
| 17>                          ****END OF INPUT****

CARTESIAN COORDINATES (ANGSTROEM)
---------------------------------
  C      0.599705    1.744134    0.000000
  C     -0.599705   -1.744134    0.000000
  C      0.599705    0.409791    0.000000
  C     -0.599705   -0.409791    0.000000
  H      1.519840    2.311174    0.000000
  H     -0.324442    2.309081    0.000000
  H     -1.519840   -2.311174    0.000000
  H      0.324442   -2.309081    0.000000
  H      1.546374   -0.121919    0.000000
  H     -1.546374    0.121919    0.000000

 Total Charge           Charge          ....    0
 Multiplicity           Mult            ....    1
 Number of Electrons    NEL             ....   30
 Basis Dimension        Dim             ....  322

ORBITAL ENERGIES
----------------

  NO   OCC          E(Eh)            E(eV)
   0   2.0000     -11.239556      -305.8439
   1   2.0000     -11.238706      -305.8207
   2   2.0000     -11.229450      -305.5689
   3   2.0000     -11.229444      -305.5687
   4   2.0000      -1.094364       -29.7792
   5   2.0000      -1.002637       -27.2831
   6   2.0000      -0.828903       -22.5556
   7   2.0000      -0.755582       -20.5604
   8   2.0000      -0.646698       -17.5976
   9   2.0000      -0.637075       -17.3357
  10   2.0000      -0.560255       -15.2453
  11   2.0000      -0.545265       -14.8374
  12   2.0000      -0.494429       -13.4541
  13   2.0000      -0.446145       -12.1402
  14   2.0000      -0.325148        -8.8477
  15   0.0000       0.031501         0.8572
  16   0.0000       0.034307         0.9336
  17   0.0000       0.037858         1.0302
  18   0.0000       0.054090         1.4719
  19   0.0000       0.056116         1.5270

MULLIKEN ATOMIC CHARGES
-----------------------
   0 C :   -1.170673
   1 C :   -1.170673
   2 C :    0.049563
   3 C :    0.049563
   4 H :    0.427020
   5 H :    0.358993
   6 H :    0.427020
   7 H :    0.358993
   8 H :    0.335096
   9 H :    0.335096
Sum of atomic charges:   -0.0000000

LOEWDIN ATOMIC CHARGES
----------------------
   0 C :    0.521024
   1 C :    0.521024
   2 C :    0.128577
   3 C :    0.128577
   4 H :   -0.228096
   5 H :   -0.223593
   6 H :   -0.228096
   7 H :   -0.223593
   8 H :   -0.197912
   9 H :   -0.197912

  Mayer bond orders larger than 0.100000
B(  0-C ,  2-C ) :   1.3718 B(  0-C ,  3-C ) :  -0.1033 B(  0-C ,  4-H ) :   0.8069
B(  0-C ,  5-H ) :   0.9692 B(  1-C ,  2-C ) :  -0.1033 B(  1-C ,  3-C ) :   1.3718
B(  1-C ,  6-H ) :   0.8069 B(  1-C ,  7-H ) :   0.9692 B(  2-C ,  3-C ) :   0.5395
B(  2-C ,  8-H ) :   1.0068 B(  3-C ,  9-H ) :   1.0068

MP2 TOTAL ENERGY:     -155.638214319 Eh
FINAL SINGLE POINT ENERGY      -155.638214318555

DIPOLE MOMENT
-------------
                                X             Y             Z
Electronic contribution:     -0.00000      -0.00000      -0.00000
Nuclear contribution   :      0.00000       0.00000       0.00000
                        -----------------------------------------
Total Dipole Moment    :     -0.00000      -0.00000      -0.00000
                        -----------------------------------------
Magnitude (a.u.)       :      0.00000
Magnitude (Debye)      :      0.00000

Rotational constants in cm-1:     1.422050     0.148172     0.134190
Rotational constants in MHz : 42632.001405  4442.089577  4022.917175

                             ****ORCA TERMINATED NORMALLY****
TOTAL RUN TIME: 0 days 0 hours 1 minutes 49 seconds 218 msec
