                         Program Version 5.0.3 -  RELEASE  -
|  1> !ri-mp2 aug-cc-pvtz aug-cc-pvtz/c tightscf
|  2> %pal nprocs 16 end
|  3>
|  4> * xyz 0 1
|  5> C     0.000000     3.930707   -0.592405
|  6> C     0.000000    -3.930707   -0.592405
|  7> C     0.000000     2.732696    0.357453
|  8> C     0.000000    -2.732696    0.357453
|  9> C     0.000000     1.402662   -0.390073
| 10> C     0.000000    -1.402662   -0.390073
| 11> S     0.000000     0.000000    0.786742
| 12> H    -0.881478     3.925924   -1.236374
| 13> H     0.000000     4.869546   -0.037529
| 14> H     0.881478     3.925924   -1.236374
| 15> H     0.881478    -3.925924   -1.236374
| 16> H     0.000000    -4.869546   -0.037529
| 17> H    -0.881478    -3.925924   -1.236374
| 18> H    -0.875086     2.778860    1.009600
| 19> H     0.875086     2.778860    1.009600
| 20> H     0.875086    -2.778860    1.009600
| 21> H    -0.875086    -2.778860    1.009600
| 22> H    -0.883620     1.324451   -1.026352
| 23> H     0.883620     1.324451   -1.026352
| 24> H     0.883620    -1.324451   -1.026352
| 25> H    -0.883620    -1.324451   -1.026352
| 26> *
| 27>
| 28>                          ****END OF INPUT****

CARTESIAN COORDINATES (ANGSTROEM)
---------------------------------
  C      0.000000    3.930707   -0.592405
  C      0.000000   -3.930707   -0.592405
  C      0.000000    2.732696    0.357453
  C      0.000000   -2.732696    0.357453
  C      0.000000    1.402662   -0.390073
  C      0.000000   -1.402662   -0.390073
  S      0.000000    0.000000    0.786742
  H     -0.881478    3.925924   -1.236374
  H      0.000000    4.869546   -0.037529
  H      0.881478    3.925924   -1.236374
  H      0.881478   -3.925924   -1.236374
  H      0.000000   -4.869546   -0.037529
  H     -0.881478   -3.925924   -1.236374
  H     -0.875086    2.778860    1.009600
  H      0.875086    2.778860    1.009600
  H      0.875086   -2.778860    1.009600
  H     -0.875086   -2.778860    1.009600
  H     -0.883620    1.324451   -1.026352
  H      0.883620    1.324451   -1.026352
  H      0.883620   -1.324451   -1.026352
  H     -0.883620   -1.324451   -1.026352

 Total Charge           Charge          ....    0
 Multiplicity           Mult            ....    1
 Number of Electrons    NEL             ....   66
 Basis Dimension        Dim             ....  648

ORBITAL ENERGIES
----------------

  NO   OCC          E(Eh)            E(eV)
   0   2.0000     -91.935502     -2501.6922
   1   2.0000     -11.250678      -306.1465
   2   2.0000     -11.250669      -306.1463
   3   2.0000     -11.226084      -305.4773
   4   2.0000     -11.226083      -305.4772
   5   2.0000     -11.216797      -305.2246
   6   2.0000     -11.216797      -305.2246
   7   2.0000      -8.935758      -243.1543
   8   2.0000      -6.616986      -180.0574
   9   2.0000      -6.616139      -180.0343
  10   2.0000      -6.615167      -180.0078
  11   2.0000      -1.092121       -29.7181
  12   2.0000      -1.064003       -28.9530
  13   2.0000      -0.993732       -27.0408
  14   2.0000      -0.928329       -25.2611
  15   2.0000      -0.846695       -23.0397
  16   2.0000      -0.801210       -21.8020
  17   2.0000      -0.783692       -21.3253
  18   2.0000      -0.648579       -17.6487
  19   2.0000      -0.636041       -17.3075
  20   2.0000      -0.588938       -16.0258
  21   2.0000      -0.588894       -16.0246
  22   2.0000      -0.566223       -15.4077
  23   2.0000      -0.562611       -15.3094
  24   2.0000      -0.542389       -14.7592
  25   2.0000      -0.525286       -14.2938
  26   2.0000      -0.497623       -13.5410
  27   2.0000      -0.486367       -13.2347
  28   2.0000      -0.483222       -13.1491
  29   2.0000      -0.476725       -12.9724
  30   2.0000      -0.442065       -12.0292
  31   2.0000      -0.419599       -11.4179
  32   2.0000      -0.330516        -8.9938
  33   0.0000       0.029849         0.8122
  34   0.0000       0.029987         0.8160
  35   0.0000       0.037499         1.0204
  36   0.0000       0.038396         1.0448
  37   0.0000       0.047299         1.2871

MULLIKEN ATOMIC CHARGES
-----------------------
   0 C :   -0.956684
   1 C :   -0.956684
   2 C :   -0.533764
   3 C :   -0.533764
   4 C :   -0.239273
   5 C :   -0.239273
   6 S :   -0.334198
   7 H :    0.275833
   8 H :    0.284588
   9 H :    0.275833
  10 H :    0.275833
  11 H :    0.284588
  12 H :    0.275833
  13 H :    0.257435
  14 H :    0.257435
  15 H :    0.257435
  16 H :    0.257435
  17 H :    0.272849
  18 H :    0.272849
  19 H :    0.272849
  20 H :    0.272849
Sum of atomic charges:   -0.0000000

LOEWDIN ATOMIC CHARGES
----------------------
   0 C :    0.572740
   1 C :    0.572740
   2 C :    0.169433
   3 C :    0.169433
   4 C :   -0.076783
   5 C :   -0.076783
   6 S :    1.223520
   7 H :   -0.172379
   8 H :   -0.173385
   9 H :   -0.172379
  10 H :   -0.172379
  11 H :   -0.173385
  12 H :   -0.172379
  13 H :   -0.165754
  14 H :   -0.165754
  15 H :   -0.165754
  16 H :   -0.165754
  17 H :   -0.213750
  18 H :   -0.213750
  19 H :   -0.213750
  20 H :   -0.213750

  Mayer bond orders larger than 0.100000
B(  0-C ,  2-C ) :   0.9062 B(  0-C ,  7-H ) :   0.9549 B(  0-C ,  8-H ) :   0.9666
B(  0-C ,  9-H ) :   0.9549 B(  1-C ,  3-C ) :   0.9062 B(  1-C , 10-H ) :   0.9549
B(  1-C , 11-H ) :   0.9666 B(  1-C , 12-H ) :   0.9549 B(  2-C ,  4-C ) :   0.9282
B(  2-C , 13-H ) :   0.9628 B(  2-C , 14-H ) :   0.9628 B(  3-C ,  5-C ) :   0.9282
B(  3-C , 15-H ) :   0.9628 B(  3-C , 16-H ) :   0.9628 B(  4-C ,  6-S ) :   0.9579
B(  4-C , 17-H ) :   0.9114 B(  4-C , 18-H ) :   0.9114 B(  5-C ,  6-S ) :   0.9579
B(  5-C , 19-H ) :   0.9114 B(  5-C , 20-H ) :   0.9114

MP2 TOTAL ENERGY:     -634.254716194 Eh
FINAL SINGLE POINT ENERGY      -634.254716193995

DIPOLE MOMENT
-------------
                                X             Y             Z
Electronic contribution:      0.00000       0.00000       4.70400
Nuclear contribution   :      0.00000       0.00000      -5.35891
                        -----------------------------------------
Total Dipole Moment    :      0.00000       0.00000      -0.65491
                        -----------------------------------------
Magnitude (a.u.)       :      0.65491
Magnitude (Debye)      :      1.66466

Rotational constants in cm-1:     0.287318     0.022318     0.021198
Rotational constants in MHz :  8613.575677   669.087498   635.488295

                             ****ORCA TERMINATED NORMALLY****
TOTAL RUN TIME: 0 days 0 hours 6 minutes 48 seconds 747 msec
