                         Program Version 5.0.3 -  RELEASE  -
|  1> !ri-mp2 aug-cc-pvtz aug-cc-pvtz/c tightscf
|  2> %pal nprocs 16 end
|  3>
|  4> * xyz 0 1
|  5> C      0.430741    0.570041    0.000000
|  6> C     -0.305104    0.279695    1.300643
|  7> C     -0.305104    0.279695   -1.300643
|  8> Cl     0.726567    2.382023    0.000000
|  9> Cl    -0.305104   -1.475215   -1.736081
| 10> Cl    -0.305104   -1.475215    1.736081
| 11> H      1.416453    0.115060    0.000000
| 12> H      0.183833    0.788707   -2.122928
| 13> H      0.183833    0.788707    2.122928
| 14> H     -1.342701    0.596935   -1.244192
| 15> H     -1.342701    0.596935    1.244192
| 16> *
| 17>
| 18>                          ****END OF INPUT****

CARTESIAN COORDINATES (ANGSTROEM)
---------------------------------
  C      0.430741    0.570041    0.000000
  C     -0.305104    0.279695    1.300643
  C     -0.305104    0.279695   -1.300643
  Cl     0.726567    2.382023    0.000000
  Cl    -0.305104   -1.475215   -1.736081
  Cl    -0.305104   -1.475215    1.736081
  H      1.416453    0.115060    0.000000
  H      0.183833    0.788707   -2.122928
  H      0.183833    0.788707    2.122928
  H     -1.342701    0.596935   -1.244192
  H     -1.342701    0.596935    1.244192

 Total Charge           Charge          ....    0
 Multiplicity           Mult            ....    1
 Number of Electrons    NEL             ....   74
 Basis Dimension        Dim             ....  403

ORBITAL ENERGIES
----------------

  NO   OCC          E(Eh)            E(eV)
   0   2.0000    -104.849208     -2853.0920
   1   2.0000    -104.837833     -2852.7825
   2   2.0000    -104.837833     -2852.7825
   3   2.0000     -11.340024      -308.5777
   4   2.0000     -11.320460      -308.0454
   5   2.0000     -11.320437      -308.0447
   6   2.0000     -10.573287      -287.7138
   7   2.0000     -10.561836      -287.4022
   8   2.0000     -10.561834      -287.4021
   9   2.0000      -8.039979      -218.7790
  10   2.0000      -8.038257      -218.7321
  11   2.0000      -8.038215      -218.7310
  12   2.0000      -8.028636      -218.4703
  13   2.0000      -8.028635      -218.4703
  14   2.0000      -8.026805      -218.4205
  15   2.0000      -8.026804      -218.4204
  16   2.0000      -8.026755      -218.4191
  17   2.0000      -8.026754      -218.4191
  18   2.0000      -1.198526       -32.6135
  19   2.0000      -1.133337       -30.8397
  20   2.0000      -1.120000       -30.4767
  21   2.0000      -0.999236       -27.1906
  22   2.0000      -0.933835       -25.4109
  23   2.0000      -0.831574       -22.6283
  24   2.0000      -0.694928       -18.9100
  25   2.0000      -0.652108       -17.7447
  26   2.0000      -0.624384       -16.9903
  27   2.0000      -0.587019       -15.9736
  28   2.0000      -0.579715       -15.7749
  29   2.0000      -0.564537       -15.3618
  30   2.0000      -0.512815       -13.9544
  31   2.0000      -0.473346       -12.8804
  32   2.0000      -0.468403       -12.7459
  33   2.0000      -0.460797       -12.5389
  34   2.0000      -0.450212       -12.2509
  35   2.0000      -0.442644       -12.0450
  36   2.0000      -0.427744       -11.6395
  37   0.0000       0.031363         0.8534
  38   0.0000       0.038039         1.0351
  39   0.0000       0.038283         1.0417
  40   0.0000       0.053608         1.4588
  41   0.0000       0.058263         1.5854

MULLIKEN ATOMIC CHARGES
-----------------------
   0 C :    0.195532
   1 C :   -0.274502
   2 C :   -0.274502
   3 Cl:   -0.417162
   4 Cl:   -0.326483
   5 Cl:   -0.326483
   6 H :    0.312378
   7 H :    0.288687
   8 H :    0.288687
   9 H :    0.266924
  10 H :    0.266924
Sum of atomic charges:    0.0000000

LOEWDIN ATOMIC CHARGES
----------------------
   0 C :   -0.679763
   1 C :   -0.361878
   2 C :   -0.361878
   3 Cl:    0.935678
   4 Cl:    0.883296
   5 Cl:    0.883296
   6 H :   -0.250505
   7 H :   -0.275757
   8 H :   -0.275757
   9 H :   -0.248366
  10 H :   -0.248366

  Mayer bond orders larger than 0.100000
B(  0-C ,  1-C ) :   0.9341 B(  0-C ,  2-C ) :   0.9341 B(  0-C ,  3-Cl) :   0.7134
B(  0-C ,  6-H ) :   0.8823 B(  1-C ,  5-Cl) :   0.7948 B(  1-C ,  8-H ) :   0.9513
B(  1-C , 10-H ) :   0.9478 B(  2-C ,  4-Cl) :   0.7948 B(  2-C ,  7-H ) :   0.9513
B(  2-C ,  9-H ) :   0.9478

MP2 TOTAL ENERGY:    -1496.221651119 Eh
FINAL SINGLE POINT ENERGY     -1496.221651118768

DIPOLE MOMENT
-------------
                                X             Y             Z
Electronic contribution:      0.89285      -2.82305       0.00000
Nuclear contribution   :     -1.00652       3.48739       0.00000
                        -----------------------------------------
Total Dipole Moment    :     -0.11367       0.66434       0.00000
                        -----------------------------------------
Magnitude (a.u.)       :      0.67399
Magnitude (Debye)      :      1.71315

Rotational constants in cm-1:     0.060754     0.042287     0.025765
Rotational constants in MHz :  1821.350376  1267.740507   772.424780

                             ****ORCA TERMINATED NORMALLY****
TOTAL RUN TIME: 0 days 0 hours 2 minutes 55 seconds 969 msec
