                         Program Version 5.0.3 -  RELEASE  -
|  1> !ri-mp2 aug-cc-pvtz aug-cc-pvtz/c tightscf
|  2> %pal nprocs 16 end
|  3>
|  4> * xyz 0 1
|  5> C     -0.676877    1.824455    0.000000
|  6> C      0.000000    0.712806    0.000000
|  7> C      0.674729   -0.400337    0.000000
|  8> C      0.070788   -1.779546    0.000000
|  9> H     -0.970419    2.308430    0.924346
| 10> H     -0.970419    2.308430   -0.924346
| 11> H      1.759891   -0.339248    0.000000
| 12> H     -1.016629   -1.735258    0.000000
| 13> H      0.392869   -2.343309   -0.878652
| 14> H      0.392869   -2.343309    0.878652
| 15> *
| 16>
| 17>                          ****END OF INPUT****

CARTESIAN COORDINATES (ANGSTROEM)
---------------------------------
  C     -0.676877    1.824455    0.000000
  C      0.000000    0.712806    0.000000
  C      0.674729   -0.400337    0.000000
  C      0.070788   -1.779546    0.000000
  H     -0.970419    2.308430    0.924346
  H     -0.970419    2.308430   -0.924346
  H      1.759891   -0.339248    0.000000
  H     -1.016629   -1.735258    0.000000
  H      0.392869   -2.343309   -0.878652
  H      0.392869   -2.343309    0.878652

 Total Charge           Charge          ....    0
 Multiplicity           Mult            ....    1
 Number of Electrons    NEL             ....   30
 Basis Dimension        Dim             ....  322

ORBITAL ENERGIES
----------------

  NO   OCC          E(Eh)            E(eV)
   0   2.0000     -11.248460      -306.0862
   1   2.0000     -11.239359      -305.8385
   2   2.0000     -11.230436      -305.5957
   3   2.0000     -11.228152      -305.5336
   4   2.0000      -1.087199       -29.5842
   5   2.0000      -0.999321       -27.1929
   6   2.0000      -0.892152       -24.2767
   7   2.0000      -0.702453       -19.1147
   8   2.0000      -0.639251       -17.3949
   9   2.0000      -0.604327       -16.4446
  10   2.0000      -0.573014       -15.5925
  11   2.0000      -0.568459       -15.4685
  12   2.0000      -0.527990       -14.3673
  13   2.0000      -0.372386       -10.1331
  14   2.0000      -0.360581        -9.8119
  15   0.0000       0.030278         0.8239
  16   0.0000       0.036492         0.9930
  17   0.0000       0.042364         1.1528
  18   0.0000       0.042456         1.1553
  19   0.0000       0.056540         1.5385

MULLIKEN ATOMIC CHARGES
-----------------------
   0 C :   -1.132000
   1 C :    0.804988
   2 C :   -0.633515
   3 C :   -0.843719
   4 H :    0.357000
   5 H :    0.357000
   6 H :    0.297225
   7 H :    0.254787
   8 H :    0.269117
   9 H :    0.269117
Sum of atomic charges:   -0.0000000

LOEWDIN ATOMIC CHARGES
----------------------
   0 C :    0.462545
   1 C :    0.106357
   2 C :    0.142245
   3 C :    0.538313
   4 H :   -0.247002
   5 H :   -0.247002
   6 H :   -0.209122
   7 H :   -0.184795
   8 H :   -0.180770
   9 H :   -0.180770

  Mayer bond orders larger than 0.100000
B(  0-C ,  1-C ) :   1.5005 B(  0-C ,  2-C ) :  -0.3053 B(  0-C ,  4-H ) :   0.9447
B(  0-C ,  5-H ) :   0.9447 B(  1-C ,  2-C ) :   1.4340 B(  2-C ,  3-C ) :   1.0590
B(  2-C ,  6-H ) :   0.9966 B(  3-C ,  7-H ) :   0.9511 B(  3-C ,  8-H ) :   0.9625
B(  3-C ,  9-H ) :   0.9625

MP2 TOTAL ENERGY:     -155.618350035 Eh
FINAL SINGLE POINT ENERGY      -155.618350035011

DIPOLE MOMENT
-------------
                                X             Y             Z
Electronic contribution:      0.45386       2.04896       0.00000
Nuclear contribution   :     -0.42897      -2.23346       0.00000
                        -----------------------------------------
Total Dipole Moment    :      0.02489      -0.18450       0.00000
                        -----------------------------------------
Magnitude (a.u.)       :      0.18617
Magnitude (Debye)      :      0.47321

Rotational constants in cm-1:     1.161776     0.140044     0.131366
Rotational constants in MHz : 34829.167260  4198.421116  3938.243570

                             ****ORCA TERMINATED NORMALLY****
TOTAL RUN TIME: 0 days 0 hours 1 minutes 49 seconds 495 msec
