                         Program Version 5.0.3 -  RELEASE  -
|  1> !ri-mp2 aug-cc-pvtz aug-cc-pvtz/c tightscf
|  2> %pal nprocs 16 end
|  3>
|  4> * xyz 0 1
|  5> C     0.425915     0.627157    0.000000
|  6> C    -0.425915    -0.627157    0.000000
|  7> F    -0.425915     1.731378    0.000000
|  8> F     0.425915    -1.731378    0.000000
|  9> H     1.051850     0.677105    0.891207
| 10> H     1.051850     0.677105   -0.891207
| 11> H    -1.051850    -0.677105    0.891207
| 12> H    -1.051850    -0.677105   -0.891207
| 13> *
| 14>
| 15>                          ****END OF INPUT****

CARTESIAN COORDINATES (ANGSTROEM)
---------------------------------
  C      0.425915    0.627157    0.000000
  C     -0.425915   -0.627157    0.000000
  F     -0.425915    1.731378    0.000000
  F      0.425915   -1.731378    0.000000
  H      1.051850    0.677105    0.891207
  H      1.051850    0.677105   -0.891207
  H     -1.051850   -0.677105    0.891207
  H     -1.051850   -0.677105   -0.891207

 Total Charge           Charge          ....    0
 Multiplicity           Mult            ....    1
 Number of Electrons    NEL             ....   34
 Basis Dimension        Dim             ....  276

ORBITAL ENERGIES
----------------

  NO   OCC          E(Eh)            E(eV)
   0   2.0000     -26.293834      -715.4916
   1   2.0000     -26.293832      -715.4915
   2   2.0000     -11.324948      -308.1675
   3   2.0000     -11.324293      -308.1497
   4   2.0000      -1.603410       -43.6310
   5   2.0000      -1.597996       -43.4837
   6   2.0000      -1.044835       -28.4314
   7   2.0000      -0.886894       -24.1336
   8   2.0000      -0.739790       -20.1307
   9   2.0000      -0.724332       -19.7101
  10   2.0000      -0.712504       -19.3882
  11   2.0000      -0.688847       -18.7445
  12   2.0000      -0.662265       -18.0212
  13   2.0000      -0.628436       -17.1006
  14   2.0000      -0.569785       -15.5046
  15   2.0000      -0.516959       -14.0672
  16   2.0000      -0.514610       -14.0032
  17   0.0000       0.032015         0.8712
  18   0.0000       0.038854         1.0573
  19   0.0000       0.039579         1.0770
  20   0.0000       0.063027         1.7151
  21   0.0000       0.070978         1.9314

MULLIKEN ATOMIC CHARGES
-----------------------
   0 C :   -0.119206
   1 C :   -0.119206
   2 F :   -0.484003
   3 F :   -0.484003
   4 H :    0.301604
   5 H :    0.301604
   6 H :    0.301604
   7 H :    0.301604
Sum of atomic charges:   -0.0000000

LOEWDIN ATOMIC CHARGES
----------------------
   0 C :   -0.082538
   1 C :   -0.082538
   2 F :    0.436661
   3 F :    0.436661
   4 H :   -0.177062
   5 H :   -0.177062
   6 H :   -0.177062
   7 H :   -0.177062

  Mayer bond orders larger than 0.100000
B(  0-C ,  1-C ) :   0.9458 B(  0-C ,  2-F ) :   0.6252 B(  0-C ,  4-H ) :   0.9165
B(  0-C ,  5-H ) :   0.9165 B(  1-C ,  3-F ) :   0.6252 B(  1-C ,  6-H ) :   0.9165
B(  1-C ,  7-H ) :   0.9165

MP2 TOTAL ENERGY:     -277.901873390 Eh
FINAL SINGLE POINT ENERGY      -277.901873390307

DIPOLE MOMENT
-------------
                                X             Y             Z
Electronic contribution:      0.00000       0.00000      -0.00000
Nuclear contribution   :      0.00000       0.00000       0.00000
                        -----------------------------------------
Total Dipole Moment    :      0.00000       0.00000      -0.00000
                        -----------------------------------------
Magnitude (a.u.)       :      0.00000
Magnitude (Debye)      :      0.00000

Rotational constants in cm-1:     1.067082     0.128181     0.119636
Rotational constants in MHz : 31990.324751  3842.760873  3586.598502

                             ****ORCA TERMINATED NORMALLY****
TOTAL RUN TIME: 0 days 0 hours 1 minutes 31 seconds 75 msec
