                         Program Version 5.0.3 -  RELEASE  -
|  1> !ri-mp2 aug-cc-pvtz aug-cc-pvtz/c tightscf
|  2> %pal nprocs 16 end
|  3> %maxcore 3800
|  4>
|  5> * xyz 0 1
|  6> C    -1.656245   -2.355698    0.000000
|  7> S     0.088738   -1.905377    0.000000
|  8> O     0.654560   -2.357841    1.267005
|  9> O     0.654560   -2.357841   -1.267005
| 10> C     0.080334   -0.110707    0.000000
| 11> C     0.087584    0.574569   -1.208898
| 12> C     0.087584    1.962499   -1.199749
| 13> C     0.081470    2.677518    0.000000
| 14> C     0.055105    4.182111    0.000000
| 15> C     0.087584    1.962499    1.199749
| 16> C     0.087584    0.574569    1.208898
| 17> H    -2.123209   -1.961947   -0.898464
| 18> H    -1.678863   -3.443534    0.000000
| 19> H    -2.123209   -1.961947    0.898464
| 20> H     0.119138    0.024829   -2.138786
| 21> H     0.104503    2.498591   -2.139961
| 22> H     0.546532    4.588743    0.883175
| 23> H    -0.973845    4.550449    0.000000
| 24> H     0.546532    4.588743   -0.883175
| 25> H     0.104503    2.498591    2.139961
| 26> H     0.119138    0.024829    2.138786
| 27> *
| 28>
| 29>                          ****END OF INPUT****

CARTESIAN COORDINATES (ANGSTROEM)
---------------------------------
  C     -1.656245   -2.355698    0.000000
  S      0.088738   -1.905377    0.000000
  O      0.654560   -2.357841    1.267005
  O      0.654560   -2.357841   -1.267005
  C      0.080334   -0.110707    0.000000
  C      0.087584    0.574569   -1.208898
  C      0.087584    1.962499   -1.199749
  C      0.081470    2.677518    0.000000
  C      0.055105    4.182111    0.000000
  C      0.087584    1.962499    1.199749
  C      0.087584    0.574569    1.208898
  H     -2.123209   -1.961947   -0.898464
  H     -1.678863   -3.443534    0.000000
  H     -2.123209   -1.961947    0.898464
  H      0.119138    0.024829   -2.138786
  H      0.104503    2.498591   -2.139961
  H      0.546532    4.588743    0.883175
  H     -0.973845    4.550449    0.000000
  H      0.546532    4.588743   -0.883175
  H      0.104503    2.498591    2.139961
  H      0.119138    0.024829    2.138786

 Total Charge           Charge          ....    0
 Multiplicity           Mult            ....    1
 Number of Electrons    NEL             ....   90
 Basis Dimension        Dim             ....  740

ORBITAL ENERGIES
----------------

  NO   OCC          E(Eh)            E(eV)
   0   2.0000     -92.179194     -2508.3234
   1   2.0000     -20.538613      -558.8841
   2   2.0000     -20.538593      -558.8835
   3   2.0000     -11.274097      -306.7838
   4   2.0000     -11.272503      -306.7404
   5   2.0000     -11.270756      -306.6929
   6   2.0000     -11.264974      -306.5355
   7   2.0000     -11.264874      -306.5328
   8   2.0000     -11.251348      -306.1648
   9   2.0000     -11.251303      -306.1635
  10   2.0000     -11.241894      -305.9075
  11   2.0000      -9.148093      -248.9323
  12   2.0000      -6.832677      -185.9266
  13   2.0000      -6.832368      -185.9182
  14   2.0000      -6.832278      -185.9157
  15   2.0000      -1.438250       -39.1368
  16   2.0000      -1.327561       -36.1248
  17   2.0000      -1.185683       -32.2641
  18   2.0000      -1.084528       -29.5115
  19   2.0000      -1.041590       -28.3431
  20   2.0000      -1.034377       -28.1468
  21   2.0000      -0.964947       -26.2575
  22   2.0000      -0.865794       -23.5595
  23   2.0000      -0.856809       -23.3150
  24   2.0000      -0.796720       -21.6799
  25   2.0000      -0.722359       -19.6564
  26   2.0000      -0.672446       -18.2982
  27   2.0000      -0.664890       -18.0926
  28   2.0000      -0.654213       -17.8020
  29   2.0000      -0.639933       -17.4135
  30   2.0000      -0.634626       -17.2691
  31   2.0000      -0.612381       -16.6637
  32   2.0000      -0.597052       -16.2466
  33   2.0000      -0.596417       -16.2293
  34   2.0000      -0.593499       -16.1499
  35   2.0000      -0.561003       -15.2657
  36   2.0000      -0.532109       -14.4794
  37   2.0000      -0.517712       -14.0877
  38   2.0000      -0.513032       -13.9603
  39   2.0000      -0.491252       -13.3676
  40   2.0000      -0.487924       -13.2771
  41   2.0000      -0.464335       -12.6352
  42   2.0000      -0.435032       -11.8378
  43   2.0000      -0.360890        -9.8203
  44   2.0000      -0.357837        -9.7372
  45   0.0000       0.021537         0.5860
  46   0.0000       0.028405         0.7729
  47   0.0000       0.030541         0.8311
  48   0.0000       0.038203         1.0396
  49   0.0000       0.041361         1.1255

MULLIKEN ATOMIC CHARGES
-----------------------
   0 C :   -1.074134
   1 S :    1.991279
   2 O :   -1.070981
   3 O :   -1.070981
   4 C :    1.003587
   5 C :   -0.835099
   6 C :   -0.784474
   7 C :    1.299913
   8 C :   -0.949238
   9 C :   -0.784474
  10 C :   -0.835099
  11 H :    0.326113
  12 H :    0.272596
  13 H :    0.326113
  14 H :    0.456209
  15 H :    0.198016
  16 H :    0.279709
  17 H :    0.317011
  18 H :    0.279709
  19 H :    0.198016
  20 H :    0.456209
Sum of atomic charges:   -0.0000000

LOEWDIN ATOMIC CHARGES
----------------------
   0 C :    0.509520
   1 S :    0.252167
   2 O :    0.031441
   3 O :    0.031441
   4 C :   -0.238549
   5 C :    0.170484
   6 C :    0.228278
   7 C :   -0.110838
   8 C :    0.589449
   9 C :    0.228278
  10 C :    0.170484
  11 H :   -0.206920
  12 H :   -0.207298
  13 H :   -0.206920
  14 H :   -0.192216
  15 H :   -0.176072
  16 H :   -0.172337
  17 H :   -0.159766
  18 H :   -0.172337
  19 H :   -0.176072
  20 H :   -0.192216

  Mayer bond orders larger than 0.100000
B(  0-C ,  1-S ) :   0.8765 B(  0-C ,  2-O ) :   0.1001 B(  0-C ,  3-O ) :   0.1001
B(  0-C ,  4-C ) :   0.1553 B(  0-C , 11-H ) :   0.8800 B(  0-C , 12-H ) :   0.9466
B(  0-C , 13-H ) :   0.8800 B(  1-S ,  2-O ) :   1.1125 B(  1-S ,  3-O ) :   1.1125
B(  1-S ,  4-C ) :   1.1226 B(  2-O ,  4-C ) :   0.1760 B(  3-O ,  4-C ) :   0.1760
B(  4-C ,  5-C ) :   0.7124 B(  4-C ,  6-C ) :  -0.1462 B(  4-C ,  9-C ) :  -0.1462
B(  4-C , 10-C ) :   0.7124 B(  5-C ,  6-C ) :   1.3236 B(  5-C ,  7-C ) :   0.1379
B(  5-C , 10-C ) :   0.2345 B(  5-C , 14-H ) :   0.7250 B(  6-C ,  7-C ) :   0.7277
B(  6-C ,  9-C ) :  -0.1240 B(  6-C , 15-H ) :   1.2747 B(  7-C ,  8-C ) :   0.4114
B(  7-C ,  9-C ) :   0.7277 B(  7-C , 10-C ) :   0.1379 B(  7-C , 15-H ) :  -0.1386
B(  7-C , 19-H ) :  -0.1386 B(  8-C , 16-H ) :   1.0084 B(  8-C , 17-H ) :   0.9385
B(  8-C , 18-H ) :   1.0084 B(  9-C , 10-C ) :   1.3236 B(  9-C , 19-H ) :   1.2747
B( 10-C , 20-H ) :   0.7250

MP2 TOTAL ENERGY:     -858.159685660 Eh
FINAL SINGLE POINT ENERGY      -858.159685659580

DIPOLE MOMENT
-------------
                                X             Y             Z
Electronic contribution:      3.74980      -9.45082       0.00000
Nuclear contribution   :     -5.30325      11.31153       0.00000
                        -----------------------------------------
Total Dipole Moment    :     -1.55345       1.86071       0.00000
                        -----------------------------------------
Magnitude (a.u.)       :      2.42393
Magnitude (Debye)      :      6.16115

Rotational constants in cm-1:     0.082992     0.018455     0.016930
Rotational constants in MHz :  2488.050880   553.278764   507.555718

                             ****ORCA TERMINATED NORMALLY****
TOTAL RUN TIME: 0 days 0 hours 15 minutes 50 seconds 46 msec
