                         Program Version 5.0.3 -  RELEASE  -
|  1> !ri-mp2 aug-cc-pvtz aug-cc-pvtz/c tightscf
|  2> %pal nprocs 16 end
|  3>
|  4> * xyz 0 1
|  5> C     -2.375167    1.623271   -0.199143
|  6> C     -2.007050    0.527064    0.118833
|  7> C      1.874986   -0.008026   -0.044601
|  8> C      0.850272   -0.614152   -0.202794
|  9> C      3.114009    0.734257    0.139370
| 10> C     -1.564604   -0.810976    0.487974
| 11> C     -0.398446   -1.345731   -0.378509
| 12> H     -2.697409    2.595513   -0.476233
| 13> H      3.585287    0.955741   -0.819838
| 14> H      2.929194    1.683095    0.646012
| 15> H      3.828780    0.168899    0.739903
| 16> H     -2.406200   -1.502168    0.396639
| 17> H     -1.262452   -0.817791    1.537388
| 18> H     -0.697428   -1.320675   -1.428857
| 19> H     -0.243770   -2.396855   -0.121794
| 20> *
| 21>
| 22>                          ****END OF INPUT****

CARTESIAN COORDINATES (ANGSTROEM)
---------------------------------
  C     -2.375167    1.623271   -0.199143
  C     -2.007050    0.527064    0.118833
  C      1.874986   -0.008026   -0.044601
  C      0.850272   -0.614152   -0.202794
  C      3.114009    0.734257    0.139370
  C     -1.564604   -0.810976    0.487974
  C     -0.398446   -1.345731   -0.378509
  H     -2.697409    2.595513   -0.476233
  H      3.585287    0.955741   -0.819838
  H      2.929194    1.683095    0.646012
  H      3.828780    0.168899    0.739903
  H     -2.406200   -1.502168    0.396639
  H     -1.262452   -0.817791    1.537388
  H     -0.697428   -1.320675   -1.428857
  H     -0.243770   -2.396855   -0.121794

 Total Charge           Charge          ....    0
 Multiplicity           Mult            ....    1
 Number of Electrons    NEL             ....   50
 Basis Dimension        Dim             ....  506

ORBITAL ENERGIES
----------------

  NO   OCC          E(Eh)            E(eV)
   0   2.0000     -11.259289      -306.3808
   1   2.0000     -11.257408      -306.3296
   2   2.0000     -11.242611      -305.9270
   3   2.0000     -11.230798      -305.6055
   4   2.0000     -11.219531      -305.2990
   5   2.0000     -11.217550      -305.2450
   6   2.0000     -11.213872      -305.1450
   7   2.0000      -1.103010       -30.0144
   8   2.0000      -1.049761       -28.5654
   9   2.0000      -1.008397       -27.4399
  10   2.0000      -0.950102       -25.8536
  11   2.0000      -0.884995       -24.0819
  12   2.0000      -0.720145       -19.5961
  13   2.0000      -0.673709       -18.3325
  14   2.0000      -0.651910       -17.7394
  15   2.0000      -0.621972       -16.9247
  16   2.0000      -0.588108       -16.0032
  17   2.0000      -0.584685       -15.9101
  18   2.0000      -0.572261       -15.5720
  19   2.0000      -0.559197       -15.2165
  20   2.0000      -0.541774       -14.7424
  21   2.0000      -0.389597       -10.6015
  22   2.0000      -0.384825       -10.4716
  23   2.0000      -0.364526        -9.9193
  24   2.0000      -0.363256        -9.8847
  25   0.0000       0.028816         0.7841
  26   0.0000       0.031429         0.8552
  27   0.0000       0.034221         0.9312
  28   0.0000       0.041935         1.1411
  29   0.0000       0.049783         1.3547

MULLIKEN ATOMIC CHARGES
-----------------------
   0 C :   -1.786251
   1 C :    0.982216
   2 C :   -0.243444
   3 C :    0.343425
   4 C :   -0.911353
   5 C :   -0.225396
   6 C :   -0.484036
   7 H :    0.482252
   8 H :    0.285994
   9 H :    0.263272
  10 H :    0.278354
  11 H :    0.299129
  12 H :    0.248808
  13 H :    0.223586
  14 H :    0.243442
Sum of atomic charges:    0.0000000

LOEWDIN ATOMIC CHARGES
----------------------
   0 C :    0.400065
   1 C :    0.016851
   2 C :    0.088215
   3 C :    0.083448
   4 C :    0.509559
   5 C :    0.202510
   6 C :    0.203016
   7 H :   -0.303348
   8 H :   -0.186803
   9 H :   -0.186112
  10 H :   -0.187363
  11 H :   -0.160343
  12 H :   -0.159170
  13 H :   -0.159752
  14 H :   -0.160774

  Mayer bond orders larger than 0.100000
B(  0-C ,  1-C ) :   0.4114 B(  0-C ,  2-C ) :   0.2337 B(  0-C ,  3-C ) :  -0.1411
B(  0-C ,  5-C ) :  -0.2139 B(  0-C ,  7-H ) :   1.0139 B(  1-C ,  5-C ) :   0.9060
B(  1-C ,  6-C ) :   0.1401 B(  1-C ,  7-H ) :  -0.1602 B(  2-C ,  3-C ) :   2.1138
B(  2-C ,  4-C ) :   1.0184 B(  3-C ,  4-C ) :  -0.1213 B(  3-C ,  6-C ) :   0.8591
B(  4-C ,  6-C ) :   0.1517 B(  4-C ,  8-H ) :   0.9599 B(  4-C ,  9-H ) :   0.9488
B(  4-C , 10-H ) :   0.9640 B(  5-C ,  6-C ) :   1.0590 B(  5-C , 11-H ) :   0.9536
B(  5-C , 12-H ) :   0.9174 B(  6-C , 13-H ) :   0.9482 B(  6-C , 14-H ) :   0.9815

MP2 TOTAL ENERGY:     -270.840366502 Eh
FINAL SINGLE POINT ENERGY      -270.840366501977

DIPOLE MOMENT
-------------
                                X             Y             Z
Electronic contribution:     -2.92150       0.46871      -0.41990
Nuclear contribution   :      3.09408      -0.64637       0.48227
                        -----------------------------------------
Total Dipole Moment    :      0.17258      -0.17766       0.06237
                        -----------------------------------------
Magnitude (a.u.)       :      0.25542
Magnitude (Debye)      :      0.64922

Rotational constants in cm-1:     0.154722     0.044462     0.036395
Rotational constants in MHz :  4638.449700  1332.923306  1091.102301

                             ****ORCA TERMINATED NORMALLY****
TOTAL RUN TIME: 0 days 0 hours 4 minutes 21 seconds 915 msec
