                         Program Version 5.0.3 -  RELEASE  -
|  1> !ri-mp2 aug-cc-pvtz aug-cc-pvtz/c tightscf
|  2> %pal nprocs 16 end
|  3>
|  4> * xyz 0 1
|  5> C      1.328756   -1.459271    0.000000
|  6> C      0.738939   -0.414592    0.000000
|  7> C     -1.523500    0.649784    0.000000
|  8> C      0.000000    0.843190    0.000000
|  9> H      1.855678   -2.379936    0.000000
| 10> H     -1.844031    0.095387    0.881353
| 11> H     -1.844031    0.095387   -0.881353
| 12> H     -2.027340    1.616676    0.000000
| 13> H      0.297280    1.428911    0.873961
| 14> H      0.297280    1.428911   -0.873961
| 15> *
| 16>
| 17>                          ****END OF INPUT****

CARTESIAN COORDINATES (ANGSTROEM)
---------------------------------
  C      1.328756   -1.459271    0.000000
  C      0.738939   -0.414592    0.000000
  C     -1.523500    0.649784    0.000000
  C      0.000000    0.843190    0.000000
  H      1.855678   -2.379936    0.000000
  H     -1.844031    0.095387    0.881353
  H     -1.844031    0.095387   -0.881353
  H     -2.027340    1.616676    0.000000
  H      0.297280    1.428911    0.873961
  H      0.297280    1.428911   -0.873961

 Total Charge           Charge          ....    0
 Multiplicity           Mult            ....    1
 Number of Electrons    NEL             ....   30
 Basis Dimension        Dim             ....  322

ORBITAL ENERGIES
----------------

  NO   OCC          E(Eh)            E(eV)
   0   2.0000     -11.252987      -306.2093
   1   2.0000     -11.230715      -305.6033
   2   2.0000     -11.225572      -305.4633
   3   2.0000     -11.216773      -305.2239
   4   2.0000      -1.080228       -29.3945
   5   2.0000      -0.994432       -27.0599
   6   2.0000      -0.876128       -23.8407
   7   2.0000      -0.716538       -19.4980
   8   2.0000      -0.641973       -17.4690
   9   2.0000      -0.627878       -17.0854
  10   2.0000      -0.551859       -15.0168
  11   2.0000      -0.524829       -14.2813
  12   2.0000      -0.514978       -14.0133
  13   2.0000      -0.383911       -10.4467
  14   2.0000      -0.383262       -10.4291
  15   0.0000       0.030056         0.8179
  16   0.0000       0.033687         0.9167
  17   0.0000       0.042649         1.1605
  18   0.0000       0.043347         1.1795
  19   0.0000       0.054575         1.4851

MULLIKEN ATOMIC CHARGES
-----------------------
   0 C :   -1.644793
   1 C :    0.980778
   2 C :   -0.916364
   3 C :   -0.366298
   4 H :    0.525036
   5 H :    0.296149
   6 H :    0.296149
   7 H :    0.296598
   8 H :    0.266372
   9 H :    0.266372
Sum of atomic charges:   -0.0000000

LOEWDIN ATOMIC CHARGES
----------------------
   0 C :    0.390118
   1 C :    0.010729
   2 C :    0.573140
   3 C :    0.183643
   4 H :   -0.307726
   5 H :   -0.172282
   6 H :   -0.172282
   7 H :   -0.173223
   8 H :   -0.166059
   9 H :   -0.166059

  Mayer bond orders larger than 0.100000
B(  0-C ,  1-C ) :   0.6827 B(  0-C ,  3-C ) :  -0.1171 B(  0-C ,  4-H ) :   0.8337
B(  1-C ,  3-C ) :   1.0401 B(  2-C ,  3-C ) :   0.9509 B(  2-C ,  5-H ) :   0.9295
B(  2-C ,  6-H ) :   0.9295 B(  2-C ,  7-H ) :   0.9441 B(  3-C ,  8-H ) :   0.9375
B(  3-C ,  9-H ) :   0.9375

MP2 TOTAL ENERGY:     -155.621977014 Eh
FINAL SINGLE POINT ENERGY      -155.621977013752

DIPOLE MOMENT
-------------
                                X             Y             Z
Electronic contribution:      3.20266      -2.12430       0.00000
Nuclear contribution   :     -3.40099       2.38040       0.00000
                        -----------------------------------------
Total Dipole Moment    :     -0.19834       0.25610       0.00000
                        -----------------------------------------
Magnitude (a.u.)       :      0.32392
Magnitude (Debye)      :      0.82334

Rotational constants in cm-1:     0.923007     0.150947     0.136244
Rotational constants in MHz : 27671.047162  4525.274788  4084.486358

                             ****ORCA TERMINATED NORMALLY****
TOTAL RUN TIME: 0 days 0 hours 1 minutes 33 seconds 860 msec
