                         Program Version 5.0.3 -  RELEASE  -
|  1> !ri-mp2 aug-cc-pvtz aug-cc-pvtz/c tightscf
|  2> %pal nprocs 16 end
|  3>
|  4> * xyz 0 1
|  5> C     -0.310382    1.216690   -0.089709
|  6> C     -1.007899    0.083990    0.004985
|  7> C      1.192425    1.294994   -0.102231
|  8> C     -0.326807   -1.262539    0.080273
|  9> C      1.847130   -0.015210    0.343539
| 10> C      1.153813   -1.212625   -0.305738
| 11> C     -2.509324    0.066544    0.050173
| 12> H     -0.847383    2.157642   -0.160153
| 13> H      1.536186    1.559736   -1.109789
| 14> H      1.519991    2.116878    0.540709
| 15> H     -0.437051   -1.659080    1.097370
| 16> H     -0.858397   -1.969943   -0.563834
| 17> H      2.911702   -0.007513    0.101968
| 18> H      1.771087   -0.104427    1.431482
| 19> H      1.646877   -2.144880   -0.023372
| 20> H      1.239620   -1.129025   -1.393390
| 21> H     -2.926173    1.072864    0.023793
| 22> H     -2.868014   -0.426133    0.959054
| 23> H     -2.922178   -0.497189   -0.791594
| 24> *
| 25>
| 26>                          ****END OF INPUT****

CARTESIAN COORDINATES (ANGSTROEM)
---------------------------------
  C     -0.310382    1.216690   -0.089709
  C     -1.007899    0.083990    0.004985
  C      1.192425    1.294994   -0.102231
  C     -0.326807   -1.262539    0.080273
  C      1.847130   -0.015210    0.343539
  C      1.153813   -1.212625   -0.305738
  C     -2.509324    0.066544    0.050173
  H     -0.847383    2.157642   -0.160153
  H      1.536186    1.559736   -1.109789
  H      1.519991    2.116878    0.540709
  H     -0.437051   -1.659080    1.097370
  H     -0.858397   -1.969943   -0.563834
  H      2.911702   -0.007513    0.101968
  H      1.771087   -0.104427    1.431482
  H      1.646877   -2.144880   -0.023372
  H      1.239620   -1.129025   -1.393390
  H     -2.926173    1.072864    0.023793
  H     -2.868014   -0.426133    0.959054
  H     -2.922178   -0.497189   -0.791594

 Total Charge           Charge          ....    0
 Multiplicity           Mult            ....    1
 Number of Electrons    NEL             ....   54
 Basis Dimension        Dim             ....  598

ORBITAL ENERGIES
----------------

  NO   OCC          E(Eh)            E(eV)
   0   2.0000     -11.223862      -305.4168
   1   2.0000     -11.218328      -305.2662
   2   2.0000     -11.216821      -305.2252
   3   2.0000     -11.214593      -305.1646
   4   2.0000     -11.213968      -305.1476
   5   2.0000     -11.213567      -305.1367
   6   2.0000     -11.209641      -305.0298
   7   2.0000      -1.122295       -30.5392
   8   2.0000      -1.032330       -28.0911
   9   2.0000      -0.999250       -27.1910
  10   2.0000      -0.921580       -25.0775
  11   2.0000      -0.842937       -22.9375
  12   2.0000      -0.800542       -21.7838
  13   2.0000      -0.687448       -18.7064
  14   2.0000      -0.643162       -17.5013
  15   2.0000      -0.610114       -16.6020
  16   2.0000      -0.586811       -15.9679
  17   2.0000      -0.584583       -15.9073
  18   2.0000      -0.559612       -15.2278
  19   2.0000      -0.543701       -14.7948
  20   2.0000      -0.517461       -14.0808
  21   2.0000      -0.513060       -13.9611
  22   2.0000      -0.504642       -13.7320
  23   2.0000      -0.461321       -12.5532
  24   2.0000      -0.447525       -12.1778
  25   2.0000      -0.431899       -11.7526
  26   2.0000      -0.329493        -8.9660
  27   0.0000       0.030953         0.8423
  28   0.0000       0.033837         0.9207
  29   0.0000       0.035527         0.9667
  30   0.0000       0.039193         1.0665
  31   0.0000       0.048705         1.3253

MULLIKEN ATOMIC CHARGES
-----------------------
   0 C :   -1.128116
   1 C :    1.141526
   2 C :   -0.176797
   3 C :   -0.423563
   4 C :   -0.542973
   5 C :   -0.535848
   6 C :   -1.089783
   7 H :   -0.012247
   8 H :    0.248343
   9 H :    0.298073
  10 H :    0.212119
  11 H :    0.288494
  12 H :    0.264816
  13 H :    0.205759
  14 H :    0.283984
  15 H :    0.178155
  16 H :    0.260604
  17 H :    0.251716
  18 H :    0.275736
Sum of atomic charges:   -0.0000000

LOEWDIN ATOMIC CHARGES
----------------------
   0 C :    0.255525
   1 C :   -0.091962
   2 C :    0.266902
   3 C :    0.278260
   4 C :    0.283370
   5 C :    0.288819
   6 C :    0.568228
   7 H :   -0.182504
   8 H :   -0.147852
   9 H :   -0.153388
  10 H :   -0.138629
  11 H :   -0.146944
  12 H :   -0.143609
  13 H :   -0.140617
  14 H :   -0.142984
  15 H :   -0.139685
  16 H :   -0.180274
  17 H :   -0.165029
  18 H :   -0.167629

  Mayer bond orders larger than 0.100000
B(  0-C ,  1-C ) :   1.0660 B(  0-C ,  2-C ) :   0.6297 B(  0-C ,  4-C ) :   0.1529
B(  0-C ,  7-H ) :   1.5509 B(  0-C ,  9-H ) :  -0.1531 B(  1-C ,  3-C ) :   0.6718
B(  1-C ,  6-C ) :   0.5680 B(  1-C ,  7-H ) :  -0.2564 B(  2-C ,  4-C ) :   0.9110
B(  2-C ,  8-H ) :   0.9860 B(  2-C ,  9-H ) :   0.9955 B(  3-C ,  4-C ) :   0.1036
B(  3-C ,  5-C ) :   0.9348 B(  3-C , 10-H ) :   0.9971 B(  3-C , 11-H ) :   0.9681
B(  4-C ,  5-C ) :   0.9021 B(  4-C , 12-H ) :   0.9642 B(  4-C , 13-H ) :   1.0028
B(  5-C , 14-H ) :   0.9477 B(  5-C , 15-H ) :   1.0290 B(  6-C , 16-H ) :   1.0015
B(  6-C , 17-H ) :   1.0311 B(  6-C , 18-H ) :   1.0143

MP2 TOTAL ENERGY:     -273.354100874 Eh
FINAL SINGLE POINT ENERGY      -273.354100873616

DIPOLE MOMENT
-------------
                                X             Y             Z
Electronic contribution:      0.27885       0.98324      -0.10882
Nuclear contribution   :     -0.24648      -1.08728       0.11836
                        -----------------------------------------
Total Dipole Moment    :      0.03237      -0.10404       0.00955
                        -----------------------------------------
Magnitude (a.u.)       :      0.10937
Magnitude (Debye)      :      0.27801

Rotational constants in cm-1:     0.150126     0.075335     0.053869
Rotational constants in MHz :  4500.660578  2258.492781  1614.939113

                             ****ORCA TERMINATED NORMALLY****
TOTAL RUN TIME: 0 days 0 hours 6 minutes 41 seconds 649 msec
