                         Program Version 5.0.3 -  RELEASE  -
|  1> !ri-mp2 aug-cc-pvtz aug-cc-pvtz/c tightscf
|  2> %pal nprocs 16 end
|  3>
|  4> * xyz 0 1
|  5> S      1.614785   -1.191862    0.001186
|  6> S     -3.692874   -0.024363   -0.096618
|  7> N      2.742645    1.118425   -0.006729
|  8> C      0.591906    0.228939    0.007977
|  9> C      1.399557    1.341512    0.002099
| 10> C      3.000380   -0.156035   -0.008147
| 11> C     -0.807791    0.156773    0.016980
| 12> C     -2.014959    0.076694    0.041513
| 13> H      1.022687    2.352845    0.003954
| 14> H      3.998149   -0.568105   -0.014777
| 15> H     -3.984497   -0.041414    1.222310
| 16> *
| 17>
| 18>                          ****END OF INPUT****

CARTESIAN COORDINATES (ANGSTROEM)
---------------------------------
  S      1.614785   -1.191862    0.001186
  S     -3.692874   -0.024363   -0.096618
  N      2.742645    1.118425   -0.006729
  C      0.591906    0.228939    0.007977
  C      1.399557    1.341512    0.002099
  C      3.000380   -0.156035   -0.008147
  C     -0.807791    0.156773    0.016980
  C     -2.014959    0.076694    0.041513
  H      1.022687    2.352845    0.003954
  H      3.998149   -0.568105   -0.014777
  H     -3.984497   -0.041414    1.222310

 Total Charge           Charge          ....    0
 Multiplicity           Mult            ....    1
 Number of Electrons    NEL             ....   72
 Basis Dimension        Dim             ....  445

ORBITAL ENERGIES
----------------

  NO   OCC          E(Eh)            E(eV)
   0   2.0000     -92.011174     -2503.7513
   1   2.0000     -92.002330     -2503.5107
   2   2.0000     -15.585435      -424.1012
   3   2.0000     -11.326649      -308.2138
   4   2.0000     -11.297206      -307.4126
   5   2.0000     -11.290382      -307.2269
   6   2.0000     -11.268525      -306.6322
   7   2.0000     -11.255395      -306.2749
   8   2.0000      -9.011350      -245.2113
   9   2.0000      -9.002043      -244.9580
  10   2.0000      -6.692117      -182.1018
  11   2.0000      -6.691577      -182.0871
  12   2.0000      -6.690843      -182.0671
  13   2.0000      -6.683540      -181.8684
  14   2.0000      -6.682390      -181.8371
  15   2.0000      -6.681340      -181.8085
  16   2.0000      -1.299352       -35.3572
  17   2.0000      -1.115300       -30.3489
  18   2.0000      -1.071549       -29.1583
  19   2.0000      -1.028480       -27.9864
  20   2.0000      -0.976003       -26.5584
  21   2.0000      -0.845705       -23.0128
  22   2.0000      -0.796195       -21.6656
  23   2.0000      -0.732703       -19.9379
  24   2.0000      -0.658324       -17.9139
  25   2.0000      -0.618522       -16.8308
  26   2.0000      -0.604459       -16.4482
  27   2.0000      -0.582213       -15.8428
  28   2.0000      -0.543842       -14.7987
  29   2.0000      -0.531415       -14.4605
  30   2.0000      -0.477056       -12.9814
  31   2.0000      -0.451763       -12.2931
  32   2.0000      -0.444846       -12.1049
  33   2.0000      -0.394112       -10.7243
  34   2.0000      -0.350142        -9.5278
  35   2.0000      -0.330475        -8.9927
  36   0.0000       0.028077         0.7640
  37   0.0000       0.031026         0.8443
  38   0.0000       0.041141         1.1195
  39   0.0000       0.058850         1.6014
  40   0.0000       0.061057         1.6614

MULLIKEN ATOMIC CHARGES
-----------------------
   0 S :   -0.177945
   1 S :   -0.551788
   2 N :   -0.430927
   3 C :    0.879342
   4 C :   -0.872394
   5 C :   -0.585783
   6 C :    1.055357
   7 C :   -0.456550
   8 H :    0.468953
   9 H :    0.543841
  10 H :    0.127896
Sum of atomic charges:    0.0000000

LOEWDIN ATOMIC CHARGES
----------------------
   0 S :    1.271015
   1 S :    1.219679
   2 N :    0.269354
   3 C :   -0.619721
   4 C :   -0.095259
   5 C :   -0.370195
   6 C :   -0.160958
   7 C :   -0.504505
   8 H :   -0.188456
   9 H :   -0.260635
  10 H :   -0.560320

  Mayer bond orders larger than 0.100000
B(  0-S ,  3-C ) :   0.9274 B(  0-S ,  4-C ) :   0.2157 B(  0-S ,  5-C ) :   1.3111
B(  0-S ,  6-C ) :  -0.1988 B(  1-S ,  6-C ) :  -0.2428 B(  1-S ,  7-C ) :   0.8703
B(  1-S , 10-H ) :   1.1262 B(  2-N ,  3-C ) :  -0.1764 B(  2-N ,  4-C ) :   0.7981
B(  2-N ,  5-C ) :   1.5808 B(  3-C ,  4-C ) :   0.9309 B(  3-C ,  6-C ) :   0.7523
B(  4-C ,  5-C ) :   0.1122 B(  4-C ,  6-C ) :  -0.2898 B(  4-C ,  7-C ) :   0.2528
B(  4-C ,  8-H ) :   0.8480 B(  5-C ,  7-C ) :  -0.1617 B(  5-C ,  9-H ) :   0.6603
B(  6-C ,  7-C ) :   1.0867

MP2 TOTAL ENERGY:    -1041.964740923 Eh
FINAL SINGLE POINT ENERGY     -1041.964740923090

DIPOLE MOMENT
-------------
                                X             Y             Z
Electronic contribution:     -1.15812      -2.08299      -0.83884
Nuclear contribution   :      1.06924       1.71166       1.16292
                        -----------------------------------------
Total Dipole Moment    :     -0.08888      -0.37133       0.32408
                        -----------------------------------------
Magnitude (a.u.)       :      0.50081
Magnitude (Debye)      :      1.27297

Rotational constants in cm-1:     0.179980     0.019748     0.017863
Rotational constants in MHz :  5395.665916   592.042949   535.531673

                             ****ORCA TERMINATED NORMALLY****
TOTAL RUN TIME: 0 days 0 hours 4 minutes 24 seconds 431 msec
