                         Program Version 5.0.3 -  RELEASE  -
|  1> !ri-mp2 aug-cc-pvtz aug-cc-pvtz/c tightscf
|  2> %pal nprocs 16 end
|  3>
|  4> * xyz 0 1
|  5> C      1.485110    2.778995    0.000000
|  6> C      1.429424    1.252245    0.000000
|  7> C     -1.555601   -2.629031    0.000000
|  8> O     -1.408397   -1.225844    0.000000
|  9> C     -0.054114   -0.808031    0.000000
| 10> C      0.000000    0.708683    0.000000
| 11> H     -2.622301   -2.844448    0.000000
| 12> H      2.514453    3.139718    0.000000
| 13> H      0.988352    3.190751    0.880627
| 14> H      0.988352    3.190751   -0.880627
| 15> H      1.964404    0.869962    0.874461
| 16> H      1.964404    0.869962   -0.874461
| 17> H     -1.100454   -3.081175    0.889958
| 18> H     -1.100454   -3.081175   -0.889958
| 19> H     -0.538951    1.078011   -0.876368
| 20> H     -0.538951    1.078011    0.876368
| 21> H      0.459702   -1.210388   -0.884985
| 22> H      0.459702   -1.210388    0.884985
| 23> *
| 24>
| 25>                          ****END OF INPUT****

CARTESIAN COORDINATES (ANGSTROEM)
---------------------------------
  C      1.485110    2.778995    0.000000
  C      1.429424    1.252245    0.000000
  C     -1.555601   -2.629031    0.000000
  O     -1.408397   -1.225844    0.000000
  C     -0.054114   -0.808031    0.000000
  C      0.000000    0.708683    0.000000
  H     -2.622301   -2.844448    0.000000
  H      2.514453    3.139718    0.000000
  H      0.988352    3.190751    0.880627
  H      0.988352    3.190751   -0.880627
  H      1.964404    0.869962    0.874461
  H      1.964404    0.869962   -0.874461
  H     -1.100454   -3.081175    0.889958
  H     -1.100454   -3.081175   -0.889958
  H     -0.538951    1.078011   -0.876368
  H     -0.538951    1.078011    0.876368
  H      0.459702   -1.210388   -0.884985
  H      0.459702   -1.210388    0.884985

 Total Charge           Charge          ....    0
 Multiplicity           Mult            ....    1
 Number of Electrons    NEL             ....   50
 Basis Dimension        Dim             ....  552

ORBITAL ENERGIES
----------------

  NO   OCC          E(Eh)            E(eV)
   0   2.0000     -20.552043      -559.2495
   1   2.0000     -11.269614      -306.6618
   2   2.0000     -11.267087      -306.5930
   3   2.0000     -11.220096      -305.3143
   4   2.0000     -11.214111      -305.1515
   5   2.0000     -11.211555      -305.0819
   6   2.0000      -1.368922       -37.2503
   7   2.0000      -1.072395       -29.1813
   8   2.0000      -0.987947       -26.8834
   9   2.0000      -0.912245       -24.8235
  10   2.0000      -0.842535       -22.9265
  11   2.0000      -0.795731       -21.6529
  12   2.0000      -0.672668       -18.3042
  13   2.0000      -0.643986       -17.5238
  14   2.0000      -0.629872       -17.1397
  15   2.0000      -0.622932       -16.9508
  16   2.0000      -0.568254       -15.4630
  17   2.0000      -0.564363       -15.3571
  18   2.0000      -0.535823       -14.5805
  19   2.0000      -0.505875       -13.7656
  20   2.0000      -0.485422       -13.2090
  21   2.0000      -0.473030       -12.8718
  22   2.0000      -0.467121       -12.7110
  23   2.0000      -0.461863       -12.5679
  24   2.0000      -0.419557       -11.4167
  25   0.0000       0.030256         0.8233
  26   0.0000       0.034102         0.9280
  27   0.0000       0.039302         1.0695
  28   0.0000       0.039455         1.0736
  29   0.0000       0.050513         1.3745

MULLIKEN ATOMIC CHARGES
-----------------------
   0 C :   -0.970650
   1 C :   -0.418242
   2 C :   -0.880154
   3 O :   -0.626901
   4 C :   -0.177439
   5 C :   -0.324440
   6 H :    0.339081
   7 H :    0.284546
   8 H :    0.266515
   9 H :    0.266515
  10 H :    0.252018
  11 H :    0.252018
  12 H :    0.331621
  13 H :    0.331621
  14 H :    0.265295
  15 H :    0.265295
  16 H :    0.271650
  17 H :    0.271650
Sum of atomic charges:    0.0000000

LOEWDIN ATOMIC CHARGES
----------------------
   0 C :    0.578324
   1 C :    0.250157
   2 C :    0.310459
   3 O :    0.550614
   4 C :   -0.002046
   5 C :    0.264849
   6 H :   -0.189753
   7 H :   -0.173902
   8 H :   -0.171010
   9 H :   -0.171010
  10 H :   -0.149001
  11 H :   -0.149001
  12 H :   -0.180086
  13 H :   -0.180086
  14 H :   -0.144691
  15 H :   -0.144691
  16 H :   -0.149563
  17 H :   -0.149563

  Mayer bond orders larger than 0.100000
B(  0-C ,  1-C ) :   0.9053 B(  0-C ,  7-H ) :   0.9639 B(  0-C ,  8-H ) :   0.9595
B(  0-C ,  9-H ) :   0.9595 B(  1-C ,  5-C ) :   0.8623 B(  1-C , 10-H ) :   0.9463
B(  1-C , 11-H ) :   0.9463 B(  2-C ,  3-O ) :   1.0029 B(  2-C ,  6-H ) :   0.9541
B(  2-C , 12-H ) :   0.8781 B(  2-C , 13-H ) :   0.8781 B(  3-O ,  4-C ) :   0.9496
B(  3-O ,  5-C ) :  -0.1069 B(  4-C ,  5-C ) :   0.9852 B(  4-C , 16-H ) :   0.9387
B(  4-C , 17-H ) :   0.9387 B(  5-C , 14-H ) :   0.9370 B(  5-C , 15-H ) :   0.9370

MP2 TOTAL ENERGY:     -272.416594934 Eh
FINAL SINGLE POINT ENERGY      -272.416594934189

DIPOLE MOMENT
-------------
                                X             Y             Z
Electronic contribution:     -3.20095      -2.38831      -0.00000
Nuclear contribution   :      3.63903       2.09887       0.00000
                        -----------------------------------------
Total Dipole Moment    :      0.43808      -0.28944      -0.00000
                        -----------------------------------------
Magnitude (a.u.)       :      0.52506
Magnitude (Debye)      :      1.33460

Rotational constants in cm-1:     0.552820     0.040092     0.038726
Rotational constants in MHz : 16573.112930  1201.940175  1160.976043

                             ****ORCA TERMINATED NORMALLY****
TOTAL RUN TIME: 0 days 0 hours 4 minutes 34 seconds 900 msec
