                         Program Version 5.0.3 -  RELEASE  -
|  1> !ri-mp2 aug-cc-pvtz aug-cc-pvtz/c tightscf
|  2> %pal nprocs 16 end
|  3>
|  4> * xyz 0 1
|  5> O      1.184971    1.329150   -0.264204
|  6> H      2.036345    1.691201   -0.001541
|  7> O     -2.681176   -0.346785   -0.166650
|  8> H     -3.437773    0.227118   -0.020588
|  9> C      2.195242   -0.882182   -0.037797
| 10> H      2.250223   -1.017985   -1.118621
| 11> H      3.142448   -0.457668    0.302556
| 12> H      2.084428   -1.861246    0.430820
| 13> C      1.029926    0.029059    0.326369
| 14> H      0.993181    0.139993    1.418550
| 15> C     -0.305850   -0.521316   -0.153420
| 16> H     -0.443749   -1.523300    0.259028
| 17> H     -0.284509   -0.618015   -1.241427
| 18> C     -1.493637    0.335082    0.248850
| 19> H     -1.499349    0.479259    1.336354
| 20> H     -1.425692    1.317864   -0.222316
| 21> *
| 22>
| 23>                          ****END OF INPUT****

CARTESIAN COORDINATES (ANGSTROEM)
---------------------------------
  O      1.184971    1.329150   -0.264204
  H      2.036345    1.691201   -0.001541
  O     -2.681176   -0.346785   -0.166650
  H     -3.437773    0.227118   -0.020588
  C      2.195242   -0.882182   -0.037797
  H      2.250223   -1.017985   -1.118621
  H      3.142448   -0.457668    0.302556
  H      2.084428   -1.861246    0.430820
  C      1.029926    0.029059    0.326369
  H      0.993181    0.139993    1.418550
  C     -0.305850   -0.521316   -0.153420
  H     -0.443749   -1.523300    0.259028
  H     -0.284509   -0.618015   -1.241427
  C     -1.493637    0.335082    0.248850
  H     -1.499349    0.479259    1.336354
  H     -1.425692    1.317864   -0.222316

 Total Charge           Charge          ....    0
 Multiplicity           Mult            ....    1
 Number of Electrons    NEL             ....   50
 Basis Dimension        Dim             ....  506

ORBITAL ENERGIES
----------------

  NO   OCC          E(Eh)            E(eV)
   0   2.0000     -20.556612      -559.3739
   1   2.0000     -20.551294      -559.2292
   2   2.0000     -11.283400      -307.0369
   3   2.0000     -11.267794      -306.6122
   4   2.0000     -11.219692      -305.3033
   5   2.0000     -11.215445      -305.1878
   6   2.0000      -1.358996       -36.9802
   7   2.0000      -1.349515       -36.7222
   8   2.0000      -1.060766       -28.8649
   9   2.0000      -0.980327       -26.6760
  10   2.0000      -0.860339       -23.4110
  11   2.0000      -0.792757       -21.5720
  12   2.0000      -0.705349       -19.1935
  13   2.0000      -0.683768       -18.6063
  14   2.0000      -0.632885       -17.2217
  15   2.0000      -0.621755       -16.9188
  16   2.0000      -0.597692       -16.2640
  17   2.0000      -0.556532       -15.1440
  18   2.0000      -0.541716       -14.7408
  19   2.0000      -0.523607       -14.2481
  20   2.0000      -0.513738       -13.9795
  21   2.0000      -0.490891       -13.3578
  22   2.0000      -0.466983       -12.7073
  23   2.0000      -0.441314       -12.0088
  24   2.0000      -0.436471       -11.8770
  25   0.0000       0.027469         0.7475
  26   0.0000       0.033652         0.9157
  27   0.0000       0.039676         1.0796
  28   0.0000       0.040648         1.1061
  29   0.0000       0.053050         1.4436

MULLIKEN ATOMIC CHARGES
-----------------------
   0 O :   -0.664022
   1 H :    0.137171
   2 O :   -0.595403
   3 H :    0.142352
   4 C :   -1.043794
   5 H :    0.269697
   6 H :    0.270046
   7 H :    0.277572
   8 C :    0.497216
   9 H :    0.282197
  10 C :   -0.433709
  11 H :    0.279027
  12 H :    0.304623
  13 C :   -0.242669
  14 H :    0.226845
  15 H :    0.292852
Sum of atomic charges:   -0.0000000

LOEWDIN ATOMIC CHARGES
----------------------
   0 O :    0.826876
   1 H :   -0.491413
   2 O :    0.805855
   3 H :   -0.500010
   4 C :    0.590750
   5 H :   -0.164292
   6 H :   -0.171944
   7 H :   -0.166516
   8 C :   -0.282954
   9 H :   -0.138859
  10 C :    0.259835
  11 H :   -0.147083
  12 H :   -0.142476
  13 C :    0.037180
  14 H :   -0.153296
  15 H :   -0.161653

  Mayer bond orders larger than 0.100000
B(  0-O ,  1-H ) :   1.0241 B(  0-O ,  8-C ) :   0.5187 B(  2-O ,  3-H ) :   1.0349
B(  2-O , 13-C ) :   0.7995 B(  4-C ,  5-H ) :   0.9502 B(  4-C ,  6-H ) :   0.9782
B(  4-C ,  7-H ) :   0.9636 B(  4-C ,  8-C ) :   0.8423 B(  8-C ,  9-H ) :   0.9640
B(  8-C , 10-C ) :   0.7965 B( 10-C , 11-H ) :   0.9380 B( 10-C , 12-H ) :   0.9097
B( 10-C , 13-C ) :   0.9868 B( 13-C , 14-H ) :   0.9913 B( 13-C , 15-H ) :   0.9457

MP2 TOTAL ENERGY:     -308.336503598 Eh
FINAL SINGLE POINT ENERGY      -308.336503598183

DIPOLE MOMENT
-------------
                                X             Y             Z
Electronic contribution:     -3.00453       1.94305      -0.56958
Nuclear contribution   :      3.53430      -1.67474       1.18369
                        -----------------------------------------
Total Dipole Moment    :      0.52977       0.26831       0.61411
                        -----------------------------------------
Magnitude (a.u.)       :      0.85427
Magnitude (Debye)      :      2.17139

Rotational constants in cm-1:     0.250651     0.058515     0.050536
Rotational constants in MHz :  7514.339662  1754.239220  1515.018418

                             ****ORCA TERMINATED NORMALLY****
TOTAL RUN TIME: 0 days 0 hours 4 minutes 18 seconds 465 msec
