                         Program Version 5.0.3 -  RELEASE  -
|  1> !ri-mp2 aug-cc-pvtz aug-cc-pvtz/c tightscf
|  2> %pal nprocs 16 end
|  3>
|  4> * xyz 0 1
|  5> C     0.000000    1.600757     0.401027
|  6> C     1.386296   -0.800378     0.401027
|  7> C    -1.386296   -0.800378     0.401027
|  8> S     1.549588    0.894655    -0.250561
|  9> S    -1.549588    0.894655    -0.250561
| 10> S     0.000000   -1.789310    -0.250561
| 11> H     0.000000    1.541440     1.489315
| 12> H     0.000000    2.649012     0.113501
| 13> H     2.294111   -1.324506     0.113501
| 14> H     1.334926   -0.770720     1.489315
| 15> H    -1.334926   -0.770720     1.489315
| 16> H    -2.294111   -1.324506     0.113501
| 17> *
| 18>
| 19>                          ****END OF INPUT****

CARTESIAN COORDINATES (ANGSTROEM)
---------------------------------
  C      0.000000    1.600757    0.401027
  C      1.386296   -0.800378    0.401027
  C     -1.386296   -0.800378    0.401027
  S      1.549588    0.894655   -0.250561
  S     -1.549588    0.894655   -0.250561
  S      0.000000   -1.789310   -0.250561
  H      0.000000    1.541440    1.489315
  H      0.000000    2.649012    0.113501
  H      2.294111   -1.324506    0.113501
  H      1.334926   -0.770720    1.489315
  H     -1.334926   -0.770720    1.489315
  H     -2.294111   -1.324506    0.113501

 Total Charge           Charge          ....    0
 Multiplicity           Mult            ....    1
 Number of Electrons    NEL             ....   72
 Basis Dimension        Dim             ....  426

ORBITAL ENERGIES
----------------

  NO   OCC          E(Eh)            E(eV)
   0   2.0000     -91.965770     -2502.5158
   1   2.0000     -91.965770     -2502.5158
   2   2.0000     -91.965770     -2502.5158
   3   2.0000     -11.299692      -307.4802
   4   2.0000     -11.299692      -307.4802
   5   2.0000     -11.299678      -307.4799
   6   2.0000      -8.965729      -243.9699
   7   2.0000      -8.965729      -243.9699
   8   2.0000      -8.965721      -243.9697
   9   2.0000      -6.646809      -180.8689
  10   2.0000      -6.646808      -180.8688
  11   2.0000      -6.646808      -180.8688
  12   2.0000      -6.645916      -180.8446
  13   2.0000      -6.645912      -180.8444
  14   2.0000      -6.645912      -180.8444
  15   2.0000      -6.644899      -180.8169
  16   2.0000      -6.644898      -180.8169
  17   2.0000      -6.644898      -180.8169
  18   2.0000      -1.126927       -30.6652
  19   2.0000      -1.036271       -28.1984
  20   2.0000      -1.036271       -28.1984
  21   2.0000      -0.865382       -23.5482
  22   2.0000      -0.865382       -23.5482
  23   2.0000      -0.770087       -20.9551
  24   2.0000      -0.657415       -17.8892
  25   2.0000      -0.617841       -16.8123
  26   2.0000      -0.617841       -16.8123
  27   2.0000      -0.551501       -15.0071
  28   2.0000      -0.543050       -14.7771
  29   2.0000      -0.528345       -14.3770
  30   2.0000      -0.528345       -14.3770
  31   2.0000      -0.444655       -12.0997
  32   2.0000      -0.444655       -12.0997
  33   2.0000      -0.364954        -9.9309
  34   2.0000      -0.343480        -9.3466
  35   2.0000      -0.343480        -9.3466
  36   0.0000       0.028778         0.7831
  37   0.0000       0.036073         0.9816
  38   0.0000       0.036073         0.9816
  39   0.0000       0.041074         1.1177
  40   0.0000       0.058737         1.5983

MULLIKEN ATOMIC CHARGES
-----------------------
   0 C :   -0.295546
   1 C :   -0.295546
   2 C :   -0.295546
   3 S :   -0.234399
   4 S :   -0.234399
   5 S :   -0.234399
   6 H :    0.193134
   7 H :    0.336811
   8 H :    0.336810
   9 H :    0.193135
  10 H :    0.193135
  11 H :    0.336810
Sum of atomic charges:    0.0000000

LOEWDIN ATOMIC CHARGES
----------------------
   0 C :   -0.459190
   1 C :   -0.459191
   2 C :   -0.459191
   3 S :    1.080599
   4 S :    1.080599
   5 S :    1.080599
   6 H :   -0.300268
   7 H :   -0.321141
   8 H :   -0.321141
   9 H :   -0.300268
  10 H :   -0.300268
  11 H :   -0.321141

  Mayer bond orders larger than 0.100000
B(  0-C ,  3-S ) :   1.0036 B(  0-C ,  4-S ) :   1.0036 B(  0-C ,  6-H ) :   0.9666
B(  0-C ,  7-H ) :   0.8816 B(  1-C ,  3-S ) :   1.0036 B(  1-C ,  5-S ) :   1.0036
B(  1-C ,  8-H ) :   0.8816 B(  1-C ,  9-H ) :   0.9666 B(  2-C ,  4-S ) :   1.0036
B(  2-C ,  5-S ) :   1.0036 B(  2-C , 10-H ) :   0.9666 B(  2-C , 11-H ) :   0.8816

MP2 TOTAL ENERGY:    -1310.824828513 Eh
FINAL SINGLE POINT ENERGY     -1310.824828512829

DIPOLE MOMENT
-------------
                                X             Y             Z
Electronic contribution:     -0.00000       0.00000      -3.81190
Nuclear contribution   :     -0.00000      -0.00000       4.72542
                        -----------------------------------------
Total Dipole Moment    :     -0.00000       0.00000       0.91352
                        -----------------------------------------
Magnitude (a.u.)       :      0.91352
Magnitude (Debye)      :      2.32198

Rotational constants in cm-1:     0.072429     0.072429     0.039325
Rotational constants in MHz :  2171.361614  2171.361488  1178.947884

                             ****ORCA TERMINATED NORMALLY****
TOTAL RUN TIME: 0 days 0 hours 3 minutes 41 seconds 988 msec
