                         Program Version 5.0.3 -  RELEASE  -
|  1> !ri-mp2 aug-cc-pvtz aug-cc-pvtz/c tightscf
|  2> %pal nprocs 16 end
|  3>
|  4> * xyz 0 1
|  5> O     -0.194628    1.442226   -0.211553
|  6> O      0.194628   -1.442226   -0.211553
|  7> N      0.795033    3.647186   -0.572454
|  8> N     -0.795033   -3.647186   -0.572454
|  9> C      0.339745    0.667888    0.903873
| 10> C     -0.339745   -0.667888    0.903873
| 11> C      0.339745    2.601889   -0.389104
| 12> C     -0.339745   -2.601889   -0.389104
| 13> H      1.417300    0.568273    0.779108
| 14> H      0.119945    1.195921    1.831875
| 15> H     -1.417300   -0.568273    0.779108
| 16> H     -0.119945   -1.195921    1.831875
| 17> *
| 18>
| 19>                          ****END OF INPUT****

CARTESIAN COORDINATES (ANGSTROEM)
---------------------------------
  O     -0.194628    1.442226   -0.211553
  O      0.194628   -1.442226   -0.211553
  N      0.795033    3.647186   -0.572454
  N     -0.795033   -3.647186   -0.572454
  C      0.339745    0.667888    0.903873
  C     -0.339745   -0.667888    0.903873
  C      0.339745    2.601889   -0.389104
  C     -0.339745   -2.601889   -0.389104
  H      1.417300    0.568273    0.779108
  H      0.119945    1.195921    1.831875
  H     -1.417300   -0.568273    0.779108
  H     -0.119945   -1.195921    1.831875

 Total Charge           Charge          ....    0
 Multiplicity           Mult            ....    1
 Number of Electrons    NEL             ....   58
 Basis Dimension        Dim             ....  460

ORBITAL ENERGIES
----------------

  NO   OCC          E(Eh)            E(eV)
   0   2.0000     -20.682819      -562.8081
   1   2.0000     -20.682818      -562.8081
   2   2.0000     -15.582414      -424.0190
   3   2.0000     -15.582414      -424.0190
   4   2.0000     -11.368249      -309.3458
   5   2.0000     -11.367538      -309.3264
   6   2.0000     -11.348896      -308.8192
   7   2.0000     -11.348895      -308.8191
   8   2.0000      -1.514437       -41.2099
   9   2.0000      -1.502382       -40.8819
  10   2.0000      -1.233607       -33.5682
  11   2.0000      -1.230472       -33.4828
  12   2.0000      -1.119071       -30.4515
  13   2.0000      -0.953064       -25.9342
  14   2.0000      -0.841869       -22.9084
  15   2.0000      -0.833125       -22.6705
  16   2.0000      -0.734964       -19.9994
  17   2.0000      -0.732543       -19.9335
  18   2.0000      -0.721434       -19.6312
  19   2.0000      -0.668381       -18.1876
  20   2.0000      -0.608327       -16.5534
  21   2.0000      -0.604392       -16.4463
  22   2.0000      -0.587109       -15.9761
  23   2.0000      -0.576017       -15.6742
  24   2.0000      -0.572722       -15.5846
  25   2.0000      -0.475659       -12.9433
  26   2.0000      -0.474490       -12.9115
  27   2.0000      -0.459429       -12.5017
  28   2.0000      -0.454982       -12.3807
  29   0.0000       0.012413         0.3378
  30   0.0000       0.028471         0.7747
  31   0.0000       0.037103         1.0096
  32   0.0000       0.037157         1.0111
  33   0.0000       0.063723         1.7340

MULLIKEN ATOMIC CHARGES
-----------------------
   0 O :   -0.140254
   1 O :   -0.140254
   2 N :   -0.619572
   3 N :   -0.619572
   4 C :   -0.197556
   5 C :   -0.197556
   6 C :    0.301434
   7 C :    0.301434
   8 H :    0.322382
   9 H :    0.333566
  10 H :    0.322382
  11 H :    0.333566
Sum of atomic charges:    0.0000000

LOEWDIN ATOMIC CHARGES
----------------------
   0 O :    0.523588
   1 O :    0.523588
   2 N :    0.192298
   3 N :    0.192298
   4 C :    0.100788
   5 C :    0.100788
   6 C :   -0.537259
   7 C :   -0.537259
   8 H :   -0.140989
   9 H :   -0.138425
  10 H :   -0.140989
  11 H :   -0.138425

  Mayer bond orders larger than 0.100000
B(  0-O ,  2-N ) :  -0.1829 B(  0-O ,  4-C ) :   0.6979 B(  0-O ,  6-C ) :   1.1095
B(  1-O ,  3-N ) :  -0.1829 B(  1-O ,  5-C ) :   0.6979 B(  1-O ,  7-C ) :   1.1095
B(  2-N ,  6-C ) :   2.5371 B(  3-N ,  7-C ) :   2.5371 B(  4-C ,  5-C ) :   0.8864
B(  4-C ,  8-H ) :   0.9044 B(  4-C ,  9-H ) :   0.9055 B(  5-C , 10-H ) :   0.9044
B(  5-C , 11-H ) :   0.9055

MP2 TOTAL ENERGY:     -413.993024008 Eh
FINAL SINGLE POINT ENERGY      -413.993024007807

DIPOLE MOMENT
-------------
                                X             Y             Z
Electronic contribution:     -0.00000      -0.00000      -3.31239
Nuclear contribution   :      0.00000       0.00000       5.06175
                        -----------------------------------------
Total Dipole Moment    :     -0.00000      -0.00000       1.74936
                        -----------------------------------------
Magnitude (a.u.)       :      1.74936
Magnitude (Debye)      :      4.44651

Rotational constants in cm-1:     0.316041     0.026151     0.024992
Rotational constants in MHz :  9474.668717   784.001268   749.237244

                             ****ORCA TERMINATED NORMALLY****
TOTAL RUN TIME: 0 days 0 hours 3 minutes 30 seconds 98 msec
