                         Program Version 5.0.3 -  RELEASE  -
|  1> !ri-mp2 aug-cc-pvtz aug-cc-pvtz/c tightscf
|  2> %pal nprocs 16 end
|  3>
|  4> * xyz 0 1
|  5> O     -0.557524   -1.069370    0.000000
|  6> O      0.138457   -0.482273    1.115905
|  7> O      0.138457   -0.482273   -1.115905
|  8> C      0.138457    0.901420    0.775632
|  9> C      0.138457    0.901420   -0.775632
| 10> H      1.040255    1.327083    1.210950
| 11> H      1.040255    1.327083   -1.210950
| 12> H     -0.748557    1.400059    1.169152
| 13> H     -0.748557    1.400059   -1.169152
| 14> *
| 15>
| 16>                          ****END OF INPUT****

CARTESIAN COORDINATES (ANGSTROEM)
---------------------------------
  O     -0.557524   -1.069370    0.000000
  O      0.138457   -0.482273    1.115905
  O      0.138457   -0.482273   -1.115905
  C      0.138457    0.901420    0.775632
  C      0.138457    0.901420   -0.775632
  H      1.040255    1.327083    1.210950
  H      1.040255    1.327083   -1.210950
  H     -0.748557    1.400059    1.169152
  H     -0.748557    1.400059   -1.169152

 Total Charge           Charge          ....    0
 Multiplicity           Mult            ....    1
 Number of Electrons    NEL             ....   40
 Basis Dimension        Dim             ....  322

ORBITAL ENERGIES
----------------

  NO   OCC          E(Eh)            E(eV)
   0   2.0000     -20.693583      -563.1010
   1   2.0000     -20.644912      -561.7766
   2   2.0000     -20.644884      -561.7759
   3   2.0000     -11.308738      -307.7264
   4   2.0000     -11.308171      -307.7110
   5   2.0000      -1.556960       -42.3670
   6   2.0000      -1.364304       -37.1246
   7   2.0000      -1.192807       -32.4579
   8   2.0000      -0.979869       -26.6636
   9   2.0000      -0.876341       -23.8465
  10   2.0000      -0.735810       -20.0224
  11   2.0000      -0.725743       -19.7485
  12   2.0000      -0.674306       -18.3488
  13   2.0000      -0.653909       -17.7938
  14   2.0000      -0.608957       -16.5706
  15   2.0000      -0.550218       -14.9722
  16   2.0000      -0.547402       -14.8956
  17   2.0000      -0.528278       -14.3752
  18   2.0000      -0.480677       -13.0799
  19   2.0000      -0.454997       -12.3811
  20   0.0000       0.025470         0.6931
  21   0.0000       0.037705         1.0260
  22   0.0000       0.038743         1.0543
  23   0.0000       0.057582         1.5669
  24   0.0000       0.071861         1.9554

MULLIKEN ATOMIC CHARGES
-----------------------
   0 O :   -0.213300
   1 O :   -0.377850
   2 O :   -0.377850
   3 C :   -0.166425
   4 C :   -0.166425
   5 H :    0.361704
   6 H :    0.361704
   7 H :    0.289221
   8 H :    0.289221
Sum of atomic charges:    0.0000000

LOEWDIN ATOMIC CHARGES
----------------------
   0 O :    0.102499
   1 O :    0.294114
   2 O :    0.294114
   3 C :    0.003874
   4 C :    0.003874
   5 H :   -0.175874
   6 H :   -0.175874
   7 H :   -0.173364
   8 H :   -0.173364

  Mayer bond orders larger than 0.100000
B(  0-O ,  1-O ) :   0.8709 B(  0-O ,  2-O ) :   0.8709 B(  1-O ,  3-C ) :   0.6147
B(  2-O ,  4-C ) :   0.6147 B(  3-C ,  4-C ) :   1.0609 B(  3-C ,  5-H ) :   0.8612
B(  3-C ,  7-H ) :   0.9430 B(  4-C ,  6-H ) :   0.8612 B(  4-C ,  8-H ) :   0.9430

MP2 TOTAL ENERGY:     -303.622137758 Eh
FINAL SINGLE POINT ENERGY      -303.622137758036

DIPOLE MOMENT
-------------
                                X             Y             Z
Electronic contribution:     -0.45527      -3.87967      -0.00000
Nuclear contribution   :      0.57191       5.35605       0.00000
                        -----------------------------------------
Total Dipole Moment    :      0.11664       1.47638      -0.00000
                        -----------------------------------------
Magnitude (a.u.)       :      1.48098
Magnitude (Debye)      :      3.76436

Rotational constants in cm-1:     0.273080     0.252738     0.146525
Rotational constants in MHz :  8186.746133  7576.894148  4392.716739

                             ****ORCA TERMINATED NORMALLY****
TOTAL RUN TIME: 0 days 0 hours 1 minutes 41 seconds 538 msec
