                         Program Version 5.0.3 -  RELEASE  -
|  1> !ri-mp2 aug-cc-pvtz aug-cc-pvtz/c tightscf
|  2> %pal nprocs 16 end
|  3>
|  4> * xyz 0 1
|  5> C     -0.690377   -1.160681        0.000000
|  6> C      1.195972   -0.095042        0.000000
|  7> N      0.670277   -1.287237        0.000000
|  8> N     -1.238357    0.028231        0.000000
|  9> S      0.000000    1.143132        0.000000
| 10> H     -1.314687   -2.042848        0.000000
| 11> H      2.257676    0.100119        0.000000
| 12> *
| 13>
| 14>                          ****END OF INPUT****

CARTESIAN COORDINATES (ANGSTROEM)
---------------------------------
  C     -0.690377   -1.160681    0.000000
  C      1.195972   -0.095042    0.000000
  N      0.670277   -1.287237    0.000000
  N     -1.238357    0.028231    0.000000
  S      0.000000    1.143132    0.000000
  H     -1.314687   -2.042848    0.000000
  H      2.257676    0.100119    0.000000

 Total Charge           Charge          ....    0
 Multiplicity           Mult            ....    1
 Number of Electrons    NEL             ....   44
 Basis Dimension        Dim             ....  280

ORBITAL ENERGIES
----------------

  NO   OCC          E(Eh)            E(eV)
   0   2.0000     -92.029919     -2504.2614
   1   2.0000     -15.602394      -424.5627
   2   2.0000     -15.589444      -424.2103
   3   2.0000     -11.336297      -308.4763
   4   2.0000     -11.321057      -308.0616
   5   2.0000      -9.027984      -245.6639
   6   2.0000      -6.708766      -182.5548
   7   2.0000      -6.707885      -182.5308
   8   2.0000      -6.707279      -182.5143
   9   2.0000      -1.344475       -36.5850
  10   2.0000      -1.185232       -32.2518
  11   2.0000      -1.043160       -28.3858
  12   2.0000      -0.845553       -23.0087
  13   2.0000      -0.807793       -21.9812
  14   2.0000      -0.704615       -19.1736
  15   2.0000      -0.627020       -17.0621
  16   2.0000      -0.601819       -16.3763
  17   2.0000      -0.541234       -14.7277
  18   2.0000      -0.482974       -13.1424
  19   2.0000      -0.450889       -12.2693
  20   2.0000      -0.426687       -11.6107
  21   2.0000      -0.384355       -10.4588
  22   0.0000       0.027329         0.7437
  23   0.0000       0.037670         1.0251
  24   0.0000       0.059051         1.6069
  25   0.0000       0.069118         1.8808
  26   0.0000       0.074901         2.0382

MULLIKEN ATOMIC CHARGES
-----------------------
   0 C :   -0.254956
   1 C :   -0.321272
   2 N :   -0.353458
   3 N :   -0.457255
   4 S :    0.235206
   5 H :    0.599724
   6 H :    0.552012
Sum of atomic charges:    0.0000000

LOEWDIN ATOMIC CHARGES
----------------------
   0 C :   -0.371515
   1 C :   -0.388919
   2 N :    0.253894
   3 N :   -0.085248
   4 S :    1.062981
   5 H :   -0.214539
   6 H :   -0.256653

  Mayer bond orders larger than 0.100000
B(  0-C ,  1-C ) :  -0.1648 B(  0-C ,  2-N ) :   1.0352 B(  0-C ,  3-N ) :   1.4558
B(  0-C ,  5-H ) :   0.6261 B(  1-C ,  2-N ) :   1.4806 B(  1-C ,  4-S ) :   1.2640
B(  1-C ,  6-H ) :   0.6412 B(  3-N ,  4-S ) :   1.0471

MP2 TOTAL ENERGY:     -584.288103301 Eh
FINAL SINGLE POINT ENERGY      -584.288103301241

DIPOLE MOMENT
-------------
                                X             Y             Z
Electronic contribution:     -0.29719       2.14792       0.00000
Nuclear contribution   :      0.90172      -1.90523       0.00000
                        -----------------------------------------
Total Dipole Moment    :      0.60452       0.24269       0.00000
                        -----------------------------------------
Magnitude (a.u.)       :      0.65142
Magnitude (Debye)      :      1.65577

Rotational constants in cm-1:     0.293269     0.196839     0.117784
Rotational constants in MHz :  8791.977653  5901.094349  3531.071626

                             ****ORCA TERMINATED NORMALLY****
TOTAL RUN TIME: 0 days 0 hours 1 minutes 37 seconds 658 msec
