                         Program Version 5.0.3 -  RELEASE  -
|  1> !ri-mp2 aug-cc-pvtz aug-cc-pvtz/c tightscf
|  2> %pal nprocs 16 end
|  3> %maxcore 3800
|  4>
|  5> * xyz 0 1
|  6> C      3.802935   -0.490610    0.000000
|  7> C      2.559112    0.396474    0.000000
|  8> C      1.251338   -0.396094    0.000000
|  9> C      0.000000    0.482704    0.000000
| 10> C     -1.308018   -0.309699    0.000000
| 11> C     -2.556134    0.578683    0.000000
| 12> N     -3.845546   -0.114188    0.000000
| 13> H      4.717679    0.103723    0.000000
| 14> H      3.826861   -1.135787    0.880692
| 15> H      3.826861   -1.135787   -0.880692
| 16> H      2.580491    1.054451    0.873988
| 17> H      2.580491    1.054451   -0.873988
| 18> H      1.230295   -1.055016    0.874553
| 19> H      1.230295   -1.055016   -0.874553
| 20> H      0.022835    1.141535   -0.874500
| 21> H      0.022835    1.141535    0.874500
| 22> H     -1.338505   -0.966435    0.876192
| 23> H     -1.338505   -0.966435   -0.876192
| 24> H     -2.533944    1.235791    0.873348
| 25> H     -2.533944    1.235791   -0.873348
| 26> H     -3.935161   -0.711119    0.813635
| 27> H     -3.935161   -0.711119   -0.813635
| 28> *
| 29>
| 30>                          ****END OF INPUT****

CARTESIAN COORDINATES (ANGSTROEM)
---------------------------------
  C      3.802935   -0.490610    0.000000
  C      2.559112    0.396474    0.000000
  C      1.251338   -0.396094    0.000000
  C      0.000000    0.482704    0.000000
  C     -1.308018   -0.309699    0.000000
  C     -2.556134    0.578683    0.000000
  N     -3.845546   -0.114188    0.000000
  H      4.717679    0.103723    0.000000
  H      3.826861   -1.135787    0.880692
  H      3.826861   -1.135787   -0.880692
  H      2.580491    1.054451    0.873988
  H      2.580491    1.054451   -0.873988
  H      1.230295   -1.055016    0.874553
  H      1.230295   -1.055016   -0.874553
  H      0.022835    1.141535   -0.874500
  H      0.022835    1.141535    0.874500
  H     -1.338505   -0.966435    0.876192
  H     -1.338505   -0.966435   -0.876192
  H     -2.533944    1.235791    0.873348
  H     -2.533944    1.235791   -0.873348
  H     -3.935161   -0.711119    0.813635
  H     -3.935161   -0.711119   -0.813635

 Total Charge           Charge          ....    0
 Multiplicity           Mult            ....    1
 Number of Electrons    NEL             ....   58
 Basis Dimension        Dim             ....  667

ORBITAL ENERGIES
----------------

  NO   OCC          E(Eh)            E(eV)
   0   2.0000     -15.535784      -422.7502
   1   2.0000     -11.243243      -305.9442
   2   2.0000     -11.217020      -305.2306
   3   2.0000     -11.216817      -305.2251
   4   2.0000     -11.215544      -305.1905
   5   2.0000     -11.215340      -305.1849
   6   2.0000     -11.210538      -305.0542
   7   2.0000      -1.174053       -31.9476
   8   2.0000      -1.082461       -29.4553
   9   2.0000      -1.025655       -27.9095
  10   2.0000      -0.945001       -25.7148
  11   2.0000      -0.859148       -23.3786
  12   2.0000      -0.801829       -21.8189
  13   2.0000      -0.788357       -21.4523
  14   2.0000      -0.676119       -18.3981
  15   2.0000      -0.644089       -17.5265
  16   2.0000      -0.601859       -16.3774
  17   2.0000      -0.597682       -16.2637
  18   2.0000      -0.580435       -15.7944
  19   2.0000      -0.558768       -15.2049
  20   2.0000      -0.542680       -14.7671
  21   2.0000      -0.533195       -14.5090
  22   2.0000      -0.495124       -13.4730
  23   2.0000      -0.488073       -13.2811
  24   2.0000      -0.468652       -12.7527
  25   2.0000      -0.467271       -12.7151
  26   2.0000      -0.461191       -12.5497
  27   2.0000      -0.459895       -12.5144
  28   2.0000      -0.380489       -10.3536
  29   0.0000       0.029554         0.8042
  30   0.0000       0.032009         0.8710
  31   0.0000       0.035982         0.9791
  32   0.0000       0.036472         0.9925
  33   0.0000       0.047055         1.2804

MULLIKEN ATOMIC CHARGES
-----------------------
   0 C :   -0.997462
   1 C :   -0.489619
   2 C :   -0.326534
   3 C :   -0.355213
   4 C :   -0.386021
   5 C :   -0.122640
   6 N :   -0.701166
   7 H :    0.276922
   8 H :    0.264106
   9 H :    0.264106
  10 H :    0.233106
  11 H :    0.233106
  12 H :    0.244045
  13 H :    0.244045
  14 H :    0.251557
  15 H :    0.251557
  16 H :    0.220902
  17 H :    0.220902
  18 H :    0.244628
  19 H :    0.244628
  20 H :    0.092522
  21 H :    0.092522
Sum of atomic charges:   -0.0000000

LOEWDIN ATOMIC CHARGES
----------------------
   0 C :    0.577891
   1 C :    0.256539
   2 C :    0.268055
   3 C :    0.271107
   4 C :    0.277857
   5 C :    0.150087
   6 N :    0.835312
   7 H :   -0.174213
   8 H :   -0.171775
   9 H :   -0.171775
  10 H :   -0.148099
  11 H :   -0.148099
  12 H :   -0.141972
  13 H :   -0.141972
  14 H :   -0.141008
  15 H :   -0.141008
  16 H :   -0.146049
  17 H :   -0.146049
  18 H :   -0.152139
  19 H :   -0.152139
  20 H :   -0.330275
  21 H :   -0.330275

  Mayer bond orders larger than 0.100000
B(  0-C ,  1-C ) :   0.9339 B(  0-C ,  7-H ) :   0.9872 B(  0-C ,  8-H ) :   0.9665
B(  0-C ,  9-H ) :   0.9665 B(  1-C ,  2-C ) :   0.9169 B(  1-C , 10-H ) :   0.9667
B(  1-C , 11-H ) :   0.9667 B(  2-C ,  3-C ) :   0.9619 B(  2-C , 12-H ) :   0.9609
B(  2-C , 13-H ) :   0.9609 B(  3-C ,  4-C ) :   0.9181 B(  3-C , 14-H ) :   0.9410
B(  3-C , 15-H ) :   0.9410 B(  4-C ,  5-C ) :   0.9176 B(  4-C , 16-H ) :   0.9621
B(  4-C , 17-H ) :   0.9621 B(  5-C ,  6-N ) :   0.6177 B(  5-C , 18-H ) :   0.9871
B(  5-C , 19-H ) :   0.9871 B(  6-N , 20-H ) :   1.0070 B(  6-N , 21-H ) :   1.0070

MP2 TOTAL ENERGY:     -291.794220596 Eh
FINAL SINGLE POINT ENERGY      -291.794220595911

DIPOLE MOMENT
-------------
                                X             Y             Z
Electronic contribution:     -4.29831       0.48573      -0.00000
Nuclear contribution   :      4.73725      -0.82897       0.00000
                        -----------------------------------------
Total Dipole Moment    :      0.43895      -0.34324      -0.00000
                        -----------------------------------------
Magnitude (a.u.)       :      0.55721
Magnitude (Debye)      :      1.41632

Rotational constants in cm-1:     0.420566     0.023911     0.023288
Rotational constants in MHz : 12608.242234   716.837983   698.152744

                             ****ORCA TERMINATED NORMALLY****
TOTAL RUN TIME: 0 days 0 hours 9 minutes 1 seconds 936 msec
