                         Program Version 5.0.3 -  RELEASE  -
|  1> !ri-mp2 aug-cc-pvtz aug-cc-pvtz/c tightscf
|  2> %pal nprocs 16 end
|  3> %maxcore 3800
|  4>
|  5> * xyz 0 1
|  6> C     -2.758791   -0.172612    0.000000
|  7> C     -2.313124    1.163832    0.000000
|  8> C      1.829384   -1.714992    0.000000
|  9> C     -1.848501   -1.196478    0.000000
| 10> C     -0.971197    1.448460    0.000000
| 11> C      0.490238   -1.990790    0.000000
| 12> C      2.279504   -0.378590    0.000000
| 13> C     -0.456728   -0.938145    0.000000
| 14> C      0.000000    0.416294    0.000000
| 15> C      1.404403    0.681449    0.000000
| 16> C      1.923415    2.094613    0.000000
| 17> H     -3.819371   -0.385993    0.000000
| 18> H     -3.035349    1.969463    0.000000
| 19> H      2.552742   -2.519609    0.000000
| 20> H     -2.183645   -2.226203    0.000000
| 21> H     -0.648971    2.479854    0.000000
| 22> H      0.135898   -3.013788    0.000000
| 23> H      3.344718   -0.184205    0.000000
| 24> H      1.585124    2.649218    0.878154
| 25> H      3.012098    2.103795    0.000000
| 26> H      1.585124    2.649218   -0.878154
| 27> *
| 28>
| 29>                          ****END OF INPUT****

CARTESIAN COORDINATES (ANGSTROEM)
---------------------------------
  C     -2.758791   -0.172612    0.000000
  C     -2.313124    1.163832    0.000000
  C      1.829384   -1.714992    0.000000
  C     -1.848501   -1.196478    0.000000
  C     -0.971197    1.448460    0.000000
  C      0.490238   -1.990790    0.000000
  C      2.279504   -0.378590    0.000000
  C     -0.456728   -0.938145    0.000000
  C      0.000000    0.416294    0.000000
  C      1.404403    0.681449    0.000000
  C      1.923415    2.094613    0.000000
  H     -3.819371   -0.385993    0.000000
  H     -3.035349    1.969463    0.000000
  H      2.552742   -2.519609    0.000000
  H     -2.183645   -2.226203    0.000000
  H     -0.648971    2.479854    0.000000
  H      0.135898   -3.013788    0.000000
  H      3.344718   -0.184205    0.000000
  H      1.585124    2.649218    0.878154
  H      3.012098    2.103795    0.000000
  H      1.585124    2.649218   -0.878154

 Total Charge           Charge          ....    0
 Multiplicity           Mult            ....    1
 Number of Electrons    NEL             ....   76
 Basis Dimension        Dim             ....  736

ORBITAL ENERGIES
----------------

  NO   OCC          E(Eh)            E(eV)
   0   2.0000     -11.243675      -305.9560
   1   2.0000     -11.242050      -305.9117
   2   2.0000     -11.240522      -305.8702
   3   2.0000     -11.235013      -305.7203
   4   2.0000     -11.234502      -305.7064
   5   2.0000     -11.233474      -305.6784
   6   2.0000     -11.232867      -305.6619
   7   2.0000     -11.232793      -305.6598
   8   2.0000     -11.230429      -305.5955
   9   2.0000     -11.228422      -305.5409
  10   2.0000     -11.224739      -305.4407
  11   2.0000      -1.177960       -32.0539
  12   2.0000      -1.112715       -30.2785
  13   2.0000      -1.065459       -28.9926
  14   2.0000      -1.007520       -27.4160
  15   2.0000      -0.999534       -27.1987
  16   2.0000      -0.932733       -25.3809
  17   2.0000      -0.848066       -23.0770
  18   2.0000      -0.837835       -22.7986
  19   2.0000      -0.788177       -21.4474
  20   2.0000      -0.706008       -19.2114
  21   2.0000      -0.693529       -18.8719
  22   2.0000      -0.675817       -18.3899
  23   2.0000      -0.620907       -16.8958
  24   2.0000      -0.607997       -16.5444
  25   2.0000      -0.586370       -15.9559
  26   2.0000      -0.580595       -15.7988
  27   2.0000      -0.574608       -15.6359
  28   2.0000      -0.560506       -15.2521
  29   2.0000      -0.537146       -14.6165
  30   2.0000      -0.521785       -14.1985
  31   2.0000      -0.521387       -14.1877
  32   2.0000      -0.483100       -13.1458
  33   2.0000      -0.470380       -12.7997
  34   2.0000      -0.446004       -12.1364
  35   2.0000      -0.376973       -10.2579
  36   2.0000      -0.318809        -8.6752
  37   2.0000      -0.285311        -7.7637
  38   0.0000       0.029159         0.7934
  39   0.0000       0.030893         0.8406
  40   0.0000       0.031088         0.8459
  41   0.0000       0.041747         1.1360
  42   0.0000       0.043299         1.1782

MULLIKEN ATOMIC CHARGES
-----------------------
   0 C :   -0.320238
   1 C :   -0.533397
   2 C :   -0.408609
   3 C :   -1.174839
   4 C :   -1.143571
   5 C :   -1.015818
   6 C :   -0.832269
   7 C :    1.416466
   8 C :    1.520854
   9 C :    0.810189
  10 C :   -0.783872
  11 H :    0.531737
  12 H :    0.610608
  13 H :    0.769518
  14 H :    0.135119
  15 H :   -0.258135
  16 H :   -0.022651
  17 H :   -0.053473
  18 H :    0.257174
  19 H :    0.238031
  20 H :    0.257174
Sum of atomic charges:   -0.0000000

LOEWDIN ATOMIC CHARGES
----------------------
   0 C :    0.203519
   1 C :    0.207659
   2 C :    0.207911
   3 C :    0.220539
   4 C :    0.224744
   5 C :    0.218515
   6 C :    0.219332
   7 C :   -0.114184
   8 C :   -0.079467
   9 C :   -0.086604
  10 C :    0.573433
  11 H :   -0.185186
  12 H :   -0.184899
  13 H :   -0.183687
  14 H :   -0.178273
  15 H :   -0.193758
  16 H :   -0.179524
  17 H :   -0.184037
  18 H :   -0.163787
  19 H :   -0.178459
  20 H :   -0.163787

  Mayer bond orders larger than 0.100000
B(  0-C ,  1-C ) :   0.9683 B(  0-C ,  3-C ) :   1.0097 B(  0-C ,  4-C ) :  -0.1845
B(  0-C ,  7-C ) :   0.1263 B(  0-C ,  8-C ) :  -0.1047 B(  0-C ,  9-C ) :   0.1207
B(  0-C , 11-H ) :   0.6502 B(  1-C ,  4-C ) :   1.0804 B(  1-C ,  5-C ) :   0.1003
B(  1-C ,  8-C ) :   0.3132 B(  1-C , 12-H ) :   0.5311 B(  1-C , 15-H ) :  -0.1853
B(  2-C ,  5-C ) :   0.9982 B(  2-C ,  6-C ) :   0.8148 B(  2-C ,  7-C ) :   0.4575
B(  2-C ,  8-C ) :  -0.1208 B(  2-C ,  9-C ) :   0.3965 B(  2-C , 13-H ) :   0.2112
B(  2-C , 16-H ) :  -0.2586 B(  2-C , 17-H ) :  -0.1973 B(  3-C ,  4-C ) :   0.1065
B(  3-C ,  5-C ) :   0.6008 B(  3-C ,  9-C ) :  -0.1240 B(  3-C , 11-H ) :  -0.2074
B(  3-C , 14-H ) :   1.4909 B(  3-C , 17-H ) :  -0.1346 B(  4-C ,  7-C ) :  -0.4546
B(  4-C ,  8-C ) :  -0.1076 B(  4-C ,  9-C ) :   0.4798 B(  4-C , 12-H ) :  -0.2726
B(  4-C , 15-H ) :   2.3738 B(  5-C ,  6-C ) :  -0.3072 B(  5-C ,  7-C ) :  -0.2771
B(  5-C , 13-H ) :  -0.1522 B(  5-C , 16-H ) :   1.8510 B(  5-C , 17-H ) :   0.3522
B(  6-C ,  9-C ) :   0.5729 B(  6-C , 14-H ) :  -0.1814 B(  6-C , 16-H ) :   0.1447
B(  6-C , 17-H ) :   1.7093 B(  7-C ,  8-C ) :   0.2825 B(  7-C ,  9-C ) :   0.6151
B(  7-C , 11-H ) :  -0.1041 B(  7-C , 14-H ) :   0.1030 B(  7-C , 16-H ) :  -0.3378
B(  8-C ,  9-C ) :   0.3681 B(  8-C , 10-C ) :   0.2959 B(  8-C , 11-H ) :   0.1885
B(  8-C , 12-H ) :  -0.2424 B(  8-C , 13-H ) :   0.1171 B(  8-C , 16-H ) :   0.1455
B(  9-C , 10-C ) :   0.1492 B(  9-C , 11-H ) :  -0.1922 B(  9-C , 12-H ) :   0.2524
B(  9-C , 15-H ) :  -0.2734 B(  9-C , 17-H ) :  -0.1892 B(  9-C , 18-H ) :  -0.1158
B(  9-C , 20-H ) :  -0.1158 B( 10-C , 18-H ) :   1.0513 B( 10-C , 19-H ) :   1.0224
B( 10-C , 20-H ) :   1.0513 B( 12-H , 15-H ) :  -0.1114 B( 13-H , 16-H ) :  -0.1333
B( 13-H , 17-H ) :  -0.1536 B( 16-H , 17-H ) :   0.1741

MP2 TOTAL ENERGY:     -424.300857154 Eh
FINAL SINGLE POINT ENERGY      -424.300857153590

DIPOLE MOMENT
-------------
                                X             Y             Z
Electronic contribution:     -2.47956      -3.40503       0.00000
Nuclear contribution   :      2.53784       3.53494       0.00000
                        -----------------------------------------
Total Dipole Moment    :      0.05828       0.12991       0.00000
                        -----------------------------------------
Magnitude (a.u.)       :      0.14238
Magnitude (Debye)      :      0.36191

Rotational constants in cm-1:     0.063531     0.037699     0.023763
Rotational constants in MHz :  1904.619887  1130.200426   712.410260

                             ****ORCA TERMINATED NORMALLY****
TOTAL RUN TIME: 0 days 0 hours 19 minutes 2 seconds 868 msec
