                         Program Version 5.0.3 -  RELEASE  -
|  1> !ri-mp2 aug-cc-pvtz aug-cc-pvtz/c tightscf
|  2> %pal nprocs 16 end
|  3>
|  4> * xyz 0 1
|  5> F     -0.675349   -0.769946    1.097109
|  6> F     -0.675515   -0.770081   -1.096910
|  7> N      2.321971    0.174000   -0.000189
|  8> C     -0.299060   -0.045692    0.000026
|  9> C     -0.986636    1.297029   -0.000005
| 10> C      1.181140    0.048530   -0.000093
| 11> H     -2.061714    1.126864    0.000085
| 12> H     -0.703552    1.858035   -0.887970
| 13> H     -0.703421    1.858143    0.887851
| 14> *
| 15>
| 16>                          ****END OF INPUT****

CARTESIAN COORDINATES (ANGSTROEM)
---------------------------------
  F     -0.675349   -0.769946    1.097109
  F     -0.675515   -0.770081   -1.096910
  N      2.321971    0.174000   -0.000189
  C     -0.299060   -0.045692    0.000026
  C     -0.986636    1.297029   -0.000005
  C      1.181140    0.048530   -0.000093
  H     -2.061714    1.126864    0.000085
  H     -0.703552    1.858035   -0.887970
  H     -0.703421    1.858143    0.887851

 Total Charge           Charge          ....    0
 Multiplicity           Mult            ....    1
 Number of Electrons    NEL             ....   46
 Basis Dimension        Dim             ....  345

ORBITAL ENERGIES
----------------

  NO   OCC          E(Eh)            E(eV)
   0   2.0000     -26.345386      -716.8944
   1   2.0000     -26.345366      -716.8939
   2   2.0000     -15.610774      -424.7908
   3   2.0000     -11.481592      -312.4300
   4   2.0000     -11.302258      -307.5501
   5   2.0000     -11.273790      -306.7754
   6   2.0000      -1.696013       -46.1509
   7   2.0000      -1.632831       -44.4316
   8   2.0000      -1.256244       -34.1841
   9   2.0000      -1.102799       -30.0087
  10   2.0000      -0.960318       -26.1316
  11   2.0000      -0.841542       -22.8995
  12   2.0000      -0.797789       -21.7089
  13   2.0000      -0.766054       -20.8454
  14   2.0000      -0.703493       -19.1430
  15   2.0000      -0.680898       -18.5282
  16   2.0000      -0.664198       -18.0737
  17   2.0000      -0.614746       -16.7281
  18   2.0000      -0.602400       -16.3921
  19   2.0000      -0.594839       -16.1864
  20   2.0000      -0.570182       -15.5155
  21   2.0000      -0.508341       -13.8326
  22   2.0000      -0.503708       -13.7066
  23   0.0000       0.024265         0.6603
  24   0.0000       0.042156         1.1471
  25   0.0000       0.042179         1.1478
  26   0.0000       0.060754         1.6532
  27   0.0000       0.079367         2.1597

MULLIKEN ATOMIC CHARGES
-----------------------
   0 F :   -0.435859
   1 F :   -0.435859
   2 N :   -0.489729
   3 C :    1.333028
   4 C :   -1.017383
   5 C :    0.078799
   6 H :    0.299880
   7 H :    0.333562
   8 H :    0.333562
Sum of atomic charges:    0.0000000

LOEWDIN ATOMIC CHARGES
----------------------
   0 F :    0.500000
   1 F :    0.500001
   2 N :    0.278311
   3 C :   -1.137037
   4 C :    0.576833
   5 C :   -0.223069
   6 H :   -0.165222
   7 H :   -0.164909
   8 H :   -0.164908

  Mayer bond orders larger than 0.100000
B(  0-F ,  3-C ) :   0.6401 B(  1-F ,  3-C ) :   0.6401 B(  2-N ,  5-C ) :   2.3033
B(  3-C ,  4-C ) :   0.9183 B(  3-C ,  5-C ) :   1.0095 B(  4-C ,  5-C ) :   0.1232
B(  4-C ,  6-H ) :   0.9235 B(  4-C ,  7-H ) :   0.8997 B(  4-C ,  8-H ) :   0.8997

MP2 TOTAL ENERGY:     -369.995664901 Eh
FINAL SINGLE POINT ENERGY      -369.995664901445

DIPOLE MOMENT
-------------
                                X             Y             Z
Electronic contribution:      0.93394      -5.18156       0.00025
Nuclear contribution   :     -2.01222       6.03865      -0.00022
                        -----------------------------------------
Total Dipole Moment    :     -1.07828       0.85709       0.00003
                        -----------------------------------------
Magnitude (a.u.)       :      1.37742
Magnitude (Debye)      :      3.50112

Rotational constants in cm-1:     0.172282     0.096108     0.094376
Rotational constants in MHz :  5164.876486  2881.244849  2829.313583

                             ****ORCA TERMINATED NORMALLY****
TOTAL RUN TIME: 0 days 0 hours 1 minutes 57 seconds 68 msec
