                         Program Version 5.0.3 -  RELEASE  -
|  1> !ri-mp2 aug-cc-pvtz aug-cc-pvtz/c tightscf
|  2> %pal nprocs 16 end
|  3>
|  4> * xyz 0 1
|  5> S    -1.343024    1.653778   -0.188507
|  6> S    -1.672982   -1.441915    0.055760
|  7> N     0.022233    0.641827   -0.044011
|  8> N     0.993395   -1.482659    0.024447
|  9> N     2.446897    0.418854   -0.082676
| 10> C    -0.052767   -0.722709    0.020912
| 11> C     1.336826    1.254097    0.292287
| 12> C     2.209200   -0.831052   -0.160281
| 13> H    -1.575475    1.878237    1.129449
| 14> H    -1.161932   -2.687349    0.059929
| 15> H     1.376602    1.458299    1.372225
| 16> H     1.387735    2.206582   -0.231409
| 17> H     3.031951   -1.493748   -0.408073
| 18> *
| 19>
| 20>                          ****END OF INPUT****

CARTESIAN COORDINATES (ANGSTROEM)
---------------------------------
  S     -1.343024    1.653778   -0.188507
  S     -1.672982   -1.441915    0.055760
  N      0.022233    0.641827   -0.044011
  N      0.993395   -1.482659    0.024447
  N      2.446897    0.418854   -0.082676
  C     -0.052767   -0.722709    0.020912
  C      1.336826    1.254097    0.292287
  C      2.209200   -0.831052   -0.160281
  H     -1.575475    1.878237    1.129449
  H     -1.161932   -2.687349    0.059929
  H      1.376602    1.458299    1.372225
  H      1.387735    2.206582   -0.231409
  H      3.031951   -1.493748   -0.408073

 Total Charge           Charge          ....    0
 Multiplicity           Mult            ....    1
 Number of Electrons    NEL             ....   76
 Basis Dimension        Dim             ....  491

ORBITAL ENERGIES
----------------

  NO   OCC          E(Eh)            E(eV)
   0   2.0000     -92.020612     -2504.0081
   1   2.0000     -91.993251     -2503.2636
   2   2.0000     -15.636320      -425.4859
   3   2.0000     -15.553761      -423.2393
   4   2.0000     -15.552637      -423.2088
   5   2.0000     -11.383978      -309.7738
   6   2.0000     -11.311197      -307.7933
   7   2.0000     -11.309811      -307.7556
   8   2.0000      -9.017712      -245.3844
   9   2.0000      -8.994639      -244.7566
  10   2.0000      -6.698925      -182.2870
  11   2.0000      -6.697629      -182.2517
  12   2.0000      -6.696631      -182.2246
  13   2.0000      -6.675768      -181.6569
  14   2.0000      -6.674766      -181.6296
  15   2.0000      -6.673783      -181.6029
  16   2.0000      -1.348728       -36.7008
  17   2.0000      -1.233823       -33.5740
  18   2.0000      -1.199111       -32.6295
  19   2.0000      -1.031467       -28.0676
  20   2.0000      -0.999522       -27.1984
  21   2.0000      -0.941143       -25.6098
  22   2.0000      -0.856070       -23.2948
  23   2.0000      -0.732794       -19.9403
  24   2.0000      -0.707267       -19.2457
  25   2.0000      -0.699469       -19.0335
  26   2.0000      -0.649084       -17.6625
  27   2.0000      -0.598361       -16.2822
  28   2.0000      -0.588289       -16.0081
  29   2.0000      -0.565617       -15.3912
  30   2.0000      -0.537124       -14.6159
  31   2.0000      -0.522316       -14.2129
  32   2.0000      -0.471568       -12.8320
  33   2.0000      -0.462520       -12.5858
  34   2.0000      -0.430589       -11.7169
  35   2.0000      -0.405667       -11.0388
  36   2.0000      -0.383400       -10.4329
  37   2.0000      -0.346647        -9.4327
  38   0.0000       0.026398         0.7183
  39   0.0000       0.036492         0.9930
  40   0.0000       0.040995         1.1155
  41   0.0000       0.045276         1.2320
  42   0.0000       0.051201         1.3933

MULLIKEN ATOMIC CHARGES
-----------------------
   0 S :   -0.287227
   1 S :   -0.217834
   2 N :    0.153130
   3 N :   -0.445518
   4 N :   -0.619284
   5 C :    0.290362
   6 C :   -0.026864
   7 C :   -0.450831
   8 H :    0.153201
   9 H :    0.121205
  10 H :    0.299391
  11 H :    0.396615
  12 H :    0.633653
Sum of atomic charges:   -0.0000000

LOEWDIN ATOMIC CHARGES
----------------------
   0 S :    1.211612
   1 S :    1.296621
   2 N :   -0.239099
   3 N :    0.277734
   4 N :    0.370018
   5 C :   -0.979055
   6 C :   -0.086011
   7 C :   -0.206017
   8 H :   -0.526335
   9 H :   -0.560422
  10 H :   -0.157389
  11 H :   -0.196305
  12 H :   -0.205352

  Mayer bond orders larger than 0.100000
B(  0-S ,  2-N ) :   0.8641 B(  0-S ,  8-H ) :   1.0116 B(  1-S ,  2-N ) :  -0.1163
B(  1-S ,  5-C ) :   0.9443 B(  1-S ,  9-H ) :   1.0591 B(  2-N ,  5-C ) :   1.0795
B(  2-N ,  6-C ) :   0.7733 B(  3-N ,  5-C ) :   1.1900 B(  3-N ,  7-C ) :   0.9500
B(  4-N ,  6-C ) :   0.5717 B(  4-N ,  7-C ) :   1.6140 B(  5-C ,  7-C ) :  -0.1587
B(  6-C ,  7-C ) :  -0.1034 B(  6-C , 10-H ) :   0.9516 B(  6-C , 11-H ) :   0.8760
B(  7-C , 12-H ) :   0.5166

MP2 TOTAL ENERGY:    -1076.461615473 Eh
FINAL SINGLE POINT ENERGY     -1076.461615473226

DIPOLE MOMENT
-------------
                                X             Y             Z
Electronic contribution:     -3.91225      -1.02283      -1.43105
Nuclear contribution   :      3.07572       1.31183       1.86701
                        -----------------------------------------
Total Dipole Moment    :     -0.83653       0.28899       0.43596
                        -----------------------------------------
Magnitude (a.u.)       :      0.98659
Magnitude (Debye)      :      2.50772

Rotational constants in cm-1:     0.066625     0.048398     0.028606
Rotational constants in MHz :  1997.353867  1450.921670   857.590987

                             ****ORCA TERMINATED NORMALLY****
TOTAL RUN TIME: 0 days 0 hours 5 minutes 35 seconds 494 msec
