                         Program Version 5.0.3 -  RELEASE  -
|  1> !ri-mp2 aug-cc-pvtz aug-cc-pvtz/c tightscf
|  2> %pal nprocs 16 end
|  3>
|  4> * xyz 0 1
|  5> S     -0.195948    2.519947    0.000000
|  6> C     -0.116097    0.874513    0.000000
|  7> S     -0.033616    0.069956    1.548701
|  8> C     -0.033616   -1.749646    1.260469
|  9> C      0.684442   -2.198644    0.000000
| 10> C     -0.033616   -1.749646   -1.260469
| 11> S     -0.033616    0.069956   -1.548701
| 12> H      0.452909   -2.143490    2.151791
| 13> H     -1.066908   -2.096687    1.261615
| 14> H      1.716281   -1.844930    0.000000
| 15> H      0.715928   -3.291933    0.000000
| 16> H      0.452909   -2.143490   -2.151791
| 17> H     -1.066908   -2.096687   -1.261615
| 18> *
| 19>
| 20>                          ****END OF INPUT****

CARTESIAN COORDINATES (ANGSTROEM)
---------------------------------
  S     -0.195948    2.519947    0.000000
  C     -0.116097    0.874513    0.000000
  S     -0.033616    0.069956    1.548701
  C     -0.033616   -1.749646    1.260469
  C      0.684442   -2.198644    0.000000
  C     -0.033616   -1.749646   -1.260469
  S     -0.033616    0.069956   -1.548701
  H      0.452909   -2.143490    2.151791
  H     -1.066908   -2.096687    1.261615
  H      1.716281   -1.844930    0.000000
  H      0.715928   -3.291933    0.000000
  H      0.452909   -2.143490   -2.151791
  H     -1.066908   -2.096687   -1.261615

 Total Charge           Charge          ....    0
 Multiplicity           Mult            ....    1
 Number of Electrons    NEL             ....   78
 Basis Dimension        Dim             ....  472

ORBITAL ENERGIES
----------------

  NO   OCC          E(Eh)            E(eV)
   0   2.0000     -91.993219     -2503.2628
   1   2.0000     -91.993219     -2503.2628
   2   2.0000     -91.921282     -2501.3052
   3   2.0000     -11.374124      -309.5056
   4   2.0000     -11.289670      -307.2075
   5   2.0000     -11.289668      -307.2075
   6   2.0000     -11.267736      -306.6107
   7   2.0000      -8.993246      -244.7187
   8   2.0000      -8.993237      -244.7184
   9   2.0000      -8.923892      -242.8315
  10   2.0000      -6.674253      -181.6157
  11   2.0000      -6.674250      -181.6156
  12   2.0000      -6.672968      -181.5807
  13   2.0000      -6.672965      -181.5806
  14   2.0000      -6.672289      -181.5622
  15   2.0000      -6.672289      -181.5622
  16   2.0000      -6.604974      -179.7305
  17   2.0000      -6.603634      -179.6940
  18   2.0000      -6.602581      -179.6654
  19   2.0000      -1.161451       -31.6047
  20   2.0000      -1.089554       -29.6483
  21   2.0000      -1.050467       -28.5847
  22   2.0000      -0.944437       -25.6994
  23   2.0000      -0.897512       -24.4226
  24   2.0000      -0.836638       -22.7661
  25   2.0000      -0.710246       -19.3268
  26   2.0000      -0.658035       -17.9061
  27   2.0000      -0.627824       -17.0839
  28   2.0000      -0.618889       -16.8408
  29   2.0000      -0.608043       -16.5457
  30   2.0000      -0.543838       -14.7986
  31   2.0000      -0.543112       -14.7788
  32   2.0000      -0.524513       -14.2727
  33   2.0000      -0.493207       -13.4208
  34   2.0000      -0.457464       -12.4482
  35   2.0000      -0.442159       -12.0318
  36   2.0000      -0.375955       -10.2303
  37   2.0000      -0.332497        -9.0477
  38   2.0000      -0.327431        -8.9098
  39   0.0000       0.018358         0.4995
  40   0.0000       0.030316         0.8250
  41   0.0000       0.032477         0.8838
  42   0.0000       0.042718         1.1624
  43   0.0000       0.048326         1.3150

MULLIKEN ATOMIC CHARGES
-----------------------
   0 S :   -0.424380
   1 C :    0.287199
   2 S :   -0.146278
   3 C :   -0.405143
   4 C :   -0.431398
   5 C :   -0.405143
   6 S :   -0.146278
   7 H :    0.287292
   8 H :    0.252489
   9 H :    0.321525
  10 H :    0.270332
  11 H :    0.287292
  12 H :    0.252489
Sum of atomic charges:   -0.0000000

LOEWDIN ATOMIC CHARGES
----------------------
   0 S :    0.692342
   1 C :   -1.755368
   2 S :    1.101184
   3 C :   -0.042913
   4 C :    0.147412
   5 C :   -0.042913
   6 S :    1.101184
   7 H :   -0.225866
   8 H :   -0.219360
   9 H :   -0.161243
  10 H :   -0.149234
  11 H :   -0.225866
  12 H :   -0.219360

  Mayer bond orders larger than 0.100000
B(  0-S ,  1-C ) :   1.7336 B(  1-C ,  2-S ) :   1.0288 B(  1-C ,  6-S ) :   1.0288
B(  2-S ,  3-C ) :   0.8936 B(  3-C ,  4-C ) :   0.9495 B(  3-C ,  7-H ) :   0.9497
B(  3-C ,  8-H ) :   0.9480 B(  4-C ,  5-C ) :   0.9495 B(  4-C ,  9-H ) :   0.8936
B(  4-C , 10-H ) :   0.9286 B(  5-C ,  6-S ) :   0.8936 B(  5-C , 11-H ) :   0.9497
B(  5-C , 12-H ) :   0.9480

MP2 TOTAL ENERGY:    -1348.853764235 Eh
FINAL SINGLE POINT ENERGY     -1348.853764235007

DIPOLE MOMENT
-------------
                                X             Y             Z
Electronic contribution:     -1.04477      10.76768      -0.00000
Nuclear contribution   :      1.18182     -13.35448       0.00000
                        -----------------------------------------
Total Dipole Moment    :      0.13705      -2.58681      -0.00000
                        -----------------------------------------
Magnitude (a.u.)       :      2.59043
Magnitude (Debye)      :      6.58436

Rotational constants in cm-1:     0.078733     0.043310     0.028860
Rotational constants in MHz :  2360.347101  1298.395830   865.198253

                             ****ORCA TERMINATED NORMALLY****
TOTAL RUN TIME: 0 days 0 hours 5 minutes 47 seconds 797 msec
