                         Program Version 5.0.3 -  RELEASE  -
|  1> !ri-mp2 aug-cc-pvtz aug-cc-pvtz/c tightscf
|  2> %pal nprocs 16 end
|  3>
|  4> * xyz 0 1
|  5> C      0.989190    2.876892    0.000000
|  6> H      1.934526    3.421126    0.000000
|  7> H      0.422313    3.170372    0.883513
|  8> H      0.422313    3.170372   -0.883513
|  9> C      1.244016    1.383759    0.000000
| 10> H      1.827047    1.091952   -0.884410
| 11> H      1.827047    1.091952    0.884410
| 12> O      0.000000    0.704770    0.000000
| 13> C      0.125303   -0.705775    0.000000
| 14> H      0.691231   -1.031792   -0.884779
| 15> H      0.691231   -1.031792    0.884779
| 16> C     -1.257913   -1.331654    0.000000
| 17> H     -1.802831   -0.972980    0.875837
| 18> H     -1.802831   -0.972980   -0.875837
| 19> C     -1.205589   -2.858427    0.000000
| 20> H     -0.685547   -3.239386   -0.881267
| 21> H     -0.685547   -3.239386    0.881267
| 22> H     -2.208990   -3.284394    0.000000
| 23> *
| 24>
| 25>                          ****END OF INPUT****

CARTESIAN COORDINATES (ANGSTROEM)
---------------------------------
  C      0.989190    2.876892    0.000000
  H      1.934526    3.421126    0.000000
  H      0.422313    3.170372    0.883513
  H      0.422313    3.170372   -0.883513
  C      1.244016    1.383759    0.000000
  H      1.827047    1.091952   -0.884410
  H      1.827047    1.091952    0.884410
  O      0.000000    0.704770    0.000000
  C      0.125303   -0.705775    0.000000
  H      0.691231   -1.031792   -0.884779
  H      0.691231   -1.031792    0.884779
  C     -1.257913   -1.331654    0.000000
  H     -1.802831   -0.972980    0.875837
  H     -1.802831   -0.972980   -0.875837
  C     -1.205589   -2.858427    0.000000
  H     -0.685547   -3.239386   -0.881267
  H     -0.685547   -3.239386    0.881267
  H     -2.208990   -3.284394    0.000000

 Total Charge           Charge          ....    0
 Multiplicity           Mult            ....    1
 Number of Electrons    NEL             ....   50
 Basis Dimension        Dim             ....  552

ORBITAL ENERGIES
----------------

  NO   OCC          E(Eh)            E(eV)
   0   2.0000     -20.549020      -559.1673
   1   2.0000     -11.271073      -306.7015
   2   2.0000     -11.268437      -306.6297
   3   2.0000     -11.215957      -305.2017
   4   2.0000     -11.213928      -305.1465
   5   2.0000     -11.211026      -305.0675
   6   2.0000      -1.367818       -37.2202
   7   2.0000      -1.060073       -28.8460
   8   2.0000      -1.007928       -27.4271
   9   2.0000      -0.909578       -24.7509
  10   2.0000      -0.828854       -22.5543
  11   2.0000      -0.805005       -21.9053
  12   2.0000      -0.675875       -18.3915
  13   2.0000      -0.658856       -17.9284
  14   2.0000      -0.619382       -16.8542
  15   2.0000      -0.604894       -16.4600
  16   2.0000      -0.560984       -15.2651
  17   2.0000      -0.552131       -15.0242
  18   2.0000      -0.535849       -14.5812
  19   2.0000      -0.504873       -13.7383
  20   2.0000      -0.499683       -13.5971
  21   2.0000      -0.478978       -13.0337
  22   2.0000      -0.472687       -12.8625
  23   2.0000      -0.462390       -12.5823
  24   2.0000      -0.416633       -11.3372
  25   0.0000       0.030880         0.8403
  26   0.0000       0.033583         0.9138
  27   0.0000       0.038664         1.0521
  28   0.0000       0.039020         1.0618
  29   0.0000       0.050511         1.3745

MULLIKEN ATOMIC CHARGES
-----------------------
   0 C :   -0.992706
   1 H :    0.329764
   2 H :    0.258491
   3 H :    0.258491
   4 C :   -0.238092
   5 H :    0.290905
   6 H :    0.290905
   7 O :   -0.556551
   8 C :   -0.149756
   9 H :    0.316935
  10 H :    0.316935
  11 C :   -0.521664
  12 H :    0.239196
  13 H :    0.239196
  14 C :   -0.916724
  15 H :    0.275255
  16 H :    0.275255
  17 H :    0.284163
Sum of atomic charges:   -0.0000000

LOEWDIN ATOMIC CHARGES
----------------------
   0 C :    0.575786
   1 H :   -0.177697
   2 H :   -0.174795
   3 H :   -0.174795
   4 C :   -0.012710
   5 H :   -0.156227
   6 H :   -0.156227
   7 O :    0.572701
   8 C :   -0.003430
   9 H :   -0.149394
  10 H :   -0.149394
  11 C :    0.253853
  12 H :   -0.151268
  13 H :   -0.151268
  14 C :    0.573180
  15 H :   -0.172193
  16 H :   -0.172193
  17 H :   -0.173932

  Mayer bond orders larger than 0.100000
B(  0-C ,  1-H ) :   0.9169 B(  0-C ,  2-H ) :   0.9718 B(  0-C ,  3-H ) :   0.9718
B(  0-C ,  4-C ) :   0.8995 B(  4-C ,  5-H ) :   0.8856 B(  4-C ,  6-H ) :   0.8856
B(  4-C ,  7-O ) :   0.9527 B(  7-O ,  8-C ) :   0.9132 B(  8-C ,  9-H ) :   0.8996
B(  8-C , 10-H ) :   0.8996 B(  8-C , 11-C ) :   0.9155 B( 11-C , 12-H ) :   0.9705
B( 11-C , 13-H ) :   0.9705 B( 11-C , 14-C ) :   0.9020 B( 14-C , 15-H ) :   0.9443
B( 14-C , 16-H ) :   0.9443 B( 14-C , 17-H ) :   0.9811

MP2 TOTAL ENERGY:     -272.421497462 Eh
FINAL SINGLE POINT ENERGY      -272.421497462301

DIPOLE MOMENT
-------------
                                X             Y             Z
Electronic contribution:     -0.26620       1.70340      -0.00000
Nuclear contribution   :      0.67108      -1.93435       0.00000
                        -----------------------------------------
Total Dipole Moment    :      0.40488      -0.23094      -0.00000
                        -----------------------------------------
Magnitude (a.u.)       :      0.46612
Magnitude (Debye)      :      1.18478

Rotational constants in cm-1:     0.529958     0.041998     0.040376
Rotational constants in MHz : 15887.731666  1259.078981  1210.443799

                             ****ORCA TERMINATED NORMALLY****
TOTAL RUN TIME: 0 days 0 hours 5 minutes 0 seconds 936 msec
