                         Program Version 5.0.3 -  RELEASE  -
|  1> !ri-mp2 aug-cc-pvtz aug-cc-pvtz/c tightscf
|  2> %pal nprocs 16 end
|  3> %maxcore 3800
|  4>
|  5> * xyz 0 1
|  6> C      2.843382   -0.911793    0.095853
|  7> C      1.865295   -1.900259   -0.134234
|  8> C     -0.579750    2.511077    0.033711
|  9> C      2.473262    0.403278    0.193327
| 10> C      0.543571   -1.555480   -0.257841
| 11> C      0.733917    2.152826    0.165181
| 12> C     -1.562211    1.527220   -0.196166
| 13> C      1.117464    0.793908    0.069366
| 14> C      0.119466   -0.205263   -0.160726
| 15> C     -1.248770    0.190590   -0.290811
| 16> C     -2.802522   -1.523090    0.785080
| 17> C     -2.351636   -0.819638   -0.504417
| 18> H      3.882886   -1.194986    0.192496
| 19> H      2.160956   -2.937871   -0.214193
| 20> H     -0.872273    3.550458    0.101606
| 21> H      3.218207    1.169736    0.366401
| 22> H     -0.186369   -2.331752   -0.434482
| 23> H      1.496318    2.901125    0.340027
| 24> H     -2.595290    1.834475   -0.303229
| 25> H     -1.982937   -2.067541    1.253974
| 26> H     -3.604229   -2.233272    0.576827
| 27> H     -3.173490   -0.797867    1.510083
| 28> H     -3.209005   -0.305295   -0.941733
| 29> H     -2.043584   -1.567462   -1.237707
| 30> *
| 31>
| 32>                          ****END OF INPUT****

CARTESIAN COORDINATES (ANGSTROEM)
---------------------------------
  C      2.843382   -0.911793    0.095853
  C      1.865295   -1.900259   -0.134234
  C     -0.579750    2.511077    0.033711
  C      2.473262    0.403278    0.193327
  C      0.543571   -1.555480   -0.257841
  C      0.733917    2.152826    0.165181
  C     -1.562211    1.527220   -0.196166
  C      1.117464    0.793908    0.069366
  C      0.119466   -0.205263   -0.160726
  C     -1.248770    0.190590   -0.290811
  C     -2.802522   -1.523090    0.785080
  C     -2.351636   -0.819638   -0.504417
  H      3.882886   -1.194986    0.192496
  H      2.160956   -2.937871   -0.214193
  H     -0.872273    3.550458    0.101606
  H      3.218207    1.169736    0.366401
  H     -0.186369   -2.331752   -0.434482
  H      1.496318    2.901125    0.340027
  H     -2.595290    1.834475   -0.303229
  H     -1.982937   -2.067541    1.253974
  H     -3.604229   -2.233272    0.576827
  H     -3.173490   -0.797867    1.510083
  H     -3.209005   -0.305295   -0.941733
  H     -2.043584   -1.567462   -1.237707

 Total Charge           Charge          ....    0
 Multiplicity           Mult            ....    1
 Number of Electrons    NEL             ....   84
 Basis Dimension        Dim             ....  828

ORBITAL ENERGIES
----------------

  NO   OCC          E(Eh)            E(eV)
   0   2.0000     -11.242285      -305.9181
   1   2.0000     -11.241380      -305.8935
   2   2.0000     -11.240616      -305.8727
   3   2.0000     -11.234594      -305.7089
   4   2.0000     -11.234156      -305.6969
   5   2.0000     -11.233158      -305.6698
   6   2.0000     -11.232491      -305.6516
   7   2.0000     -11.232484      -305.6514
   8   2.0000     -11.230128      -305.5873
   9   2.0000     -11.229056      -305.5581
  10   2.0000     -11.227918      -305.5272
  11   2.0000     -11.216283      -305.2106
  12   2.0000      -1.177655       -32.0456
  13   2.0000      -1.113495       -30.2997
  14   2.0000      -1.073708       -29.2171
  15   2.0000      -1.017271       -27.6813
  16   2.0000      -1.007040       -27.4030
  17   2.0000      -0.970872       -26.4188
  18   2.0000      -0.869465       -23.6593
  19   2.0000      -0.842283       -22.9197
  20   2.0000      -0.836923       -22.7738
  21   2.0000      -0.780938       -21.2504
  22   2.0000      -0.705919       -19.2090
  23   2.0000      -0.693495       -18.8710
  24   2.0000      -0.675980       -18.3943
  25   2.0000      -0.628302       -17.0970
  26   2.0000      -0.614936       -16.7333
  27   2.0000      -0.597371       -16.2553
  28   2.0000      -0.586768       -15.9668
  29   2.0000      -0.575658       -15.6645
  30   2.0000      -0.561703       -15.2847
  31   2.0000      -0.550259       -14.9733
  32   2.0000      -0.532323       -14.4852
  33   2.0000      -0.512756       -13.9528
  34   2.0000      -0.510633       -13.8950
  35   2.0000      -0.496631       -13.5140
  36   2.0000      -0.477518       -12.9939
  37   2.0000      -0.461465       -12.5571
  38   2.0000      -0.444720       -12.1014
  39   2.0000      -0.377142       -10.2625
  40   2.0000      -0.318314        -8.6618
  41   2.0000      -0.284242        -7.7346
  42   0.0000       0.028317         0.7706
  43   0.0000       0.030480         0.8294
  44   0.0000       0.030921         0.8414
  45   0.0000       0.041302         1.1239
  46   0.0000       0.041849         1.1388

MULLIKEN ATOMIC CHARGES
-----------------------
   0 C :   -0.376804
   1 C :   -0.635447
   2 C :   -0.544330
   3 C :   -1.110177
   4 C :   -1.111454
   5 C :   -0.937237
   6 C :   -0.915632
   7 C :    1.457086
   8 C :    1.580803
   9 C :    0.718629
  10 C :   -0.920329
  11 C :   -0.292201
  12 H :    0.550723
  13 H :    0.567695
  14 H :    0.757555
  15 H :    0.146633
  16 H :   -0.282371
  17 H :   -0.060370
  18 H :   -0.015300
  19 H :    0.346084
  20 H :    0.277201
  21 H :    0.260161
  22 H :    0.310214
  23 H :    0.228869
Sum of atomic charges:    0.0000000

LOEWDIN ATOMIC CHARGES
----------------------
   0 C :    0.204238
   1 C :    0.210127
   2 C :    0.210357
   3 C :    0.220807
   4 C :    0.225939
   5 C :    0.219413
   6 C :    0.223713
   7 C :   -0.112211
   8 C :   -0.069185
   9 C :   -0.072260
  10 C :    0.596169
  11 C :    0.261784
  12 H :   -0.185211
  13 H :   -0.184732
  14 H :   -0.183348
  15 H :   -0.178522
  16 H :   -0.198826
  17 H :   -0.179559
  18 H :   -0.178654
  19 H :   -0.174577
  20 H :   -0.168193
  21 H :   -0.165761
  22 H :   -0.159250
  23 H :   -0.162261

  Mayer bond orders larger than 0.100000
B(  0-C ,  1-C ) :   1.0297 B(  0-C ,  3-C ) :   0.9459 B(  0-C ,  4-C ) :  -0.1153
B(  0-C ,  7-C ) :   0.1440 B(  0-C ,  8-C ) :  -0.1698 B(  0-C ,  9-C ) :   0.1522
B(  0-C , 12-H ) :   0.5965 B(  1-C ,  4-C ) :   1.3366 B(  1-C ,  8-C ) :   0.2324
B(  1-C , 13-H ) :   0.5793 B(  1-C , 16-H ) :  -0.1160 B(  2-C ,  5-C ) :   1.0150
B(  2-C ,  6-C ) :   0.8645 B(  2-C ,  7-C ) :   0.5466 B(  2-C ,  8-C ) :  -0.1070
B(  2-C ,  9-C ) :   0.3425 B(  2-C , 14-H ) :   0.2216 B(  2-C , 17-H ) :  -0.2673
B(  2-C , 18-H ) :  -0.2001 B(  3-C ,  4-C ) :   0.1308 B(  3-C ,  5-C ) :   0.6176
B(  3-C ,  6-C ) :   0.1136 B(  3-C ,  7-C ) :  -0.2229 B(  3-C ,  8-C ) :   0.2382
B(  3-C ,  9-C ) :  -0.1176 B(  3-C , 12-H ) :  -0.1875 B(  3-C , 15-H ) :   1.4518
B(  4-C ,  5-C ) :  -0.1264 B(  4-C ,  7-C ) :  -0.7099 B(  4-C ,  9-C ) :   0.4067
B(  4-C , 13-H ) :  -0.2453 B(  4-C , 16-H ) :   2.4788 B(  5-C ,  6-C ) :  -0.2999
B(  5-C ,  7-C ) :  -0.2313 B(  5-C ,  8-C ) :  -0.2524 B(  5-C , 14-H ) :  -0.1087
B(  5-C , 17-H ) :   1.9550 B(  5-C , 18-H ) :   0.3238 B(  6-C ,  8-C ) :  -0.1390
B(  6-C ,  9-C ) :   0.3467 B(  6-C , 12-H ) :   0.1025 B(  6-C , 15-H ) :  -0.1583
B(  6-C , 17-H ) :   0.1560 B(  6-C , 18-H ) :   1.6771 B(  7-C ,  8-C ) :   0.4222
B(  7-C ,  9-C ) :   0.7982 B(  7-C , 12-H ) :  -0.1179 B(  7-C , 15-H ) :   0.1364
B(  7-C , 17-H ) :  -0.4231 B(  7-C , 18-H ) :  -0.1166 B(  8-C ,  9-C ) :   0.5639
B(  8-C , 11-C ) :   0.2620 B(  8-C , 12-H ) :   0.1666 B(  8-C , 13-H ) :  -0.1614
B(  8-C , 16-H ) :  -0.1420 B(  8-C , 17-H ) :   0.2610 B(  8-C , 18-H ) :   0.1006
B(  9-C , 11-C ) :   0.5280 B(  9-C , 12-H ) :  -0.1014 B(  9-C , 13-H ) :   0.1970
B(  9-C , 16-H ) :  -0.2666 B(  9-C , 17-H ) :  -0.1113 B(  9-C , 18-H ) :  -0.2363
B( 10-C , 11-C ) :   0.7705 B( 10-C , 19-H ) :   0.9035 B( 10-C , 20-H ) :   0.9714
B( 10-C , 21-H ) :   0.9890 B( 11-C , 22-H ) :   0.9362 B( 11-C , 23-H ) :   1.0123
B( 13-H , 16-H ) :  -0.1131 B( 14-H , 17-H ) :  -0.1288 B( 14-H , 18-H ) :  -0.1295
B( 17-H , 18-H ) :   0.1544

MP2 TOTAL ENERGY:     -463.526175665 Eh
FINAL SINGLE POINT ENERGY      -463.526175665358

DIPOLE MOMENT
-------------
                                X             Y             Z
Electronic contribution:      6.84435       3.92830      -1.22574
Nuclear contribution   :     -6.97648      -4.01924       1.22192
                        -----------------------------------------
Total Dipole Moment    :     -0.13212      -0.09094      -0.00382
                        -----------------------------------------
Magnitude (a.u.)       :      0.16044
Magnitude (Debye)      :      0.40780

Rotational constants in cm-1:     0.046393     0.030430     0.019280
Rotational constants in MHz :  1390.840568   912.271802   578.004500

                             ****ORCA TERMINATED NORMALLY****
TOTAL RUN TIME: 0 days 0 hours 26 minutes 51 seconds 119 msec
