                         Program Version 5.0.3 -  RELEASE  -
|  1> !ri-mp2 aug-cc-pvtz aug-cc-pvtz/c tightscf
|  2> %pal nprocs 16 end
|  3>
|  4> * xyz 0 1
|  5> C      0.000000    0.000000    0.731800
|  6> C      0.000000    1.274009   -0.097804
|  7> C      0.000000   -1.274009   -0.097804
|  8> Cl     0.132799    2.700697    0.986148
|  9> Cl    -1.483724    1.397852   -1.115518
| 10> Cl     1.483724   -1.397852   -1.115518
| 11> Cl    -0.132799   -2.700697    0.986148
| 12> H     -0.881449   -0.008441    1.372394
| 13> H      0.881449    0.008441    1.372394
| 14> H      0.836615    1.328750   -0.781690
| 15> H     -0.836615   -1.328750   -0.781690
| 16> *
| 17>
| 18>                          ****END OF INPUT****

CARTESIAN COORDINATES (ANGSTROEM)
---------------------------------
  C      0.000000    0.000000    0.731800
  C      0.000000    1.274009   -0.097804
  C      0.000000   -1.274009   -0.097804
  Cl     0.132799    2.700697    0.986148
  Cl    -1.483724    1.397852   -1.115518
  Cl     1.483724   -1.397852   -1.115518
  Cl    -0.132799   -2.700697    0.986148
  H     -0.881449   -0.008441    1.372394
  H      0.881449    0.008441    1.372394
  H      0.836615    1.328750   -0.781690
  H     -0.836615   -1.328750   -0.781690

 Total Charge           Charge          ....    0
 Multiplicity           Mult            ....    1
 Number of Electrons    NEL             ....   90
 Basis Dimension        Dim             ....  430

ORBITAL ENERGIES
----------------

  NO   OCC          E(Eh)            E(eV)
   0   2.0000    -104.858698     -2853.3502
   1   2.0000    -104.858698     -2853.3502
   2   2.0000    -104.858073     -2853.3332
   3   2.0000    -104.858073     -2853.3332
   4   2.0000     -11.387248      -309.8628
   5   2.0000     -11.387243      -309.8626
   6   2.0000     -11.287267      -307.1422
   7   2.0000     -10.582798      -287.9726
   8   2.0000     -10.582798      -287.9726
   9   2.0000     -10.582064      -287.9526
  10   2.0000     -10.582063      -287.9526
  11   2.0000      -8.049535      -219.0390
  12   2.0000      -8.049535      -219.0390
  13   2.0000      -8.048826      -219.0197
  14   2.0000      -8.048826      -219.0197
  15   2.0000      -8.047690      -218.9888
  16   2.0000      -8.047689      -218.9888
  17   2.0000      -8.047616      -218.9868
  18   2.0000      -8.047616      -218.9868
  19   2.0000      -8.046916      -218.9677
  20   2.0000      -8.046916      -218.9677
  21   2.0000      -8.046850      -218.9659
  22   2.0000      -8.046850      -218.9659
  23   2.0000      -1.226108       -33.3641
  24   2.0000      -1.190856       -32.4048
  25   2.0000      -1.103889       -30.0383
  26   2.0000      -1.102312       -29.9954
  27   2.0000      -1.043495       -28.3949
  28   2.0000      -0.894911       -24.3518
  29   2.0000      -0.833326       -22.6760
  30   2.0000      -0.709740       -19.3130
  31   2.0000      -0.646558       -17.5937
  32   2.0000      -0.646195       -17.5839
  33   2.0000      -0.629241       -17.1225
  34   2.0000      -0.574146       -15.6233
  35   2.0000      -0.564077       -15.3493
  36   2.0000      -0.545772       -14.8512
  37   2.0000      -0.491882       -13.3848
  38   2.0000      -0.486598       -13.2410
  39   2.0000      -0.477971       -13.0063
  40   2.0000      -0.476894       -12.9770
  41   2.0000      -0.463568       -12.6143
  42   2.0000      -0.455088       -12.3836
  43   2.0000      -0.453764       -12.3475
  44   2.0000      -0.448797       -12.2124
  45   0.0000       0.035986         0.9792
  46   0.0000       0.040786         1.1098
  47   0.0000       0.042294         1.1509
  48   0.0000       0.051822         1.4101
  49   0.0000       0.065742         1.7889

MULLIKEN ATOMIC CHARGES
-----------------------
   0 C :   -0.359076
   1 C :    0.237692
   2 C :    0.237692
   3 Cl:   -0.363433
   4 Cl:   -0.354265
   5 Cl:   -0.354265
   6 Cl:   -0.363433
   7 H :    0.365003
   8 H :    0.365003
   9 H :    0.294541
  10 H :    0.294541
Sum of atomic charges:   -0.0000000

LOEWDIN ATOMIC CHARGES
----------------------
   0 C :   -0.092105
   1 C :   -1.179128
   2 C :   -1.179128
   3 Cl:    0.891355
   4 Cl:    0.894135
   5 Cl:    0.894135
   6 Cl:    0.891355
   7 H :   -0.204178
   8 H :   -0.204178
   9 H :   -0.356133
  10 H :   -0.356133

  Mayer bond orders larger than 0.100000
B(  0-C ,  1-C ) :   0.9709 B(  0-C ,  2-C ) :   0.9709 B(  0-C ,  7-H ) :   0.8945
B(  0-C ,  8-H ) :   0.8945 B(  1-C ,  3-Cl) :   0.8282 B(  1-C ,  4-Cl) :   0.8024
B(  1-C ,  9-H ) :   0.9166 B(  2-C ,  5-Cl) :   0.8024 B(  2-C ,  6-Cl) :   0.8282
B(  2-C , 10-H ) :   0.9166

MP2 TOTAL ENERGY:    -1955.343875878 Eh
FINAL SINGLE POINT ENERGY     -1955.343875878444

DIPOLE MOMENT
-------------
                                X             Y             Z
Electronic contribution:     -0.00000      -0.00000      -1.38035
Nuclear contribution   :     -0.00000       0.00000       1.44195
                        -----------------------------------------
Total Dipole Moment    :     -0.00000      -0.00000       0.06160
                        -----------------------------------------
Magnitude (a.u.)       :      0.06160
Magnitude (Debye)      :      0.15658

Rotational constants in cm-1:     0.055473     0.019634     0.018889
Rotational constants in MHz :  1663.034425   588.612977   566.290731

                             ****ORCA TERMINATED NORMALLY****
TOTAL RUN TIME: 0 days 0 hours 3 minutes 18 seconds 236 msec
