                         Program Version 5.0.3 -  RELEASE  -
|  1> !ri-mp2 aug-cc-pvtz aug-cc-pvtz/c tightscf
|  2> %pal nprocs 16 end
|  3>
|  4> * xyz 0 1
|  5> S     -1.224006    0.049081   -0.107328
|  6> O      1.242809   -0.702537   -0.222880
|  7> N     -0.052232   -1.238625    0.159007
|  8> C      0.065658    1.249525    0.142810
|  9> C      1.244683    0.655383    0.012729
| 10> H     -0.124065    2.299324    0.277492
| 11> H      2.227513    1.098553    0.002818
| 12> H      0.041759   -1.321948    1.173704
| 13> *
| 14>
| 15>                          ****END OF INPUT****

CARTESIAN COORDINATES (ANGSTROEM)
---------------------------------
  S     -1.224006    0.049081   -0.107328
  O      1.242809   -0.702537   -0.222880
  N     -0.052232   -1.238625    0.159007
  C      0.065658    1.249525    0.142810
  C      1.244683    0.655383    0.012729
  H     -0.124065    2.299324    0.277492
  H      2.227513    1.098553    0.002818
  H      0.041759   -1.321948    1.173704

 Total Charge           Charge          ....    0
 Multiplicity           Mult            ....    1
 Number of Electrons    NEL             ....   46
 Basis Dimension        Dim             ....  303

ORBITAL ENERGIES
----------------

  NO   OCC          E(Eh)            E(eV)
   0   2.0000     -92.000619     -2503.4641
   1   2.0000     -20.630310      -561.3793
   2   2.0000     -15.657054      -426.0501
   3   2.0000     -11.313240      -307.8489
   4   2.0000     -11.270224      -306.6784
   5   2.0000      -8.998045      -244.8493
   6   2.0000      -6.679073      -181.7468
   7   2.0000      -6.678086      -181.7200
   8   2.0000      -6.676702      -181.6823
   9   2.0000      -1.454695       -39.5843
  10   2.0000      -1.149867       -31.2895
  11   2.0000      -1.084752       -29.5176
  12   2.0000      -0.887113       -24.1396
  13   2.0000      -0.808282       -21.9945
  14   2.0000      -0.723712       -19.6932
  15   2.0000      -0.695869       -18.9356
  16   2.0000      -0.619946       -16.8696
  17   2.0000      -0.582743       -15.8573
  18   2.0000      -0.542760       -14.7693
  19   2.0000      -0.497445       -13.5362
  20   2.0000      -0.473218       -12.8769
  21   2.0000      -0.431223       -11.7342
  22   2.0000      -0.321432        -8.7466
  23   0.0000       0.026866         0.7311
  24   0.0000       0.037385         1.0173
  25   0.0000       0.041289         1.1235
  26   0.0000       0.066470         1.8087
  27   0.0000       0.081770         2.2251

MULLIKEN ATOMIC CHARGES
-----------------------
   0 S :    0.072727
   1 O :   -0.407437
   2 N :   -0.145545
   3 C :   -0.389304
   4 C :   -0.341641
   5 H :    0.457709
   6 H :    0.595342
   7 H :    0.158149
Sum of atomic charges:   -0.0000000

LOEWDIN ATOMIC CHARGES
----------------------
   0 S :    1.011148
   1 O :    0.369639
   2 N :   -0.014026
   3 C :   -0.218225
   4 C :   -0.204272
   5 H :   -0.277241
   6 H :   -0.206510
   7 H :   -0.460514

  Mayer bond orders larger than 0.100000
B(  0-S ,  2-N ) :   0.9117 B(  0-S ,  3-C ) :   0.9462 B(  1-O ,  2-N ) :   0.7503
B(  1-O ,  4-C ) :   0.9489 B(  2-N ,  7-H ) :   0.9142 B(  3-C ,  4-C ) :   1.6590
B(  3-C ,  5-H ) :   0.7964 B(  4-C ,  6-H ) :   0.6131

MP2 TOTAL ENERGY:     -605.245414032 Eh
FINAL SINGLE POINT ENERGY      -605.245414032159

DIPOLE MOMENT
-------------
                                X             Y             Z
Electronic contribution:     -1.90336      -1.14884      -0.80505
Nuclear contribution   :      2.13502       1.99330       1.41033
                        -----------------------------------------
Total Dipole Moment    :      0.23167       0.84446       0.60528
                        -----------------------------------------
Magnitude (a.u.)       :      1.06449
Magnitude (Debye)      :      2.70572

Rotational constants in cm-1:     0.260499     0.169030     0.106657
Rotational constants in MHz :  7809.562857  5067.383644  3197.493559

                             ****ORCA TERMINATED NORMALLY****
TOTAL RUN TIME: 0 days 0 hours 1 minutes 42 seconds 32 msec
