                         Program Version 5.0.3 -  RELEASE  -
|  1> !ri-mp2 aug-cc-pvtz aug-cc-pvtz/c tightscf
|  2> %pal nprocs 16 end
|  3>
|  4> * xyz 0 1
|  5> C      0.414691    1.407380    0.525760
|  6> N      0.414691    0.576813   -0.674955
|  7> N     -0.414691   -0.576813   -0.674955
|  8> C     -0.414691   -1.407380    0.525760
|  9> H     -1.350955   -0.279245   -0.913971
| 10> H     -0.587418    1.808180    0.689219
| 11> H      0.736630    0.902508    1.444977
| 12> H      1.084191    2.249794    0.349899
| 13> H      1.350955    0.279245   -0.913971
| 14> H     -1.084191   -2.249794    0.349899
| 15> H     -0.736630   -0.902508    1.444977
| 16> H      0.587418   -1.808180    0.689219
| 17> *
| 18>
| 19>                          ****END OF INPUT****

CARTESIAN COORDINATES (ANGSTROEM)
---------------------------------
  C      0.414691    1.407380    0.525760
  N      0.414691    0.576813   -0.674955
  N     -0.414691   -0.576813   -0.674955
  C     -0.414691   -1.407380    0.525760
  H     -1.350955   -0.279245   -0.913971
  H     -0.587418    1.808180    0.689219
  H      0.736630    0.902508    1.444977
  H      1.084191    2.249794    0.349899
  H      1.350955    0.279245   -0.913971
  H     -1.084191   -2.249794    0.349899
  H     -0.736630   -0.902508    1.444977
  H      0.587418   -1.808180    0.689219

 Total Charge           Charge          ....    0
 Multiplicity           Mult            ....    1
 Number of Electrons    NEL             ....   34
 Basis Dimension        Dim             ....  368

ORBITAL ENERGIES
----------------

  NO   OCC          E(Eh)            E(eV)
   0   2.0000     -15.566708      -423.5917
   1   2.0000     -15.566225      -423.5785
   2   2.0000     -11.242442      -305.9224
   3   2.0000     -11.242437      -305.9223
   4   2.0000      -1.273611       -34.6567
   5   2.0000      -1.075537       -29.2668
   6   2.0000      -0.928620       -25.2690
   7   2.0000      -0.855817       -23.2880
   8   2.0000      -0.662375       -18.0241
   9   2.0000      -0.660531       -17.9740
  10   2.0000      -0.607047       -16.5186
  11   2.0000      -0.593070       -16.1382
  12   2.0000      -0.546827       -14.8799
  13   2.0000      -0.542052       -14.7500
  14   2.0000      -0.512656       -13.9501
  15   2.0000      -0.384651       -10.4669
  16   2.0000      -0.371054       -10.0969
  17   0.0000       0.029361         0.7990
  18   0.0000       0.037450         1.0191
  19   0.0000       0.041137         1.1194
  20   0.0000       0.043982         1.1968
  21   0.0000       0.058455         1.5906

MULLIKEN ATOMIC CHARGES
-----------------------
   0 C :   -0.833371
   1 N :   -0.225514
   2 N :   -0.225514
   3 C :   -0.833371
   4 H :    0.063173
   5 H :    0.343033
   6 H :    0.305642
   7 H :    0.347038
   8 H :    0.063173
   9 H :    0.347038
  10 H :    0.305642
  11 H :    0.343033
Sum of atomic charges:   -0.0000000

LOEWDIN ATOMIC CHARGES
----------------------
   0 C :    0.441811
   1 N :    0.425274
   2 N :    0.425274
   3 C :    0.441811
   4 H :   -0.329139
   5 H :   -0.174618
   6 H :   -0.184463
   7 H :   -0.178865
   8 H :   -0.329139
   9 H :   -0.178865
  10 H :   -0.184463
  11 H :   -0.174618

  Mayer bond orders larger than 0.100000
B(  0-C ,  1-N ) :   0.8847 B(  0-C ,  5-H ) :   0.8886 B(  0-C ,  6-H ) :   0.9032
B(  0-C ,  7-H ) :   0.9053 B(  1-N ,  2-N ) :   0.5470 B(  1-N ,  8-H ) :   1.0160
B(  2-N ,  3-C ) :   0.8847 B(  2-N ,  4-H ) :   1.0160 B(  3-C ,  9-H ) :   0.9053
B(  3-C , 10-H ) :   0.9032 B(  3-C , 11-H ) :   0.8886

MP2 TOTAL ENERGY:     -190.106000119 Eh
FINAL SINGLE POINT ENERGY      -190.106000119285

DIPOLE MOMENT
-------------
                                X             Y             Z
Electronic contribution:     -0.00000      -0.00000      -2.68579
Nuclear contribution   :      0.00000      -0.00000       3.32800
                        -----------------------------------------
Total Dipole Moment    :     -0.00000      -0.00000       0.64221
                        -----------------------------------------
Magnitude (a.u.)       :      0.64221
Magnitude (Debye)      :      1.63237

Rotational constants in cm-1:     0.502719     0.182672     0.151287
Rotational constants in MHz : 15071.135607  5476.383470  4535.458474

                             ****ORCA TERMINATED NORMALLY****
TOTAL RUN TIME: 0 days 0 hours 2 minutes 6 seconds 494 msec
