                         Program Version 5.0.3 -  RELEASE  -
|  1> !ri-mp2 aug-cc-pvtz aug-cc-pvtz/c tightscf
|  2> %pal nprocs 16 end
|  3>
|  4> * xyz 0 1
|  5> C      2.841297    0.623378   -0.306532
|  6> C      2.814080   -0.667434    0.287849
|  7> C     -2.861574    0.594094    0.254885
|  8> C     -1.540425    1.066662    0.485810
|  9> C     -2.766925   -0.654559   -0.305131
| 10> C      1.541870    1.032508   -0.460978
| 11> C      1.498859   -1.002720    0.481775
| 12> C     -0.682616    0.087435    0.048268
| 13> N     -1.432507   -0.956411   -0.430976
| 14> N      0.716428    0.038300    0.020394
| 15> H      3.714040    1.183550   -0.595045
| 16> H      3.662216   -1.274837    0.553684
| 17> H     -3.776525    1.109760    0.489826
| 18> H     -1.248499    1.997823    0.938908
| 19> H     -3.525636   -1.349731   -0.616531
| 20> H      1.122489    1.926638   -0.885807
| 21> H      1.048662   -1.865483    0.939940
| 22> H     -1.051588   -1.777123   -0.866575
| 23> *
| 24>
| 25>                          ****END OF INPUT****

CARTESIAN COORDINATES (ANGSTROEM)
---------------------------------
  C      2.841297    0.623378   -0.306532
  C      2.814080   -0.667434    0.287849
  C     -2.861574    0.594094    0.254885
  C     -1.540425    1.066662    0.485810
  C     -2.766925   -0.654559   -0.305131
  C      1.541870    1.032508   -0.460978
  C      1.498859   -1.002720    0.481775
  C     -0.682616    0.087435    0.048268
  N     -1.432507   -0.956411   -0.430976
  N      0.716428    0.038300    0.020394
  H      3.714040    1.183550   -0.595045
  H      3.662216   -1.274837    0.553684
  H     -3.776525    1.109760    0.489826
  H     -1.248499    1.997823    0.938908
  H     -3.525636   -1.349731   -0.616531
  H      1.122489    1.926638   -0.885807
  H      1.048662   -1.865483    0.939940
  H     -1.051588   -1.777123   -0.866575

 Total Charge           Charge          ....    0
 Multiplicity           Mult            ....    1
 Number of Electrons    NEL             ....   70
 Basis Dimension        Dim             ....  644

ORBITAL ENERGIES
----------------

  NO   OCC          E(Eh)            E(eV)
   0   2.0000     -15.621396      -425.0798
   1   2.0000     -15.615307      -424.9141
   2   2.0000     -11.304480      -307.6105
   3   2.0000     -11.259948      -306.3988
   4   2.0000     -11.257935      -306.3440
   5   2.0000     -11.257094      -306.3211
   6   2.0000     -11.219358      -305.2943
   7   2.0000     -11.217850      -305.2532
   8   2.0000     -11.217007      -305.2303
   9   2.0000     -11.214604      -305.1649
  10   2.0000      -1.336279       -36.3620
  11   2.0000      -1.282842       -34.9079
  12   2.0000      -1.080065       -29.3901
  13   2.0000      -1.056323       -28.7440
  14   2.0000      -0.985151       -26.8073
  15   2.0000      -0.966008       -26.2864
  16   2.0000      -0.824607       -22.4387
  17   2.0000      -0.800549       -21.7840
  18   2.0000      -0.787902       -21.4399
  19   2.0000      -0.766315       -20.8525
  20   2.0000      -0.745351       -20.2820
  21   2.0000      -0.664135       -18.0720
  22   2.0000      -0.617583       -16.8053
  23   2.0000      -0.609037       -16.5727
  24   2.0000      -0.595318       -16.1994
  25   2.0000      -0.583490       -15.8776
  26   2.0000      -0.568808       -15.4781
  27   2.0000      -0.553477       -15.0609
  28   2.0000      -0.551755       -15.0140
  29   2.0000      -0.535403       -14.5690
  30   2.0000      -0.534153       -14.5350
  31   2.0000      -0.371253       -10.1023
  32   2.0000      -0.359655        -9.7867
  33   2.0000      -0.306004        -8.3268
  34   2.0000      -0.291312        -7.9270
  35   0.0000       0.025480         0.6933
  36   0.0000       0.033429         0.9096
  37   0.0000       0.033844         0.9209
  38   0.0000       0.040360         1.0983
  39   0.0000       0.044538         1.2120

MULLIKEN ATOMIC CHARGES
-----------------------
   0 C :   -0.817961
   1 C :   -0.810836
   2 C :   -0.525181
   3 C :   -0.792103
   4 C :   -0.792878
   5 C :   -0.533862
   6 C :   -0.542042
   7 C :    0.544898
   8 N :    0.020936
   9 N :    0.206812
  10 H :    0.472947
  11 H :    0.427513
  12 H :    0.446216
  13 H :    0.485335
  14 H :    0.701636
  15 H :    0.721820
  16 H :    0.687247
  17 H :    0.099502
Sum of atomic charges:    0.0000000

LOEWDIN ATOMIC CHARGES
----------------------
   0 C :    0.182990
   1 C :    0.180825
   2 C :    0.180451
   3 C :    0.215811
   4 C :    0.122591
   5 C :    0.125569
   6 C :    0.121196
   7 C :   -0.308816
   8 N :    0.533128
   9 N :    0.191879
  10 H :   -0.198010
  11 H :   -0.197352
  12 H :   -0.197769
  13 H :   -0.185557
  14 H :   -0.180691
  15 H :   -0.169012
  16 H :   -0.172942
  17 H :   -0.244293

  Mayer bond orders larger than 0.100000
B(  0-C ,  1-C ) :   1.4868 B(  0-C ,  5-C ) :   1.1473 B(  0-C ,  9-N ) :  -0.2666
B(  0-C , 10-H ) :   0.9102 B(  1-C ,  6-C ) :   1.1449 B(  1-C ,  9-N ) :  -0.2693
B(  1-C , 11-H ) :   0.9854 B(  2-C ,  3-C ) :   1.3010 B(  2-C ,  4-C ) :   1.0979
B(  2-C ,  7-C ) :  -0.1150 B(  2-C ,  8-N ) :  -0.2455 B(  2-C , 12-H ) :   0.9116
B(  3-C ,  4-C ) :   0.3156 B(  3-C ,  7-C ) :   1.0394 B(  3-C ,  9-N ) :  -0.2036
B(  3-C , 13-H ) :   0.8443 B(  4-C ,  7-C ) :  -0.1786 B(  4-C ,  8-N ) :   1.0977
B(  4-C , 14-H ) :   0.3878 B(  5-C ,  6-C ) :   0.1771 B(  5-C ,  7-C ) :  -0.3492
B(  5-C ,  9-N ) :   1.1194 B(  5-C , 15-H ) :   0.4889 B(  6-C ,  7-C ) :  -0.3673
B(  6-C ,  9-N ) :   1.1162 B(  6-C , 16-H ) :   0.4917 B(  7-C ,  8-N ) :   0.8261
B(  7-C ,  9-N ) :   0.9844 B(  7-C , 15-H ) :  -0.1022 B(  8-N , 17-H ) :   1.1105

MP2 TOTAL ENERGY:     -418.311705364 Eh
FINAL SINGLE POINT ENERGY      -418.311705364034

DIPOLE MOMENT
-------------
                                X             Y             Z
Electronic contribution:     -0.24668      -0.45331      -0.21334
Nuclear contribution   :     -0.05873      -0.05450      -0.04378
                        -----------------------------------------
Total Dipole Moment    :     -0.30541      -0.50781      -0.25712
                        -----------------------------------------
Magnitude (a.u.)       :      0.64596
Magnitude (Debye)      :      1.64190

Rotational constants in cm-1:     0.151994     0.028728     0.025588
Rotational constants in MHz :  4556.673479   861.244717   767.109872

                             ****ORCA TERMINATED NORMALLY****
TOTAL RUN TIME: 0 days 0 hours 10 minutes 41 seconds 528 msec
