                         Program Version 5.0.3 -  RELEASE  -
|  1> !ri-mp2 aug-cc-pvtz aug-cc-pvtz/c tightscf
|  2> %pal nprocs 16 end
|  3>
|  4> * xyz 0 1
|  5> F      0.548649    1.404763   -0.866830
|  6> N      1.973333   -1.532425   -0.071295
|  7> N     -2.338792   -0.929583   -0.574584
|  8> C      0.660912    0.696914    0.317359
|  9> C     -0.731990    0.476706    0.920774
| 10> C      1.389652   -0.554071    0.072761
| 11> C     -1.622829   -0.312424    0.077679
| 12> H      1.247307    1.305371    1.008994
| 13> H     -0.623459   -0.014179    1.889654
| 14> H     -1.177948    1.457246    1.092538
| 15> *
| 16>
| 17>                          ****END OF INPUT****

CARTESIAN COORDINATES (ANGSTROEM)
---------------------------------
  F      0.548649    1.404763   -0.866830
  N      1.973333   -1.532425   -0.071295
  N     -2.338792   -0.929583   -0.574584
  C      0.660912    0.696914    0.317359
  C     -0.731990    0.476706    0.920774
  C      1.389652   -0.554071    0.072761
  C     -1.622829   -0.312424    0.077679
  H      1.247307    1.305371    1.008994
  H     -0.623459   -0.014179    1.889654
  H     -1.177948    1.457246    1.092538

 Total Charge           Charge          ....    0
 Multiplicity           Mult            ....    1
 Number of Electrons    NEL             ....   50
 Basis Dimension        Dim             ....  391

ORBITAL ENERGIES
----------------

  NO   OCC          E(Eh)            E(eV)
   0   2.0000     -26.342289      -716.8101
   1   2.0000     -15.611293      -424.8049
   2   2.0000     -15.594204      -424.3399
   3   2.0000     -11.416435      -310.6570
   4   2.0000     -11.332117      -308.3626
   5   2.0000     -11.305028      -307.6254
   6   2.0000     -11.296200      -307.3852
   7   2.0000      -1.654544       -45.0224
   8   2.0000      -1.259883       -34.2832
   9   2.0000      -1.246114       -33.9085
  10   2.0000      -1.140155       -31.0252
  11   2.0000      -0.996304       -27.1108
  12   2.0000      -0.818915       -22.2838
  13   2.0000      -0.780871       -21.2486
  14   2.0000      -0.750792       -20.4301
  15   2.0000      -0.706569       -19.2267
  16   2.0000      -0.662254       -18.0208
  17   2.0000      -0.637587       -17.3496
  18   2.0000      -0.616612       -16.7789
  19   2.0000      -0.585605       -15.9351
  20   2.0000      -0.574932       -15.6447
  21   2.0000      -0.510494       -13.8913
  22   2.0000      -0.502409       -13.6712
  23   2.0000      -0.485757       -13.2181
  24   2.0000      -0.484318       -13.1790
  25   0.0000       0.012637         0.3439
  26   0.0000       0.033635         0.9153
  27   0.0000       0.034697         0.9442
  28   0.0000       0.057782         1.5723
  29   0.0000       0.073656         2.0043

MULLIKEN ATOMIC CHARGES
-----------------------
   0 F :   -0.503655
   1 N :   -0.514484
   2 N :   -0.551561
   3 C :    0.612629
   4 C :   -0.229968
   5 C :    0.075522
   6 C :    0.140671
   7 H :    0.354185
   8 H :    0.297692
   9 H :    0.318971
Sum of atomic charges:   -0.0000000

LOEWDIN ATOMIC CHARGES
----------------------
   0 F :    0.498022
   1 N :    0.291392
   2 N :    0.282350
   3 C :   -0.432247
   4 C :    0.233635
   5 C :   -0.204887
   6 C :   -0.206080
   7 H :   -0.158561
   8 H :   -0.150632
   9 H :   -0.152994

  Mayer bond orders larger than 0.100000
B(  0-F ,  3-C ) :   0.5169 B(  0-F ,  4-C ) :   0.1010 B(  1-N ,  5-C ) :   2.3125
B(  2-N ,  6-C ) :   2.2808 B(  3-C ,  4-C ) :   0.9901 B(  3-C ,  5-C ) :   0.8400
B(  3-C ,  6-C ) :   0.1136 B(  3-C ,  7-H ) :   0.9150 B(  4-C ,  5-C ) :   0.1287
B(  4-C ,  6-C ) :   0.8576 B(  4-C ,  8-H ) :   0.9020 B(  4-C ,  9-H ) :   0.9105

MP2 TOTAL ENERGY:     -362.926727363 Eh
FINAL SINGLE POINT ENERGY      -362.926727363429

DIPOLE MOMENT
-------------
                                X             Y             Z
Electronic contribution:      1.27719       0.31407      -2.92240
Nuclear contribution   :     -1.05133       1.28931       4.63723
                        -----------------------------------------
Total Dipole Moment    :      0.22586       1.60338       1.71483
                        -----------------------------------------
Magnitude (a.u.)       :      2.35849
Magnitude (Debye)      :      5.99481

Rotational constants in cm-1:     0.124107     0.069497     0.054955
Rotational constants in MHz :  3720.634086  2083.465095  1647.497726

                             ****ORCA TERMINATED NORMALLY****
TOTAL RUN TIME: 0 days 0 hours 2 minutes 37 seconds 348 msec
