                         Program Version 5.0.3 -  RELEASE  -
|  1> !ri-mp2 aug-cc-pvtz aug-cc-pvtz/c tightscf
|  2> %pal nprocs 16 end
|  3>
|  4> * xyz 0 1
|  5> C     -2.032028    1.358919        0.000000
|  6> C      0.000000    0.554262        0.000000
|  7> C     -0.943969   -0.466855        0.000000
|  8> C      0.643023   -2.033412        0.000000
|  9> C      1.406961    0.316403        0.000000
| 10> N     -2.208454    0.057574        0.000000
| 11> N     -0.625765   -1.795763        0.000000
| 12> N     -0.718202    1.721541        0.000000
| 13> N      1.625317   -1.077018        0.000000
| 14> O      2.326607    1.119304        0.000000
| 15> H     -2.822899    2.090916        0.000000
| 16> H      0.998377   -3.056608        0.000000
| 17> H     -0.336554    2.652448        0.000000
| 18> H      2.594034   -1.361433        0.000000
| 19> *
| 20>
| 21>                          ****END OF INPUT****

CARTESIAN COORDINATES (ANGSTROEM)
---------------------------------
  C     -2.032028    1.358919    0.000000
  C      0.000000    0.554262    0.000000
  C     -0.943969   -0.466855    0.000000
  C      0.643023   -2.033412    0.000000
  C      1.406961    0.316403    0.000000
  N     -2.208454    0.057574    0.000000
  N     -0.625765   -1.795763    0.000000
  N     -0.718202    1.721541    0.000000
  N      1.625317   -1.077018    0.000000
  O      2.326607    1.119304    0.000000
  H     -2.822899    2.090916    0.000000
  H      0.998377   -3.056608    0.000000
  H     -0.336554    2.652448    0.000000
  H      2.594034   -1.361433    0.000000

 Total Charge           Charge          ....    0
 Multiplicity           Mult            ....    1
 Number of Electrons    NEL             ....   70
 Basis Dimension        Dim             ....  552

ORBITAL ENERGIES
----------------

  NO   OCC          E(Eh)            E(eV)
   0   2.0000     -20.535577      -558.8015
   1   2.0000     -15.643487      -425.6809
   2   2.0000     -15.640039      -425.5871
   3   2.0000     -15.575304      -423.8256
   4   2.0000     -15.566988      -423.5993
   5   2.0000     -11.379511      -309.6522
   6   2.0000     -11.352121      -308.9069
   7   2.0000     -11.334522      -308.4280
   8   2.0000     -11.314353      -307.8792
   9   2.0000     -11.276209      -306.8412
  10   2.0000      -1.406259       -38.2663
  11   2.0000      -1.370691       -37.2984
  12   2.0000      -1.320301       -35.9272
  13   2.0000      -1.228028       -33.4163
  14   2.0000      -1.185090       -32.2479
  15   2.0000      -1.060030       -28.8449
  16   2.0000      -0.916452       -24.9379
  17   2.0000      -0.909409       -24.7463
  18   2.0000      -0.846526       -23.0352
  19   2.0000      -0.799672       -21.7602
  20   2.0000      -0.753310       -20.4986
  21   2.0000      -0.722845       -19.6696
  22   2.0000      -0.692322       -18.8390
  23   2.0000      -0.658636       -17.9224
  24   2.0000      -0.635209       -17.2849
  25   2.0000      -0.630508       -17.1570
  26   2.0000      -0.608001       -16.5446
  27   2.0000      -0.596216       -16.2239
  28   2.0000      -0.534204       -14.5364
  29   2.0000      -0.490161       -13.3380
  30   2.0000      -0.453060       -12.3284
  31   2.0000      -0.450201       -12.2506
  32   2.0000      -0.438676       -11.9370
  33   2.0000      -0.399802       -10.8792
  34   2.0000      -0.327242        -8.9047
  35   0.0000       0.021893         0.5957
  36   0.0000       0.022945         0.6244
  37   0.0000       0.042748         1.1632
  38   0.0000       0.047711         1.2983
  39   0.0000       0.059895         1.6298

MULLIKEN ATOMIC CHARGES
-----------------------
   0 C :   -0.746168
   1 C :    0.671881
   2 C :    0.974465
   3 C :   -0.556683
   4 C :    0.152716
   5 N :   -0.571681
   6 N :   -0.346325
   7 N :   -0.247869
   8 N :    0.087241
   9 O :   -0.902781
  10 H :    0.660914
  11 H :    0.637842
  12 H :    0.062308
  13 H :    0.124139
Sum of atomic charges:    0.0000000

LOEWDIN ATOMIC CHARGES
----------------------
   0 C :   -0.038144
   1 C :   -0.230075
   2 C :   -0.524148
   3 C :   -0.050587
   4 C :   -0.649468
   5 N :    0.403897
   6 N :    0.392835
   7 N :    0.555138
   8 N :    0.557278
   9 O :    0.413344
  10 H :   -0.164374
  11 H :   -0.167066
  12 H :   -0.231276
  13 H :   -0.267354

  Mayer bond orders larger than 0.100000
B(  0-C ,  1-C ) :  -0.1797 B(  0-C ,  2-C ) :  -0.4675 B(  0-C ,  5-N ) :   1.5367
B(  0-C ,  7-N ) :   1.4258 B(  0-C , 10-H ) :   0.4654 B(  1-C ,  2-C ) :   1.3454
B(  1-C ,  5-N ) :   0.2897 B(  1-C ,  7-N ) :   0.8077 B(  1-C ,  8-N ) :  -0.2091
B(  1-C ,  9-O ) :   0.2227 B(  2-C ,  3-C ) :  -0.3488 B(  2-C ,  4-C ) :   0.5683
B(  2-C ,  5-N ) :   0.2296 B(  2-C ,  6-N ) :   0.5558 B(  2-C ,  7-N ) :  -0.1963
B(  3-C ,  4-C ) :  -0.1747 B(  3-C ,  6-N ) :   1.6026 B(  3-C ,  8-N ) :   1.1855
B(  3-C , 11-H ) :   0.4844 B(  4-C ,  7-N ) :  -0.1038 B(  4-C ,  8-N ) :   0.9818
B(  4-C ,  9-O ) :   0.9262 B(  5-N ,  6-N ) :  -0.1901 B(  5-N ,  7-N ) :  -0.1108
B(  7-N , 12-H ) :   1.2068 B(  8-N , 13-H ) :   1.0586

MP2 TOTAL ENERGY:     -486.347409378 Eh
FINAL SINGLE POINT ENERGY      -486.347409377638

DIPOLE MOMENT
-------------
                                X             Y             Z
Electronic contribution:     -0.06490      -0.03335       0.00000
Nuclear contribution   :      0.44267       0.32505       0.00000
                        -----------------------------------------
Total Dipole Moment    :      0.37777       0.29170       0.00000
                        -----------------------------------------
Magnitude (a.u.)       :      0.47729
Magnitude (Debye)      :      1.21316

Rotational constants in cm-1:     0.080038     0.052007     0.031524
Rotational constants in MHz :  2399.476107  1559.134911   945.055463

                             ****ORCA TERMINATED NORMALLY****
TOTAL RUN TIME: 0 days 0 hours 7 minutes 39 seconds 707 msec
