                         Program Version 5.0.3 -  RELEASE  -
|  1> !ri-mp2 aug-cc-pvtz aug-cc-pvtz/c tightscf
|  2> %pal nprocs 16 end
|  3> %maxcore 3800
|  4>
|  5> * xyz 0 1
|  6> C     3.077395    0.196598   -0.111658
|  7> C     2.666570   -1.128501   -0.161156
|  8> C     2.129143    1.205688    0.034852
|  9> C     1.317412   -1.453527   -0.078360
| 10> C     0.776833    0.911753    0.133669
| 11> C     0.382349   -0.432412    0.060180
| 12> C    -2.008325    0.164976   -0.109593
| 13> C    -0.286188    1.954073    0.363802
| 14> C    -1.588515    1.593777   -0.354663
| 15> N    -0.990799   -0.704017    0.145273
| 16> O    -3.161157   -0.254175   -0.157240
| 17> O    -1.361171   -2.042198    0.243835
| 18> H     4.126728    0.446250   -0.182912
| 19> H     3.395360   -1.919947   -0.269911
| 20> H     2.445503    2.240189    0.082160
| 21> H     0.987299   -2.479262   -0.120828
| 22> H    -0.484242    2.028309    1.438806
| 23> H     0.064034    2.934551    0.042685
| 24> H    -1.473721    1.707651   -1.437370
| 25> H    -2.413797    2.234873   -0.051575
| 26> H    -2.332996   -1.968059    0.126836
| 27> *
| 28>
| 29>                          ****END OF INPUT****

CARTESIAN COORDINATES (ANGSTROEM)
---------------------------------
  C      3.077395    0.196598   -0.111658
  C      2.666570   -1.128501   -0.161156
  C      2.129143    1.205688    0.034852
  C      1.317412   -1.453527   -0.078360
  C      0.776833    0.911753    0.133669
  C      0.382349   -0.432412    0.060180
  C     -2.008325    0.164976   -0.109593
  C     -0.286188    1.954073    0.363802
  C     -1.588515    1.593777   -0.354663
  N     -0.990799   -0.704017    0.145273
  O     -3.161157   -0.254175   -0.157240
  O     -1.361171   -2.042198    0.243835
  H      4.126728    0.446250   -0.182912
  H      3.395360   -1.919947   -0.269911
  H      2.445503    2.240189    0.082160
  H      0.987299   -2.479262   -0.120828
  H     -0.484242    2.028309    1.438806
  H      0.064034    2.934551    0.042685
  H     -1.473721    1.707651   -1.437370
  H     -2.413797    2.234873   -0.051575
  H     -2.332996   -1.968059    0.126836

 Total Charge           Charge          ....    0
 Multiplicity           Mult            ....    1
 Number of Electrons    NEL             ....   86
 Basis Dimension        Dim             ....  759

ORBITAL ENERGIES
----------------

  NO   OCC          E(Eh)            E(eV)
   0   2.0000     -20.616192      -560.9951
   1   2.0000     -20.542558      -558.9914
   2   2.0000     -15.663224      -426.2180
   3   2.0000     -11.371540      -309.4353
   4   2.0000     -11.297953      -307.4329
   5   2.0000     -11.259332      -306.3820
   6   2.0000     -11.255878      -306.2880
   7   2.0000     -11.253895      -306.2341
   8   2.0000     -11.246732      -306.0391
   9   2.0000     -11.244393      -305.9755
  10   2.0000     -11.240593      -305.8721
  11   2.0000     -11.237613      -305.7910
  12   2.0000      -1.472270       -40.0625
  13   2.0000      -1.378143       -37.5012
  14   2.0000      -1.227771       -33.4093
  15   2.0000      -1.146008       -31.1845
  16   2.0000      -1.091886       -29.7117
  17   2.0000      -1.026571       -27.9344
  18   2.0000      -1.018877       -27.7251
  19   2.0000      -0.905735       -24.6463
  20   2.0000      -0.876773       -23.8582
  21   2.0000      -0.841592       -22.9009
  22   2.0000      -0.774432       -21.0734
  23   2.0000      -0.728681       -19.8284
  24   2.0000      -0.711558       -19.3625
  25   2.0000      -0.687114       -18.6973
  26   2.0000      -0.662905       -18.0386
  27   2.0000      -0.653969       -17.7954
  28   2.0000      -0.629738       -17.1360
  29   2.0000      -0.624906       -17.0046
  30   2.0000      -0.607419       -16.5287
  31   2.0000      -0.595107       -16.1937
  32   2.0000      -0.571624       -15.5547
  33   2.0000      -0.564991       -15.3742
  34   2.0000      -0.560935       -15.2638
  35   2.0000      -0.519452       -14.1350
  36   2.0000      -0.512760       -13.9529
  37   2.0000      -0.503027       -13.6881
  38   2.0000      -0.493733       -13.4352
  39   2.0000      -0.449036       -12.2189
  40   2.0000      -0.428537       -11.6611
  41   2.0000      -0.346406        -9.4262
  42   2.0000      -0.310234        -8.4419
  43   0.0000       0.024450         0.6653
  44   0.0000       0.029265         0.7963
  45   0.0000       0.035381         0.9628
  46   0.0000       0.038964         1.0603
  47   0.0000       0.044668         1.2155

MULLIKEN ATOMIC CHARGES
-----------------------
   0 C :   -0.567007
   1 C :   -0.280075
   2 C :   -1.064240
   3 C :   -0.935299
   4 C :    1.328261
   5 C :    0.282090
   6 C :    0.188457
   7 C :   -0.332374
   8 C :   -0.161588
   9 N :    0.194254
  10 O :   -0.988236
  11 O :   -0.611980
  12 H :    0.675349
  13 H :    0.343499
  14 H :   -0.041320
  15 H :    0.659438
  16 H :    0.249265
  17 H :    0.286009
  18 H :    0.254223
  19 H :    0.242012
  20 H :    0.279262
Sum of atomic charges:    0.0000000

LOEWDIN ATOMIC CHARGES
----------------------
   0 C :    0.201501
   1 C :    0.199661
   2 C :    0.221956
   3 C :    0.233751
   4 C :   -0.081871
   5 C :   -0.199133
   6 C :   -0.612872
   7 C :    0.297932
   8 C :    0.321178
   9 N :    0.036193
  10 O :    0.482806
  11 O :    0.784934
  12 H :   -0.187963
  13 H :   -0.181551
  14 H :   -0.173866
  15 H :   -0.196928
  16 H :   -0.132159
  17 H :   -0.144320
  18 H :   -0.132865
  19 H :   -0.146208
  20 H :   -0.590178

  Mayer bond orders larger than 0.100000
B(  0-C ,  1-C ) :   1.0741 B(  0-C ,  2-C ) :   1.1536 B(  0-C ,  3-C ) :   0.3052
B(  0-C ,  4-C ) :   0.1926 B(  0-C , 12-H ) :   0.4127 B(  0-C , 13-H ) :  -0.1759
B(  0-C , 14-H ) :  -0.1130 B(  1-C ,  2-C ) :  -0.3468 B(  1-C ,  3-C ) :   1.1803
B(  1-C ,  4-C ) :   0.1936 B(  1-C ,  5-C ) :  -0.4237 B(  1-C , 13-H ) :   0.9870
B(  1-C , 15-H ) :   0.1141 B(  2-C ,  3-C ) :   0.1010 B(  2-C ,  4-C ) :   0.3713
B(  2-C ,  5-C ) :  -0.4996 B(  2-C , 12-H ) :  -0.1026 B(  2-C , 13-H ) :   0.1369
B(  2-C , 14-H ) :   1.7939 B(  3-C ,  4-C ) :   0.4460 B(  3-C ,  5-C ) :   0.6247
B(  3-C , 11-O ) :  -0.1242 B(  3-C , 13-H ) :  -0.1223 B(  3-C , 15-H ) :   0.3292
B(  4-C ,  5-C ) :   0.8469 B(  4-C ,  6-C ) :  -0.1022 B(  4-C ,  7-C ) :   0.3084
B(  4-C ,  9-N ) :  -0.5335 B(  4-C , 14-H ) :  -0.3016 B(  5-C ,  6-C ) :  -0.1655
B(  5-C ,  9-N ) :   0.9413 B(  5-C , 11-O ) :   0.1966 B(  5-C , 14-H ) :   0.2086
B(  5-C , 15-H ) :   0.1500 B(  6-C ,  8-C ) :   0.5682 B(  6-C ,  9-N ) :   1.4338
B(  6-C , 10-O ) :   1.1124 B(  7-C ,  8-C ) :   1.0142 B(  7-C , 14-H ) :  -0.1007
B(  7-C , 16-H ) :   0.9816 B(  7-C , 17-H ) :   1.0245 B(  8-C , 18-H ) :   0.9594
B(  8-C , 19-H ) :   0.9379 B(  9-N , 10-O ) :  -0.2212 B(  9-N , 11-O ) :   0.6327
B( 11-O , 15-H ) :  -0.1162 B( 11-O , 20-H ) :   0.9543

MP2 TOTAL ENERGY:     -552.528242543 Eh
FINAL SINGLE POINT ENERGY      -552.528242542625

DIPOLE MOMENT
-------------
                                X             Y             Z
Electronic contribution:     -3.20613      -4.20276       0.28701
Nuclear contribution   :      4.19391       5.13143      -0.36612
                        -----------------------------------------
Total Dipole Moment    :      0.98778       0.92867      -0.07911
                        -----------------------------------------
Magnitude (a.u.)       :      1.35809
Magnitude (Debye)      :      3.45198

Rotational constants in cm-1:     0.062007     0.026928     0.019203
Rotational constants in MHz :  1858.915492   807.273810   575.678935

                             ****ORCA TERMINATED NORMALLY****
TOTAL RUN TIME: 0 days 0 hours 20 minutes 25 seconds 477 msec
