                         Program Version 5.0.3 -  RELEASE  -
|  1> !ri-mp2 aug-cc-pvtz aug-cc-pvtz/c tightscf
|  2> %pal nprocs 16 end
|  3>
|  4> * xyz 0 1
|  5> S     -1.333869   -0.074841   -0.191279
|  6> O     -0.280808   -1.189269    0.481817
|  7> N      1.033450   -1.218918   -0.164297
|  8> C     -0.367982    1.345481    0.076452
|  9> C      1.577197   -0.062059   -0.172578
| 10> C      0.965100    1.208069    0.174489
| 11> H     -0.880250    2.298065    0.110510
| 12> H      2.586562   -0.065980   -0.571412
| 13> H      1.602013    2.063015    0.346729
| 14> *
| 15>
| 16>                          ****END OF INPUT****

CARTESIAN COORDINATES (ANGSTROEM)
---------------------------------
  S     -1.333869   -0.074841   -0.191279
  O     -0.280808   -1.189269    0.481817
  N      1.033450   -1.218918   -0.164297
  C     -0.367982    1.345481    0.076452
  C      1.577197   -0.062059   -0.172578
  C      0.965100    1.208069    0.174489
  H     -0.880250    2.298065    0.110510
  H      2.586562   -0.065980   -0.571412
  H      1.602013    2.063015    0.346729

 Total Charge           Charge          ....    0
 Multiplicity           Mult            ....    1
 Number of Electrons    NEL             ....   52
 Basis Dimension        Dim             ....  349

ORBITAL ENERGIES
----------------

  NO   OCC          E(Eh)            E(eV)
   0   2.0000     -92.028793     -2504.2308
   1   2.0000     -20.623933      -561.2058
   2   2.0000     -15.639416      -425.5701
   3   2.0000     -11.305285      -307.6324
   4   2.0000     -11.304368      -307.6075
   5   2.0000     -11.265933      -306.5616
   6   2.0000      -9.023808      -245.5503
   7   2.0000      -6.704860      -182.4485
   8   2.0000      -6.703603      -182.4143
   9   2.0000      -6.702414      -182.3819
  10   2.0000      -1.422280       -38.7022
  11   2.0000      -1.188949       -32.3530
  12   2.0000      -1.120049       -30.4781
  13   2.0000      -0.948628       -25.8135
  14   2.0000      -0.883077       -24.0297
  15   2.0000      -0.738989       -20.1089
  16   2.0000      -0.697331       -18.9753
  17   2.0000      -0.686583       -18.6829
  18   2.0000      -0.634220       -17.2580
  19   2.0000      -0.605939       -16.4884
  20   2.0000      -0.560937       -15.2639
  21   2.0000      -0.499307       -13.5868
  22   2.0000      -0.492723       -13.4077
  23   2.0000      -0.455678       -12.3996
  24   2.0000      -0.422200       -11.4886
  25   2.0000      -0.335347        -9.1253
  26   0.0000       0.022724         0.6183
  27   0.0000       0.031597         0.8598
  28   0.0000       0.041838         1.1385
  29   0.0000       0.052039         1.4161
  30   0.0000       0.068512         1.8643

MULLIKEN ATOMIC CHARGES
-----------------------
   0 S :    0.162749
   1 O :   -0.555232
   2 N :   -0.304671
   3 C :   -0.399477
   4 C :   -0.217568
   5 C :   -0.161323
   6 H :    0.468193
   7 H :    0.587837
   8 H :    0.419492
Sum of atomic charges:   -0.0000000

LOEWDIN ATOMIC CHARGES
----------------------
   0 S :    0.929216
   1 O :   -0.082453
   2 N :    0.079870
   3 C :   -0.224387
   4 C :   -0.111504
   5 C :    0.082467
   6 H :   -0.254008
   7 H :   -0.207182
   8 H :   -0.212020

  Mayer bond orders larger than 0.100000
B(  0-S ,  1-O ) :   0.8598 B(  0-S ,  3-C ) :   1.0227 B(  1-O ,  2-N ) :   0.6664
B(  2-N ,  4-C ) :   1.5266 B(  2-N ,  5-C ) :  -0.1409 B(  3-C ,  5-C ) :   1.5766
B(  3-C ,  6-H ) :   0.7633 B(  4-C ,  5-C ) :   0.8422 B(  4-C ,  7-H ) :   0.6091
B(  5-C ,  8-H ) :   0.8254

MP2 TOTAL ENERGY:     -643.266920000 Eh
FINAL SINGLE POINT ENERGY      -643.266920000091

DIPOLE MOMENT
-------------
                                X             Y             Z
Electronic contribution:     -2.91506      -2.52445      -0.07161
Nuclear contribution   :      3.23636       4.12522      -0.09816
                        -----------------------------------------
Total Dipole Moment    :      0.32129       1.60077      -0.16977
                        -----------------------------------------
Magnitude (a.u.)       :      1.64150
Magnitude (Debye)      :      4.17236

Rotational constants in cm-1:     0.170548     0.127215     0.077203
Rotational constants in MHz :  5112.897618  3813.810453  2314.493286

                             ****ORCA TERMINATED NORMALLY****
TOTAL RUN TIME: 0 days 0 hours 2 minutes 38 seconds 612 msec
