                         Program Version 5.0.3 -  RELEASE  -
|  1> !ri-mp2 aug-cc-pvtz aug-cc-pvtz/c tightscf
|  2> %pal nprocs 16 end
|  3> %maxcore 3800
|  4>
|  5> * xyz 0 1
|  6> C      4.455953    0.270233    0.013128
|  7> C      3.156486   -0.532657   -0.014810
|  8> C      1.903604    0.343655    0.011250
|  9> C      0.597863   -0.451106   -0.015679
| 10> C     -0.653922    0.427229    0.009040
| 11> C     -1.958782   -0.370300   -0.022500
| 12> C     -3.196862    0.516964    0.008447
| 13> O     -4.418615   -0.215524   -0.077873
| 14> H      4.523173    0.941403   -0.845601
| 15> H      5.329459   -0.382837   -0.007953
| 16> H      4.521716    0.882668    0.914818
| 17> H      3.133472   -1.218292    0.837586
| 18> H      3.136119   -1.162088   -0.909563
| 19> H      1.926908    1.029567   -0.842248
| 20> H      1.924665    0.974859    0.906112
| 21> H      0.577344   -1.082187   -0.910093
| 22> H      0.574572   -1.136132    0.838283
| 23> H     -0.629327    1.112199   -0.844708
| 24> H     -0.633266    1.057787    0.903988
| 25> H     -1.987895   -1.054978    0.832841
| 26> H     -1.997124   -0.992014   -0.920763
| 27> H     -3.202967    1.185677   -0.853276
| 28> H     -3.189897    1.145038    0.907556
| 29> H     -4.484069   -0.800583    0.682753
| 30> *
| 31>
| 32>                          ****END OF INPUT****

CARTESIAN COORDINATES (ANGSTROEM)
---------------------------------
  C      4.455953    0.270233    0.013128
  C      3.156486   -0.532657   -0.014810
  C      1.903604    0.343655    0.011250
  C      0.597863   -0.451106   -0.015679
  C     -0.653922    0.427229    0.009040
  C     -1.958782   -0.370300   -0.022500
  C     -3.196862    0.516964    0.008447
  O     -4.418615   -0.215524   -0.077873
  H      4.523173    0.941403   -0.845601
  H      5.329459   -0.382837   -0.007953
  H      4.521716    0.882668    0.914818
  H      3.133472   -1.218292    0.837586
  H      3.136119   -1.162088   -0.909563
  H      1.926908    1.029567   -0.842248
  H      1.924665    0.974859    0.906112
  H      0.577344   -1.082187   -0.910093
  H      0.574572   -1.136132    0.838283
  H     -0.629327    1.112199   -0.844708
  H     -0.633266    1.057787    0.903988
  H     -1.987895   -1.054978    0.832841
  H     -1.997124   -0.992014   -0.920763
  H     -3.202967    1.185677   -0.853276
  H     -3.189897    1.145038    0.907556
  H     -4.484069   -0.800583    0.682753

 Total Charge           Charge          ....    0
 Multiplicity           Mult            ....    1
 Number of Electrons    NEL             ....   66
 Basis Dimension        Dim             ....  736

ORBITAL ENERGIES
----------------

  NO   OCC          E(Eh)            E(eV)
   0   2.0000     -20.553548      -559.2905
   1   2.0000     -11.271305      -306.7078
   2   2.0000     -11.221580      -305.3547
   3   2.0000     -11.219934      -305.3099
   4   2.0000     -11.218292      -305.2652
   5   2.0000     -11.217641      -305.2475
   6   2.0000     -11.216224      -305.2090
   7   2.0000     -11.211091      -305.0693
   8   2.0000      -1.352991       -36.8168
   9   2.0000      -1.092648       -29.7325
  10   2.0000      -1.052396       -28.6371
  11   2.0000      -0.989105       -26.9149
  12   2.0000      -0.912200       -24.8222
  13   2.0000      -0.841347       -22.8942
  14   2.0000      -0.799740       -21.7620
  15   2.0000      -0.789433       -21.4816
  16   2.0000      -0.688567       -18.7369
  17   2.0000      -0.655081       -17.8257
  18   2.0000      -0.626358       -17.0441
  19   2.0000      -0.606832       -16.5127
  20   2.0000      -0.595948       -16.2166
  21   2.0000      -0.577564       -15.7163
  22   2.0000      -0.562361       -15.3026
  23   2.0000      -0.545801       -14.8520
  24   2.0000      -0.522482       -14.2175
  25   2.0000      -0.509500       -13.8642
  26   2.0000      -0.491018       -13.3613
  27   2.0000      -0.480960       -13.0876
  28   2.0000      -0.470293       -12.7973
  29   2.0000      -0.463089       -12.6013
  30   2.0000      -0.462436       -12.5835
  31   2.0000      -0.457775       -12.4567
  32   2.0000      -0.426659       -11.6100
  33   0.0000       0.029271         0.7965
  34   0.0000       0.031030         0.8444
  35   0.0000       0.033890         0.9222
  36   0.0000       0.037047         1.0081
  37   0.0000       0.045337         1.2337

MULLIKEN ATOMIC CHARGES
-----------------------
   0 C :   -1.003457
   1 C :   -0.503781
   2 C :   -0.288519
   3 C :   -0.388257
   4 C :   -0.319804
   5 C :   -0.475414
   6 C :   -0.235652
   7 O :   -0.659698
   8 H :    0.262285
   9 H :    0.274026
  10 H :    0.260916
  11 H :    0.228196
  12 H :    0.228931
  13 H :    0.240256
  14 H :    0.243700
  15 H :    0.238873
  16 H :    0.240645
  17 H :    0.239618
  18 H :    0.246066
  19 H :    0.230117
  20 H :    0.219429
  21 H :    0.311383
  22 H :    0.240931
  23 H :    0.169209
Sum of atomic charges:   -0.0000000

LOEWDIN ATOMIC CHARGES
----------------------
   0 C :    0.578155
   1 C :    0.256857
   2 C :    0.269702
   3 C :    0.277105
   4 C :    0.271732
   5 C :    0.271903
   6 C :    0.036611
   7 O :    0.804928
   8 H :   -0.171619
   9 H :   -0.174158
  10 H :   -0.171706
  11 H :   -0.148127
  12 H :   -0.147948
  13 H :   -0.141341
  14 H :   -0.141437
  15 H :   -0.139678
  16 H :   -0.140288
  17 H :   -0.140296
  18 H :   -0.141048
  19 H :   -0.147386
  20 H :   -0.144274
  21 H :   -0.162910
  22 H :   -0.153885
  23 H :   -0.500892

  Mayer bond orders larger than 0.100000
B(  0-C ,  1-C ) :   0.9306 B(  0-C ,  8-H ) :   0.9693 B(  0-C ,  9-H ) :   0.9921
B(  0-C , 10-H ) :   0.9715 B(  1-C ,  2-C ) :   0.9085 B(  1-C , 11-H ) :   0.9732
B(  1-C , 12-H ) :   0.9719 B(  2-C ,  3-C ) :   0.9820 B(  2-C , 13-H ) :   0.9535
B(  2-C , 14-H ) :   0.9514 B(  3-C ,  4-C ) :   0.9594 B(  3-C , 15-H ) :   0.9527
B(  3-C , 16-H ) :   0.9574 B(  4-C ,  5-C ) :   0.9037 B(  4-C , 17-H ) :   0.9517
B(  4-C , 18-H ) :   0.9390 B(  5-C ,  6-C ) :   0.9930 B(  5-C , 19-H ) :   0.9622
B(  5-C , 20-H ) :   0.9596 B(  6-C ,  7-O ) :   0.7352 B(  6-C , 21-H ) :   0.9337
B(  6-C , 22-H ) :   1.0125 B(  7-O , 23-H ) :   0.9981

MP2 TOTAL ENERGY:     -350.882398482 Eh
FINAL SINGLE POINT ENERGY      -350.882398481714

DIPOLE MOMENT
-------------
                                X             Y             Z
Electronic contribution:     -9.48843      -0.60705      -0.26652
Nuclear contribution   :     10.08360       0.52981       0.73441
                        -----------------------------------------
Total Dipole Moment    :      0.59517      -0.07724       0.46789
                        -----------------------------------------
Magnitude (a.u.)       :      0.76100
Magnitude (Debye)      :      1.93430

Rotational constants in cm-1:     0.379445     0.016048     0.015725
Rotational constants in MHz : 11375.460594   481.098437   471.409226

                             ****ORCA TERMINATED NORMALLY****
TOTAL RUN TIME: 0 days 0 hours 11 minutes 49 seconds 800 msec
