                         Program Version 5.0.3 -  RELEASE  -
|  1> !ri-mp2 aug-cc-pvtz aug-cc-pvtz/c tightscf
|  2> %pal nprocs 16 end
|  3>
|  4> * xyz 0 1
|  5> Cl   -2.745853    0.000000   -0.458741
|  6> N    -0.811909   -0.000003    1.816306
|  7> N     2.136126    2.181527   -0.641085
|  8> N     2.136127   -2.181525   -0.641088
|  9> C    -0.235309    0.000000    0.701571
| 10> C     1.323138    0.000000    0.550801
| 11> C    -0.970811    0.000001   -0.614246
| 12> C     1.796864    1.210768   -0.129504
| 13> C     1.796865   -1.210767   -0.129506
| 14> H    -0.172445   -0.000004    2.608644
| 15> H     1.744862   -0.000001    1.558684
| 16> H    -0.689901    0.880301   -1.191176
| 17> H    -0.689901   -0.880298   -1.191179
| 18> *
| 19>
| 20>                          ****END OF INPUT****

CARTESIAN COORDINATES (ANGSTROEM)
---------------------------------
  Cl    -2.745853    0.000000   -0.458741
  N     -0.811909   -0.000003    1.816306
  N      2.136126    2.181527   -0.641085
  N      2.136127   -2.181525   -0.641088
  C     -0.235309    0.000000    0.701571
  C      1.323138    0.000000    0.550801
  C     -0.970811    0.000001   -0.614246
  C      1.796864    1.210768   -0.129504
  C      1.796865   -1.210767   -0.129506
  H     -0.172445   -0.000004    2.608644
  H      1.744862   -0.000001    1.558684
  H     -0.689901    0.880301   -1.191176
  H     -0.689901   -0.880298   -1.191179

 Total Charge           Charge          ....    0
 Multiplicity           Mult            ....    1
 Number of Electrons    NEL             ....   72
 Basis Dimension        Dim             ....  510

ORBITAL ENERGIES
----------------

  NO   OCC          E(Eh)            E(eV)
   0   2.0000    -104.846944     -2853.0304
   1   2.0000     -15.621867      -425.0926
   2   2.0000     -15.621866      -425.0926
   3   2.0000     -15.608643      -424.7328
   4   2.0000     -11.384550      -309.7894
   5   2.0000     -11.361702      -309.1676
   6   2.0000     -11.332382      -308.3698
   7   2.0000     -11.323945      -308.1402
   8   2.0000     -11.323936      -308.1400
   9   2.0000     -10.570615      -287.6411
  10   2.0000      -8.037499      -218.7115
  11   2.0000      -8.035492      -218.6569
  12   2.0000      -8.035486      -218.6567
  13   2.0000      -1.298339       -35.3296
  14   2.0000      -1.271150       -34.5897
  15   2.0000      -1.266065       -34.4514
  16   2.0000      -1.153204       -31.3803
  17   2.0000      -1.133259       -30.8375
  18   2.0000      -0.989058       -26.9136
  19   2.0000      -0.820487       -22.3266
  20   2.0000      -0.817692       -22.2505
  21   2.0000      -0.764637       -20.8068
  22   2.0000      -0.730982       -19.8910
  23   2.0000      -0.667281       -18.1576
  24   2.0000      -0.643081       -17.4991
  25   2.0000      -0.608375       -16.5547
  26   2.0000      -0.603281       -16.4161
  27   2.0000      -0.568495       -15.4695
  28   2.0000      -0.540181       -14.6991
  29   2.0000      -0.526859       -14.3366
  30   2.0000      -0.511949       -13.9309
  31   2.0000      -0.511243       -13.9116
  32   2.0000      -0.492393       -13.3987
  33   2.0000      -0.465832       -12.6759
  34   2.0000      -0.455410       -12.3923
  35   2.0000      -0.453163       -12.3312
  36   0.0000       0.014607         0.3975
  37   0.0000       0.036799         1.0013
  38   0.0000       0.040129         1.0920
  39   0.0000       0.045875         1.2483
  40   0.0000       0.064475         1.7545

MULLIKEN ATOMIC CHARGES
-----------------------
   0 Cl:   -0.303951
   1 N :   -0.798940
   2 N :   -0.676899
   3 N :   -0.676899
   4 C :    0.648944
   5 C :    0.308936
   6 C :   -0.121370
   7 C :    0.350856
   8 C :    0.350855
   9 H :    0.119503
  10 H :    0.235034
  11 H :    0.281966
  12 H :    0.281966
Sum of atomic charges:    0.0000000

LOEWDIN ATOMIC CHARGES
----------------------
   0 Cl:    0.947397
   1 N :    0.675845
   2 N :    0.308657
   3 N :    0.308657
   4 C :   -0.363910
   5 C :   -0.097655
   6 C :   -0.304293
   7 C :   -0.208922
   8 C :   -0.208922
   9 H :   -0.402308
  10 H :   -0.172486
  11 H :   -0.241031
  12 H :   -0.241030

  Mayer bond orders larger than 0.100000
B(  0-Cl,  6-C ) :   0.7683 B(  1-N ,  4-C ) :   1.0047 B(  1-N ,  9-H ) :   1.0101
B(  2-N ,  7-C ) :   2.0957 B(  3-N ,  8-C ) :   2.0957 B(  4-C ,  5-C ) :   0.9108
B(  4-C ,  6-C ) :   0.8236 B(  4-C ,  7-C ) :   0.2411 B(  4-C ,  8-C ) :   0.2411
B(  5-C ,  7-C ) :   0.7878 B(  5-C ,  8-C ) :   0.7878 B(  5-C , 10-H ) :   0.8953
B(  6-C , 11-H ) :   0.9382 B(  6-C , 12-H ) :   0.9382 B(  7-C ,  8-C ) :   0.3430

MP2 TOTAL ENERGY:     -816.178101437 Eh
FINAL SINGLE POINT ENERGY      -816.178101436742

DIPOLE MOMENT
-------------
                                X             Y             Z
Electronic contribution:     -3.58829       0.00000      -1.38689
Nuclear contribution   :      3.95583      -0.00000       2.33494
                        -----------------------------------------
Total Dipole Moment    :      0.36754      -0.00000       0.94804
                        -----------------------------------------
Magnitude (a.u.)       :      1.01679
Magnitude (Debye)      :      2.58449

Rotational constants in cm-1:     0.064370     0.027605     0.024467
Rotational constants in MHz :  1929.757856   827.568463   733.510039

                             ****ORCA TERMINATED NORMALLY****
TOTAL RUN TIME: 0 days 0 hours 5 minutes 37 seconds 834 msec
