                         Program Version 5.0.3 -  RELEASE  -
|  1> !ri-mp2 aug-cc-pvtz aug-cc-pvtz/c tightscf
|  2> %pal nprocs 16 end
|  3>
|  4> * xyz 0 1
|  5> O      0.000000    3.490824    0.071542
|  6> N      0.000000    2.463811   -0.588557
|  7> O      0.000000    2.410623   -1.806860
|  8> C      0.000000    1.181426    0.151124
|  9> C      0.000000    0.000000   -0.570360
| 10> C      0.000000   -1.181426    0.151124
| 11> N      0.000000   -2.463811   -0.588557
| 12> O      0.000000   -3.490824    0.071542
| 13> O      0.000000   -2.410623   -1.806860
| 14> C      0.000000   -1.204752    1.538926
| 15> C      0.000000    0.000000    2.229613
| 16> C      0.000000    1.204752    1.538926
| 17> H      0.000000    0.000000   -1.647700
| 18> H      0.000000   -2.152894    2.053303
| 19> H      0.000000    0.000000    3.309868
| 20> H      0.000000    2.152894    2.053303
| 21> *
| 22>
| 23>                          ****END OF INPUT****

CARTESIAN COORDINATES (ANGSTROEM)
---------------------------------
  O      0.000000    3.490824    0.071542
  N      0.000000    2.463811   -0.588557
  O      0.000000    2.410623   -1.806860
  C      0.000000    1.181426    0.151124
  C      0.000000    0.000000   -0.570360
  C      0.000000   -1.181426    0.151124
  N      0.000000   -2.463811   -0.588557
  O      0.000000   -3.490824    0.071542
  O      0.000000   -2.410623   -1.806860
  C      0.000000   -1.204752    1.538926
  C      0.000000    0.000000    2.229613
  C      0.000000    1.204752    1.538926
  H      0.000000    0.000000   -1.647700
  H      0.000000   -2.152894    2.053303
  H      0.000000    0.000000    3.309868
  H      0.000000    2.152894    2.053303

 Total Charge           Charge          ....    0
 Multiplicity           Mult            ....    1
 Number of Electrons    NEL             ....   86
 Basis Dimension        Dim             ....  644

ORBITAL ENERGIES
----------------

  NO   OCC          E(Eh)            E(eV)
   0   2.0000     -20.623591      -561.1964
   1   2.0000     -20.623591      -561.1964
   2   2.0000     -20.622883      -561.1772
   3   2.0000     -20.622883      -561.1772
   4   2.0000     -15.876016      -432.0083
   5   2.0000     -15.876015      -432.0083
   6   2.0000     -11.341076      -308.6064
   7   2.0000     -11.341052      -308.6057
   8   2.0000     -11.313747      -307.8627
   9   2.0000     -11.309963      -307.7597
  10   2.0000     -11.309920      -307.7586
  11   2.0000     -11.294166      -307.3299
  12   2.0000      -1.629741       -44.3475
  13   2.0000      -1.629511       -44.3412
  14   2.0000      -1.423348       -38.7313
  15   2.0000      -1.423171       -38.7264
  16   2.0000      -1.243532       -33.8382
  17   2.0000      -1.142823       -31.0978
  18   2.0000      -1.107000       -30.1230
  19   2.0000      -0.999816       -27.2064
  20   2.0000      -0.987171       -26.8623
  21   2.0000      -0.882832       -24.0231
  22   2.0000      -0.847573       -23.0636
  23   2.0000      -0.818928       -22.2842
  24   2.0000      -0.765424       -20.8282
  25   2.0000      -0.753332       -20.4992
  26   2.0000      -0.744434       -20.2571
  27   2.0000      -0.743848       -20.2411
  28   2.0000      -0.740062       -20.1381
  29   2.0000      -0.736625       -20.0446
  30   2.0000      -0.691116       -18.8062
  31   2.0000      -0.668850       -18.2003
  32   2.0000      -0.599677       -16.3180
  33   2.0000      -0.584503       -15.9051
  34   2.0000      -0.572012       -15.5652
  35   2.0000      -0.522421       -14.2158
  36   2.0000      -0.517276       -14.0758
  37   2.0000      -0.515211       -14.0196
  38   2.0000      -0.510974       -13.9043
  39   2.0000      -0.475042       -12.9266
  40   2.0000      -0.474442       -12.9102
  41   2.0000      -0.414237       -11.2720
  42   2.0000      -0.405171       -11.0253
  43   0.0000       0.008006         0.2178
  44   0.0000       0.017233         0.4689
  45   0.0000       0.025864         0.7038
  46   0.0000       0.033043         0.8991
  47   0.0000       0.036571         0.9951

MULLIKEN ATOMIC CHARGES
-----------------------
   0 O :   -0.678266
   1 N :    0.753053
   2 O :   -0.670655
   3 C :    0.409491
   4 C :   -0.433877
   5 C :    0.409482
   6 N :    0.753055
   7 O :   -0.678267
   8 O :   -0.670655
   9 C :   -0.507202
  10 C :   -0.500070
  11 C :   -0.507195
  12 H :    0.710546
  13 H :    0.586460
  14 H :    0.437643
  15 H :    0.586456
Sum of atomic charges:   -0.0000000

LOEWDIN ATOMIC CHARGES
----------------------
   0 O :    0.399190
   1 N :   -0.703276
   2 O :    0.404746
   3 C :   -0.195345
   4 C :    0.225935
   5 C :   -0.195345
   6 N :   -0.703276
   7 O :    0.399190
   8 O :    0.404746
   9 C :    0.233889
  10 C :    0.240478
  11 C :    0.233889
  12 H :   -0.200687
  13 H :   -0.185379
  14 H :   -0.173376
  15 H :   -0.185379

  Mayer bond orders larger than 0.100000
B(  0-O ,  1-N ) :   1.0097 B(  0-O ,  2-O ) :   0.1164 B(  0-O ,  3-C ) :   0.3738
B(  0-O , 11-C ) :  -0.1143 B(  1-N ,  2-O ) :   1.0664 B(  1-N ,  3-C ) :   1.3444
B(  1-N ,  4-C ) :  -0.2449 B(  1-N , 11-C ) :  -0.2055 B(  2-O ,  3-C ) :   0.3645
B(  2-O ,  4-C ) :  -0.1230 B(  2-O , 12-H ) :  -0.1210 B(  3-C ,  4-C ) :   0.7745
B(  3-C ,  5-C ) :  -0.1453 B(  3-C , 10-C ) :  -0.2069 B(  3-C , 11-C ) :   0.8040
B(  4-C ,  5-C ) :   0.7745 B(  4-C ,  6-N ) :  -0.2449 B(  4-C ,  8-O ) :  -0.1230
B(  4-C ,  9-C ) :   0.2600 B(  4-C , 11-C ) :   0.2600 B(  4-C , 12-H ) :   0.3937
B(  5-C ,  6-N ) :   1.3444 B(  5-C ,  7-O ) :   0.3738 B(  5-C ,  8-O ) :   0.3645
B(  5-C ,  9-C ) :   0.8040 B(  5-C , 10-C ) :  -0.2069 B(  6-N ,  7-O ) :   1.0097
B(  6-N ,  8-O ) :   1.0664 B(  6-N ,  9-C ) :  -0.2055 B(  7-O ,  8-O ) :   0.1164
B(  7-O ,  9-C ) :  -0.1143 B(  8-O , 12-H ) :  -0.1210 B(  9-C , 10-C ) :   1.2693
B(  9-C , 11-C ) :   0.3299 B(  9-C , 13-H ) :   0.6248 B( 10-C , 11-C ) :   1.2693
B( 10-C , 14-H ) :   0.8395 B( 11-C , 15-H ) :   0.6248

MP2 TOTAL ENERGY:     -640.213517129 Eh
FINAL SINGLE POINT ENERGY      -640.213517128880

DIPOLE MOMENT
-------------
                                X             Y             Z
Electronic contribution:      0.00000       0.00000      -3.58795
Nuclear contribution   :      0.00000      -0.00000       5.48330
                        -----------------------------------------
Total Dipole Moment    :      0.00000       0.00000       1.89535
                        -----------------------------------------
Magnitude (a.u.)       :      1.89535
Magnitude (Debye)      :      4.81760

Rotational constants in cm-1:     0.065473     0.020467     0.015593
Rotational constants in MHz :  1962.817191   613.576928   467.451518

                             ****ORCA TERMINATED NORMALLY****
TOTAL RUN TIME: 0 days 0 hours 11 minutes 22 seconds 783 msec
