                         Program Version 5.0.3 -  RELEASE  -
|  1> !ri-mp2 aug-cc-pvtz aug-cc-pvtz/c tightscf
|  2> %pal nprocs 16 end
|  3>
|  4> * xyz 0 1
|  5> C     1.494187     0.000000    0.000000
|  6> C    -1.494187     0.000000    0.000000
|  7> C    -0.664224     1.251037    0.000000
|  8> C     0.664224     1.251037    0.000000
|  9> C    -0.664224    -1.251037    0.000000
| 10> C     0.664224    -1.251037    0.000000
| 11> H     1.198840    -2.194197    0.000000
| 12> H    -1.198840    -2.194197    0.000000
| 13> H     1.198840     2.194197    0.000000
| 14> H    -1.198840     2.194197    0.000000
| 15> H     2.167593     0.000000    0.866807
| 16> H    -2.167593     0.000000    0.866807
| 17> H     2.167593     0.000000   -0.866807
| 18> H    -2.167593     0.000000   -0.866807
| 19> *
| 20>
| 21>                          ****END OF INPUT****

CARTESIAN COORDINATES (ANGSTROEM)
---------------------------------
  C      1.494187    0.000000    0.000000
  C     -1.494187    0.000000    0.000000
  C     -0.664224    1.251037    0.000000
  C      0.664224    1.251037    0.000000
  C     -0.664224   -1.251037    0.000000
  C      0.664224   -1.251037    0.000000
  H      1.198840   -2.194197    0.000000
  H     -1.198840   -2.194197    0.000000
  H      1.198840    2.194197    0.000000
  H     -1.198840    2.194197    0.000000
  H      2.167593    0.000000    0.866807
  H     -2.167593    0.000000    0.866807
  H      2.167593    0.000000   -0.866807
  H     -2.167593    0.000000   -0.866807

 Total Charge           Charge          ....    0
 Multiplicity           Mult            ....    1
 Number of Electrons    NEL             ....   44
 Basis Dimension        Dim             ....  460

ORBITAL ENERGIES
----------------

  NO   OCC          E(Eh)            E(eV)
   0   2.0000     -11.228986      -305.5562
   1   2.0000     -11.228986      -305.5562
   2   2.0000     -11.223860      -305.4167
   3   2.0000     -11.223798      -305.4151
   4   2.0000     -11.222080      -305.3683
   5   2.0000     -11.222045      -305.3674
   6   2.0000      -1.125807       -30.6348
   7   2.0000      -1.012306       -27.5462
   8   2.0000      -1.005672       -27.3657
   9   2.0000      -0.864461       -23.5232
  10   2.0000      -0.786238       -21.3946
  11   2.0000      -0.682961       -18.5843
  12   2.0000      -0.655479       -17.8365
  13   2.0000      -0.603147       -16.4125
  14   2.0000      -0.596867       -16.2416
  15   2.0000      -0.565281       -15.3821
  16   2.0000      -0.562154       -15.2970
  17   2.0000      -0.533777       -14.5248
  18   2.0000      -0.495478       -13.4827
  19   2.0000      -0.447540       -12.1782
  20   2.0000      -0.362867        -9.8741
  21   2.0000      -0.333459        -9.0739
  22   0.0000       0.030421         0.8278
  23   0.0000       0.035499         0.9660
  24   0.0000       0.036608         0.9961
  25   0.0000       0.044358         1.2070
  26   0.0000       0.048441         1.3182

MULLIKEN ATOMIC CHARGES
-----------------------
   0 C :   -0.022590
   1 C :   -0.022590
   2 C :   -0.640224
   3 C :   -0.640224
   4 C :   -0.640224
   5 C :   -0.640224
   6 H :    0.443153
   7 H :    0.443153
   8 H :    0.443153
   9 H :    0.443153
  10 H :    0.208366
  11 H :    0.208366
  12 H :    0.208366
  13 H :    0.208366
Sum of atomic charges:    0.0000000

LOEWDIN ATOMIC CHARGES
----------------------
   0 C :    0.232794
   1 C :    0.232794
   2 C :    0.224800
   3 C :    0.224800
   4 C :    0.224800
   5 C :    0.224800
   6 H :   -0.184952
   7 H :   -0.184952
   8 H :   -0.184952
   9 H :   -0.184952
  10 H :   -0.156245
  11 H :   -0.156245
  12 H :   -0.156245
  13 H :   -0.156245

  Mayer bond orders larger than 0.100000
B(  0-C ,  3-C ) :   0.7252 B(  0-C ,  5-C ) :   0.7252 B(  0-C , 10-H ) :   1.0491
B(  0-C , 12-H ) :   1.0491 B(  1-C ,  2-C ) :   0.7252 B(  1-C ,  4-C ) :   0.7252
B(  1-C , 11-H ) :   1.0491 B(  1-C , 13-H ) :   1.0491 B(  2-C ,  3-C ) :   1.6683
B(  2-C ,  4-C ) :   0.2476 B(  2-C ,  9-H ) :   0.7431 B(  3-C ,  5-C ) :   0.2476
B(  3-C ,  8-H ) :   0.7431 B(  4-C ,  5-C ) :   1.6683 B(  4-C ,  7-H ) :   0.7431
B(  5-C ,  6-H ) :   0.7431

MP2 TOTAL ENERGY:     -232.901563799 Eh
FINAL SINGLE POINT ENERGY      -232.901563798532

DIPOLE MOMENT
-------------
                                X             Y             Z
Electronic contribution:      0.00000      -0.00000       0.00000
Nuclear contribution   :      0.00000       0.00000       0.00000
                        -----------------------------------------
Total Dipole Moment    :      0.00000      -0.00000       0.00000
                        -----------------------------------------
Magnitude (a.u.)       :      0.00000
Magnitude (Debye)      :      0.00000

Rotational constants in cm-1:     0.172660     0.164310     0.086818
Rotational constants in MHz :  5176.218446  4925.889006  2602.733719

                             ****ORCA TERMINATED NORMALLY****
TOTAL RUN TIME: 0 days 0 hours 3 minutes 47 seconds 239 msec
