                         Program Version 5.0.3 -  RELEASE  -
|  1> !ri-mp2 aug-cc-pvtz aug-cc-pvtz/c tightscf
|  2> %pal nprocs 16 end
|  3>
|  4> * xyz 0 1
|  5> F     -1.669344    0.483858   -0.453523
|  6> F     -0.788373   -1.103319    0.767200
|  7> O      0.629635    1.223624    0.727671
|  8> N     -0.619879   -0.472984   -0.472184
|  9> C      0.621002    0.357868   -0.363789
| 10> C      1.814672   -0.567909   -0.285540
| 11> H     -0.126057    1.819060    0.668820
| 12> H      0.599329    0.897393   -1.316545
| 13> H      2.723091    0.026037   -0.362124
| 14> H      1.817974   -1.095028    0.666070
| 15> H      1.793148   -1.290166   -1.099425
| 16> *
| 17>
| 18>                          ****END OF INPUT****

CARTESIAN COORDINATES (ANGSTROEM)
---------------------------------
  F     -1.669344    0.483858   -0.453523
  F     -0.788373   -1.103319    0.767200
  O      0.629635    1.223624    0.727671
  N     -0.619879   -0.472984   -0.472184
  C      0.621002    0.357868   -0.363789
  C      1.814672   -0.567909   -0.285540
  H     -0.126057    1.819060    0.668820
  H      0.599329    0.897393   -1.316545
  H      2.723091    0.026037   -0.362124
  H      1.817974   -1.095028    0.666070
  H      1.793148   -1.290166   -1.099425

 Total Charge           Charge          ....    0
 Multiplicity           Mult            ....    1
 Number of Electrons    NEL             ....   50
 Basis Dimension        Dim             ....  391

ORBITAL ENERGIES
----------------

  NO   OCC          E(Eh)            E(eV)
   0   2.0000     -26.338959      -716.7195
   1   2.0000     -26.337711      -716.6856
   2   2.0000     -20.592203      -560.3423
   3   2.0000     -15.772391      -429.1886
   4   2.0000     -11.353442      -308.9429
   5   2.0000     -11.241256      -305.8901
   6   2.0000      -1.681356       -45.7520
   7   2.0000      -1.597759       -43.4772
   8   2.0000      -1.407682       -38.3050
   9   2.0000      -1.160263       -31.5724
  10   2.0000      -1.014997       -27.6195
  11   2.0000      -0.866462       -23.5776
  12   2.0000      -0.776177       -21.1209
  13   2.0000      -0.772319       -21.0159
  14   2.0000      -0.756805       -20.5937
  15   2.0000      -0.720027       -19.5929
  16   2.0000      -0.677832       -18.4448
  17   2.0000      -0.644862       -17.5476
  18   2.0000      -0.634541       -17.2667
  19   2.0000      -0.612402       -16.6643
  20   2.0000      -0.568228       -15.4623
  21   2.0000      -0.558955       -15.2099
  22   2.0000      -0.548550       -14.9268
  23   2.0000      -0.507103       -13.7990
  24   2.0000      -0.478578       -13.0228
  25   0.0000       0.027600         0.7510
  26   0.0000       0.037623         1.0238
  27   0.0000       0.041995         1.1428
  28   0.0000       0.048386         1.3166
  29   0.0000       0.061846         1.6829

MULLIKEN ATOMIC CHARGES
-----------------------
   0 F :   -0.380186
   1 F :   -0.348158
   2 O :   -0.627703
   3 N :    0.139317
   4 C :    0.682580
   5 C :   -0.986525
   6 H :    0.187259
   7 H :    0.372464
   8 H :    0.322420
   9 H :    0.318548
  10 H :    0.319982
Sum of atomic charges:    0.0000000

LOEWDIN ATOMIC CHARGES
----------------------
   0 F :    0.298227
   1 F :    0.313822
   2 O :    0.830268
   3 N :   -0.361539
   4 C :   -0.483608
   5 C :    0.574269
   6 H :   -0.495499
   7 H :   -0.161669
   8 H :   -0.167443
   9 H :   -0.175765
  10 H :   -0.171064

  Mayer bond orders larger than 0.100000
B(  0-F ,  3-N ) :   0.7753 B(  1-F ,  3-N ) :   0.7736 B(  2-O ,  4-C ) :   0.6891
B(  2-O ,  6-H ) :   0.9979 B(  3-N ,  4-C ) :   0.6031 B(  4-C ,  5-C ) :   0.8335
B(  4-C ,  7-H ) :   0.8700 B(  5-C ,  8-H ) :   0.9313 B(  5-C ,  9-H ) :   0.9106
B(  5-C , 10-H ) :   0.9306

MP2 TOTAL ENERGY:     -408.174148073 Eh
FINAL SINGLE POINT ENERGY      -408.174148073398

DIPOLE MOMENT
-------------
                                X             Y             Z
Electronic contribution:     -8.26379      -0.57234       1.12398
Nuclear contribution   :      8.94011       0.95349      -1.68750
                        -----------------------------------------
Total Dipole Moment    :      0.67632       0.38115      -0.56352
                        -----------------------------------------
Magnitude (a.u.)       :      0.95929
Magnitude (Debye)      :      2.43832

Rotational constants in cm-1:     0.168545     0.100615     0.083661
Rotational constants in MHz :  5052.851817  3016.370018  2508.079102

                             ****ORCA TERMINATED NORMALLY****
TOTAL RUN TIME: 0 days 0 hours 2 minutes 38 seconds 306 msec
