                         Program Version 5.0.3 -  RELEASE  -
|  1> !ri-mp2 aug-cc-pvtz aug-cc-pvtz/c tightscf
|  2> %pal nprocs 16 end
|  3>
|  4> * xyz 0 1
|  5> S      2.227257    0.061467    0.015437
|  6> C      0.580287    0.139250    0.025344
|  7> N     -0.170607    1.260373    0.108482
|  8> C     -1.590238    1.151842   -0.196876
|  9> C     -1.989229   -0.260741    0.225693
| 10> S     -0.486681   -1.273692   -0.086772
| 11> H      0.312643    2.142650    0.044203
| 12> H     -1.765588    1.297506   -1.267875
| 13> H     -2.152266    1.906954    0.352089
| 14> H     -2.821611   -0.645528   -0.356536
| 15> H     -2.233067   -0.310700    1.285146
| 16> *
| 17>
| 18>                          ****END OF INPUT****

CARTESIAN COORDINATES (ANGSTROEM)
---------------------------------
  S      2.227257    0.061467    0.015437
  C      0.580287    0.139250    0.025344
  N     -0.170607    1.260373    0.108482
  C     -1.590238    1.151842   -0.196876
  C     -1.989229   -0.260741    0.225693
  S     -0.486681   -1.273692   -0.086772
  H      0.312643    2.142650    0.044203
  H     -1.765588    1.297506   -1.267875
  H     -2.152266    1.906954    0.352089
  H     -2.821611   -0.645528   -0.356536
  H     -2.233067   -0.310700    1.285146

 Total Charge           Charge          ....    0
 Multiplicity           Mult            ....    1
 Number of Electrons    NEL             ....   62
 Basis Dimension        Dim             ....  399

ORBITAL ENERGIES
----------------

  NO   OCC          E(Eh)            E(eV)
   0   2.0000     -91.988295     -2503.1288
   1   2.0000     -91.904617     -2500.8518
   2   2.0000     -15.618881      -425.0114
   3   2.0000     -11.375733      -309.5494
   4   2.0000     -11.305855      -307.6480
   5   2.0000     -11.291200      -307.2492
   6   2.0000      -8.988654      -244.5937
   7   2.0000      -8.907676      -242.3902
   8   2.0000      -6.669525      -181.4870
   9   2.0000      -6.668646      -181.4631
  10   2.0000      -6.667672      -181.4366
  11   2.0000      -6.589120      -179.2991
  12   2.0000      -6.587363      -179.2513
  13   2.0000      -6.586558      -179.2294
  14   2.0000      -1.306505       -35.5518
  15   2.0000      -1.083302       -29.4781
  16   2.0000      -1.059490       -28.8302
  17   2.0000      -0.930593       -25.3227
  18   2.0000      -0.861718       -23.4485
  19   2.0000      -0.794308       -21.6142
  20   2.0000      -0.702102       -19.1052
  21   2.0000      -0.676524       -18.4092
  22   2.0000      -0.597530       -16.2596
  23   2.0000      -0.583549       -15.8792
  24   2.0000      -0.576081       -15.6760
  25   2.0000      -0.522238       -14.2108
  26   2.0000      -0.506124       -13.7723
  27   2.0000      -0.476729       -12.9724
  28   2.0000      -0.383999       -10.4491
  29   2.0000      -0.331930        -9.0323
  30   2.0000      -0.326414        -8.8822
  31   0.0000       0.018620         0.5067
  32   0.0000       0.031567         0.8590
  33   0.0000       0.033946         0.9237
  34   0.0000       0.044591         1.2134
  35   0.0000       0.054121         1.4727

MULLIKEN ATOMIC CHARGES
-----------------------
   0 S :   -0.511487
   1 C :    0.209473
   2 N :   -0.064351
   3 C :   -0.313461
   4 C :   -0.449839
   5 S :   -0.114526
   6 H :    0.089264
   7 H :    0.271739
   8 H :    0.321505
   9 H :    0.316656
  10 H :    0.245026
Sum of atomic charges:   -0.0000000

LOEWDIN ATOMIC CHARGES
----------------------
   0 S :    0.762897
   1 C :   -1.392197
   2 N :    0.386164
   3 C :    0.123582
   4 C :   -0.019973
   5 S :    1.165074
   6 H :   -0.298552
   7 H :   -0.146353
   8 H :   -0.145729
   9 H :   -0.218543
  10 H :   -0.216369

  Mayer bond orders larger than 0.100000
B(  0-S ,  1-C ) :   1.5871 B(  1-C ,  2-N ) :   1.2068 B(  1-C ,  5-S ) :   0.9996
B(  2-N ,  3-C ) :   0.7747 B(  2-N ,  6-H ) :   1.0358 B(  3-C ,  4-C ) :   1.0098
B(  3-C ,  7-H ) :   0.9281 B(  3-C ,  8-H ) :   0.8947 B(  4-C ,  5-S ) :   0.9561
B(  4-C ,  9-H ) :   0.9207 B(  4-C , 10-H ) :   0.9394

MP2 TOTAL ENERGY:     -967.181573488 Eh
FINAL SINGLE POINT ENERGY      -967.181573487567

DIPOLE MOMENT
-------------
                                X             Y             Z
Electronic contribution:      6.20943      -3.40646      -0.09005
Nuclear contribution   :     -8.51286       4.33300       0.05848
                        -----------------------------------------
Total Dipole Moment    :     -2.30343       0.92654      -0.03157
                        -----------------------------------------
Magnitude (a.u.)       :      2.48299
Magnitude (Debye)      :      6.31126

Rotational constants in cm-1:     0.158027     0.061430     0.045433
Rotational constants in MHz :  4737.517645  1841.613248  1362.050352

                             ****ORCA TERMINATED NORMALLY****
TOTAL RUN TIME: 0 days 0 hours 3 minutes 16 seconds 502 msec
