                         Program Version 5.0.3 -  RELEASE  -
|  1> !ri-mp2 aug-cc-pvtz aug-cc-pvtz/c tightscf
|  2> %pal nprocs 16 end
|  3>
|  4> * xyz 0 1
|  5> C    -0.749149   -2.765389    0.000000
|  6> C    -0.579479   -0.671889    0.000000
|  7> C     0.123559    2.779879    0.000000
|  8> C    -0.748568    1.763546    0.000000
|  9> C     1.389116    0.865788    0.000000
| 10> N    -1.948842   -2.317880    0.000000
| 11> N    -1.848213   -0.922014    0.000000
| 12> N     1.407751    2.245729    0.000000
| 13> N     0.000000    0.571384    0.000000
| 14> O     2.321679    0.097408    0.000000
| 15> O     0.193548   -1.775534    0.000000
| 16> H    -0.403540   -3.783062    0.000000
| 17> H    -0.057518    3.838204    0.000000
| 18> H    -1.820876    1.742621    0.000000
| 19> H     2.272372    2.755109    0.000000
| 20> *
| 21>
| 22>                          ****END OF INPUT****

CARTESIAN COORDINATES (ANGSTROEM)
---------------------------------
  C     -0.749149   -2.765389    0.000000
  C     -0.579479   -0.671889    0.000000
  C      0.123559    2.779879    0.000000
  C     -0.748568    1.763546    0.000000
  C      1.389116    0.865788    0.000000
  N     -1.948842   -2.317880    0.000000
  N     -1.848213   -0.922014    0.000000
  N      1.407751    2.245729    0.000000
  N      0.000000    0.571384    0.000000
  O      2.321679    0.097408    0.000000
  O      0.193548   -1.775534    0.000000
  H     -0.403540   -3.783062    0.000000
  H     -0.057518    3.838204    0.000000
  H     -1.820876    1.742621    0.000000
  H      2.272372    2.755109    0.000000

 Total Charge           Charge          ....    0
 Multiplicity           Mult            ....    1
 Number of Electrons    NEL             ....   78
 Basis Dimension        Dim             ....  598

ORBITAL ENERGIES
----------------

  NO   OCC          E(Eh)            E(eV)
   0   2.0000     -20.668006      -562.4050
   1   2.0000     -20.540436      -558.9337
   2   2.0000     -15.654408      -425.9781
   3   2.0000     -15.630701      -425.3330
   4   2.0000     -15.609520      -424.7566
   5   2.0000     -15.596862      -424.4122
   6   2.0000     -11.411134      -310.5127
   7   2.0000     -11.401212      -310.2427
   8   2.0000     -11.346093      -308.7429
   9   2.0000     -11.301997      -307.5430
  10   2.0000     -11.294585      -307.3413
  11   2.0000      -1.537391       -41.8345
  12   2.0000      -1.431776       -38.9606
  13   2.0000      -1.345628       -36.6164
  14   2.0000      -1.313994       -35.7556
  15   2.0000      -1.260771       -34.3073
  16   2.0000      -1.123288       -30.5662
  17   2.0000      -1.045907       -28.4606
  18   2.0000      -0.932755       -25.3815
  19   2.0000      -0.905221       -24.6323
  20   2.0000      -0.848565       -23.0906
  21   2.0000      -0.812447       -22.1078
  22   2.0000      -0.757670       -20.6172
  23   2.0000      -0.738178       -20.0868
  24   2.0000      -0.717231       -19.5168
  25   2.0000      -0.692322       -18.8390
  26   2.0000      -0.660573       -17.9751
  27   2.0000      -0.646645       -17.5961
  28   2.0000      -0.642051       -17.4711
  29   2.0000      -0.637581       -17.3495
  30   2.0000      -0.629052       -17.1174
  31   2.0000      -0.531172       -14.4539
  32   2.0000      -0.505658       -13.7596
  33   2.0000      -0.505086       -13.7441
  34   2.0000      -0.495449       -13.4819
  35   2.0000      -0.470734       -12.8093
  36   2.0000      -0.463476       -12.6118
  37   2.0000      -0.385559       -10.4916
  38   2.0000      -0.327773        -8.9191
  39   0.0000       0.018089         0.4922
  40   0.0000       0.032167         0.8753
  41   0.0000       0.034890         0.9494
  42   0.0000       0.045720         1.2441
  43   0.0000       0.060070         1.6346

MULLIKEN ATOMIC CHARGES
-----------------------
   0 C :   -0.427919
   1 C :    0.473200
   2 C :   -0.308930
   3 C :   -0.654377
   4 C :    0.134484
   5 N :   -0.521277
   6 N :   -0.279056
   7 N :   -0.163049
   8 N :    0.648658
   9 O :   -0.746877
  10 O :   -0.161164
  11 H :    0.668022
  12 H :    0.607987
  13 H :    0.576878
  14 H :    0.153422
Sum of atomic charges:    0.0000000

LOEWDIN ATOMIC CHARGES
----------------------
   0 C :   -0.220573
   1 C :   -0.712396
   2 C :    0.142033
   3 C :    0.138641
   4 C :   -0.747313
   5 N :    0.181217
   6 N :    0.212332
   7 N :    0.539895
   8 N :    0.222313
   9 O :    0.427870
  10 O :    0.608923
  11 H :   -0.190312
  12 H :   -0.170733
  13 H :   -0.177336
  14 H :   -0.254561

  Mayer bond orders larger than 0.100000
B(  0-C ,  1-C ) :  -0.3029 B(  0-C ,  5-N ) :   1.7477 B(  0-C , 10-O ) :   1.1785
B(  0-C , 11-H ) :   0.5223 B(  1-C ,  3-C ) :  -0.2168 B(  1-C ,  4-C ) :  -0.2857
B(  1-C ,  6-N ) :   1.5675 B(  1-C ,  8-N ) :   0.7673 B(  1-C , 10-O ) :   0.9346
B(  2-C ,  3-C ) :   1.4093 B(  2-C ,  4-C ) :  -0.1790 B(  2-C ,  7-N ) :   0.9919
B(  2-C ,  8-N ) :  -0.2451 B(  2-C , 12-H ) :   0.6538 B(  3-C ,  8-N ) :   0.9439
B(  3-C , 13-H ) :   0.7392 B(  4-C ,  7-N ) :   1.1952 B(  4-C ,  8-N ) :   0.9548
B(  4-C ,  9-O ) :   1.6705 B(  5-N ,  6-N ) :   0.2140 B(  6-N ,  8-N ) :  -0.1722
B(  7-N ,  8-N ) :  -0.1752 B(  7-N ,  9-O ) :  -0.1739 B(  7-N , 14-H ) :   1.1209

MP2 TOTAL ENERGY:     -561.416822588 Eh
FINAL SINGLE POINT ENERGY      -561.416822588163

DIPOLE MOMENT
-------------
                                X             Y             Z
Electronic contribution:      0.42532      -2.91204      -0.00000
Nuclear contribution   :      0.01547       4.35670       0.00000
                        -----------------------------------------
Total Dipole Moment    :      0.44079       1.44465      -0.00000
                        -----------------------------------------
Magnitude (a.u.)       :      1.51040
Magnitude (Debye)      :      3.83914

Rotational constants in cm-1:     0.095361     0.029180     0.022343
Rotational constants in MHz :  2858.845608   874.792977   669.828641

                             ****ORCA TERMINATED NORMALLY****
TOTAL RUN TIME: 0 days 0 hours 8 minutes 57 seconds 151 msec
