                         Program Version 5.0.3 -  RELEASE  -
|  1> !ri-mp2 aug-cc-pvtz aug-cc-pvtz/c tightscf
|  2> %pal nprocs 16 end
|  3>
|  4> * xyz 0 1
|  5> C     -0.621011   -0.043215   -0.003296
|  6> H      0.001740    2.009175   -0.056030
|  7> N      0.197961    1.024633   -0.005588
|  8> N      1.486430    0.574685    0.004451
|  9> N      1.411372   -0.699900    0.008559
| 10> N      0.119936   -1.131006    0.009304
| 11> H     -2.446118    0.747717    0.423321
| 12> H     -2.419586   -0.896323    0.073092
| 13> N     -1.988552    0.002833   -0.076813
| 14> *
| 15>
| 16>                          ****END OF INPUT****

CARTESIAN COORDINATES (ANGSTROEM)
---------------------------------
  C     -0.621011   -0.043215   -0.003296
  H      0.001740    2.009175   -0.056030
  N      0.197961    1.024633   -0.005588
  N      1.486430    0.574685    0.004451
  N      1.411372   -0.699900    0.008559
  N      0.119936   -1.131006    0.009304
  H     -2.446118    0.747717    0.423321
  H     -2.419586   -0.896323    0.073092
  N     -1.988552    0.002833   -0.076813

 Total Charge           Charge          ....    0
 Multiplicity           Mult            ....    1
 Number of Electrons    NEL             ....   44
 Basis Dimension        Dim             ....  345

ORBITAL ENERGIES
----------------

  NO   OCC          E(Eh)            E(eV)
   0   2.0000     -15.663711      -426.2313
   1   2.0000     -15.650364      -425.8680
   2   2.0000     -15.643332      -425.6767
   3   2.0000     -15.613345      -424.8607
   4   2.0000     -15.582254      -424.0147
   5   2.0000     -11.370979      -309.4201
   6   2.0000      -1.484072       -40.3836
   7   2.0000      -1.281515       -34.8718
   8   2.0000      -1.241369       -33.7794
   9   2.0000      -1.151570       -31.3358
  10   2.0000      -0.898672       -24.4541
  11   2.0000      -0.876043       -23.8383
  12   2.0000      -0.792246       -21.5581
  13   2.0000      -0.711995       -19.3744
  14   2.0000      -0.693650       -18.8752
  15   2.0000      -0.673459       -18.3258
  16   2.0000      -0.569896       -15.5077
  17   2.0000      -0.529015       -14.3952
  18   2.0000      -0.464919       -12.6511
  19   2.0000      -0.462085       -12.5740
  20   2.0000      -0.451295       -12.2804
  21   2.0000      -0.374152       -10.1812
  22   0.0000       0.012167         0.3311
  23   0.0000       0.030464         0.8290
  24   0.0000       0.046421         1.2632
  25   0.0000       0.071557         1.9472
  26   0.0000       0.092754         2.5240

MULLIKEN ATOMIC CHARGES
-----------------------
   0 C :    0.299642
   1 H :    0.144047
   2 N :    0.315431
   3 N :   -0.330991
   4 N :   -0.177538
   5 N :   -0.231462
   6 H :    0.133671
   7 H :    0.181774
   8 N :   -0.334575
Sum of atomic charges:    0.0000000

LOEWDIN ATOMIC CHARGES
----------------------
   0 C :   -0.605515
   1 H :   -0.262160
   2 N :    0.355283
   3 N :    0.093615
   4 N :   -0.030770
   5 N :    0.188928
   6 H :   -0.300960
   7 H :   -0.301948
   8 N :    0.863528

  Mayer bond orders larger than 0.100000
B(  0-C ,  2-N ) :   1.0886 B(  0-C ,  5-N ) :   1.3091 B(  0-C ,  8-N ) :   0.9534
B(  1-H ,  2-N ) :   1.0626 B(  2-N ,  3-N ) :   0.6676 B(  2-N ,  4-N ) :   0.1119
B(  2-N ,  5-N ) :  -0.1041 B(  3-N ,  4-N ) :   1.1548 B(  3-N ,  5-N ) :   0.1488
B(  4-N ,  5-N ) :   0.6361 B(  6-H ,  8-N ) :   1.0420 B(  7-H ,  8-N ) :   0.9731

MP2 TOTAL ENERGY:     -313.097629540 Eh
FINAL SINGLE POINT ENERGY      -313.097629539834

DIPOLE MOMENT
-------------
                                X             Y             Z
Electronic contribution:      2.73844      -0.34992      -0.07980
Nuclear contribution   :     -4.71776       1.80601       0.42744
                        -----------------------------------------
Total Dipole Moment    :     -1.97931       1.45609       0.34764
                        -----------------------------------------
Magnitude (a.u.)       :      2.48168
Magnitude (Debye)      :      6.30792

Rotational constants in cm-1:     0.338536     0.128144     0.093226
Rotational constants in MHz : 10149.050223  3841.664399  2794.830351

                             ****ORCA TERMINATED NORMALLY****
TOTAL RUN TIME: 0 days 0 hours 1 minutes 47 seconds 181 msec
