                         Program Version 5.0.3 -  RELEASE  -
|  1> !ri-mp2 aug-cc-pvtz aug-cc-pvtz/c tightscf
|  2> %pal nprocs 16 end
|  3>
|  4> * xyz 0 1
|  5> S     -1.169858   -1.011282    0.175331
|  6> S     -1.142550    1.044339   -0.322638
|  7> N      0.518150   -1.217936   -0.077229
|  8> N      2.527323   -0.088722   -0.233399
|  9> C      1.295329   -0.062239    0.065703
| 10> C      0.478211    1.133537    0.539987
| 11> H      0.785257   -1.791625   -0.865407
| 12> H      2.962650    0.821413   -0.123246
| 13> H      0.970963    2.062828    0.267287
| 14> H      0.320110    1.097290    1.618539
| 15> *
| 16>
| 17>                          ****END OF INPUT****

CARTESIAN COORDINATES (ANGSTROEM)
---------------------------------
  S     -1.169858   -1.011282    0.175331
  S     -1.142550    1.044339   -0.322638
  N      0.518150   -1.217936   -0.077229
  N      2.527323   -0.088722   -0.233399
  C      1.295329   -0.062239    0.065703
  C      0.478211    1.133537    0.539987
  H      0.785257   -1.791625   -0.865407
  H      2.962650    0.821413   -0.123246
  H      0.970963    2.062828    0.267287
  H      0.320110    1.097290    1.618539

 Total Charge           Charge          ....    0
 Multiplicity           Mult            ....    1
 Number of Electrons    NEL             ....   62
 Basis Dimension        Dim             ....  376

ORBITAL ENERGIES
----------------

  NO   OCC          E(Eh)            E(eV)
   0   2.0000     -92.022742     -2504.0661
   1   2.0000     -91.997414     -2503.3769
   2   2.0000     -15.609408      -424.7536
   3   2.0000     -15.549111      -423.1128
   4   2.0000     -11.342454      -308.6439
   5   2.0000     -11.297552      -307.4220
   6   2.0000      -9.017660      -245.3830
   7   2.0000      -8.995641      -244.7838
   8   2.0000      -6.698430      -182.2736
   9   2.0000      -6.697418      -182.2460
  10   2.0000      -6.695812      -182.2023
  11   2.0000      -6.676346      -181.6726
  12   2.0000      -6.675583      -181.6519
  13   2.0000      -6.674229      -181.6150
  14   2.0000      -1.296809       -35.2880
  15   2.0000      -1.183033       -32.1920
  16   2.0000      -1.077430       -29.3184
  17   2.0000      -0.973171       -26.4813
  18   2.0000      -0.849415       -23.1138
  19   2.0000      -0.802458       -21.8360
  20   2.0000      -0.699295       -19.0288
  21   2.0000      -0.664937       -18.0939
  22   2.0000      -0.615676       -16.7534
  23   2.0000      -0.590569       -16.0702
  24   2.0000      -0.562373       -15.3030
  25   2.0000      -0.518378       -14.1058
  26   2.0000      -0.464892       -12.6504
  27   2.0000      -0.459722       -12.5097
  28   2.0000      -0.421679       -11.4745
  29   2.0000      -0.384594       -10.4653
  30   2.0000      -0.338820        -9.2198
  31   0.0000       0.027340         0.7440
  32   0.0000       0.038797         1.0557
  33   0.0000       0.041712         1.1350
  34   0.0000       0.046381         1.2621
  35   0.0000       0.058885         1.6023

MULLIKEN ATOMIC CHARGES
-----------------------
   0 S :   -0.030362
   1 S :   -0.212235
   2 N :   -0.117329
   3 N :   -0.722072
   4 C :    0.379944
   5 C :   -0.175304
   6 H :    0.127123
   7 H :    0.159868
   8 H :    0.322079
   9 H :    0.268289
Sum of atomic charges:    0.0000000

LOEWDIN ATOMIC CHARGES
----------------------
   0 S :    0.638298
   1 S :    0.713345
   2 N :    0.076561
   3 N :    0.646486
   4 C :   -0.617179
   5 C :   -0.149858
   6 H :   -0.392870
   7 H :   -0.445986
   8 H :   -0.238297
   9 H :   -0.230500

  Mayer bond orders larger than 0.100000
B(  0-S ,  1-S ) :   1.0144 B(  0-S ,  2-N ) :   0.9379 B(  1-S ,  5-C ) :   0.9713
B(  2-N ,  3-N ) :  -0.1293 B(  2-N ,  4-C ) :   0.8744 B(  2-N ,  6-H ) :   1.0187
B(  3-N ,  4-C ) :   1.3524 B(  3-N ,  7-H ) :   0.9351 B(  4-C ,  5-C ) :   0.8399
B(  5-C ,  8-H ) :   0.8991 B(  5-C ,  9-H ) :   0.9171

MP2 TOTAL ENERGY:     -983.190033814 Eh
FINAL SINGLE POINT ENERGY      -983.190033814168

DIPOLE MOMENT
-------------
                                X             Y             Z
Electronic contribution:     -5.11336      -1.46676      -0.71511
Nuclear contribution   :      4.96831       2.11321       0.87184
                        -----------------------------------------
Total Dipole Moment    :     -0.14505       0.64645       0.15673
                        -----------------------------------------
Magnitude (a.u.)       :      0.68081
Magnitude (Debye)      :      1.73047

Rotational constants in cm-1:     0.134239     0.075143     0.051742
Rotational constants in MHz :  4024.388307  2252.718280  1551.173952

                             ****ORCA TERMINATED NORMALLY****
TOTAL RUN TIME: 0 days 0 hours 2 minutes 56 seconds 917 msec
