                         Program Version 5.0.3 -  RELEASE  -
|  1> !ri-mp2 aug-cc-pvtz aug-cc-pvtz/c tightscf
|  2> %pal nprocs 16 end
|  3>
|  4> * xyz 0 1
|  5> C      0.000000    0.825176    0.000000
|  6> C      1.158271    1.785300    0.000000
|  7> C     -1.007571   -1.801949    0.000000
|  8> N     -1.193183    1.247338    0.000000
|  9> S      0.556958   -0.883144    0.000000
| 10> H      1.784741    1.632779    0.879911
| 11> H      1.784741    1.632779   -0.879911
| 12> H      0.775934    2.802688    0.000000
| 13> H     -0.737538   -2.855412    0.000000
| 14> H     -1.589589   -1.586821   -0.894274
| 15> H     -1.589589   -1.586821    0.894274
| 16> H     -1.891951    0.508598    0.000000
| 17> *
| 18>
| 19>                          ****END OF INPUT****

CARTESIAN COORDINATES (ANGSTROEM)
---------------------------------
  C      0.000000    0.825176    0.000000
  C      1.158271    1.785300    0.000000
  C     -1.007571   -1.801949    0.000000
  N     -1.193183    1.247338    0.000000
  S      0.556958   -0.883144    0.000000
  H      1.784741    1.632779    0.879911
  H      1.784741    1.632779   -0.879911
  H      0.775934    2.802688    0.000000
  H     -0.737538   -2.855412    0.000000
  H     -1.589589   -1.586821   -0.894274
  H     -1.589589   -1.586821    0.894274
  H     -1.891951    0.508598    0.000000

 Total Charge           Charge          ....    0
 Multiplicity           Mult            ....    1
 Number of Electrons    NEL             ....   48
 Basis Dimension        Dim             ....  395

ORBITAL ENERGIES
----------------

  NO   OCC          E(Eh)            E(eV)
   0   2.0000     -91.969230     -2502.6100
   1   2.0000     -15.549184      -423.1148
   2   2.0000     -11.319485      -308.0188
   3   2.0000     -11.268941      -306.6435
   4   2.0000     -11.232063      -305.6400
   5   2.0000      -8.969954      -244.0849
   6   2.0000      -6.651223      -180.9890
   7   2.0000      -6.650075      -180.9577
   8   2.0000      -6.649313      -180.9370
   9   2.0000      -1.224023       -33.3074
  10   2.0000      -1.052788       -28.6478
  11   2.0000      -1.002234       -27.2722
  12   2.0000      -0.889746       -24.2112
  13   2.0000      -0.748178       -20.3590
  14   2.0000      -0.660216       -17.9654
  15   2.0000      -0.610712       -16.6183
  16   2.0000      -0.602033       -16.3822
  17   2.0000      -0.587855       -15.9963
  18   2.0000      -0.569984       -15.5101
  19   2.0000      -0.528023       -14.3682
  20   2.0000      -0.483209       -13.1488
  21   2.0000      -0.456430       -12.4201
  22   2.0000      -0.402538       -10.9536
  23   2.0000      -0.355053        -9.6615
  24   0.0000       0.027459         0.7472
  25   0.0000       0.036061         0.9813
  26   0.0000       0.042180         1.1478
  27   0.0000       0.043794         1.1917
  28   0.0000       0.056500         1.5374

MULLIKEN ATOMIC CHARGES
-----------------------
   0 C :    0.565036
   1 C :   -0.832430
   2 C :   -0.776566
   3 N :   -0.745816
   4 S :   -0.167539
   5 H :    0.314417
   6 H :    0.314417
   7 H :    0.295259
   8 H :    0.294046
   9 H :    0.267461
  10 H :    0.267461
  11 H :    0.204254
Sum of atomic charges:   -0.0000000

LOEWDIN ATOMIC CHARGES
----------------------
   0 C :   -0.702777
   1 C :    0.473038
   2 C :    0.219097
   3 N :    0.601000
   4 S :    1.199033
   5 H :   -0.189324
   6 H :   -0.189324
   7 H :   -0.190838
   8 H :   -0.254613
   9 H :   -0.239138
  10 H :   -0.239138
  11 H :   -0.487017

  Mayer bond orders larger than 0.100000
B(  0-C ,  1-C ) :   0.8670 B(  0-C ,  3-N ) :   1.2537 B(  0-C ,  4-S ) :   0.9235
B(  1-C ,  5-H ) :   0.9294 B(  1-C ,  6-H ) :   0.9294 B(  1-C ,  7-H ) :   0.9302
B(  2-C ,  4-S ) :   0.9595 B(  2-C ,  8-H ) :   0.9584 B(  2-C ,  9-H ) :   0.9114
B(  2-C , 10-H ) :   0.9114 B(  3-N ,  4-S ) :   0.1044 B(  3-N , 11-H ) :   0.8731

MP2 TOTAL ENERGY:     -570.639480100 Eh
FINAL SINGLE POINT ENERGY      -570.639480099759

DIPOLE MOMENT
-------------
                                X             Y             Z
Electronic contribution:      1.50133      -1.29084      -0.00000
Nuclear contribution   :     -1.50398       0.58884       0.00000
                        -----------------------------------------
Total Dipole Moment    :     -0.00265      -0.70200      -0.00000
                        -----------------------------------------
Magnitude (a.u.)       :      0.70201
Magnitude (Debye)      :      1.78437

Rotational constants in cm-1:     0.237028     0.099881     0.072180
Rotational constants in MHz :  7105.907487  2994.364276  2163.887199

                             ****ORCA TERMINATED NORMALLY****
TOTAL RUN TIME: 0 days 0 hours 2 minutes 27 seconds 575 msec
