                         Program Version 5.0.3 -  RELEASE  -
|  1> !ri-mp2 aug-cc-pvtz aug-cc-pvtz/c tightscf
|  2> %pal nprocs 16 end
|  3>
|  4> * xyz 0 1
|  5> O     2.042882    1.386061   -0.306059
|  6> O    -0.918032   -1.066477   -0.827288
|  7> O     3.605054   -0.221660   -0.468251
|  8> N     0.250255   -0.222810    0.941283
|  9> N    -3.135574    0.325904   -0.031872
| 10> N    -4.076826    0.233940   -0.637842
| 11> C     1.503935   -0.802214    0.535266
| 12> C    -0.876835   -0.354541    0.164605
| 13> C     2.504443    0.128212   -0.134773
| 14> C    -2.026017    0.411410    0.648141
| 15> H     2.017669   -1.255971    1.383817
| 16> H     1.288572   -1.598028   -0.176598
| 17> H     0.261728    0.487240    1.652644
| 18> H    -2.050184    1.041177    1.521965
| 19> H     2.744845    1.885755   -0.749461
| 20> *
| 21>
| 22>                          ****END OF INPUT****

CARTESIAN COORDINATES (ANGSTROEM)
---------------------------------
  O      2.042882    1.386061   -0.306059
  O     -0.918032   -1.066477   -0.827288
  O      3.605054   -0.221660   -0.468251
  N      0.250255   -0.222810    0.941283
  N     -3.135574    0.325904   -0.031872
  N     -4.076826    0.233940   -0.637842
  C      1.503935   -0.802214    0.535266
  C     -0.876835   -0.354541    0.164605
  C      2.504443    0.128212   -0.134773
  C     -2.026017    0.411410    0.648141
  H      2.017669   -1.255971    1.383817
  H      1.288572   -1.598028   -0.176598
  H      0.261728    0.487240    1.652644
  H     -2.050184    1.041177    1.521965
  H      2.744845    1.885755   -0.749461

 Total Charge           Charge          ....    0
 Multiplicity           Mult            ....    1
 Number of Electrons    NEL             ....   74
 Basis Dimension        Dim             ....  575

ORBITAL ENERGIES
----------------

  NO   OCC          E(Eh)            E(eV)
   0   2.0000     -20.626199      -561.2674
   1   2.0000     -20.558232      -559.4179
   2   2.0000     -20.527846      -558.5911
   3   2.0000     -15.767481      -429.0550
   4   2.0000     -15.700047      -427.2200
   5   2.0000     -15.602457      -424.5645
   6   2.0000     -11.397279      -310.1357
   7   2.0000     -11.374525      -309.5166
   8   2.0000     -11.294829      -307.3479
   9   2.0000     -11.288191      -307.1673
  10   2.0000      -1.501120       -40.8475
  11   2.0000      -1.477705       -40.2104
  12   2.0000      -1.395033       -37.9608
  13   2.0000      -1.374369       -37.3985
  14   2.0000      -1.251807       -34.0634
  15   2.0000      -1.158649       -31.5284
  16   2.0000      -1.022183       -27.8150
  17   2.0000      -0.878662       -23.9096
  18   2.0000      -0.832861       -22.6633
  19   2.0000      -0.784021       -21.3343
  20   2.0000      -0.749685       -20.4000
  21   2.0000      -0.716106       -19.4862
  22   2.0000      -0.711307       -19.3556
  23   2.0000      -0.696515       -18.9531
  24   2.0000      -0.688213       -18.7272
  25   2.0000      -0.661474       -17.9996
  26   2.0000      -0.643338       -17.5061
  27   2.0000      -0.628488       -17.1020
  28   2.0000      -0.605836       -16.4856
  29   2.0000      -0.582389       -15.8476
  30   2.0000      -0.571732       -15.5576
  31   2.0000      -0.565488       -15.3877
  32   2.0000      -0.491238       -13.3673
  33   2.0000      -0.479446       -13.0464
  34   2.0000      -0.447736       -12.1835
  35   2.0000      -0.411941       -11.2095
  36   2.0000      -0.353764        -9.6264
  37   0.0000       0.017696         0.4815
  38   0.0000       0.032373         0.8809
  39   0.0000       0.035413         0.9636
  40   0.0000       0.046946         1.2775
  41   0.0000       0.061546         1.6748

MULLIKEN ATOMIC CHARGES
-----------------------
   0 O :   -0.388447
   1 O :   -0.928356
   2 O :   -0.781162
   3 N :   -0.128205
   4 N :    0.641271
   5 N :   -0.844939
   6 C :   -0.028803
   7 C :    0.862987
   8 C :    0.528015
   9 C :   -0.472560
  10 H :    0.360443
  11 H :    0.373923
  12 H :    0.083004
  13 H :    0.488897
  14 H :    0.233931
Sum of atomic charges:   -0.0000000

LOEWDIN ATOMIC CHARGES
----------------------
   0 O :    0.832439
   1 O :    0.436777
   2 O :    0.447496
   3 N :    0.527016
   4 N :   -0.012867
   5 N :    0.361509
   6 C :    0.184591
   7 C :   -0.745328
   8 C :   -0.770064
   9 C :    0.057597
  10 H :   -0.149696
  11 H :   -0.179381
  12 H :   -0.292323
  13 H :   -0.229012
  14 H :   -0.468754

  Mayer bond orders larger than 0.100000
B(  0-O ,  8-C ) :   1.0177 B(  0-O , 14-H ) :   0.9436 B(  1-O ,  7-C ) :   1.2657
B(  2-O ,  8-C ) :   1.4168 B(  3-N ,  6-C ) :   0.9892 B(  3-N ,  7-C ) :   0.8834
B(  3-N , 12-H ) :   1.0483 B(  4-N ,  5-N ) :   1.2931 B(  4-N ,  7-C ) :  -0.1352
B(  4-N ,  9-C ) :   1.2243 B(  5-N ,  9-C ) :  -0.1392 B(  6-C ,  8-C ) :   0.5996
B(  6-C , 10-H ) :   0.8924 B(  6-C , 11-H ) :   0.8888 B(  7-C ,  9-C ) :   0.8643
B(  9-C , 13-H ) :   0.7441

MP2 TOTAL ENERGY:     -544.455571424 Eh
FINAL SINGLE POINT ENERGY      -544.455571424467

DIPOLE MOMENT
-------------
                                X             Y             Z
Electronic contribution:     -4.56196       0.73336      -2.00472
Nuclear contribution   :      4.17249       0.54745       3.50470
                        -----------------------------------------
Total Dipole Moment    :     -0.38947       1.28081       1.49998
                        -----------------------------------------
Magnitude (a.u.)       :      2.01049
Magnitude (Debye)      :      5.11027

Rotational constants in cm-1:     0.136118     0.018967     0.018496
Rotational constants in MHz :  4080.708752   568.610664   554.509196

                             ****ORCA TERMINATED NORMALLY****
TOTAL RUN TIME: 0 days 0 hours 7 minutes 2 seconds 694 msec
