                         Program Version 5.0.3 -  RELEASE  -
|  1> !ri-mp2 aug-cc-pvtz aug-cc-pvtz/c tightscf
|  2> %pal nprocs 16 end
|  3>
|  4> * xyz 0 1
|  5> C      0.000000    1.191371    0.693954
|  6> C      0.000000    0.000000    1.397434
|  7> C      0.000000   -1.191371    0.693954
|  8> C      0.000000   -1.191371   -0.693954
|  9> C      0.000000    0.000000   -1.397434
| 10> C      0.000000    1.191371   -0.693954
| 11> F      0.000000    2.357926    1.354335
| 12> H      0.000000    0.000000    2.477199
| 13> F      0.000000   -2.357926    1.354335
| 14> F      0.000000   -2.357926   -1.354335
| 15> H      0.000000    0.000000   -2.477199
| 16> F      0.000000    2.357926   -1.354335
| 17> *
| 18>
| 19>                          ****END OF INPUT****

CARTESIAN COORDINATES (ANGSTROEM)
---------------------------------
  C      0.000000    1.191371    0.693954
  C      0.000000    0.000000    1.397434
  C      0.000000   -1.191371    0.693954
  C      0.000000   -1.191371   -0.693954
  C      0.000000    0.000000   -1.397434
  C      0.000000    1.191371   -0.693954
  F      0.000000    2.357926    1.354335
  H      0.000000    0.000000    2.477199
  F      0.000000   -2.357926    1.354335
  F      0.000000   -2.357926   -1.354335
  H      0.000000    0.000000   -2.477199
  F      0.000000    2.357926   -1.354335

 Total Charge           Charge          ....    0
 Multiplicity           Mult            ....    1
 Number of Electrons    NEL             ....   74
 Basis Dimension        Dim             ....  506

ORBITAL ENERGIES
----------------

  NO   OCC          E(Eh)            E(eV)
   0   2.0000     -26.339615      -716.7374
   1   2.0000     -26.339615      -716.7374
   2   2.0000     -26.339613      -716.7373
   3   2.0000     -26.339613      -716.7373
   4   2.0000     -11.364667      -309.2483
   5   2.0000     -11.364651      -309.2479
   6   2.0000     -11.363419      -309.2144
   7   2.0000     -11.363397      -309.2138
   8   2.0000     -11.285239      -307.0870
   9   2.0000     -11.285220      -307.0865
  10   2.0000      -1.664130       -45.2833
  11   2.0000      -1.663427       -45.2641
  12   2.0000      -1.650066       -44.9006
  13   2.0000      -1.649689       -44.8903
  14   2.0000      -1.209795       -32.9202
  15   2.0000      -1.077082       -29.3089
  16   2.0000      -1.058520       -28.8038
  17   2.0000      -0.921555       -25.0768
  18   2.0000      -0.895651       -24.3719
  19   2.0000      -0.806271       -21.9398
  20   2.0000      -0.805611       -21.9218
  21   2.0000      -0.793636       -21.5959
  22   2.0000      -0.746750       -20.3201
  23   2.0000      -0.742336       -20.2000
  24   2.0000      -0.730749       -19.8847
  25   2.0000      -0.720085       -19.5945
  26   2.0000      -0.710669       -19.3383
  27   2.0000      -0.707130       -19.2420
  28   2.0000      -0.705054       -19.1855
  29   2.0000      -0.687043       -18.6954
  30   2.0000      -0.656991       -17.8776
  31   2.0000      -0.632346       -17.2070
  32   2.0000      -0.596733       -16.2379
  33   2.0000      -0.576909       -15.6985
  34   2.0000      -0.534273       -14.5383
  35   2.0000      -0.387281       -10.5385
  36   2.0000      -0.363822        -9.9001
  37   0.0000       0.028394         0.7726
  38   0.0000       0.032094         0.8733
  39   0.0000       0.059383         1.6159
  40   0.0000       0.069707         1.8968
  41   0.0000       0.069921         1.9027

MULLIKEN ATOMIC CHARGES
-----------------------
   0 C :    0.615452
   1 C :   -0.859784
   2 C :    0.615452
   3 C :    0.615452
   4 C :   -0.859784
   5 C :    0.615452
   6 F :   -0.441325
   7 H :    0.511531
   8 F :   -0.441325
   9 F :   -0.441325
  10 H :    0.511531
  11 F :   -0.441325
Sum of atomic charges:    0.0000000

LOEWDIN ATOMIC CHARGES
----------------------
   0 C :   -0.522835
   1 C :    0.191132
   2 C :   -0.522835
   3 C :   -0.522835
   4 C :    0.191132
   5 C :   -0.522835
   6 F :    0.513554
   7 H :   -0.172569
   8 F :    0.513554
   9 F :    0.513554
  10 H :   -0.172569
  11 F :    0.513554

  Mayer bond orders larger than 0.100000
B(  0-C ,  1-C ) :   1.2917 B(  0-C ,  5-C ) :   1.2191 B(  0-C ,  6-F ) :   0.4380
B(  1-C ,  2-C ) :   1.2917 B(  1-C ,  6-F ) :   0.1442 B(  1-C ,  7-H ) :   0.5582
B(  1-C ,  8-F ) :   0.1442 B(  2-C ,  3-C ) :   1.2191 B(  2-C ,  8-F ) :   0.4380
B(  3-C ,  4-C ) :   1.2917 B(  3-C ,  9-F ) :   0.4380 B(  4-C ,  5-C ) :   1.2917
B(  4-C ,  9-F ) :   0.1442 B(  4-C , 10-H ) :   0.5582 B(  4-C , 11-F ) :   0.1442
B(  5-C , 11-F ) :   0.4380

MP2 TOTAL ENERGY:     -628.276178824 Eh
FINAL SINGLE POINT ENERGY      -628.276178824119

DIPOLE MOMENT
-------------
                                X             Y             Z
Electronic contribution:      0.00000       0.00000       0.00000
Nuclear contribution   :      0.00000       0.00000       0.00000
                        -----------------------------------------
Total Dipole Moment    :      0.00000       0.00000       0.00000
                        -----------------------------------------
Magnitude (a.u.)       :      0.00000
Magnitude (Debye)      :      0.00000

Rotational constants in cm-1:     0.076002     0.034355     0.023660
Rotational constants in MHz :  2278.487078  1029.929179   709.306249

                             ****ORCA TERMINATED NORMALLY****
TOTAL RUN TIME: 0 days 0 hours 4 minutes 33 seconds 371 msec
