                         Program Version 5.0.3 -  RELEASE  -
|  1> !ri-mp2 aug-cc-pvtz aug-cc-pvtz/c tightscf
|  2> %pal nprocs 16 end
|  3>
|  4> * xyz 0 1
|  5> C     0.000000     0.000000    1.419313
|  6> C     0.000000     0.000000    0.079174
|  7> H     0.000000     0.919976    1.976204
|  8> H     0.000000    -0.919976    1.976204
|  9> O     0.000000     1.079169   -0.727837
| 10> O     0.000000    -1.079169   -0.727837
| 11> C     0.000000     2.361498   -0.117979
| 12> C     0.000000    -2.361498   -0.117979
| 13> H     0.000000     3.078298   -0.933962
| 14> H     0.000000    -3.078298   -0.933962
| 15> H    -0.891567     2.503674    0.496436
| 16> H     0.891567     2.503674    0.496436
| 17> H     0.891567    -2.503674    0.496436
| 18> H    -0.891567    -2.503674    0.496436
| 19> *
| 20>
| 21>                          ****END OF INPUT****

CARTESIAN COORDINATES (ANGSTROEM)
---------------------------------
  C      0.000000    0.000000    1.419313
  C      0.000000    0.000000    0.079174
  H      0.000000    0.919976    1.976204
  H      0.000000   -0.919976    1.976204
  O      0.000000    1.079169   -0.727837
  O      0.000000   -1.079169   -0.727837
  C      0.000000    2.361498   -0.117979
  C      0.000000   -2.361498   -0.117979
  H      0.000000    3.078298   -0.933962
  H      0.000000   -3.078298   -0.933962
  H     -0.891567    2.503674    0.496436
  H      0.891567    2.503674    0.496436
  H      0.891567   -2.503674    0.496436
  H     -0.891567   -2.503674    0.496436

 Total Charge           Charge          ....    0
 Multiplicity           Mult            ....    1
 Number of Electrons    NEL             ....   48
 Basis Dimension        Dim             ....  460

ORBITAL ENERGIES
----------------

  NO   OCC          E(Eh)            E(eV)
   0   2.0000     -20.589960      -560.2813
   1   2.0000     -20.589942      -560.2808
   2   2.0000     -11.356776      -309.0336
   3   2.0000     -11.283845      -307.0490
   4   2.0000     -11.283844      -307.0490
   5   2.0000     -11.198203      -304.7186
   6   2.0000      -1.456698       -39.6388
   7   2.0000      -1.378918       -37.5223
   8   2.0000      -1.026199       -27.9243
   9   2.0000      -0.977794       -26.6071
  10   2.0000      -0.931407       -25.3449
  11   2.0000      -0.766802       -20.8657
  12   2.0000      -0.722987       -19.6735
  13   2.0000      -0.682093       -18.5607
  14   2.0000      -0.679369       -18.4866
  15   2.0000      -0.636090       -17.3089
  16   2.0000      -0.612343       -16.6627
  17   2.0000      -0.590840       -16.0776
  18   2.0000      -0.550897       -14.9907
  19   2.0000      -0.529138       -14.3986
  20   2.0000      -0.522176       -14.2091
  21   2.0000      -0.503016       -13.6878
  22   2.0000      -0.462102       -12.5744
  23   2.0000      -0.331429        -9.0187
  24   0.0000       0.029614         0.8058
  25   0.0000       0.034978         0.9518
  26   0.0000       0.040474         1.1014
  27   0.0000       0.044259         1.2043
  28   0.0000       0.052963         1.4412

MULLIKEN ATOMIC CHARGES
-----------------------
   0 C :   -1.012727
   1 C :    0.617579
   2 H :    0.418652
   3 H :    0.418652
   4 O :   -0.435183
   5 O :   -0.435183
   6 C :   -0.816969
   7 C :   -0.816969
   8 H :    0.314433
   9 H :    0.314433
  10 H :    0.358321
  11 H :    0.358321
  12 H :    0.358321
  13 H :    0.358321
Sum of atomic charges:    0.0000000

LOEWDIN ATOMIC CHARGES
----------------------
   0 C :    0.495931
   1 C :   -0.697260
   2 H :   -0.264718
   3 H :   -0.264718
   4 O :    0.563034
   5 O :    0.563034
   6 C :    0.337350
   7 C :    0.337350
   8 H :   -0.181458
   9 H :   -0.181458
  10 H :   -0.176772
  11 H :   -0.176772
  12 H :   -0.176772
  13 H :   -0.176772

  Mayer bond orders larger than 0.100000
B(  0-C ,  1-C ) :   1.5820 B(  0-C ,  2-H ) :   0.8705 B(  0-C ,  3-H ) :   0.8705
B(  0-C ,  4-O ) :  -0.1651 B(  0-C ,  5-O ) :  -0.1651 B(  1-C ,  4-O ) :   0.9134
B(  1-C ,  5-O ) :   0.9134 B(  4-O ,  5-O ) :  -0.3057 B(  4-O ,  6-C ) :   0.9194
B(  5-O ,  7-C ) :   0.9194 B(  6-C ,  8-H ) :   0.9706 B(  6-C , 10-H ) :   0.8663
B(  6-C , 11-H ) :   0.8663 B(  7-C ,  9-H ) :   0.9706 B(  7-C , 12-H ) :   0.8663
B(  7-C , 13-H ) :   0.8663

MP2 TOTAL ENERGY:     -307.094105277 Eh
FINAL SINGLE POINT ENERGY      -307.094105276873

DIPOLE MOMENT
-------------
                                X             Y             Z
Electronic contribution:      0.00000      -0.00000      -3.61202
Nuclear contribution   :      0.00000       0.00000       4.14106
                        -----------------------------------------
Total Dipole Moment    :      0.00000      -0.00000       0.52904
                        -----------------------------------------
Magnitude (a.u.)       :      0.52904
Magnitude (Debye)      :      1.34471

Rotational constants in cm-1:     0.305376     0.076446     0.062596
Rotational constants in MHz :  9154.948930  2291.796657  1876.574425

                             ****ORCA TERMINATED NORMALLY****
TOTAL RUN TIME: 0 days 0 hours 3 minutes 47 seconds 2 msec
