                         Program Version 5.0.3 -  RELEASE  -
|  1> !ri-mp2 aug-cc-pvtz aug-cc-pvtz/c tightscf
|  2> %pal nprocs 16 end
|  3>
|  4> * xyz 0 1
|  5> S     2.173408   -0.484649    -0.218616
|  6> O     1.706873    1.062931     0.309144
|  7> O    -2.406268    1.061439    -0.306376
|  8> O    -2.347569   -1.153252     0.077835
|  9> N     0.354539    1.209545    -0.199575
| 10> C    -0.337365    0.073070     0.423591
| 11> C    -1.793433    0.075562     0.003121
| 12> C     0.479207   -1.171035     0.031849
| 13> H    -3.285795   -1.061746    -0.148192
| 14> H     0.051131    2.086883     0.215271
| 15> H    -0.334047    0.154184     1.518761
| 16> H     0.458740   -1.921418     0.816656
| 17> H     0.138929   -1.604861    -0.903801
| 18> *
| 19>
| 20>                          ****END OF INPUT****

CARTESIAN COORDINATES (ANGSTROEM)
---------------------------------
  S      2.173408   -0.484649   -0.218616
  O      1.706873    1.062931    0.309144
  O     -2.406268    1.061439   -0.306376
  O     -2.347569   -1.153252    0.077835
  N      0.354539    1.209545   -0.199575
  C     -0.337365    0.073070    0.423591
  C     -1.793433    0.075562    0.003121
  C      0.479207   -1.171035    0.031849
  H     -3.285795   -1.061746   -0.148192
  H      0.051131    2.086883    0.215271
  H     -0.334047    0.154184    1.518761
  H      0.458740   -1.921418    0.816656
  H      0.138929   -1.604861   -0.903801

 Total Charge           Charge          ....    0
 Multiplicity           Mult            ....    1
 Number of Electrons    NEL             ....   70
 Basis Dimension        Dim             ....  487

ORBITAL ENERGIES
----------------

  NO   OCC          E(Eh)            E(eV)
   0   2.0000     -92.008127     -2503.6684
   1   2.0000     -20.637010      -561.5616
   2   2.0000     -20.621756      -561.1465
   3   2.0000     -20.573399      -559.8307
   4   2.0000     -15.635692      -425.4688
   5   2.0000     -11.411545      -310.5239
   6   2.0000     -11.311796      -307.8096
   7   2.0000     -11.285800      -307.1022
   8   2.0000      -9.003035      -244.9850
   9   2.0000      -6.684073      -181.8829
  10   2.0000      -6.682726      -181.8462
  11   2.0000      -6.681266      -181.8065
  12   2.0000      -1.490491       -40.5583
  13   2.0000      -1.427479       -38.8437
  14   2.0000      -1.388088       -37.7718
  15   2.0000      -1.163629       -31.6640
  16   2.0000      -1.075394       -29.2630
  17   2.0000      -0.945517       -25.7288
  18   2.0000      -0.854126       -23.2420
  19   2.0000      -0.826817       -22.4988
  20   2.0000      -0.738982       -20.1087
  21   2.0000      -0.724644       -19.7186
  22   2.0000      -0.723295       -19.6818
  23   2.0000      -0.654430       -17.8079
  24   2.0000      -0.638480       -17.3739
  25   2.0000      -0.622057       -16.9270
  26   2.0000      -0.603442       -16.4205
  27   2.0000      -0.577666       -15.7191
  28   2.0000      -0.559324       -15.2200
  29   2.0000      -0.534569       -14.5464
  30   2.0000      -0.505022       -13.7423
  31   2.0000      -0.488151       -13.2833
  32   2.0000      -0.462188       -12.5768
  33   2.0000      -0.424832       -11.5603
  34   2.0000      -0.352657        -9.5963
  35   0.0000       0.022855         0.6219
  36   0.0000       0.034784         0.9465
  37   0.0000       0.038774         1.0551
  38   0.0000       0.044854         1.2205
  39   0.0000       0.058391         1.5889

MULLIKEN ATOMIC CHARGES
-----------------------
   0 S :    0.112946
   1 O :   -0.644170
   2 O :   -0.805061
   3 O :   -0.438538
   4 N :   -0.252763
   5 C :    0.670237
   6 C :    0.508544
   7 C :   -0.415788
   8 H :    0.251564
   9 H :    0.112316
  10 H :    0.349811
  11 H :    0.267899
  12 H :    0.283002
Sum of atomic charges:   -0.0000000

LOEWDIN ATOMIC CHARGES
----------------------
   0 S :    0.928279
   1 O :    0.002788
   2 O :    0.465824
   3 O :    0.841281
   4 N :    0.256411
   5 C :   -0.268618
   6 C :   -0.782262
   7 C :   -0.043628
   8 H :   -0.458943
   9 H :   -0.343761
  10 H :   -0.143660
  11 H :   -0.221889
  12 H :   -0.231821

  Mayer bond orders larger than 0.100000
B(  0-S ,  1-O ) :   0.8378 B(  0-S ,  7-C ) :   0.9878 B(  1-O ,  4-N ) :   0.7167
B(  2-O ,  6-C ) :   1.4028 B(  3-O ,  6-C ) :   1.0046 B(  3-O ,  8-H ) :   0.9419
B(  4-N ,  5-C ) :   0.5717 B(  4-N ,  9-H ) :   0.9411 B(  5-C ,  6-C ) :   0.4962
B(  5-C ,  7-C ) :   0.9527 B(  5-C , 10-H ) :   0.8855 B(  7-C , 11-H ) :   0.9368
B(  7-C , 12-H ) :   0.9455

MP2 TOTAL ENERGY:     -794.766865156 Eh
FINAL SINGLE POINT ENERGY      -794.766865156422

DIPOLE MOMENT
-------------
                                X             Y             Z
Electronic contribution:      2.20914       1.24471      -0.90569
Nuclear contribution   :     -3.00026      -2.24684       1.46463
                        -----------------------------------------
Total Dipole Moment    :     -0.79112      -1.00212       0.55894
                        -----------------------------------------
Magnitude (a.u.)       :      1.39375
Magnitude (Debye)      :      3.54264

Rotational constants in cm-1:     0.134782     0.037813     0.030741
Rotational constants in MHz :  4040.676795  1133.611746   921.587296

                             ****ORCA TERMINATED NORMALLY****
TOTAL RUN TIME: 0 days 0 hours 4 minutes 53 seconds 520 msec
