                         Program Version 5.0.3 -  RELEASE  -
|  1> !ri-mp2 aug-cc-pvtz aug-cc-pvtz/c tightscf
|  2> %pal nprocs 16 end
|  3>
|  4> * xyz 0 1
|  5> H      1.227612   -0.261128    2.198784
|  6> C      0.724797   -0.096543    1.254344
|  7> H     -1.227612    0.261128    2.198784
|  8> C     -0.724797    0.096543    1.254344
|  9> H     -2.497556    0.149519    0.117407
| 10> C     -1.419944    0.043846    0.113143
| 11> H      2.497556   -0.149519    0.117407
| 12> C      1.419944   -0.043846    0.113143
| 13> H     -1.272086    0.182344   -2.028442
| 14> H     -0.737591   -1.338573   -1.350141
| 15> C     -0.724797   -0.251426   -1.190421
| 16> H      1.272086   -0.182344   -2.028442
| 17> H      0.737591    1.338573   -1.350141
| 18> C      0.724797    0.251426   -1.190421
| 19> *
| 20>
| 21>                          ****END OF INPUT****

CARTESIAN COORDINATES (ANGSTROEM)
---------------------------------
  H      1.227612   -0.261128    2.198784
  C      0.724797   -0.096543    1.254344
  H     -1.227612    0.261128    2.198784
  C     -0.724797    0.096543    1.254344
  H     -2.497556    0.149519    0.117407
  C     -1.419944    0.043846    0.113143
  H      2.497556   -0.149519    0.117407
  C      1.419944   -0.043846    0.113143
  H     -1.272086    0.182344   -2.028442
  H     -0.737591   -1.338573   -1.350141
  C     -0.724797   -0.251426   -1.190421
  H      1.272086   -0.182344   -2.028442
  H      0.737591    1.338573   -1.350141
  C      0.724797    0.251426   -1.190421

 Total Charge           Charge          ....    0
 Multiplicity           Mult            ....    1
 Number of Electrons    NEL             ....   44
 Basis Dimension        Dim             ....  460

ORBITAL ENERGIES
----------------

  NO   OCC          E(Eh)            E(eV)
   0   2.0000     -11.227663      -305.5202
   1   2.0000     -11.227605      -305.5187
   2   2.0000     -11.226723      -305.4947
   3   2.0000     -11.226171      -305.4796
   4   2.0000     -11.223457      -305.4058
   5   2.0000     -11.222662      -305.3842
   6   2.0000      -1.129998       -30.7488
   7   2.0000      -1.009147       -27.4603
   8   2.0000      -1.005413       -27.3587
   9   2.0000      -0.845981       -23.0203
  10   2.0000      -0.802668       -21.8417
  11   2.0000      -0.687162       -18.6986
  12   2.0000      -0.670993       -18.2586
  13   2.0000      -0.607942       -16.5429
  14   2.0000      -0.585556       -15.9338
  15   2.0000      -0.578298       -15.7363
  16   2.0000      -0.544654       -14.8208
  17   2.0000      -0.514250       -13.9935
  18   2.0000      -0.475709       -12.9447
  19   2.0000      -0.455000       -12.3812
  20   2.0000      -0.422601       -11.4995
  21   2.0000      -0.300935        -8.1889
  22   0.0000       0.030382         0.8267
  23   0.0000       0.035697         0.9714
  24   0.0000       0.035771         0.9734
  25   0.0000       0.043844         1.1930
  26   0.0000       0.049129         1.3369

MULLIKEN ATOMIC CHARGES
-----------------------
   0 H :    0.398241
   1 C :   -0.592244
   2 H :    0.398242
   3 C :   -0.592244
   4 H :    0.421373
   5 C :   -0.530349
   6 H :    0.421373
   7 C :   -0.530349
   8 H :    0.236917
   9 H :    0.256584
  10 C :   -0.190523
  11 H :    0.236917
  12 H :    0.256584
  13 C :   -0.190523
Sum of atomic charges:   -0.0000000

LOEWDIN ATOMIC CHARGES
----------------------
   0 H :   -0.195129
   1 C :    0.187469
   2 H :   -0.195129
   3 C :    0.187469
   4 H :   -0.183403
   5 C :    0.229346
   6 H :   -0.183403
   7 C :    0.229346
   8 H :   -0.156089
   9 H :   -0.144193
  10 C :    0.261999
  11 H :   -0.156089
  12 H :   -0.144193
  13 C :    0.261999

  Mayer bond orders larger than 0.100000
B(  0-H ,  1-C ) :   0.9027 B(  1-C ,  3-C ) :   1.1058 B(  1-C ,  7-C ) :   1.4835
B(  2-H ,  3-C ) :   0.9027 B(  3-C ,  5-C ) :   1.4835 B(  4-H ,  5-C ) :   0.8156
B(  5-C ,  7-C ) :   0.1069 B(  5-C , 10-C ) :   0.7391 B(  5-C , 13-C ) :   0.1068
B(  6-H ,  7-C ) :   0.8156 B(  7-C , 10-C ) :   0.1068 B(  7-C , 13-C ) :   0.7391
B(  8-H , 10-C ) :   1.0151 B(  9-H , 10-C ) :   0.9235 B( 10-C , 13-C ) :   0.9314
B( 11-H , 13-C ) :   1.0151 B( 12-H , 13-C ) :   0.9235

MP2 TOTAL ENERGY:     -232.902802403 Eh
FINAL SINGLE POINT ENERGY      -232.902802403234

DIPOLE MOMENT
-------------
                                X             Y             Z
Electronic contribution:      0.00000       0.00000       1.99074
Nuclear contribution   :      0.00000      -0.00000      -2.19122
                        -----------------------------------------
Total Dipole Moment    :      0.00000       0.00000      -0.20048
                        -----------------------------------------
Magnitude (a.u.)       :      0.20048
Magnitude (Debye)      :      0.50958

Rotational constants in cm-1:     0.169771     0.169485     0.089908
Rotational constants in MHz :  5089.616323  5081.027061  2695.367828

                             ****ORCA TERMINATED NORMALLY****
TOTAL RUN TIME: 0 days 0 hours 3 minutes 51 seconds 903 msec
