                         Program Version 5.0.3 -  RELEASE  -
|  1> !ri-mp2 aug-cc-pvtz aug-cc-pvtz/c tightscf
|  2> %pal nprocs 16 end
|  3>
|  4> * xyz 0 1
|  5> C     -0.104320   -1.183383    1.206556
|  6> C     -0.104320   -1.183383   -1.206556
|  7> C     -0.104320    0.339172    1.204675
|  8> C     -0.104320    0.339172   -1.204675
|  9> C      0.628275    2.299249    0.000000
| 10> N     -0.769930   -1.666118    0.000000
| 11> N      0.541509    0.851074    0.000000
| 12> H      0.937429   -1.532481    1.281318
| 13> H     -0.646488   -1.547447    2.080373
| 14> H     -0.646488   -1.547447   -2.080373
| 15> H      0.937429   -1.532481   -1.281318
| 16> H     -1.145389    0.697953    1.285374
| 17> H      0.442711    0.708091    2.074318
| 18> H      0.442711    0.708091   -2.074318
| 19> H     -1.145389    0.697953   -1.285374
| 20> H      1.171992    2.637024    0.883042
| 21> H     -0.360624    2.789441    0.000000
| 22> H      1.171992    2.637024   -0.883042
| 23> H     -0.826919   -2.675387    0.000000
| 24> *
| 25>
| 26>                          ****END OF INPUT****

CARTESIAN COORDINATES (ANGSTROEM)
---------------------------------
  C     -0.104320   -1.183383    1.206556
  C     -0.104320   -1.183383   -1.206556
  C     -0.104320    0.339172    1.204675
  C     -0.104320    0.339172   -1.204675
  C      0.628275    2.299249    0.000000
  N     -0.769930   -1.666118    0.000000
  N      0.541509    0.851074    0.000000
  H      0.937429   -1.532481    1.281318
  H     -0.646488   -1.547447    2.080373
  H     -0.646488   -1.547447   -2.080373
  H      0.937429   -1.532481   -1.281318
  H     -1.145389    0.697953    1.285374
  H      0.442711    0.708091    2.074318
  H      0.442711    0.708091   -2.074318
  H     -1.145389    0.697953   -1.285374
  H      1.171992    2.637024    0.883042
  H     -0.360624    2.789441    0.000000
  H      1.171992    2.637024   -0.883042
  H     -0.826919   -2.675387    0.000000

 Total Charge           Charge          ....    0
 Multiplicity           Mult            ....    1
 Number of Electrons    NEL             ....   56
 Basis Dimension        Dim             ....  598

ORBITAL ENERGIES
----------------

  NO   OCC          E(Eh)            E(eV)
   0   2.0000     -15.542110      -422.9223
   1   2.0000     -15.538606      -422.8270
   2   2.0000     -11.242785      -305.9317
   3   2.0000     -11.242769      -305.9313
   4   2.0000     -11.241104      -305.8860
   5   2.0000     -11.241092      -305.8857
   6   2.0000     -11.238375      -305.8117
   7   2.0000      -1.244226       -33.8571
   8   2.0000      -1.183009       -32.1913
   9   2.0000      -1.021728       -27.8026
  10   2.0000      -0.962981       -26.2040
  11   2.0000      -0.858727       -23.3671
  12   2.0000      -0.856625       -23.3100
  13   2.0000      -0.755645       -20.5622
  14   2.0000      -0.688889       -18.7456
  15   2.0000      -0.632821       -17.2199
  16   2.0000      -0.625234       -17.0135
  17   2.0000      -0.606475       -16.5030
  18   2.0000      -0.603277       -16.4160
  19   2.0000      -0.578822       -15.7505
  20   2.0000      -0.543029       -14.7766
  21   2.0000      -0.527251       -14.3472
  22   2.0000      -0.512275       -13.9397
  23   2.0000      -0.489799       -13.3281
  24   2.0000      -0.467026       -12.7084
  25   2.0000      -0.459232       -12.4963
  26   2.0000      -0.367975       -10.0131
  27   2.0000      -0.350312        -9.5325
  28   0.0000       0.029944         0.8148
  29   0.0000       0.035242         0.9590
  30   0.0000       0.037234         1.0132
  31   0.0000       0.040778         1.1096
  32   0.0000       0.052038         1.4160

MULLIKEN ATOMIC CHARGES
-----------------------
   0 C :   -0.417630
   1 C :   -0.417630
   2 C :   -0.384988
   3 C :   -0.384988
   4 C :   -1.140767
   5 N :   -0.467800
   6 N :   -0.171426
   7 H :    0.214226
   8 H :    0.342518
   9 H :    0.342518
  10 H :    0.214226
  11 H :    0.240065
  12 H :    0.426976
  13 H :    0.426976
  14 H :    0.240065
  15 H :    0.318728
  16 H :    0.313147
  17 H :    0.318728
  18 H :   -0.012944
Sum of atomic charges:    0.0000000

LOEWDIN ATOMIC CHARGES
----------------------
   0 C :    0.170314
   1 C :    0.170314
   2 C :    0.150740
   3 C :    0.150740
   4 C :    0.444999
   5 N :    0.565612
   6 N :    0.259626
   7 H :   -0.137128
   8 H :   -0.145777
   9 H :   -0.145777
  10 H :   -0.137128
  11 H :   -0.129086
  12 H :   -0.145985
  13 H :   -0.145985
  14 H :   -0.129086
  15 H :   -0.169088
  16 H :   -0.151539
  17 H :   -0.169088
  18 H :   -0.306678

  Mayer bond orders larger than 0.100000
B(  0-C ,  2-C ) :   0.9892 B(  0-C ,  5-N ) :   0.8229 B(  0-C ,  7-H ) :   1.0406
B(  0-C ,  8-H ) :   0.8994 B(  1-C ,  3-C ) :   0.9892 B(  1-C ,  5-N ) :   0.8229
B(  1-C ,  9-H ) :   0.8994 B(  1-C , 10-H ) :   1.0406 B(  2-C ,  6-N ) :   0.8531
B(  2-C , 11-H ) :   0.9933 B(  2-C , 12-H ) :   0.7900 B(  3-C ,  6-N ) :   0.8531
B(  3-C , 13-H ) :   0.7900 B(  3-C , 14-H ) :   0.9933 B(  4-C ,  6-N ) :   1.0788
B(  4-C , 15-H ) :   0.9396 B(  4-C , 16-H ) :   0.9321 B(  4-C , 17-H ) :   0.9396
B(  5-N , 18-H ) :   1.0575

MP2 TOTAL ENERGY:     -306.618180026 Eh
FINAL SINGLE POINT ENERGY      -306.618180026309

DIPOLE MOMENT
-------------
                                X             Y             Z
Electronic contribution:     -0.25005      -2.25828       0.00000
Nuclear contribution   :      0.34821       2.13731      -0.00000
                        -----------------------------------------
Total Dipole Moment    :      0.09815      -0.12097       0.00000
                        -----------------------------------------
Magnitude (a.u.)       :      0.15578
Magnitude (Debye)      :      0.39596

Rotational constants in cm-1:     0.155379     0.077887     0.056412
Rotational constants in MHz :  4658.156969  2334.994416  1691.177233

                             ****ORCA TERMINATED NORMALLY****
TOTAL RUN TIME: 0 days 0 hours 7 minutes 39 seconds 210 msec
