                         Program Version 5.0.3 -  RELEASE  -
|  1> !ri-mp2 aug-cc-pvtz aug-cc-pvtz/c tightscf
|  2> %pal nprocs 16 end
|  3>
|  4> * xyz 0 1
|  5> Cl    -2.158879   -0.834991    0.460362
|  6> Cl    -0.993288    1.532997   -0.682534
|  7> O      0.277220   -1.678178   -0.719199
|  8> N     -0.722342    0.149580    0.402406
|  9> N      1.607764   -0.059256    0.184479
| 10> C      0.425703   -0.637266   -0.128512
| 11> C      2.825179   -0.632336   -0.375066
| 12> C      1.787743    1.109351    1.035518
| 13> H      3.457133   -1.029550    0.422266
| 14> H      2.565217   -1.434482   -1.056315
| 15> H      3.383450    0.138196   -0.910345
| 16> H      2.037010    1.992083    0.442264
| 17> H      2.608475    0.914416    1.727449
| 18> H      0.888095    1.307890    1.605352
| 19> *
| 20>
| 21>                          ****END OF INPUT****

CARTESIAN COORDINATES (ANGSTROEM)
---------------------------------
  Cl    -2.158879   -0.834991    0.460362
  Cl    -0.993288    1.532997   -0.682534
  O      0.277220   -1.678178   -0.719199
  N     -0.722342    0.149580    0.402406
  N      1.607764   -0.059256    0.184479
  C      0.425703   -0.637266   -0.128512
  C      2.825179   -0.632336   -0.375066
  C      1.787743    1.109351    1.035518
  H      3.457133   -1.029550    0.422266
  H      2.565217   -1.434482   -1.056315
  H      3.383450    0.138196   -0.910345
  H      2.037010    1.992083    0.442264
  H      2.608475    0.914416    1.727449
  H      0.888095    1.307890    1.605352

 Total Charge           Charge          ....    0
 Multiplicity           Mult            ....    1
 Number of Electrons    NEL             ....   80
 Basis Dimension        Dim             ....  514

ORBITAL ENERGIES
----------------

  NO   OCC          E(Eh)            E(eV)
   0   2.0000    -104.888313     -2854.1561
   1   2.0000    -104.877052     -2853.8497
   2   2.0000     -20.546058      -559.0867
   3   2.0000     -15.702701      -427.2922
   4   2.0000     -15.613126      -424.8548
   5   2.0000     -11.406936      -310.3985
   6   2.0000     -11.277845      -306.8858
   7   2.0000     -11.271048      -306.7008
   8   2.0000     -10.609155      -288.6898
   9   2.0000     -10.597995      -288.3861
  10   2.0000      -8.076018      -219.7596
  11   2.0000      -8.073458      -219.6900
  12   2.0000      -8.073258      -219.6845
  13   2.0000      -8.064924      -219.4577
  14   2.0000      -8.062279      -219.3858
  15   2.0000      -8.062062      -219.3798
  16   2.0000      -1.428072       -38.8598
  17   2.0000      -1.297209       -35.2989
  18   2.0000      -1.265812       -34.4445
  19   2.0000      -1.111605       -30.2483
  20   2.0000      -1.025072       -27.8936
  21   2.0000      -0.988898       -26.9093
  22   2.0000      -0.934716       -25.4349
  23   2.0000      -0.760744       -20.7009
  24   2.0000      -0.724780       -19.7223
  25   2.0000      -0.685894       -18.6641
  26   2.0000      -0.682221       -18.5642
  27   2.0000      -0.626002       -17.0344
  28   2.0000      -0.618115       -16.8198
  29   2.0000      -0.593660       -16.1543
  30   2.0000      -0.581343       -15.8191
  31   2.0000      -0.575885       -15.6706
  32   2.0000      -0.549538       -14.9537
  33   2.0000      -0.544539       -14.8177
  34   2.0000      -0.501991       -13.6599
  35   2.0000      -0.484473       -13.1832
  36   2.0000      -0.461876       -12.5683
  37   2.0000      -0.457493       -12.4490
  38   2.0000      -0.412467       -11.2238
  39   2.0000      -0.395509       -10.7623
  40   0.0000       0.024323         0.6619
  41   0.0000       0.036514         0.9936
  42   0.0000       0.038225         1.0402
  43   0.0000       0.048078         1.3083
  44   0.0000       0.055272         1.5040

MULLIKEN ATOMIC CHARGES
-----------------------
   0 Cl:   -0.053115
   1 Cl:   -0.039926
   2 O :   -0.682627
   3 N :   -0.073272
   4 N :    0.344902
   5 C :    0.377454
   6 C :   -1.040572
   7 C :   -1.002278
   8 H :    0.346463
   9 H :    0.404771
  10 H :    0.322409
  11 H :    0.362718
  12 H :    0.294553
  13 H :    0.438519
Sum of atomic charges:   -0.0000000

LOEWDIN ATOMIC CHARGES
----------------------
   0 Cl:    0.708767
   1 Cl:    0.718822
   2 O :    0.413274
   3 N :   -0.850211
   4 N :    0.183301
   5 C :   -1.069226
   6 C :    0.492941
   7 C :    0.454001
   8 H :   -0.154754
   9 H :   -0.197033
  10 H :   -0.155435
  11 H :   -0.162129
  12 H :   -0.159772
  13 H :   -0.222548

  Mayer bond orders larger than 0.100000
B(  0-Cl,  3-N ) :   1.0017 B(  1-Cl,  3-N ) :   0.9076 B(  2-O ,  5-C ) :   1.5538
B(  3-N ,  5-C ) :   0.8773 B(  4-N ,  5-C ) :   1.1655 B(  4-N ,  6-C ) :   0.8866
B(  4-N ,  7-C ) :   0.8813 B(  6-C ,  8-H ) :   0.9144 B(  6-C ,  9-H ) :   0.8471
B(  6-C , 10-H ) :   0.9274 B(  7-C , 11-H ) :   0.8960 B(  7-C , 12-H ) :   0.9610
B(  7-C , 13-H ) :   0.8371

MP2 TOTAL ENERGY:    -1221.479501592 Eh
FINAL SINGLE POINT ENERGY     -1221.479501592220

DIPOLE MOMENT
-------------
                                X             Y             Z
Electronic contribution:    -17.46006       0.10086      -1.95502
Nuclear contribution   :     18.62150       0.82685       2.43133
                        -----------------------------------------
Total Dipole Moment    :      1.16144       0.92772       0.47632
                        -----------------------------------------
Magnitude (a.u.)       :      1.56092
Magnitude (Debye)      :      3.96755

Rotational constants in cm-1:     0.068714     0.035241     0.027673
Rotational constants in MHz :  2059.985950  1056.506706   829.612535

                             ****ORCA TERMINATED NORMALLY****
TOTAL RUN TIME: 0 days 0 hours 5 minutes 51 seconds 95 msec
