                         Program Version 5.0.3 -  RELEASE  -
|  1> !ri-mp2 aug-cc-pvtz aug-cc-pvtz/c tightscf
|  2> %pal nprocs 16 end
|  3>
|  4> * xyz 0 1
|  5> C     -2.422945    0.072738    0.011279
|  6> C     -1.009653   -0.506476   -0.070522
|  7> C      0.062858    0.567077    0.075523
|  8> S      1.788351   -0.046408   -0.074553
|  9> H     -2.599612    0.799976   -0.783540
| 10> H     -3.173192   -0.712674   -0.085709
| 11> H     -2.591811    0.576633    0.964916
| 12> H     -0.869677   -1.024388   -1.021039
| 13> H     -0.874102   -1.257605    0.711730
| 14> H     -0.023659    1.307679   -0.720627
| 15> H     -0.038300    1.098518    1.021239
| 16> H      1.775172   -0.845654    1.008202
| 17> *
| 18>
| 19>                          ****END OF INPUT****

CARTESIAN COORDINATES (ANGSTROEM)
---------------------------------
  C     -2.422945    0.072738    0.011279
  C     -1.009653   -0.506476   -0.070522
  C      0.062858    0.567077    0.075523
  S      1.788351   -0.046408   -0.074553
  H     -2.599612    0.799976   -0.783540
  H     -3.173192   -0.712674   -0.085709
  H     -2.591811    0.576633    0.964916
  H     -0.869677   -1.024388   -1.021039
  H     -0.874102   -1.257605    0.711730
  H     -0.023659    1.307679   -0.720627
  H     -0.038300    1.098518    1.021239
  H      1.775172   -0.845654    1.008202

 Total Charge           Charge          ....    0
 Multiplicity           Mult            ....    1
 Number of Electrons    NEL             ....   42
 Basis Dimension        Dim             ....  372

ORBITAL ENERGIES
----------------

  NO   OCC          E(Eh)            E(eV)
   0   2.0000     -91.949653     -2502.0773
   1   2.0000     -11.261065      -306.4292
   2   2.0000     -11.230786      -305.6052
   3   2.0000     -11.220921      -305.3368
   4   2.0000      -8.950502      -243.5555
   5   2.0000      -6.631856      -180.4620
   6   2.0000      -6.630816      -180.4337
   7   2.0000      -6.629849      -180.4074
   8   2.0000      -1.084597       -29.5134
   9   2.0000      -0.991781       -26.9877
  10   2.0000      -0.879264       -23.9260
  11   2.0000      -0.807231       -21.9659
  12   2.0000      -0.651043       -17.7158
  13   2.0000      -0.596168       -16.2226
  14   2.0000      -0.568468       -15.4688
  15   2.0000      -0.554263       -15.0823
  16   2.0000      -0.514988       -14.0135
  17   2.0000      -0.494296       -13.4505
  18   2.0000      -0.483426       -13.1547
  19   2.0000      -0.440947       -11.9988
  20   2.0000      -0.354562        -9.6481
  21   0.0000       0.029518         0.8032
  22   0.0000       0.037614         1.0235
  23   0.0000       0.039138         1.0650
  24   0.0000       0.042659         1.1608
  25   0.0000       0.057856         1.5743

MULLIKEN ATOMIC CHARGES
-----------------------
   0 C :   -0.937834
   1 C :   -0.417797
   2 C :   -0.381091
   3 S :   -0.391331
   4 H :    0.279785
   5 H :    0.283905
   6 H :    0.282097
   7 H :    0.296144
   8 H :    0.268940
   9 H :    0.313775
  10 H :    0.287604
  11 H :    0.115802
Sum of atomic charges:   -0.0000000

LOEWDIN ATOMIC CHARGES
----------------------
   0 C :    0.571884
   1 C :    0.175093
   2 C :   -0.115517
   3 S :    1.260865
   4 H :   -0.172327
   5 H :   -0.173541
   6 H :   -0.172701
   7 H :   -0.168133
   8 H :   -0.167646
   9 H :   -0.233596
  10 H :   -0.222779
  11 H :   -0.581602

  Mayer bond orders larger than 0.100000
B(  0-C ,  1-C ) :   0.8697 B(  0-C ,  4-H ) :   0.9450 B(  0-C ,  5-H ) :   0.9521
B(  0-C ,  6-H ) :   0.9392 B(  1-C ,  2-C ) :   0.9352 B(  1-C ,  7-H ) :   0.9339
B(  1-C ,  8-H ) :   0.9447 B(  2-C ,  3-S ) :   0.9840 B(  2-C ,  9-H ) :   0.9161
B(  2-C , 10-H ) :   0.9141 B(  3-S , 11-H ) :   1.0521

MP2 TOTAL ENERGY:     -516.580212691 Eh
FINAL SINGLE POINT ENERGY      -516.580212691199

DIPOLE MOMENT
-------------
                                X             Y             Z
Electronic contribution:      8.06171       0.05165      -0.86316
Nuclear contribution   :     -8.75240      -0.05809       1.13670
                        -----------------------------------------
Total Dipole Moment    :     -0.69070      -0.00643       0.27354
                        -----------------------------------------
Magnitude (a.u.)       :      0.74292
Magnitude (Debye)      :      1.88835

Rotational constants in cm-1:     0.807319     0.077030     0.074007
Rotational constants in MHz : 24202.818958  2309.296493  2218.679847

                             ****ORCA TERMINATED NORMALLY****
TOTAL RUN TIME: 0 days 0 hours 2 minutes 21 seconds 433 msec
