                         Program Version 5.0.3 -  RELEASE  -
|  1> !ri-mp2 aug-cc-pvtz aug-cc-pvtz/c tightscf
|  2> %pal nprocs 16 end
|  3>
|  4> * xyz 0 1
|  5> C      0.008318    0.961105   -0.023694
|  6> C     -1.114125    0.158565    0.611742
|  7> C      1.116320    0.099589   -0.621439
|  8> O     -1.812567   -0.530130   -0.430109
|  9> O      1.810846   -0.677414    0.357585
| 10> H     -0.412195    1.593028   -0.810995
| 11> H      0.431966    1.633237    0.729520
| 12> H     -0.700353   -0.553181    1.331700
| 13> H     -1.795932    0.830612    1.143845
| 14> H      1.818672    0.728131   -1.178324
| 15> H      0.691233   -0.621872   -1.316811
| 16> H     -2.402771   -1.178879   -0.038359
| 17> H      2.320068   -0.086283    0.919958
| 18> *
| 19>
| 20>                          ****END OF INPUT****

CARTESIAN COORDINATES (ANGSTROEM)
---------------------------------
  C      0.008318    0.961105   -0.023694
  C     -1.114125    0.158565    0.611742
  C      1.116320    0.099589   -0.621439
  O     -1.812567   -0.530130   -0.430109
  O      1.810846   -0.677414    0.357585
  H     -0.412195    1.593028   -0.810995
  H      0.431966    1.633237    0.729520
  H     -0.700353   -0.553181    1.331700
  H     -1.795932    0.830612    1.143845
  H      1.818672    0.728131   -1.178324
  H      0.691233   -0.621872   -1.316811
  H     -2.402771   -1.178879   -0.038359
  H      2.320068   -0.086283    0.919958

 Total Charge           Charge          ....    0
 Multiplicity           Mult            ....    1
 Number of Electrons    NEL             ....   42
 Basis Dimension        Dim             ....  414

ORBITAL ENERGIES
----------------

  NO   OCC          E(Eh)            E(eV)
   0   2.0000     -20.555723      -559.3497
   1   2.0000     -20.554669      -559.3210
   2   2.0000     -11.273754      -306.7745
   3   2.0000     -11.269984      -306.6719
   4   2.0000     -11.223485      -305.4066
   5   2.0000      -1.357344       -36.9352
   6   2.0000      -1.351520       -36.7767
   7   2.0000      -1.044186       -28.4137
   8   2.0000      -0.912585       -24.8327
   9   2.0000      -0.807135       -21.9633
  10   2.0000      -0.703200       -19.1350
  11   2.0000      -0.679589       -18.4926
  12   2.0000      -0.650666       -17.7055
  13   2.0000      -0.610488       -16.6122
  14   2.0000      -0.569680       -15.5018
  15   2.0000      -0.567224       -15.4349
  16   2.0000      -0.523578       -14.2473
  17   2.0000      -0.498469       -13.5640
  18   2.0000      -0.475820       -12.9477
  19   2.0000      -0.449959       -12.2440
  20   2.0000      -0.432978       -11.7819
  21   0.0000       0.027721         0.7543
  22   0.0000       0.035012         0.9527
  23   0.0000       0.040287         1.0963
  24   0.0000       0.041914         1.1405
  25   0.0000       0.059579         1.6212

MULLIKEN ATOMIC CHARGES
-----------------------
   0 C :   -0.575441
   1 C :   -0.164150
   2 C :   -0.190081
   3 O :   -0.557255
   4 O :   -0.602977
   5 H :    0.291714
   6 H :    0.270380
   7 H :    0.326775
   8 H :    0.263204
   9 H :    0.290647
  10 H :    0.360128
  11 H :    0.132732
  12 H :    0.154324
Sum of atomic charges:    0.0000000

LOEWDIN ATOMIC CHARGES
----------------------
   0 C :    0.261514
   1 C :    0.034698
   2 C :    0.041267
   3 O :    0.807377
   4 O :    0.802709
   5 H :   -0.151991
   6 H :   -0.154901
   7 H :   -0.160293
   8 H :   -0.158406
   9 H :   -0.157396
  10 H :   -0.170146
  11 H :   -0.495448
  12 H :   -0.498984

  Mayer bond orders larger than 0.100000
B(  0-C ,  1-C ) :   0.8984 B(  0-C ,  2-C ) :   0.8785 B(  0-C ,  5-H ) :   0.9310
B(  0-C ,  6-H ) :   0.9442 B(  1-C ,  3-O ) :   0.7533 B(  1-C ,  7-H ) :   0.8998
B(  1-C ,  8-H ) :   0.9877 B(  2-C ,  4-O ) :   0.7175 B(  2-C ,  9-H ) :   0.9667
B(  2-C , 10-H ) :   0.8964 B(  3-O , 11-H ) :   1.0375 B(  4-O , 12-H ) :   1.0125

MP2 TOTAL ENERGY:     -269.105798761 Eh
FINAL SINGLE POINT ENERGY      -269.105798760922

DIPOLE MOMENT
-------------
                                X             Y             Z
Electronic contribution:     -0.03386      -1.83422      -0.23398
Nuclear contribution   :     -0.05114       2.41085       0.80791
                        -----------------------------------------
Total Dipole Moment    :     -0.08501       0.57663       0.57393
                        -----------------------------------------
Magnitude (a.u.)       :      0.81800
Magnitude (Debye)      :      2.07919

Rotational constants in cm-1:     0.311087     0.095476     0.090627
Rotational constants in MHz :  9326.139729  2862.294379  2716.932675

                             ****ORCA TERMINATED NORMALLY****
TOTAL RUN TIME: 0 days 0 hours 2 minutes 40 seconds 715 msec
