                         Program Version 5.0.3 -  RELEASE  -
|  1> !ri-mp2 aug-cc-pvtz aug-cc-pvtz/c tightscf
|  2> %pal nprocs 16 end
|  3> %maxcore 3800
|  4>
|  5> * xyz 0 1
|  6> C      2.773055    1.261111    0.000000
|  7> C      1.856389    2.329988    0.000000
|  8> C      2.317617   -0.031831    0.000000
|  9> C      0.505981    2.084632    0.000000
| 10> C      0.453695   -1.652390    0.000000
| 11> C     -1.801003   -0.844292    0.000000
| 12> C      0.931909   -0.319067    0.000000
| 13> C      0.000000    0.762178    0.000000
| 14> C     -0.887961   -1.928786    0.000000
| 15> C     -1.398841    0.467661    0.000000
| 16> C     -1.410513   -3.339932    0.000000
| 17> C     -2.419621    1.574311    0.000000
| 18> H      3.835851    1.463645    0.000000
| 19> H      2.220247    3.348890    0.000000
| 20> H      3.018072   -0.857766    0.000000
| 21> H     -0.183202    2.916945    0.000000
| 22> H      1.175542   -2.460565    0.000000
| 23> H     -2.862447   -1.065376    0.000000
| 24> H     -2.031880   -3.530639    0.877960
| 25> H     -2.031880   -3.530639   -0.877960
| 26> H     -0.598144   -4.065331    0.000000
| 27> H     -2.318622    2.216328    0.878002
| 28> H     -2.318622    2.216328   -0.878002
| 29> H     -3.429158    1.166683    0.000000
| 30> *
| 31>
| 32>                          ****END OF INPUT****

CARTESIAN COORDINATES (ANGSTROEM)
---------------------------------
  C      2.773055    1.261111    0.000000
  C      1.856389    2.329988    0.000000
  C      2.317617   -0.031831    0.000000
  C      0.505981    2.084632    0.000000
  C      0.453695   -1.652390    0.000000
  C     -1.801003   -0.844292    0.000000
  C      0.931909   -0.319067    0.000000
  C      0.000000    0.762178    0.000000
  C     -0.887961   -1.928786    0.000000
  C     -1.398841    0.467661    0.000000
  C     -1.410513   -3.339932    0.000000
  C     -2.419621    1.574311    0.000000
  H      3.835851    1.463645    0.000000
  H      2.220247    3.348890    0.000000
  H      3.018072   -0.857766    0.000000
  H     -0.183202    2.916945    0.000000
  H      1.175542   -2.460565    0.000000
  H     -2.862447   -1.065376    0.000000
  H     -2.031880   -3.530639    0.877960
  H     -2.031880   -3.530639   -0.877960
  H     -0.598144   -4.065331    0.000000
  H     -2.318622    2.216328    0.878002
  H     -2.318622    2.216328   -0.878002
  H     -3.429158    1.166683    0.000000

 Total Charge           Charge          ....    0
 Multiplicity           Mult            ....    1
 Number of Electrons    NEL             ....   84
 Basis Dimension        Dim             ....  828

ORBITAL ENERGIES
----------------

  NO   OCC          E(Eh)            E(eV)
   0   2.0000     -11.242853      -305.9336
   1   2.0000     -11.239372      -305.8388
   2   2.0000     -11.239161      -305.8331
   3   2.0000     -11.236150      -305.7512
   4   2.0000     -11.232335      -305.6474
   5   2.0000     -11.231978      -305.6377
   6   2.0000     -11.230669      -305.6020
   7   2.0000     -11.229865      -305.5802
   8   2.0000     -11.224193      -305.4258
   9   2.0000     -11.223889      -305.4175
  10   2.0000     -11.222978      -305.3928
  11   2.0000     -11.222849      -305.3892
  12   2.0000      -1.176707       -32.0198
  13   2.0000      -1.115964       -30.3669
  14   2.0000      -1.069079       -29.0911
  15   2.0000      -1.025166       -27.8962
  16   2.0000      -0.998751       -27.1774
  17   2.0000      -0.943255       -25.6673
  18   2.0000      -0.925488       -25.1838
  19   2.0000      -0.842493       -22.9254
  20   2.0000      -0.817504       -22.2454
  21   2.0000      -0.782525       -21.2936
  22   2.0000      -0.701059       -19.0768
  23   2.0000      -0.692638       -18.8476
  24   2.0000      -0.660751       -17.9800
  25   2.0000      -0.619140       -16.8476
  26   2.0000      -0.602736       -16.4013
  27   2.0000      -0.584128       -15.8949
  28   2.0000      -0.581383       -15.8202
  29   2.0000      -0.574746       -15.6396
  30   2.0000      -0.569638       -15.5006
  31   2.0000      -0.551832       -15.0161
  32   2.0000      -0.544653       -14.8208
  33   2.0000      -0.529903       -14.4194
  34   2.0000      -0.515355       -14.0235
  35   2.0000      -0.510208       -13.8835
  36   2.0000      -0.478473       -13.0199
  37   2.0000      -0.466117       -12.6837
  38   2.0000      -0.434515       -11.8237
  39   2.0000      -0.374164       -10.1815
  40   2.0000      -0.312054        -8.4914
  41   2.0000      -0.281924        -7.6715
  42   0.0000       0.028225         0.7680
  43   0.0000       0.029620         0.8060
  44   0.0000       0.030706         0.8356
  45   0.0000       0.041259         1.1227
  46   0.0000       0.043037         1.1711

MULLIKEN ATOMIC CHARGES
-----------------------
   0 C :   -0.301803
   1 C :   -0.540236
   2 C :   -1.238038
   3 C :   -1.174391
   4 C :   -0.559138
   5 C :   -1.127296
   6 C :    1.539957
   7 C :    1.421174
   8 C :    1.203297
   9 C :    0.533125
  10 C :   -0.889336
  11 C :   -0.994615
  12 H :    0.503694
  13 H :    0.670782
  14 H :    0.171640
  15 H :   -0.298411
  16 H :   -0.302651
  17 H :   -0.153755
  18 H :    0.273265
  19 H :    0.273265
  20 H :    0.267054
  21 H :    0.242437
  22 H :    0.242438
  23 H :    0.237544
Sum of atomic charges:   -0.0000000

LOEWDIN ATOMIC CHARGES
----------------------
   0 C :    0.202264
   1 C :    0.206023
   2 C :    0.222363
   3 C :    0.223780
   4 C :    0.239804
   5 C :    0.239623
   6 C :   -0.108654
   7 C :   -0.079078
   8 C :   -0.111082
   9 C :   -0.080056
  10 C :    0.580782
  11 C :    0.576055
  12 H :   -0.185269
  13 H :   -0.186249
  14 H :   -0.178595
  15 H :   -0.193114
  16 H :   -0.177171
  17 H :   -0.175787
  18 H :   -0.166169
  19 H :   -0.166169
  20 H :   -0.178717
  21 H :   -0.163269
  22 H :   -0.163269
  23 H :   -0.178046

  Mayer bond orders larger than 0.100000
B(  0-C ,  1-C ) :   0.9188 B(  0-C ,  2-C ) :   1.0117 B(  0-C ,  3-C ) :  -0.2707
B(  0-C ,  9-C ) :   0.1913 B(  0-C , 12-H ) :   0.6882 B(  1-C ,  2-C ) :   0.1159
B(  1-C ,  3-C ) :   1.1498 B(  1-C ,  6-C ) :  -0.1297 B(  1-C ,  7-C ) :   0.3528
B(  1-C , 13-H ) :   0.4332 B(  1-C , 15-H ) :  -0.1764 B(  2-C ,  4-C ) :   0.3997
B(  2-C ,  6-C ) :  -0.3378 B(  2-C ,  7-C ) :   0.1982 B(  2-C ,  8-C ) :   0.2036
B(  2-C ,  9-C ) :  -0.1158 B(  2-C , 12-H ) :  -0.1954 B(  2-C , 14-H ) :   1.3413
B(  3-C ,  6-C ) :  -0.6245 B(  3-C ,  7-C ) :  -0.2226 B(  3-C ,  9-C ) :   0.5635
B(  3-C , 11-C ) :  -0.1255 B(  3-C , 13-H ) :  -0.2387 B(  3-C , 15-H ) :   2.4649
B(  4-C ,  5-C ) :  -0.4306 B(  4-C ,  6-C ) :  -0.1453 B(  4-C ,  7-C ) :  -0.1267
B(  4-C ,  8-C ) :   0.7399 B(  4-C , 10-C ) :  -0.3429 B(  4-C , 11-C ) :  -0.1308
B(  4-C , 14-H ) :  -0.1042 B(  4-C , 16-H ) :   2.2907 B(  4-C , 17-H ) :   0.1384
B(  4-C , 20-H ) :  -0.1763 B(  5-C ,  6-C ) :  -0.1061 B(  5-C ,  7-C ) :   0.1885
B(  5-C ,  8-C ) :   0.1272 B(  5-C ,  9-C ) :   0.9049 B(  5-C , 10-C ) :   0.2709
B(  5-C , 11-C ) :  -0.1306 B(  5-C , 16-H ) :   0.1132 B(  5-C , 17-H ) :   1.9106
B(  5-C , 20-H ) :   0.1009 B(  6-C ,  7-C ) :   0.3414 B(  6-C ,  8-C ) :   0.6661
B(  6-C ,  9-C ) :   0.5924 B(  6-C , 12-H ) :  -0.1011 B(  6-C , 16-H ) :  -0.3966
B(  6-C , 17-H ) :  -0.2484 B(  7-C ,  8-C ) :  -0.2152 B(  7-C , 11-C ) :   0.4890
B(  7-C , 12-H ) :   0.1878 B(  7-C , 13-H ) :  -0.1787 B(  7-C , 15-H ) :  -0.2215
B(  7-C , 16-H ) :   0.1804 B(  8-C ,  9-C ) :   0.6396 B(  8-C , 10-C ) :   0.3306
B(  8-C , 16-H ) :  -0.4103 B(  8-C , 17-H ) :  -0.3047 B(  8-C , 18-H ) :  -0.1342
B(  8-C , 19-H ) :  -0.1342 B(  9-C , 11-C ) :   0.1334 B(  9-C , 12-H ) :  -0.1394
B(  9-C , 13-H ) :   0.1765 B(  9-C , 15-H ) :  -0.3143 B(  9-C , 16-H ) :  -0.1168
B(  9-C , 21-H ) :  -0.1384 B(  9-C , 22-H ) :  -0.1384 B( 10-C , 18-H ) :   1.0450
B( 10-C , 19-H ) :   1.0450 B( 10-C , 20-H ) :   0.9937 B( 11-C , 21-H ) :   1.0900
B( 11-C , 22-H ) :   1.0900 B( 11-C , 23-H ) :   1.0208 B( 13-H , 15-H ) :  -0.1533

MP2 TOTAL ENERGY:     -463.531284312 Eh
FINAL SINGLE POINT ENERGY      -463.531284311953

DIPOLE MOMENT
-------------
                                X             Y             Z
Electronic contribution:      5.36454       2.14987       0.00000
Nuclear contribution   :     -5.57835      -2.20286       0.00000
                        -----------------------------------------
Total Dipole Moment    :     -0.21381      -0.05299       0.00000
                        -----------------------------------------
Magnitude (a.u.)       :      0.22028
Magnitude (Debye)      :      0.55991

Rotational constants in cm-1:     0.052681     0.027337     0.018118
Rotational constants in MHz :  1579.348295   819.530026   543.158223

                             ****ORCA TERMINATED NORMALLY****
TOTAL RUN TIME: 0 days 0 hours 26 minutes 39 seconds 135 msec
