                         Program Version 5.0.3 -  RELEASE  -
|  1> !ri-mp2 aug-cc-pvtz aug-cc-pvtz/c tightscf
|  2> %pal nprocs 16 end
|  3>
|  4> * xyz 0 1
|  5> C     0.285090     0.705076    1.402750
|  6> C    -0.285090    -0.705076    1.402750
|  7> C     0.285090     0.705076   -1.402750
|  8> C    -0.285090    -0.705076   -1.402750
|  9> S    -0.285090     1.732970    0.000000
| 10> S     0.285090    -1.732970    0.000000
| 11> H    -0.049188     1.244965    2.289919
| 12> H     1.374611     0.679803    1.411268
| 13> H     0.049188    -1.244965    2.289919
| 14> H    -1.374611    -0.679803    1.411268
| 15> H     1.374611     0.679803   -1.411268
| 16> H    -0.049188     1.244965   -2.289919
| 17> H    -1.374611    -0.679803   -1.411268
| 18> H     0.049188    -1.244965   -2.289919
| 19> *
| 20>
| 21>                          ****END OF INPUT****

CARTESIAN COORDINATES (ANGSTROEM)
---------------------------------
  C      0.285090    0.705076    1.402750
  C     -0.285090   -0.705076    1.402750
  C      0.285090    0.705076   -1.402750
  C     -0.285090   -0.705076   -1.402750
  S     -0.285090    1.732970    0.000000
  S      0.285090   -1.732970    0.000000
  H     -0.049188    1.244965    2.289919
  H      1.374611    0.679803    1.411268
  H      0.049188   -1.244965    2.289919
  H     -1.374611   -0.679803    1.411268
  H      1.374611    0.679803   -1.411268
  H     -0.049188    1.244965   -2.289919
  H     -1.374611   -0.679803   -1.411268
  H      0.049188   -1.244965   -2.289919

 Total Charge           Charge          ....    0
 Multiplicity           Mult            ....    1
 Number of Electrons    NEL             ....   64
 Basis Dimension        Dim             ....  468

ORBITAL ENERGIES
----------------

  NO   OCC          E(Eh)            E(eV)
   0   2.0000     -91.949578     -2502.0752
   1   2.0000     -91.949578     -2502.0752
   2   2.0000     -11.265862      -306.5597
   3   2.0000     -11.265850      -306.5594
   4   2.0000     -11.265231      -306.5425
   5   2.0000     -11.265225      -306.5424
   6   2.0000      -8.949765      -243.5355
   7   2.0000      -8.949763      -243.5354
   8   2.0000      -6.630993      -180.4385
   9   2.0000      -6.630992      -180.4385
  10   2.0000      -6.630035      -180.4124
  11   2.0000      -6.630033      -180.4124
  12   2.0000      -6.629124      -180.3876
  13   2.0000      -6.629124      -180.3876
  14   2.0000      -1.121931       -30.5293
  15   2.0000      -1.040213       -28.3056
  16   2.0000      -1.009132       -27.4599
  17   2.0000      -0.860097       -23.4044
  18   2.0000      -0.847782       -23.0693
  19   2.0000      -0.760375       -20.6909
  20   2.0000      -0.635049       -17.2806
  21   2.0000      -0.633455       -17.2372
  22   2.0000      -0.620197       -16.8764
  23   2.0000      -0.572930       -15.5902
  24   2.0000      -0.566268       -15.4089
  25   2.0000      -0.543305       -14.7841
  26   2.0000      -0.515742       -14.0340
  27   2.0000      -0.446881       -12.1603
  28   2.0000      -0.446788       -12.1577
  29   2.0000      -0.420936       -11.4543
  30   2.0000      -0.352721        -9.5980
  31   2.0000      -0.337404        -9.1812
  32   0.0000       0.030994         0.8434
  33   0.0000       0.032240         0.8773
  34   0.0000       0.040184         1.0935
  35   0.0000       0.046102         1.2545
  36   0.0000       0.050274         1.3680

MULLIKEN ATOMIC CHARGES
-----------------------
   0 C :   -0.381515
   1 C :   -0.381515
   2 C :   -0.381515
   3 C :   -0.381515
   4 S :   -0.359083
   5 S :   -0.359083
   6 H :    0.320376
   7 H :    0.240681
   8 H :    0.320376
   9 H :    0.240681
  10 H :    0.240681
  11 H :    0.320376
  12 H :    0.240681
  13 H :    0.320376
Sum of atomic charges:   -0.0000000

LOEWDIN ATOMIC CHARGES
----------------------
   0 C :   -0.129078
   1 C :   -0.129078
   2 C :   -0.129078
   3 C :   -0.129078
   4 S :    1.188596
   5 S :    1.188596
   6 H :   -0.234890
   7 H :   -0.230330
   8 H :   -0.234890
   9 H :   -0.230330
  10 H :   -0.230330
  11 H :   -0.234890
  12 H :   -0.230330
  13 H :   -0.234890

  Mayer bond orders larger than 0.100000
B(  0-C ,  1-C ) :   1.0205 B(  0-C ,  4-S ) :   0.9530 B(  0-C ,  6-H ) :   0.8911
B(  0-C ,  7-H ) :   0.9414 B(  1-C ,  5-S ) :   0.9530 B(  1-C ,  8-H ) :   0.8911
B(  1-C ,  9-H ) :   0.9414 B(  2-C ,  3-C ) :   1.0205 B(  2-C ,  4-S ) :   0.9530
B(  2-C , 10-H ) :   0.9414 B(  2-C , 11-H ) :   0.8911 B(  3-C ,  5-S ) :   0.9530
B(  3-C , 12-H ) :   0.9414 B(  3-C , 13-H ) :   0.8911

MP2 TOTAL ENERGY:     -952.336578224 Eh
FINAL SINGLE POINT ENERGY      -952.336578224491

DIPOLE MOMENT
-------------
                                X             Y             Z
Electronic contribution:      0.00000      -0.00000      -0.00000
Nuclear contribution   :     -0.00000       0.00000      -0.00000
                        -----------------------------------------
Total Dipole Moment    :      0.00000      -0.00000      -0.00000
                        -----------------------------------------
Magnitude (a.u.)       :      0.00000
Magnitude (Debye)      :      0.00000

Rotational constants in cm-1:     0.121435     0.069860     0.048178
Rotational constants in MHz :  3640.530076  2094.352583  1444.333707

                             ****ORCA TERMINATED NORMALLY****
TOTAL RUN TIME: 0 days 0 hours 4 minutes 21 seconds 722 msec
