                         Program Version 5.0.3 -  RELEASE  -
|  1> !ri-mp2 aug-cc-pvtz aug-cc-pvtz/c tightscf
|  2> %pal nprocs 16 end
|  3>
|  4> * xyz 0 1
|  5> O     -0.804673   -0.888677   -0.282832
|  6> O      0.593732   -1.074262    0.088267
|  7> N      0.083188    1.201711   -0.098487
|  8> C     -1.066719    0.402826    0.261301
|  9> C      1.178668    0.263372    0.057915
| 10> H     -1.160116    0.336299    1.347953
| 11> H     -1.985776    0.765925   -0.193125
| 12> H      1.887205    0.349580   -0.766514
| 13> H      1.686489    0.379914    1.015848
| 14> H      0.005718    1.462625   -1.073532
| 15> *
| 16>
| 17>                          ****END OF INPUT****

CARTESIAN COORDINATES (ANGSTROEM)
---------------------------------
  O     -0.804673   -0.888677   -0.282832
  O      0.593732   -1.074262    0.088267
  N      0.083188    1.201711   -0.098487
  C     -1.066719    0.402826    0.261301
  C      1.178668    0.263372    0.057915
  H     -1.160116    0.336299    1.347953
  H     -1.985776    0.765925   -0.193125
  H      1.887205    0.349580   -0.766514
  H      1.686489    0.379914    1.015848
  H      0.005718    1.462625   -1.073532

 Total Charge           Charge          ....    0
 Multiplicity           Mult            ....    1
 Number of Electrons    NEL             ....   40
 Basis Dimension        Dim             ....  345

ORBITAL ENERGIES
----------------

  NO   OCC          E(Eh)            E(eV)
   0   2.0000     -20.625504      -561.2485
   1   2.0000     -20.620650      -561.1164
   2   2.0000     -15.576734      -423.8645
   3   2.0000     -11.322346      -308.0967
   4   2.0000     -11.322070      -308.0892
   5   2.0000      -1.487393       -40.4740
   6   2.0000      -1.233921       -33.5767
   7   2.0000      -1.227030       -33.3892
   8   2.0000      -0.911007       -24.7898
   9   2.0000      -0.881244       -23.9799
  10   2.0000      -0.742008       -20.1911
  11   2.0000      -0.706200       -19.2167
  12   2.0000      -0.649706       -17.6794
  13   2.0000      -0.640953       -17.4412
  14   2.0000      -0.568999       -15.4833
  15   2.0000      -0.558926       -15.2092
  16   2.0000      -0.545449       -14.8424
  17   2.0000      -0.509570       -13.8661
  18   2.0000      -0.444931       -12.1072
  19   2.0000      -0.422649       -11.5009
  20   0.0000       0.027328         0.7436
  21   0.0000       0.037343         1.0162
  22   0.0000       0.038421         1.0455
  23   0.0000       0.055576         1.5123
  24   0.0000       0.058283         1.5860

MULLIKEN ATOMIC CHARGES
-----------------------
   0 O :   -0.443591
   1 O :   -0.450248
   2 N :   -0.438080
   3 C :   -0.082294
   4 C :   -0.153385
   5 H :    0.344482
   6 H :    0.431147
   7 H :    0.352354
   8 H :    0.345826
   9 H :    0.093790
Sum of atomic charges:    0.0000000

LOEWDIN ATOMIC CHARGES
----------------------
   0 O :    0.323760
   1 O :    0.327691
   2 N :    0.540117
   3 C :   -0.131346
   4 C :   -0.080361
   5 H :   -0.161399
   6 H :   -0.159992
   7 H :   -0.162541
   8 H :   -0.173214
   9 H :   -0.322713

  Mayer bond orders larger than 0.100000
B(  0-O ,  1-O ) :   0.8482 B(  0-O ,  3-C ) :   0.6912 B(  1-O ,  4-C ) :   0.7050
B(  2-N ,  3-C ) :   0.8930 B(  2-N ,  4-C ) :   0.9083 B(  2-N ,  9-H ) :   0.9310
B(  3-C ,  4-C ) :   0.1199 B(  3-C ,  5-H ) :   0.9015 B(  3-C ,  6-H ) :   0.8305
B(  4-C ,  7-H ) :   0.8974 B(  4-C ,  8-H ) :   0.8766

MP2 TOTAL ENERGY:     -283.842683147 Eh
FINAL SINGLE POINT ENERGY      -283.842683147115

DIPOLE MOMENT
-------------
                                X             Y             Z
Electronic contribution:     -0.39615      -2.35993      -0.47185
Nuclear contribution   :      0.43100       3.27289       0.32723
                        -----------------------------------------
Total Dipole Moment    :      0.03486       0.91296      -0.14462
                        -----------------------------------------
Magnitude (a.u.)       :      0.92500
Magnitude (Debye)      :      2.35116

Rotational constants in cm-1:     0.263868     0.257245     0.146112
Rotational constants in MHz :  7910.555240  7712.011839  4380.327245

                             ****ORCA TERMINATED NORMALLY****
TOTAL RUN TIME: 0 days 0 hours 1 minutes 58 seconds 802 msec
