                         Program Version 5.0.3 -  RELEASE  -
|  1> !ri-mp2 aug-cc-pvtz aug-cc-pvtz/c tightscf
|  2> %pal nprocs 16 end
|  3>
|  4> * xyz 0 1
|  5> H      0.551499   -2.301909    0.000000
|  6> H      1.666462   -0.888490    0.000000
|  7> C      0.613674   -1.217264    0.000000
|  8> O     -0.017447   -0.764404    1.171597
|  9> O     -0.017447   -0.764404   -1.171597
| 10> H     -0.553642    0.923256   -2.152989
| 11> H      1.017015    1.020150   -1.338331
| 12> C     -0.017447    0.661398   -1.242927
| 13> H      1.017015    1.020150    1.338331
| 14> H     -0.553642    0.923256    2.152989
| 15> C     -0.017447    0.661398    1.242927
| 16> H     -0.568831    2.344294    0.000000
| 17> H     -1.736457    1.016352    0.000000
| 18> C     -0.672158    1.256703    0.000000
| 19> *
| 20>
| 21>                          ****END OF INPUT****

CARTESIAN COORDINATES (ANGSTROEM)
---------------------------------
  H      0.551499   -2.301909    0.000000
  H      1.666462   -0.888490    0.000000
  C      0.613674   -1.217264    0.000000
  O     -0.017447   -0.764404    1.171597
  O     -0.017447   -0.764404   -1.171597
  H     -0.553642    0.923256   -2.152989
  H      1.017015    1.020150   -1.338331
  C     -0.017447    0.661398   -1.242927
  H      1.017015    1.020150    1.338331
  H     -0.553642    0.923256    2.152989
  C     -0.017447    0.661398    1.242927
  H     -0.568831    2.344294    0.000000
  H     -1.736457    1.016352    0.000000
  C     -0.672158    1.256703    0.000000

 Total Charge           Charge          ....    0
 Multiplicity           Mult            ....    1
 Number of Electrons    NEL             ....   48
 Basis Dimension        Dim             ....  460

ORBITAL ENERGIES
----------------

  NO   OCC          E(Eh)            E(eV)
   0   2.0000     -20.562126      -559.5239
   1   2.0000     -20.562106      -559.5234
   2   2.0000     -11.325794      -308.1905
   3   2.0000     -11.281681      -306.9902
   4   2.0000     -11.281676      -306.9900
   5   2.0000     -11.229651      -305.5743
   6   2.0000      -1.419772       -38.6340
   7   2.0000      -1.343046       -36.5461
   8   2.0000      -1.067064       -29.0363
   9   2.0000      -0.918739       -25.0002
  10   2.0000      -0.913162       -24.8484
  11   2.0000      -0.798225       -21.7208
  12   2.0000      -0.705243       -19.1906
  13   2.0000      -0.666848       -18.1459
  14   2.0000      -0.653747       -17.7894
  15   2.0000      -0.636212       -17.3122
  16   2.0000      -0.615457       -16.7474
  17   2.0000      -0.567420       -15.4403
  18   2.0000      -0.566533       -15.4161
  19   2.0000      -0.511736       -13.9250
  20   2.0000      -0.483311       -13.1515
  21   2.0000      -0.479458       -13.0467
  22   2.0000      -0.431741       -11.7483
  23   2.0000      -0.428055       -11.6480
  24   0.0000       0.028345         0.7713
  25   0.0000       0.037458         1.0193
  26   0.0000       0.038631         1.0512
  27   0.0000       0.040994         1.1155
  28   0.0000       0.054908         1.4941

MULLIKEN ATOMIC CHARGES
-----------------------
   0 H :    0.517153
   1 H :    0.312959
   2 C :   -0.219640
   3 O :   -0.679808
   4 O :   -0.679808
   5 H :    0.364727
   6 H :    0.272645
   7 C :   -0.235625
   8 H :    0.272645
   9 H :    0.364727
  10 C :   -0.235625
  11 H :    0.312001
  12 H :    0.251426
  13 C :   -0.617778
Sum of atomic charges:   -0.0000000

LOEWDIN ATOMIC CHARGES
----------------------
   0 H :   -0.172765
   1 H :   -0.161903
   2 C :   -0.234320
   3 O :    0.562781
   4 O :    0.562781
   5 H :   -0.158157
   6 H :   -0.153403
   7 C :    0.038678
   8 H :   -0.153403
   9 H :   -0.158157
  10 C :    0.038678
  11 H :   -0.146604
  12 H :   -0.149322
  13 C :    0.285115

  Mayer bond orders larger than 0.100000
B(  0-H ,  2-C ) :   0.7840 B(  1-H ,  2-C ) :   0.9499 B(  2-C ,  3-O ) :   0.8894
B(  2-C ,  4-O ) :   0.8894 B(  3-O , 10-C ) :   0.7776 B(  4-O ,  7-C ) :   0.7776
B(  5-H ,  7-C ) :   0.9187 B(  6-H ,  7-C ) :   0.9439 B(  7-C , 13-C ) :   0.9470
B(  8-H , 10-C ) :   0.9439 B(  9-H , 10-C ) :   0.9187 B( 10-C , 13-C ) :   0.9470
B( 11-H , 13-C ) :   0.9010 B( 12-H , 13-C ) :   0.9521

MP2 TOTAL ENERGY:     -307.122194172 Eh
FINAL SINGLE POINT ENERGY      -307.122194171715

DIPOLE MOMENT
-------------
                                X             Y             Z
Electronic contribution:     -0.51449      -3.27416       0.00000
Nuclear contribution   :      0.85831       4.12641       0.00000
                        -----------------------------------------
Total Dipole Moment    :      0.34382       0.85224       0.00000
                        -----------------------------------------
Magnitude (a.u.)       :      0.91898
Magnitude (Debye)      :      2.33586

Rotational constants in cm-1:     0.166156     0.160341     0.091470
Rotational constants in MHz :  4981.225016  4806.893536  2742.199326

                             ****ORCA TERMINATED NORMALLY****
TOTAL RUN TIME: 0 days 0 hours 3 minutes 49 seconds 712 msec
