                         Program Version 5.0.3 -  RELEASE  -
|  1> !ri-mp2 aug-cc-pvtz aug-cc-pvtz/c tightscf
|  2> %pal nprocs 16 end
|  3>
|  4> * xyz 0 1
|  5> C      1.450960   -0.211024   -0.011521
|  6> C     -2.167694   -0.617691    0.265295
|  7> C     -2.071854    0.820259   -0.260051
|  8> C     -0.795643   -1.209168   -0.064247
|  9> C     -0.629862    1.220730    0.068588
| 10> C      2.289731    1.049920    0.075090
| 11> N      0.101430   -0.048120   -0.007516
| 12> O      1.961184   -1.322156   -0.085316
| 13> H     -2.323362   -0.611690    1.345899
| 14> H     -2.982362   -1.182603   -0.184363
| 15> H     -2.222111    0.835109   -1.341119
| 16> H     -2.800072    1.494779    0.187414
| 17> H     -0.466604   -1.973381    0.637241
| 18> H     -0.772611   -1.654471   -1.062577
| 19> H     -0.232266    1.952833   -0.633874
| 20> H     -0.563031    1.651531    1.073408
| 21> H      2.013722    1.662081    0.934901
| 22> H      2.163330    1.663339   -0.818914
| 23> H      3.332065    0.758403    0.158197
| 24> *
| 25>
| 26>                          ****END OF INPUT****

CARTESIAN COORDINATES (ANGSTROEM)
---------------------------------
  C      1.450960   -0.211024   -0.011521
  C     -2.167694   -0.617691    0.265295
  C     -2.071854    0.820259   -0.260051
  C     -0.795643   -1.209168   -0.064247
  C     -0.629862    1.220730    0.068588
  C      2.289731    1.049920    0.075090
  N      0.101430   -0.048120   -0.007516
  O      1.961184   -1.322156   -0.085316
  H     -2.323362   -0.611690    1.345899
  H     -2.982362   -1.182603   -0.184363
  H     -2.222111    0.835109   -1.341119
  H     -2.800072    1.494779    0.187414
  H     -0.466604   -1.973381    0.637241
  H     -0.772611   -1.654471   -1.062577
  H     -0.232266    1.952833   -0.633874
  H     -0.563031    1.651531    1.073408
  H      2.013722    1.662081    0.934901
  H      2.163330    1.663339   -0.818914
  H      3.332065    0.758403    0.158197

 Total Charge           Charge          ....    0
 Multiplicity           Mult            ....    1
 Number of Electrons    NEL             ....   62
 Basis Dimension        Dim             ....  621

ORBITAL ENERGIES
----------------

  NO   OCC          E(Eh)            E(eV)
   0   2.0000     -20.504605      -557.9587
   1   2.0000     -15.576579      -423.8603
   2   2.0000     -11.338401      -308.5336
   3   2.0000     -11.272385      -306.7372
   4   2.0000     -11.256524      -306.3056
   5   2.0000     -11.237108      -305.7773
   6   2.0000     -11.232352      -305.6478
   7   2.0000     -11.230254      -305.5907
   8   2.0000      -1.368076       -37.2272
   9   2.0000      -1.249988       -34.0139
  10   2.0000      -1.073699       -29.2168
  11   2.0000      -1.008987       -27.4559
  12   2.0000      -0.983579       -26.7645
  13   2.0000      -0.866944       -23.5907
  14   2.0000      -0.812782       -22.1169
  15   2.0000      -0.745825       -20.2949
  16   2.0000      -0.687765       -18.7150
  17   2.0000      -0.674081       -18.3427
  18   2.0000      -0.624336       -16.9890
  19   2.0000      -0.604765       -16.4565
  20   2.0000      -0.597981       -16.2719
  21   2.0000      -0.583244       -15.8709
  22   2.0000      -0.561079       -15.2677
  23   2.0000      -0.548095       -14.9144
  24   2.0000      -0.534513       -14.5448
  25   2.0000      -0.499138       -13.5822
  26   2.0000      -0.496477       -13.5098
  27   2.0000      -0.493388       -13.4258
  28   2.0000      -0.478640       -13.0245
  29   2.0000      -0.411201       -11.1894
  30   2.0000      -0.365377        -9.9424
  31   0.0000       0.023948         0.6517
  32   0.0000       0.032219         0.8767
  33   0.0000       0.033850         0.9211
  34   0.0000       0.039239         1.0677
  35   0.0000       0.049467         1.3461

MULLIKEN ATOMIC CHARGES
-----------------------
   0 C :   -0.112958
   1 C :   -0.487700
   2 C :   -0.540963
   3 C :   -0.559261
   4 C :   -0.479365
   5 C :   -0.592265
   6 N :    0.522963
   7 O :   -0.868601
   8 H :    0.215438
   9 H :    0.326036
  10 H :    0.200024
  11 H :    0.318584
  12 H :    0.325282
  13 H :    0.251717
  14 H :    0.353383
  15 H :    0.279877
  16 H :    0.273372
  17 H :    0.276911
  18 H :    0.297525
Sum of atomic charges:   -0.0000000

LOEWDIN ATOMIC CHARGES
----------------------
   0 C :   -0.675372
   1 C :    0.313903
   2 C :    0.316193
   3 C :    0.207228
   4 C :    0.199380
   5 C :    0.590799
   6 N :    0.269000
   7 O :    0.434368
   8 H :   -0.141798
   9 H :   -0.141737
  10 H :   -0.140622
  11 H :   -0.140778
  12 H :   -0.146303
  13 H :   -0.131530
  14 H :   -0.147884
  15 H :   -0.134375
  16 H :   -0.174311
  17 H :   -0.172703
  18 H :   -0.183456

  Mayer bond orders larger than 0.100000
B(  0-C ,  3-C ) :  -0.1475 B(  0-C ,  4-C ) :  -0.1197 B(  0-C ,  5-C ) :   0.5703
B(  0-C ,  6-N ) :   0.9918 B(  0-C ,  7-O ) :   1.4536 B(  1-C ,  2-C ) :   0.9241
B(  1-C ,  3-C ) :   0.9486 B(  1-C ,  8-H ) :   1.0071 B(  1-C ,  9-H ) :   0.9056
B(  2-C ,  4-C ) :   1.0015 B(  2-C , 10-H ) :   1.0172 B(  2-C , 11-H ) :   0.9087
B(  3-C ,  6-N ) :   0.6220 B(  3-C , 12-H ) :   0.9354 B(  3-C , 13-H ) :   1.0268
B(  4-C ,  6-N ) :   0.6170 B(  4-C , 14-H ) :   0.9056 B(  4-C , 15-H ) :   0.9746
B(  5-C , 16-H ) :   0.9659 B(  5-C , 17-H ) :   0.9586 B(  5-C , 18-H ) :   0.9525
B(  6-N ,  7-O ) :  -0.1825

MP2 TOTAL ENERGY:     -364.546492456 Eh
FINAL SINGLE POINT ENERGY      -364.546492455758

DIPOLE MOMENT
-------------
                                X             Y             Z
Electronic contribution:      3.76359      -3.36692      -0.21566
Nuclear contribution   :     -4.96158       4.70743       0.30337
                        -----------------------------------------
Total Dipole Moment    :     -1.19798       1.34051       0.08771
                        -----------------------------------------
Magnitude (a.u.)       :      1.79995
Magnitude (Debye)      :      4.57510

Rotational constants in cm-1:     0.136107     0.051189     0.038980
Rotational constants in MHz :  4080.378060  1534.611912  1168.587136

                             ****ORCA TERMINATED NORMALLY****
TOTAL RUN TIME: 0 days 0 hours 9 minutes 20 seconds 211 msec
