                         Program Version 5.0.3 -  RELEASE  -
|  1> !ri-mp2 aug-cc-pvtz aug-cc-pvtz/c tightscf
|  2> %pal nprocs 16 end
|  3>
|  4> * xyz 0 1
|  5> C      1.161089    2.783469    0.000000
|  6> C      1.336413    1.265667    0.000000
|  7> C      0.000000    0.516511    0.000000
|  8> C      0.195757   -0.987200    0.000000
|  9> Cl    -1.389892   -1.875231    0.000000
| 10> H      0.609343    3.116554    0.880936
| 11> H      2.125518    3.292440    0.000000
| 12> H      0.609343    3.116554   -0.880936
| 13> H      1.921195    0.966651    0.874698
| 14> H      1.921195    0.966651   -0.874698
| 15> H     -0.585899    0.802883    0.876235
| 16> H     -0.585899    0.802883   -0.876235
| 17> H      0.726910   -1.328188    0.885109
| 18> H      0.726910   -1.328188   -0.885109
| 19> *
| 20>
| 21>                          ****END OF INPUT****

CARTESIAN COORDINATES (ANGSTROEM)
---------------------------------
  C      1.161089    2.783469    0.000000
  C      1.336413    1.265667    0.000000
  C      0.000000    0.516511    0.000000
  C      0.195757   -0.987200    0.000000
  Cl    -1.389892   -1.875231    0.000000
  H      0.609343    3.116554    0.880936
  H      2.125518    3.292440    0.000000
  H      0.609343    3.116554   -0.880936
  H      1.921195    0.966651    0.874698
  H      1.921195    0.966651   -0.874698
  H     -0.585899    0.802883    0.876235
  H     -0.585899    0.802883   -0.876235
  H      0.726910   -1.328188    0.885109
  H      0.726910   -1.328188   -0.885109

 Total Charge           Charge          ....    0
 Multiplicity           Mult            ....    1
 Number of Electrons    NEL             ....   50
 Basis Dimension        Dim             ....  441

ORBITAL ENERGIES
----------------

  NO   OCC          E(Eh)            E(eV)
   0   2.0000    -104.817856     -2852.2389
   1   2.0000     -11.292231      -307.2772
   2   2.0000     -11.234944      -305.7184
   3   2.0000     -11.232916      -305.6632
   4   2.0000     -11.221198      -305.3443
   5   2.0000     -10.541873      -286.8590
   6   2.0000      -8.008650      -217.9265
   7   2.0000      -8.006967      -217.8807
   8   2.0000      -8.006946      -217.8801
   9   2.0000      -1.133296       -30.8386
  10   2.0000      -1.066687       -29.0260
  11   2.0000      -0.971525       -26.4365
  12   2.0000      -0.858213       -23.3532
  13   2.0000      -0.809227       -22.0202
  14   2.0000      -0.668862       -18.2007
  15   2.0000      -0.608451       -16.5568
  16   2.0000      -0.605217       -16.4688
  17   2.0000      -0.574726       -15.6391
  18   2.0000      -0.539961       -14.6931
  19   2.0000      -0.526301       -14.3214
  20   2.0000      -0.497136       -13.5278
  21   2.0000      -0.481830       -13.1112
  22   2.0000      -0.478205       -13.0126
  23   2.0000      -0.429036       -11.6747
  24   2.0000      -0.426184       -11.5971
  25   0.0000       0.028301         0.7701
  26   0.0000       0.035671         0.9706
  27   0.0000       0.037787         1.0282
  28   0.0000       0.041561         1.1309
  29   0.0000       0.055447         1.5088

MULLIKEN ATOMIC CHARGES
-----------------------
   0 C :   -0.974930
   1 C :   -0.414943
   2 C :   -0.333165
   3 C :   -0.345002
   4 Cl:   -0.395224
   5 H :    0.274433
   6 H :    0.275825
   7 H :    0.274433
   8 H :    0.271289
   9 H :    0.271289
  10 H :    0.292190
  11 H :    0.292190
  12 H :    0.255808
  13 H :    0.255808
Sum of atomic charges:   -0.0000000

LOEWDIN ATOMIC CHARGES
----------------------
   0 C :    0.581344
   1 C :    0.248211
   2 C :    0.175778
   3 C :   -0.258834
   4 Cl:    0.857362
   5 H :   -0.169830
   6 H :   -0.172249
   7 H :   -0.169830
   8 H :   -0.149089
   9 H :   -0.149089
  10 H :   -0.161447
  11 H :   -0.161447
  12 H :   -0.235441
  13 H :   -0.235441

  Mayer bond orders larger than 0.100000
B(  0-C ,  1-C ) :   0.9068 B(  0-C ,  5-H ) :   0.9507 B(  0-C ,  6-H ) :   0.9736
B(  0-C ,  7-H ) :   0.9507 B(  1-C ,  2-C ) :   0.8484 B(  1-C ,  8-H ) :   0.9370
B(  1-C ,  9-H ) :   0.9370 B(  2-C ,  3-C ) :   1.0156 B(  2-C , 10-H ) :   0.9283
B(  2-C , 11-H ) :   0.9283 B(  3-C ,  4-Cl) :   0.8138 B(  3-C , 12-H ) :   0.9456
B(  3-C , 13-H ) :   0.9456

MP2 TOTAL ENERGY:     -617.207668224 Eh
FINAL SINGLE POINT ENERGY      -617.207668223671

DIPOLE MOMENT
-------------
                                X             Y             Z
Electronic contribution:     -8.76876     -12.67129      -0.00000
Nuclear contribution   :      9.59342      13.27979       0.00000
                        -----------------------------------------
Total Dipole Moment    :      0.82466       0.60851      -0.00000
                        -----------------------------------------
Magnitude (a.u.)       :      1.02486
Magnitude (Debye)      :      2.60499

Rotational constants in cm-1:     0.566297     0.043210     0.041375
Rotational constants in MHz : 16977.145669  1295.391348  1240.388657

                             ****ORCA TERMINATED NORMALLY****
TOTAL RUN TIME: 0 days 0 hours 3 minutes 32 seconds 198 msec
