                         Program Version 5.0.3 -  RELEASE  -
|  1> !ri-mp2 aug-cc-pvtz aug-cc-pvtz/c tightscf
|  2> %pal nprocs 16 end
|  3>
|  4> * xyz 0 1
|  5> C      2.489725   -0.124251    0.000000
|  6> C     -2.342568    0.613953    0.000000
|  7> C      1.086798   -0.728805    0.000000
|  8> C      0.000000    0.330652    0.000000
|  9> O     -1.268327   -0.300846    0.000000
| 10> H      2.655854    0.498469    0.881326
| 11> H      3.251026   -0.904383    0.000000
| 12> H      2.655854    0.498469   -0.881326
| 13> H     -2.324263    1.255246    0.889932
| 14> H     -3.263750    0.034649    0.000000
| 15> H     -2.324263    1.255246   -0.889932
| 16> H      0.951134   -1.366811    0.875899
| 17> H      0.951134   -1.366811   -0.875899
| 18> H      0.095077    0.976700    0.885030
| 19> H      0.095077    0.976700   -0.885030
| 20> *
| 21>
| 22>                          ****END OF INPUT****

CARTESIAN COORDINATES (ANGSTROEM)
---------------------------------
  C      2.489725   -0.124251    0.000000
  C     -2.342568    0.613953    0.000000
  C      1.086798   -0.728805    0.000000
  C      0.000000    0.330652    0.000000
  O     -1.268327   -0.300846    0.000000
  H      2.655854    0.498469    0.881326
  H      3.251026   -0.904383    0.000000
  H      2.655854    0.498469   -0.881326
  H     -2.324263    1.255246    0.889932
  H     -3.263750    0.034649    0.000000
  H     -2.324263    1.255246   -0.889932
  H      0.951134   -1.366811    0.875899
  H      0.951134   -1.366811   -0.875899
  H      0.095077    0.976700    0.885030
  H      0.095077    0.976700   -0.885030

 Total Charge           Charge          ....    0
 Multiplicity           Mult            ....    1
 Number of Electrons    NEL             ....   42
 Basis Dimension        Dim             ....  460

ORBITAL ENERGIES
----------------

  NO   OCC          E(Eh)            E(eV)
   0   2.0000     -20.552364      -559.2583
   1   2.0000     -11.269903      -306.6697
   2   2.0000     -11.267335      -306.5998
   3   2.0000     -11.216802      -305.2247
   4   2.0000     -11.214634      -305.1657
   5   2.0000      -1.369347       -37.2618
   6   2.0000      -1.055913       -28.7329
   7   2.0000      -0.950388       -25.8614
   8   2.0000      -0.877599       -23.8807
   9   2.0000      -0.806805       -21.9543
  10   2.0000      -0.671149       -18.2629
  11   2.0000      -0.648245       -17.6397
  12   2.0000      -0.625712       -17.0265
  13   2.0000      -0.605704       -16.4820
  14   2.0000      -0.563706       -15.3392
  15   2.0000      -0.539234       -14.6733
  16   2.0000      -0.504018       -13.7150
  17   2.0000      -0.489042       -13.3075
  18   2.0000      -0.477260       -12.9869
  19   2.0000      -0.465487       -12.6666
  20   2.0000      -0.419940       -11.4271
  21   0.0000       0.030242         0.8229
  22   0.0000       0.035735         0.9724
  23   0.0000       0.040140         1.0923
  24   0.0000       0.040692         1.1073
  25   0.0000       0.055158         1.5009

MULLIKEN ATOMIC CHARGES
-----------------------
   0 C :   -0.915160
   1 C :   -0.863363
   2 C :   -0.480755
   3 C :   -0.097355
   4 O :   -0.610500
   5 H :    0.274775
   6 H :    0.282650
   7 H :    0.274775
   8 H :    0.329839
   9 H :    0.343802
  10 H :    0.329839
  11 H :    0.258274
  12 H :    0.258274
  13 H :    0.307451
  14 H :    0.307451
Sum of atomic charges:    0.0000000

LOEWDIN ATOMIC CHARGES
----------------------
   0 C :    0.572957
   1 C :    0.310238
   2 C :    0.252356
   3 C :   -0.010947
   4 O :    0.549095
   5 H :   -0.172196
   6 H :   -0.173891
   7 H :   -0.172196
   8 H :   -0.180124
   9 H :   -0.189699
  10 H :   -0.180124
  11 H :   -0.151661
  12 H :   -0.151661
  13 H :   -0.151074
  14 H :   -0.151074

  Mayer bond orders larger than 0.100000
B(  0-C ,  2-C ) :   0.8928 B(  0-C ,  5-H ) :   0.9440 B(  0-C ,  6-H ) :   0.9753
B(  0-C ,  7-H ) :   0.9440 B(  1-C ,  4-O ) :   0.9941 B(  1-C ,  8-H ) :   0.8770
B(  1-C ,  9-H ) :   0.9478 B(  1-C , 10-H ) :   0.8770 B(  2-C ,  3-C ) :   0.8865
B(  2-C , 11-H ) :   0.9506 B(  2-C , 12-H ) :   0.9506 B(  3-C ,  4-O ) :   0.8700
B(  3-C , 13-H ) :   0.9132 B(  3-C , 14-H ) :   0.9132

MP2 TOTAL ENERGY:     -233.191804245 Eh
FINAL SINGLE POINT ENERGY      -233.191804245211

DIPOLE MOMENT
-------------
                                X             Y             Z
Electronic contribution:     -2.79211      -1.48274      -0.00000
Nuclear contribution   :      2.89760       1.97161       0.00000
                        -----------------------------------------
Total Dipole Moment    :      0.10549       0.48887      -0.00000
                        -----------------------------------------
Magnitude (a.u.)       :      0.50012
Magnitude (Debye)      :      1.27121

Rotational constants in cm-1:     0.673290     0.070219     0.066754
Rotational constants in MHz : 20184.738572  2105.110942  2001.235536

                             ****ORCA TERMINATED NORMALLY****
TOTAL RUN TIME: 0 days 0 hours 2 minutes 46 seconds 876 msec
