                         Program Version 5.0.3 -  RELEASE  -
|  1> !ri-mp2 aug-cc-pvtz aug-cc-pvtz/c tightscf
|  2> %pal nprocs 16 end
|  3>
|  4> * xyz 0 1
|  5> C      3.493846   -0.421699    0.204243
|  6> C     -3.184549   -0.384832    0.026086
|  7> C      2.208239    0.268987   -0.251395
|  8> C     -1.762741   -0.898519    0.195965
|  9> C      0.966634   -0.554479    0.069940
| 10> O     -0.668107    1.544752    0.490797
| 11> S     -0.558033    0.349232   -0.423484
| 12> H      4.366226    0.187832   -0.033018
| 13> H      3.490187   -0.590172    1.282549
| 14> H      3.622266   -1.390088   -0.283365
| 15> H     -3.313566    0.561793    0.548967
| 16> H     -3.430342   -0.232732   -1.025459
| 17> H     -3.894890   -1.102230    0.438056
| 18> H      2.251096    0.456272   -1.327242
| 19> H      2.117148    1.242262    0.233126
| 20> H     -1.584775   -1.813954   -0.371007
| 21> H     -1.518743   -1.069941    1.245101
| 22> H      0.880940   -0.746643    1.141226
| 23> H      0.959278   -1.504876   -0.468592
| 24> *
| 25>
| 26>                          ****END OF INPUT****

CARTESIAN COORDINATES (ANGSTROEM)
---------------------------------
  C      3.493846   -0.421699    0.204243
  C     -3.184549   -0.384832    0.026086
  C      2.208239    0.268987   -0.251395
  C     -1.762741   -0.898519    0.195965
  C      0.966634   -0.554479    0.069940
  O     -0.668107    1.544752    0.490797
  S     -0.558033    0.349232   -0.423484
  H      4.366226    0.187832   -0.033018
  H      3.490187   -0.590172    1.282549
  H      3.622266   -1.390088   -0.283365
  H     -3.313566    0.561793    0.548967
  H     -3.430342   -0.232732   -1.025459
  H     -3.894890   -1.102230    0.438056
  H      2.251096    0.456272   -1.327242
  H      2.117148    1.242262    0.233126
  H     -1.584775   -1.813954   -0.371007
  H     -1.518743   -1.069941    1.245101
  H      0.880940   -0.746643    1.141226
  H      0.959278   -1.504876   -0.468592

 Total Charge           Charge          ....    0
 Multiplicity           Mult            ....    1
 Number of Electrons    NEL             ....   66
 Basis Dimension        Dim             ....  602

ORBITAL ENERGIES
----------------

  NO   OCC          E(Eh)            E(eV)
   0   2.0000     -92.059622     -2505.0697
   1   2.0000     -20.497883      -557.7758
   2   2.0000     -11.265656      -306.5541
   3   2.0000     -11.262837      -306.4774
   4   2.0000     -11.234677      -305.7111
   5   2.0000     -11.229554      -305.5717
   6   2.0000     -11.223836      -305.4161
   7   2.0000      -9.046500      -246.1678
   8   2.0000      -6.728009      -183.0784
   9   2.0000      -6.727941      -183.0766
  10   2.0000      -6.726621      -183.0407
  11   2.0000      -1.321323       -35.9550
  12   2.0000      -1.091798       -29.7093
  13   2.0000      -1.060505       -28.8578
  14   2.0000      -0.977930       -26.6108
  15   2.0000      -0.894717       -24.3465
  16   2.0000      -0.823150       -22.3990
  17   2.0000      -0.794237       -21.6123
  18   2.0000      -0.662170       -18.0186
  19   2.0000      -0.640347       -17.4247
  20   2.0000      -0.632453       -17.2099
  21   2.0000      -0.602137       -16.3850
  22   2.0000      -0.572841       -15.5878
  23   2.0000      -0.566983       -15.4284
  24   2.0000      -0.554086       -15.0775
  25   2.0000      -0.526633       -14.3304
  26   2.0000      -0.526538       -14.3278
  27   2.0000      -0.503199       -13.6927
  28   2.0000      -0.501028       -13.6337
  29   2.0000      -0.494472       -13.4553
  30   2.0000      -0.486891       -13.2490
  31   2.0000      -0.402780       -10.9602
  32   2.0000      -0.358630        -9.7588
  33   0.0000       0.025133         0.6839
  34   0.0000       0.029521         0.8033
  35   0.0000       0.035707         0.9716
  36   0.0000       0.038579         1.0498
  37   0.0000       0.049387         1.3439

MULLIKEN ATOMIC CHARGES
-----------------------
   0 C :   -0.966631
   1 C :   -0.964023
   2 C :   -0.517645
   3 C :   -0.416876
   4 C :   -0.304007
   5 O :   -0.985080
   6 S :    0.691881
   7 H :    0.286652
   8 H :    0.278281
   9 H :    0.272405
  10 H :    0.326235
  11 H :    0.284094
  12 H :    0.294922
  13 H :    0.252023
  14 H :    0.293608
  15 H :    0.316717
  16 H :    0.236151
  17 H :    0.272185
  18 H :    0.349110
Sum of atomic charges:    0.0000000

LOEWDIN ATOMIC CHARGES
----------------------
   0 C :    0.578404
   1 C :    0.521935
   2 C :    0.199075
   3 C :    0.085626
   4 C :    0.093624
   5 O :   -0.171688
   6 S :    0.881489
   7 H :   -0.171135
   8 H :   -0.170816
   9 H :   -0.172052
  10 H :   -0.185588
  11 H :   -0.181148
  12 H :   -0.176087
  13 H :   -0.159492
  14 H :   -0.165035
  15 H :   -0.206968
  16 H :   -0.204006
  17 H :   -0.197160
  18 H :   -0.198978

  Mayer bond orders larger than 0.100000
B(  0-C ,  2-C ) :   0.9099 B(  0-C ,  7-H ) :   0.9630 B(  0-C ,  8-H ) :   0.9568
B(  0-C ,  9-H ) :   0.9545 B(  1-C ,  3-C ) :   0.8933 B(  1-C , 10-H ) :   0.9275
B(  1-C , 11-H ) :   0.9506 B(  1-C , 12-H ) :   0.9593 B(  2-C ,  4-C ) :   0.9252
B(  2-C , 13-H ) :   0.9594 B(  2-C , 14-H ) :   0.9485 B(  3-C ,  6-S ) :   0.9241
B(  3-C , 15-H ) :   0.8821 B(  3-C , 16-H ) :   0.9181 B(  4-C ,  6-S ) :   0.9287
B(  4-C , 17-H ) :   0.8736 B(  4-C , 18-H ) :   0.8656 B(  5-O ,  6-S ) :   1.2332

MP2 TOTAL ENERGY:     -670.130796495 Eh
FINAL SINGLE POINT ENERGY      -670.130796495067

DIPOLE MOMENT
-------------
                                X             Y             Z
Electronic contribution:     -3.82758       4.49692      -1.77720
Nuclear contribution   :      4.07454      -6.17537       1.44477
                        -----------------------------------------
Total Dipole Moment    :      0.24696      -1.67845      -0.33243
                        -----------------------------------------
Magnitude (a.u.)       :      1.72878
Magnitude (Debye)      :      4.39421

Rotational constants in cm-1:     0.181852     0.032965     0.029853
Rotational constants in MHz :  5451.797447   988.252663   894.968358

                             ****ORCA TERMINATED NORMALLY****
TOTAL RUN TIME: 0 days 0 hours 8 minutes 12 seconds 760 msec
