                         Program Version 5.0.3 -  RELEASE  -
|  1> !ri-mp2 aug-cc-pvtz aug-cc-pvtz/c tightscf
|  2> %pal nprocs 16 end
|  3>
|  4> * xyz 0 1
|  5> O      0.000000    0.000000    1.123780
|  6> C      0.000000    1.052759    0.266386
|  7> N      0.000000    0.701433   -0.967868
|  8> N      0.000000   -0.701433   -0.967868
|  9> C      0.000000   -1.052759    0.266386
| 10> H      0.000000    2.044558    0.681643
| 11> H      0.000000   -2.044558    0.681643
| 12> *
| 13>
| 14>                          ****END OF INPUT****

CARTESIAN COORDINATES (ANGSTROEM)
---------------------------------
  O      0.000000    0.000000    1.123780
  C      0.000000    1.052759    0.266386
  N      0.000000    0.701433   -0.967868
  N      0.000000   -0.701433   -0.967868
  C      0.000000   -1.052759    0.266386
  H      0.000000    2.044558    0.681643
  H      0.000000   -2.044558    0.681643

 Total Charge           Charge          ....    0
 Multiplicity           Mult            ....    1
 Number of Electrons    NEL             ....   36
 Basis Dimension        Dim             ....  276

ORBITAL ENERGIES
----------------

  NO   OCC          E(Eh)            E(eV)
   0   2.0000     -20.670836      -562.4820
   1   2.0000     -15.611452      -424.8092
   2   2.0000     -15.610867      -424.7933
   3   2.0000     -11.353211      -308.9366
   4   2.0000     -11.353169      -308.9354
   5   2.0000      -1.532443       -41.6999
   6   2.0000      -1.315328       -35.7919
   7   2.0000      -1.137586       -30.9553
   8   2.0000      -0.897060       -24.4102
   9   2.0000      -0.858528       -23.3617
  10   2.0000      -0.771205       -20.9856
  11   2.0000      -0.695925       -18.9371
  12   2.0000      -0.657562       -17.8932
  13   2.0000      -0.632075       -17.1996
  14   2.0000      -0.506446       -13.7811
  15   2.0000      -0.497479       -13.5371
  16   2.0000      -0.472857       -12.8671
  17   2.0000      -0.403861       -10.9896
  18   0.0000       0.025480         0.6933
  19   0.0000       0.032812         0.8928
  20   0.0000       0.064220         1.7475
  21   0.0000       0.073970         2.0128
  22   0.0000       0.083362         2.2684

MULLIKEN ATOMIC CHARGES
-----------------------
   0 O :   -0.213412
   1 C :   -0.198982
   2 N :   -0.344712
   3 N :   -0.344712
   4 C :   -0.198982
   5 H :    0.650399
   6 H :    0.650399
Sum of atomic charges:   -0.0000000

LOEWDIN ATOMIC CHARGES
----------------------
   0 O :    0.552345
   1 C :   -0.255213
   2 N :    0.172303
   3 N :    0.172303
   4 C :   -0.255213
   5 H :   -0.193262
   6 H :   -0.193262

  Mayer bond orders larger than 0.100000
B(  0-O ,  1-C ) :   1.0804 B(  0-O ,  4-C ) :   1.0804 B(  1-C ,  2-N ) :   1.6755
B(  1-C ,  4-C ) :  -0.1534 B(  1-C ,  5-H ) :   0.5364 B(  2-N ,  3-N ) :   0.4861
B(  3-N ,  4-C ) :   1.6755 B(  4-C ,  6-H ) :   0.5364

MP2 TOTAL ENERGY:     -261.661745213 Eh
FINAL SINGLE POINT ENERGY      -261.661745212936

DIPOLE MOMENT
-------------
                                X             Y             Z
Electronic contribution:     -0.00000       0.00000      -0.00089
Nuclear contribution   :      0.00000       0.00000       1.32192
                        -----------------------------------------
Total Dipole Moment    :     -0.00000       0.00000       1.32104
                        -----------------------------------------
Magnitude (a.u.)       :      1.32104
Magnitude (Debye)      :      3.35781

Rotational constants in cm-1:     0.345203     0.343596     0.172199
Rotational constants in MHz : 10348.914599 10300.755762  5162.389512

                             ****ORCA TERMINATED NORMALLY****
TOTAL RUN TIME: 0 days 0 hours 1 minutes 29 seconds 519 msec
