                         Program Version 5.0.3 -  RELEASE  -
|  1> !ri-mp2 aug-cc-pvtz aug-cc-pvtz/c tightscf
|  2> %pal nprocs 16 end
|  3>
|  4> * xyz 0 1
|  5> C     -3.174894    0.221356    0.015832
|  6> C     -1.854161   -0.545307   -0.021865
|  7> C     -0.626182    0.365737    0.013037
|  8> C      0.699506   -0.395753   -0.027955
|  9> C      1.913737    0.523470    0.013334
| 10> O      3.154194   -0.175719   -0.081422
| 11> H     -3.256954    0.821962    0.924087
| 12> H     -3.261939    0.899200   -0.835780
| 13> H     -4.029566   -0.455825   -0.011540
| 14> H     -1.816621   -1.163702   -0.923412
| 15> H     -1.810925   -1.238981    0.823068
| 16> H     -0.670781    1.059963   -0.832589
| 17> H     -0.664660    0.985038    0.915426
| 18> H      0.754149   -1.005560   -0.933536
| 19> H      0.747184   -1.089540    0.819209
| 20> H      1.890619    1.140743    0.919619
| 21> H      1.902039    1.201994   -0.840618
| 22> H      3.235868   -0.766559    0.673146
| 23> *
| 24>
| 25>                          ****END OF INPUT****

CARTESIAN COORDINATES (ANGSTROEM)
---------------------------------
  C     -3.174894    0.221356    0.015832
  C     -1.854161   -0.545307   -0.021865
  C     -0.626182    0.365737    0.013037
  C      0.699506   -0.395753   -0.027955
  C      1.913737    0.523470    0.013334
  O      3.154194   -0.175719   -0.081422
  H     -3.256954    0.821962    0.924087
  H     -3.261939    0.899200   -0.835780
  H     -4.029566   -0.455825   -0.011540
  H     -1.816621   -1.163702   -0.923412
  H     -1.810925   -1.238981    0.823068
  H     -0.670781    1.059963   -0.832589
  H     -0.664660    0.985038    0.915426
  H      0.754149   -1.005560   -0.933536
  H      0.747184   -1.089540    0.819209
  H      1.890619    1.140743    0.919619
  H      1.902039    1.201994   -0.840618
  H      3.235868   -0.766559    0.673146

 Total Charge           Charge          ....    0
 Multiplicity           Mult            ....    1
 Number of Electrons    NEL             ....   50
 Basis Dimension        Dim             ....  552

ORBITAL ENERGIES
----------------

  NO   OCC          E(Eh)            E(eV)
   0   2.0000     -20.553783      -559.2969
   1   2.0000     -11.271602      -306.7159
   2   2.0000     -11.222006      -305.3663
   3   2.0000     -11.220889      -305.3359
   4   2.0000     -11.220254      -305.3186
   5   2.0000     -11.213286      -305.1290
   6   2.0000      -1.353240       -36.8235
   7   2.0000      -1.083639       -29.4873
   8   2.0000      -1.012794       -27.5595
   9   2.0000      -0.914311       -24.8797
  10   2.0000      -0.829357       -22.5679
  11   2.0000      -0.795264       -21.6402
  12   2.0000      -0.688640       -18.7388
  13   2.0000      -0.646587       -17.5945
  14   2.0000      -0.611731       -16.6461
  15   2.0000      -0.604513       -16.4496
  16   2.0000      -0.576753       -15.6943
  17   2.0000      -0.560515       -15.2524
  18   2.0000      -0.527679       -14.3589
  19   2.0000      -0.510426       -13.8894
  20   2.0000      -0.490590       -13.3496
  21   2.0000      -0.472467       -12.8565
  22   2.0000      -0.469537       -12.7767
  23   2.0000      -0.465165       -12.6578
  24   2.0000      -0.431391       -11.7388
  25   0.0000       0.029051         0.7905
  26   0.0000       0.033393         0.9087
  27   0.0000       0.035763         0.9732
  28   0.0000       0.039421         1.0727
  29   0.0000       0.051550         1.4028

MULLIKEN ATOMIC CHARGES
-----------------------
   0 C :   -0.974623
   1 C :   -0.483702
   2 C :   -0.311706
   3 C :   -0.461948
   4 C :   -0.200809
   5 O :   -0.653276
   6 H :    0.269246
   7 H :    0.268299
   8 H :    0.272119
   9 H :    0.244118
  10 H :    0.248331
  11 H :    0.276493
  12 H :    0.280390
  13 H :    0.243646
  14 H :    0.250300
  15 H :    0.248833
  16 H :    0.315840
  17 H :    0.168448
Sum of atomic charges:    0.0000000

LOEWDIN ATOMIC CHARGES
----------------------
   0 C :    0.578917
   1 C :    0.256251
   2 C :    0.261498
   3 C :    0.269418
   4 C :    0.036199
   5 O :    0.804953
   6 H :   -0.171385
   7 H :   -0.171174
   8 H :   -0.173683
   9 H :   -0.147629
  10 H :   -0.148268
  11 H :   -0.142066
  12 H :   -0.142853
  13 H :   -0.144686
  14 H :   -0.147781
  15 H :   -0.153916
  16 H :   -0.162953
  17 H :   -0.500842

  Mayer bond orders larger than 0.100000
B(  0-C ,  1-C ) :   0.9148 B(  0-C ,  6-H ) :   0.9583 B(  0-C ,  7-H ) :   0.9599
B(  0-C ,  8-H ) :   0.9910 B(  1-C ,  2-C ) :   0.8944 B(  1-C ,  9-H ) :   0.9592
B(  1-C , 10-H ) :   0.9635 B(  2-C ,  3-C ) :   0.8928 B(  2-C , 11-H ) :   0.9325
B(  2-C , 12-H ) :   0.9215 B(  3-C ,  4-C ) :   0.9784 B(  3-C , 13-H ) :   0.9387
B(  3-C , 14-H ) :   0.9424 B(  4-C ,  5-O ) :   0.7298 B(  4-C , 15-H ) :   0.9990
B(  4-C , 16-H ) :   0.9259 B(  5-O , 17-H ) :   1.0010

MP2 TOTAL ENERGY:     -272.432368892 Eh
FINAL SINGLE POINT ENERGY      -272.432368892338

DIPOLE MOMENT
-------------
                                X             Y             Z
Electronic contribution:      6.80319      -0.50736      -0.27213
Nuclear contribution   :     -7.38431       0.41116       0.74121
                        -----------------------------------------
Total Dipole Moment    :     -0.58112      -0.09620       0.46909
                        -----------------------------------------
Magnitude (a.u.)       :      0.75300
Magnitude (Debye)      :      1.91396

Rotational constants in cm-1:     0.525550     0.037614     0.036364
Rotational constants in MHz : 15755.594698  1127.643160  1090.158324

                             ****ORCA TERMINATED NORMALLY****
TOTAL RUN TIME: 0 days 0 hours 4 minutes 39 seconds 809 msec
