                         Program Version 5.0.3 -  RELEASE  -
|  1> !ri-mp2 aug-cc-pvtz aug-cc-pvtz/c tightscf
|  2> %pal nprocs 16 end
|  3>
|  4> * xyz 0 1
|  5> O      1.787242    0.003282   -0.184204
|  6> N      0.624265   -0.739187    0.193069
|  7> N     -1.728663   -0.614242   -0.065776
|  8> N     -0.477517    1.325874    0.083465
|  9> C     -0.595184   -0.035554    0.023160
| 10> H      2.301487    0.044235    0.629806
| 11> H      0.630705   -1.583507   -0.364470
| 12> H     -1.653756   -1.625649   -0.018118
| 13> H     -1.320486    1.821828   -0.150356
| 14> H      0.388624    1.723041   -0.237498
| 15> *
| 16>
| 17>                          ****END OF INPUT****

CARTESIAN COORDINATES (ANGSTROEM)
---------------------------------
  O      1.787242    0.003282   -0.184204
  N      0.624265   -0.739187    0.193069
  N     -1.728663   -0.614242   -0.065776
  N     -0.477517    1.325874    0.083465
  C     -0.595184   -0.035554    0.023160
  H      2.301487    0.044235    0.629806
  H      0.630705   -1.583507   -0.364470
  H     -1.653756   -1.625649   -0.018118
  H     -1.320486    1.821828   -0.150356
  H      0.388624    1.723041   -0.237498

 Total Charge           Charge          ....    0
 Multiplicity           Mult            ....    1
 Number of Electrons    NEL             ....   40
 Basis Dimension        Dim             ....  345

ORBITAL ENERGIES
----------------

  NO   OCC          E(Eh)            E(eV)
   0   2.0000     -20.624170      -561.2122
   1   2.0000     -15.642196      -425.6458
   2   2.0000     -15.573580      -423.7787
   3   2.0000     -15.515338      -422.1938
   4   2.0000     -11.350178      -308.8540
   5   2.0000      -1.439852       -39.1804
   6   2.0000      -1.277010       -34.7492
   7   2.0000      -1.158489       -31.5241
   8   2.0000      -1.103974       -30.0407
   9   2.0000      -0.824037       -22.4232
  10   2.0000      -0.751251       -20.4426
  11   2.0000      -0.725930       -19.7536
  12   2.0000      -0.676531       -18.4093
  13   2.0000      -0.648757       -17.6536
  14   2.0000      -0.621984       -16.9250
  15   2.0000      -0.555478       -15.1153
  16   2.0000      -0.528919       -14.3926
  17   2.0000      -0.446050       -12.1376
  18   2.0000      -0.422054       -11.4847
  19   2.0000      -0.363268        -9.8850
  20   0.0000       0.024888         0.6772
  21   0.0000       0.035428         0.9641
  22   0.0000       0.040265         1.0957
  23   0.0000       0.054717         1.4889
  24   0.0000       0.062676         1.7055

MULLIKEN ATOMIC CHARGES
-----------------------
   0 O :   -0.440474
   1 N :    0.026668
   2 N :   -0.649074
   3 N :   -0.263519
   4 C :    0.473545
   5 H :    0.217445
   6 H :    0.144261
   7 H :    0.146078
   8 H :    0.176501
   9 H :    0.168568
Sum of atomic charges:    0.0000000

LOEWDIN ATOMIC CHARGES
----------------------
   0 O :    0.728591
   1 N :    0.366788
   2 N :    0.624794
   3 N :    0.839169
   4 C :   -0.609259
   5 H :   -0.498617
   6 H :   -0.332898
   7 H :   -0.460809
   8 H :   -0.305248
   9 H :   -0.352512

  Mayer bond orders larger than 0.100000
B(  0-O ,  1-N ) :   0.7808 B(  0-O ,  5-H ) :   1.0014 B(  1-N ,  4-C ) :   0.8458
B(  1-N ,  6-H ) :   1.0041 B(  2-N ,  4-C ) :   1.4602 B(  2-N ,  7-H ) :   0.9632
B(  3-N ,  4-C ) :   0.9541 B(  3-N ,  8-H ) :   0.9890 B(  3-N ,  9-H ) :   1.0429

MP2 TOTAL ENERGY:     -280.083378535 Eh
FINAL SINGLE POINT ENERGY      -280.083378535324

DIPOLE MOMENT
-------------
                                X             Y             Z
Electronic contribution:      0.80011      -0.31278       0.08511
Nuclear contribution   :      0.36572       0.38010      -0.14240
                        -----------------------------------------
Total Dipole Moment    :      1.16583       0.06732      -0.05729
                        -----------------------------------------
Magnitude (a.u.)       :      1.16917
Magnitude (Debye)      :      2.97180

Rotational constants in cm-1:     0.330971     0.142720     0.101923
Rotational constants in MHz :  9922.249972  4278.641121  3055.567086

                             ****ORCA TERMINATED NORMALLY****
TOTAL RUN TIME: 0 days 0 hours 2 minutes 3 seconds 341 msec
