                         Program Version 5.0.3 -  RELEASE  -
|  1> !ri-mp2 aug-cc-pvtz aug-cc-pvtz/c tightscf
|  2> %pal nprocs 16 end
|  3>
|  4> * xyz 0 1
|  5> C     -1.612388    0.682359    0.140260
|  6> C     -1.488887   -0.779323    0.122520
|  7> C     -0.420753    1.265282   -0.005680
|  8> N     -0.318061   -1.288315   -0.012961
|  9> O      1.964766    0.007831    0.533864
| 10> S      0.794812   -0.007586   -0.382382
| 11> H     -2.559721    1.190971    0.248025
| 12> H     -2.350133   -1.435001    0.211100
| 13> H     -0.166681    2.311049   -0.063797
| 14> *
| 15>
| 16>                          ****END OF INPUT****

CARTESIAN COORDINATES (ANGSTROEM)
---------------------------------
  C     -1.612388    0.682359    0.140260
  C     -1.488887   -0.779323    0.122520
  C     -0.420753    1.265282   -0.005680
  N     -0.318061   -1.288315   -0.012961
  O      1.964766    0.007831    0.533864
  S      0.794812   -0.007586   -0.382382
  H     -2.559721    1.190971    0.248025
  H     -2.350133   -1.435001    0.211100
  H     -0.166681    2.311049   -0.063797

 Total Charge           Charge          ....    0
 Multiplicity           Mult            ....    1
 Number of Electrons    NEL             ....   52
 Basis Dimension        Dim             ....  349

ORBITAL ENERGIES
----------------

  NO   OCC          E(Eh)            E(eV)
   0   2.0000     -92.110272     -2506.4479
   1   2.0000     -20.532728      -558.7239
   2   2.0000     -15.609140      -424.7463
   3   2.0000     -11.330453      -308.3173
   4   2.0000     -11.302105      -307.5459
   5   2.0000     -11.290799      -307.2382
   6   2.0000      -9.093301      -247.4413
   7   2.0000      -6.775002      -184.3572
   8   2.0000      -6.774784      -184.3512
   9   2.0000      -6.773237      -184.3091
  10   2.0000      -1.370700       -37.2986
  11   2.0000      -1.276738       -34.7418
  12   2.0000      -1.099614       -29.9220
  13   2.0000      -0.987659       -26.8756
  14   2.0000      -0.823579       -22.4107
  15   2.0000      -0.800359       -21.7789
  16   2.0000      -0.731519       -19.9056
  17   2.0000      -0.632078       -17.1997
  18   2.0000      -0.628159       -17.0931
  19   2.0000      -0.606123       -16.4934
  20   2.0000      -0.588899       -16.0248
  21   2.0000      -0.509813       -13.8727
  22   2.0000      -0.495890       -13.4939
  23   2.0000      -0.444823       -12.1042
  24   2.0000      -0.404981       -11.0201
  25   2.0000      -0.385264       -10.4836
  26   0.0000       0.017708         0.4819
  27   0.0000       0.028944         0.7876
  28   0.0000       0.031480         0.8566
  29   0.0000       0.040988         1.1153
  30   0.0000       0.068466         1.8630

MULLIKEN ATOMIC CHARGES
-----------------------
   0 C :   -0.209404
   1 C :   -0.397477
   2 C :   -0.469029
   3 N :   -0.508429
   4 O :   -0.851319
   5 S :    0.850324
   6 H :    0.458620
   7 H :    0.625456
   8 H :    0.501259
Sum of atomic charges:    0.0000000

LOEWDIN ATOMIC CHARGES
----------------------
   0 C :    0.116134
   1 C :   -0.138410
   2 C :    0.031095
   3 N :    0.118548
   4 O :   -0.187093
   5 S :    0.674836
   6 H :   -0.192149
   7 H :   -0.191483
   8 H :   -0.231478

  Mayer bond orders larger than 0.100000
B(  0-C ,  1-C ) :   0.8667 B(  0-C ,  2-C ) :   1.4997 B(  0-C ,  3-N ) :  -0.1093
B(  0-C ,  6-H ) :   0.8291 B(  1-C ,  3-N ) :   1.5544 B(  1-C ,  5-S ) :   0.1043
B(  1-C ,  7-H ) :   0.5534 B(  2-C ,  5-S ) :   0.9844 B(  2-C ,  8-H ) :   0.7547
B(  3-N ,  5-S ) :   0.8960 B(  4-O ,  5-S ) :   1.3804

MP2 TOTAL ENERGY:     -643.306118059 Eh
FINAL SINGLE POINT ENERGY      -643.306118058772

DIPOLE MOMENT
-------------
                                X             Y             Z
Electronic contribution:      2.72063      -1.04750      -0.84397
Nuclear contribution   :     -4.89825       1.98927       0.40124
                        -----------------------------------------
Total Dipole Moment    :     -2.17763       0.94177      -0.44273
                        -----------------------------------------
Magnitude (a.u.)       :      2.41351
Magnitude (Debye)      :      6.13464

Rotational constants in cm-1:     0.227860     0.102084     0.076772
Rotational constants in MHz :  6831.075740  3060.416284  2301.554644

                             ****ORCA TERMINATED NORMALLY****
TOTAL RUN TIME: 0 days 0 hours 2 minutes 24 seconds 464 msec
