                         Program Version 5.0.3 -  RELEASE  -
|  1> !ri-mp2 aug-cc-pvtz aug-cc-pvtz/c tightscf
|  2> %pal nprocs 16 end
|  3> %maxcore 3800
|  4>
|  5> * xyz 0 1
|  6> C      1.811591   -0.159551   -0.096424
|  7> C     -2.556321    0.066825   -0.240521
|  8> C     -1.751190    1.356259   -0.059733
|  9> C     -1.921204   -1.099327    0.521490
| 10> C     -0.281229    1.164125   -0.442828
| 11> C     -0.451165   -1.293520    0.140424
| 12> C      0.359157   -0.006631    0.338914
| 13> C      2.843613    0.624195    0.685597
| 14> O      2.127563   -0.861400   -1.032000
| 15> H     -3.586727    0.217570    0.088357
| 16> H     -2.602212   -0.181621   -1.305799
| 17> H     -2.183986    2.161109   -0.657926
| 18> H     -1.812407    1.678111    0.985184
| 19> H     -1.997578   -0.910144    1.597770
| 20> H     -2.475926   -2.020574    0.331373
| 21> H     -0.204618    0.946364   -1.511824
| 22> H      0.274902    2.088076   -0.268004
| 23> H     -0.011128   -2.101922    0.728414
| 24> H     -0.371415   -1.596118   -0.905549
| 25> H      0.351723    0.262560    1.401185
| 26> H      2.520697    1.654562    0.843527
| 27> H      2.957113    0.173697    1.675299
| 28> H      3.801543    0.605286    0.172476
| 29> *
| 30>
| 31>                          ****END OF INPUT****

CARTESIAN COORDINATES (ANGSTROEM)
---------------------------------
  C      1.811591   -0.159551   -0.096424
  C     -2.556321    0.066825   -0.240521
  C     -1.751190    1.356259   -0.059733
  C     -1.921204   -1.099327    0.521490
  C     -0.281229    1.164125   -0.442828
  C     -0.451165   -1.293520    0.140424
  C      0.359157   -0.006631    0.338914
  C      2.843613    0.624195    0.685597
  O      2.127563   -0.861400   -1.032000
  H     -3.586727    0.217570    0.088357
  H     -2.602212   -0.181621   -1.305799
  H     -2.183986    2.161109   -0.657926
  H     -1.812407    1.678111    0.985184
  H     -1.997578   -0.910144    1.597770
  H     -2.475926   -2.020574    0.331373
  H     -0.204618    0.946364   -1.511824
  H      0.274902    2.088076   -0.268004
  H     -0.011128   -2.101922    0.728414
  H     -0.371415   -1.596118   -0.905549
  H      0.351723    0.262560    1.401185
  H      2.520697    1.654562    0.843527
  H      2.957113    0.173697    1.675299
  H      3.801543    0.605286    0.172476

 Total Charge           Charge          ....    0
 Multiplicity           Mult            ....    1
 Number of Electrons    NEL             ....   70
 Basis Dimension        Dim             ....  736

ORBITAL ENERGIES
----------------

  NO   OCC          E(Eh)            E(eV)
   0   2.0000     -20.539993      -558.9216
   1   2.0000     -11.324166      -308.1462
   2   2.0000     -11.236261      -305.7542
   3   2.0000     -11.231715      -305.6305
   4   2.0000     -11.229788      -305.5781
   5   2.0000     -11.223170      -305.3980
   6   2.0000     -11.219190      -305.2897
   7   2.0000     -11.218598      -305.2736
   8   2.0000     -11.217778      -305.2512
   9   2.0000      -1.382564       -37.6215
  10   2.0000      -1.126146       -30.6440
  11   2.0000      -1.038989       -28.2723
  12   2.0000      -1.009388       -27.4669
  13   2.0000      -0.990669       -26.9575
  14   2.0000      -0.859137       -23.3783
  15   2.0000      -0.838738       -22.8232
  16   2.0000      -0.767942       -20.8968
  17   2.0000      -0.729633       -19.8543
  18   2.0000      -0.663263       -18.0483
  19   2.0000      -0.643756       -17.5175
  20   2.0000      -0.620029       -16.8718
  21   2.0000      -0.611858       -16.6495
  22   2.0000      -0.596562       -16.2333
  23   2.0000      -0.592054       -16.1106
  24   2.0000      -0.577246       -15.7077
  25   2.0000      -0.538988       -14.6666
  26   2.0000      -0.532071       -14.4784
  27   2.0000      -0.526406       -14.3242
  28   2.0000      -0.492561       -13.4033
  29   2.0000      -0.489890       -13.3306
  30   2.0000      -0.481500       -13.1023
  31   2.0000      -0.461973       -12.5709
  32   2.0000      -0.455686       -12.3999
  33   2.0000      -0.433426       -11.7941
  34   2.0000      -0.395479       -10.7615
  35   0.0000       0.025511         0.6942
  36   0.0000       0.031307         0.8519
  37   0.0000       0.032680         0.8893
  38   0.0000       0.038231         1.0403
  39   0.0000       0.046185         1.2567

MULLIKEN ATOMIC CHARGES
-----------------------
   0 C :    0.703215
   1 C :   -0.498065
   2 C :   -0.531624
   3 C :   -0.524025
   4 C :   -0.676469
   5 C :   -0.742121
   6 C :    0.577159
   7 C :   -0.921777
   8 O :   -1.027823
   9 H :    0.332635
  10 H :    0.154846
  11 H :    0.327820
  12 H :    0.136750
  13 H :    0.112267
  14 H :    0.335733
  15 H :    0.189110
  16 H :    0.302502
  17 H :    0.304426
  18 H :    0.212043
  19 H :    0.320918
  20 H :    0.299042
  21 H :    0.295339
  22 H :    0.318099
Sum of atomic charges:    0.0000000

LOEWDIN ATOMIC CHARGES
----------------------
   0 C :   -0.503207
   1 C :    0.294736
   2 C :    0.299715
   3 C :    0.297611
   4 C :    0.303054
   5 C :    0.294483
   6 C :   -0.015203
   7 C :    0.598385
   8 O :    0.484479
   9 H :   -0.142296
  10 H :   -0.139383
  11 H :   -0.140460
  12 H :   -0.139407
  13 H :   -0.140368
  14 H :   -0.140932
  15 H :   -0.132934
  16 H :   -0.141064
  17 H :   -0.133642
  18 H :   -0.145769
  19 H :   -0.137802
  20 H :   -0.174961
  21 H :   -0.166586
  22 H :   -0.178448

  Mayer bond orders larger than 0.100000
B(  0-C ,  6-C ) :   0.7146 B(  0-C ,  7-C ) :   0.8345 B(  0-C ,  8-O ) :   0.7857
B(  1-C ,  2-C ) :   0.8882 B(  1-C ,  3-C ) :   0.8827 B(  1-C ,  9-H ) :   0.8971
B(  1-C , 10-H ) :   1.0460 B(  2-C ,  4-C ) :   0.9288 B(  2-C , 11-H ) :   0.8917
B(  2-C , 12-H ) :   1.0746 B(  3-C ,  5-C ) :   0.9761 B(  3-C , 13-H ) :   1.0998
B(  3-C , 14-H ) :   0.8872 B(  4-C ,  5-C ) :   0.2298 B(  4-C ,  6-C ) :   0.7285
B(  4-C ,  8-O ) :   0.1266 B(  4-C , 15-H ) :   1.0383 B(  4-C , 16-H ) :   0.9205
B(  5-C ,  6-C ) :   0.7575 B(  5-C , 17-H ) :   0.9071 B(  5-C , 18-H ) :   1.0518
B(  6-C ,  8-O ) :   0.1095 B(  6-C , 19-H ) :   0.8236 B(  7-C , 20-H ) :   0.9555
B(  7-C , 21-H ) :   0.9427 B(  7-C , 22-H ) :   0.9553

MP2 TOTAL ENERGY:     -387.729256875 Eh
FINAL SINGLE POINT ENERGY      -387.729256875301

DIPOLE MOMENT
-------------
                                X             Y             Z
Electronic contribution:      5.04525      -2.35774      -2.37336
Nuclear contribution   :     -5.52791       3.08703       3.29000
                        -----------------------------------------
Total Dipole Moment    :     -0.48266       0.72930       0.91664
                        -----------------------------------------
Magnitude (a.u.)       :      1.26691
Magnitude (Debye)      :      3.22023

Rotational constants in cm-1:     0.103110     0.034576     0.030117
Rotational constants in MHz :  3091.156412  1036.573732   902.893852

                             ****ORCA TERMINATED NORMALLY****
TOTAL RUN TIME: 0 days 0 hours 15 minutes 45 seconds 574 msec
