                         Program Version 5.0.3 -  RELEASE  -
|  1> !ri-mp2 aug-cc-pvtz aug-cc-pvtz/c tightscf
|  2> %pal nprocs 16 end
|  3> %maxcore 3800
|  4>
|  5> * xyz 0 1
|  6> C      2.405659   -0.121060    0.246773
|  7> C      1.838083   -1.367505    0.021924
|  8> C      1.605620    1.013405    0.195074
|  9> C      0.478870   -1.458493   -0.249138
| 10> C      0.238294    0.935373   -0.073405
| 11> C     -0.337705   -0.327932   -0.297810
| 12> C     -0.578927    2.201942   -0.131830
| 13> C     -2.647406   -0.664207    0.717826
| 14> C     -1.815959   -0.498821   -0.563287
| 15> H      3.462852   -0.029350    0.457059
| 16> H      2.446720   -2.261366    0.052064
| 17> H      2.051065    1.985879    0.364968
| 18> H      0.037240   -2.430840   -0.432374
| 19> H     -1.016171    2.353512   -1.121381
| 20> H     -1.404257    2.191747    0.581999
| 21> H      0.039631    3.069984    0.091030
| 22> H     -2.324469   -1.542269    1.278281
| 23> H     -3.705954   -0.783854    0.481579
| 24> H     -2.545656    0.200048    1.374935
| 25> H     -2.198729    0.349580   -1.132566
| 26> H     -1.961452   -1.379284   -1.192367
| 27> *
| 28>
| 29>                          ****END OF INPUT****

CARTESIAN COORDINATES (ANGSTROEM)
---------------------------------
  C      2.405659   -0.121060    0.246773
  C      1.838083   -1.367505    0.021924
  C      1.605620    1.013405    0.195074
  C      0.478870   -1.458493   -0.249138
  C      0.238294    0.935373   -0.073405
  C     -0.337705   -0.327932   -0.297810
  C     -0.578927    2.201942   -0.131830
  C     -2.647406   -0.664207    0.717826
  C     -1.815959   -0.498821   -0.563287
  H      3.462852   -0.029350    0.457059
  H      2.446720   -2.261366    0.052064
  H      2.051065    1.985879    0.364968
  H      0.037240   -2.430840   -0.432374
  H     -1.016171    2.353512   -1.121381
  H     -1.404257    2.191747    0.581999
  H      0.039631    3.069984    0.091030
  H     -2.324469   -1.542269    1.278281
  H     -3.705954   -0.783854    0.481579
  H     -2.545656    0.200048    1.374935
  H     -2.198729    0.349580   -1.132566
  H     -1.961452   -1.379284   -1.192367

 Total Charge           Charge          ....    0
 Multiplicity           Mult            ....    1
 Number of Electrons    NEL             ....   66
 Basis Dimension        Dim             ....  690

ORBITAL ENERGIES
----------------

  NO   OCC          E(Eh)            E(eV)
   0   2.0000     -11.235768      -305.7408
   1   2.0000     -11.232251      -305.6451
   2   2.0000     -11.226240      -305.4815
   3   2.0000     -11.225692      -305.4666
   4   2.0000     -11.225360      -305.4576
   5   2.0000     -11.224475      -305.4335
   6   2.0000     -11.224099      -305.4233
   7   2.0000     -11.221415      -305.3502
   8   2.0000     -11.215554      -305.1907
   9   2.0000      -1.155431       -31.4409
  10   2.0000      -1.061498       -28.8848
  11   2.0000      -1.037597       -28.2344
  12   2.0000      -0.983161       -26.7532
  13   2.0000      -0.930539       -25.3213
  14   2.0000      -0.860658       -23.4197
  15   2.0000      -0.808827       -22.0093
  16   2.0000      -0.777151       -21.1473
  17   2.0000      -0.678104       -18.4521
  18   2.0000      -0.650965       -17.7137
  19   2.0000      -0.624818       -17.0022
  20   2.0000      -0.591451       -16.0942
  21   2.0000      -0.586100       -15.9486
  22   2.0000      -0.571298       -15.5458
  23   2.0000      -0.566302       -15.4099
  24   2.0000      -0.543386       -14.7863
  25   2.0000      -0.530409       -14.4332
  26   2.0000      -0.517379       -14.0786
  27   2.0000      -0.496598       -13.5131
  28   2.0000      -0.477385       -12.9903
  29   2.0000      -0.472103       -12.8466
  30   2.0000      -0.464541       -12.6408
  31   2.0000      -0.327045        -8.8993
  32   2.0000      -0.316939        -8.6244
  33   0.0000       0.029719         0.8087
  34   0.0000       0.032559         0.8860
  35   0.0000       0.032699         0.8898
  36   0.0000       0.041193         1.1209
  37   0.0000       0.044269         1.2046

MULLIKEN ATOMIC CHARGES
-----------------------
   0 C :   -0.174807
   1 C :   -0.411619
   2 C :   -0.895644
   3 C :   -1.154372
   4 C :    0.822115
   5 C :    0.853810
   6 C :   -0.838202
   7 C :   -0.963660
   8 C :   -0.452588
   9 H :    0.657015
  10 H :    0.463802
  11 H :   -0.077347
  12 H :    0.067511
  13 H :    0.259437
  14 H :    0.284291
  15 H :    0.187505
  16 H :    0.271706
  17 H :    0.267184
  18 H :    0.321063
  19 H :    0.196935
  20 H :    0.315865
Sum of atomic charges:   -0.0000000

LOEWDIN ATOMIC CHARGES
----------------------
   0 C :    0.195967
   1 C :    0.196963
   2 C :    0.212151
   3 C :    0.213388
   4 C :   -0.086304
   5 C :   -0.085455
   6 C :    0.579772
   7 C :    0.594114
   8 C :    0.262733
   9 H :   -0.186631
  10 H :   -0.186564
  11 H :   -0.184751
  12 H :   -0.176986
  13 H :   -0.165052
  14 H :   -0.171361
  15 H :   -0.178786
  16 H :   -0.167249
  17 H :   -0.168647
  18 H :   -0.175792
  19 H :   -0.165943
  20 H :   -0.155569

  Mayer bond orders larger than 0.100000
B(  0-C ,  1-C ) :   1.0171 B(  0-C ,  2-C ) :   0.9029 B(  0-C ,  4-C ) :   0.2371
B(  0-C ,  9-H ) :   0.5318 B(  0-C , 11-H ) :  -0.1592 B(  1-C ,  2-C ) :  -0.2280
B(  1-C ,  3-C ) :   1.1482 B(  1-C ,  4-C ) :   0.1430 B(  1-C , 10-H ) :   0.8409
B(  2-C ,  3-C ) :   0.1048 B(  2-C ,  4-C ) :   0.8665 B(  2-C ,  5-C ) :   0.2056
B(  2-C , 11-H ) :   1.7822 B(  3-C ,  4-C ) :  -0.1896 B(  3-C ,  5-C ) :   0.5194
B(  3-C ,  7-C ) :   0.1107 B(  3-C , 10-H ) :  -0.1346 B(  3-C , 12-H ) :   1.4611
B(  4-C ,  5-C ) :   1.0937 B(  4-C ,  6-C ) :   0.3674 B(  4-C ,  8-C ) :   0.1989
B(  4-C ,  9-H ) :  -0.1135 B(  5-C ,  8-C ) :   0.6766 B(  6-C , 13-H ) :   1.0153
B(  6-C , 14-H ) :   0.9643 B(  6-C , 15-H ) :   1.0859 B(  7-C ,  8-C ) :   0.8522
B(  7-C , 16-H ) :   0.9747 B(  7-C , 17-H ) :   0.9735 B(  7-C , 18-H ) :   0.9147
B(  8-C , 19-H ) :   1.0086 B(  8-C , 20-H ) :   0.9419 B(  9-H , 11-H ) :  -0.1070

MP2 TOTAL ENERGY:     -349.429773598 Eh
FINAL SINGLE POINT ENERGY      -349.429773598460

DIPOLE MOMENT
-------------
                                X             Y             Z
Electronic contribution:      7.10531      -1.68226      -0.85603
Nuclear contribution   :     -7.34175       1.77768       0.82834
                        -----------------------------------------
Total Dipole Moment    :     -0.23644       0.09542      -0.02769
                        -----------------------------------------
Magnitude (a.u.)       :      0.25647
Magnitude (Debye)      :      0.65190

Rotational constants in cm-1:     0.083925     0.047463     0.032915
Rotational constants in MHz :  2516.004380  1422.919739   986.755948

                             ****ORCA TERMINATED NORMALLY****
TOTAL RUN TIME: 0 days 0 hours 13 minutes 59 seconds 893 msec
