                         Program Version 5.0.3 -  RELEASE  -
|  1> !ri-mp2 aug-cc-pvtz aug-cc-pvtz/c tightscf
|  2> %pal nprocs 16 end
|  3> %maxcore 3800
|  4>
|  5> * xyz 0 1
|  6> C     0.000000     0.000000    1.162215
|  7> C     0.000000     1.146150    0.130119
|  8> C     0.000000    -1.146150    0.130119
|  9> C     1.246419     0.777460   -0.711377
| 10> C    -1.246419     0.777460   -0.711377
| 11> C    -1.246419    -0.777460   -0.711377
| 12> C     1.246419    -0.777460   -0.711377
| 13> H    -0.887511     0.000000    1.799660
| 14> H     0.887511     0.000000    1.799660
| 15> C     0.000000     2.567261    0.662990
| 16> C     0.000000    -2.567261    0.662990
| 17> H     2.149630     1.169313   -0.239900
| 18> H    -2.149630    -1.169313   -0.239900
| 19> H     2.149630    -1.169313   -0.239900
| 20> H    -2.149630     1.169313   -0.239900
| 21> H     1.195920    -1.204338   -1.714197
| 22> H    -1.195920     1.204338   -1.714197
| 23> H     1.195920     1.204338   -1.714197
| 24> H    -1.195920    -1.204338   -1.714197
| 25> H     0.882939    -2.760591    1.276063
| 26> H     0.000000    -3.294790   -0.152370
| 27> H    -0.882939    -2.760591    1.276063
| 28> H    -0.882939     2.760591    1.276063
| 29> H     0.000000     3.294790   -0.152370
| 30> H     0.882939     2.760591    1.276063
| 31> *
| 32>
| 33>                          ****END OF INPUT****

CARTESIAN COORDINATES (ANGSTROEM)
---------------------------------
  C      0.000000    0.000000    1.162215
  C      0.000000    1.146150    0.130119
  C      0.000000   -1.146150    0.130119
  C      1.246419    0.777460   -0.711377
  C     -1.246419    0.777460   -0.711377
  C     -1.246419   -0.777460   -0.711377
  C      1.246419   -0.777460   -0.711377
  H     -0.887511    0.000000    1.799660
  H      0.887511    0.000000    1.799660
  C      0.000000    2.567261    0.662990
  C      0.000000   -2.567261    0.662990
  H      2.149630    1.169313   -0.239900
  H     -2.149630   -1.169313   -0.239900
  H      2.149630   -1.169313   -0.239900
  H     -2.149630    1.169313   -0.239900
  H      1.195920   -1.204338   -1.714197
  H     -1.195920    1.204338   -1.714197
  H      1.195920    1.204338   -1.714197
  H     -1.195920   -1.204338   -1.714197
  H      0.882939   -2.760591    1.276063
  H      0.000000   -3.294790   -0.152370
  H     -0.882939   -2.760591    1.276063
  H     -0.882939    2.760591    1.276063
  H      0.000000    3.294790   -0.152370
  H      0.882939    2.760591    1.276063

 Total Charge           Charge          ....    0
 Multiplicity           Mult            ....    1
 Number of Electrons    NEL             ....   70
 Basis Dimension        Dim             ....  782

ORBITAL ENERGIES
----------------

  NO   OCC          E(Eh)            E(eV)
   0   2.0000     -11.222921      -305.3912
   1   2.0000     -11.222916      -305.3911
   2   2.0000     -11.210141      -305.0435
   3   2.0000     -11.210117      -305.0428
   4   2.0000     -11.209591      -305.0285
   5   2.0000     -11.209571      -305.0279
   6   2.0000     -11.206940      -304.9563
   7   2.0000     -11.206940      -304.9563
   8   2.0000     -11.206740      -304.9509
   9   2.0000      -1.166740       -31.7486
  10   2.0000      -1.035572       -28.1794
  11   2.0000      -0.996115       -27.1057
  12   2.0000      -0.960445       -26.1350
  13   2.0000      -0.925141       -25.1744
  14   2.0000      -0.874470       -23.7955
  15   2.0000      -0.824463       -22.4348
  16   2.0000      -0.739133       -20.1128
  17   2.0000      -0.703254       -19.1365
  18   2.0000      -0.643386       -17.5074
  19   2.0000      -0.628135       -17.0924
  20   2.0000      -0.624442       -16.9919
  21   2.0000      -0.576337       -15.6829
  22   2.0000      -0.560815       -15.2606
  23   2.0000      -0.552965       -15.0469
  24   2.0000      -0.546202       -14.8629
  25   2.0000      -0.543740       -14.7959
  26   2.0000      -0.516297       -14.0492
  27   2.0000      -0.496750       -13.5173
  28   2.0000      -0.474256       -12.9051
  29   2.0000      -0.463700       -12.6179
  30   2.0000      -0.459252       -12.4969
  31   2.0000      -0.446826       -12.1587
  32   2.0000      -0.434486       -11.8230
  33   2.0000      -0.413600       -11.2546
  34   2.0000      -0.407144       -11.0789
  35   0.0000       0.029240         0.7957
  36   0.0000       0.032718         0.8903
  37   0.0000       0.035862         0.9759
  38   0.0000       0.036304         0.9879
  39   0.0000       0.048841         1.3290

MULLIKEN ATOMIC CHARGES
-----------------------
   0 C :   -1.374837
   1 C :    1.913687
   2 C :    1.913686
   3 C :   -0.918972
   4 C :   -0.918973
   5 C :   -0.918973
   6 C :   -0.918972
   7 H :    0.242792
   8 H :    0.242792
   9 C :   -1.337373
  10 C :   -1.337373
  11 H :    0.235573
  12 H :    0.235574
  13 H :    0.235573
  14 H :    0.235574
  15 H :    0.221691
  16 H :    0.221692
  17 H :    0.221691
  18 H :    0.221692
  19 H :    0.263008
  20 H :    0.265712
  21 H :    0.263008
  22 H :    0.263008
  23 H :    0.265712
  24 H :    0.263008
Sum of atomic charges:   -0.0000000

LOEWDIN ATOMIC CHARGES
----------------------
   0 C :    0.330198
   1 C :   -0.305894
   2 C :   -0.305894
   3 C :    0.340301
   4 C :    0.340301
   5 C :    0.340301
   6 C :    0.340301
   7 H :   -0.117560
   8 H :   -0.117560
   9 C :    0.607742
  10 C :    0.607742
  11 H :   -0.138825
  12 H :   -0.138825
  13 H :   -0.138825
  14 H :   -0.138825
  15 H :   -0.137857
  16 H :   -0.137857
  17 H :   -0.137857
  18 H :   -0.137857
  19 H :   -0.160693
  20 H :   -0.155239
  21 H :   -0.160693
  22 H :   -0.160693
  23 H :   -0.155239
  24 H :   -0.160693

  Mayer bond orders larger than 0.100000
B(  0-C ,  1-C ) :   0.6178 B(  0-C ,  2-C ) :   0.6178 B(  0-C ,  3-C ) :   0.2142
B(  0-C ,  4-C ) :   0.2142 B(  0-C ,  5-C ) :   0.2142 B(  0-C ,  6-C ) :   0.2142
B(  0-C ,  7-H ) :   1.0288 B(  0-C ,  8-H ) :   1.0288 B(  1-C ,  3-C ) :   0.5429
B(  1-C ,  4-C ) :   0.5429 B(  1-C ,  5-C ) :  -0.1725 B(  1-C ,  6-C ) :  -0.1725
B(  1-C ,  9-C ) :   0.1842 B(  1-C , 22-H ) :  -0.1204 B(  1-C , 23-H ) :  -0.1290
B(  1-C , 24-H ) :  -0.1204 B(  2-C ,  3-C ) :  -0.1725 B(  2-C ,  4-C ) :  -0.1725
B(  2-C ,  5-C ) :   0.5429 B(  2-C ,  6-C ) :   0.5429 B(  2-C , 10-C ) :   0.1842
B(  2-C , 19-H ) :  -0.1204 B(  2-C , 20-H ) :  -0.1290 B(  2-C , 21-H ) :  -0.1204
B(  3-C ,  6-C ) :   1.2203 B(  3-C , 11-H ) :   0.9948 B(  3-C , 17-H ) :   1.0727
B(  4-C ,  5-C ) :   1.2203 B(  4-C , 14-H ) :   0.9948 B(  4-C , 16-H ) :   1.0727
B(  5-C , 12-H ) :   0.9948 B(  5-C , 18-H ) :   1.0727 B(  6-C , 13-H ) :   0.9948
B(  6-C , 15-H ) :   1.0727 B(  9-C , 22-H ) :   1.0589 B(  9-C , 23-H ) :   1.1015
B(  9-C , 24-H ) :   1.0589 B( 10-C , 19-H ) :   1.0589 B( 10-C , 20-H ) :   1.1015
B( 10-C , 21-H ) :   1.0589

MP2 TOTAL ENERGY:     -351.828914396 Eh
FINAL SINGLE POINT ENERGY      -351.828914395671

DIPOLE MOMENT
-------------
                                X             Y             Z
Electronic contribution:     -0.00000       0.00000      -0.60774
Nuclear contribution   :      0.00000      -0.00000       0.61638
                        -----------------------------------------
Total Dipole Moment    :     -0.00000       0.00000       0.00864
                        -----------------------------------------
Magnitude (a.u.)       :      0.00864
Magnitude (Debye)      :      0.02196

Rotational constants in cm-1:     0.093399     0.046877     0.043598
Rotational constants in MHz :  2800.040360  1405.329692  1307.026462

                             ****ORCA TERMINATED NORMALLY****
TOTAL RUN TIME: 0 days 0 hours 19 minutes 50 seconds 664 msec
