                         Program Version 5.0.3 -  RELEASE  -
|  1> !ri-mp2 aug-cc-pvtz aug-cc-pvtz/c tightscf
|  2> %pal nprocs 16 end
|  3> %maxcore 3800
|  4>
|  5> * xyz 0 1
|  6> C     -3.078529   -1.367977    1.210348
|  7> C     -2.305286   -0.296520    1.197245
|  8> S     -1.653876    0.347458   -0.339227
|  9> O     -2.103694   -0.521011   -1.422004
| 10> O     -1.949843    1.776690   -0.353711
| 11> C      0.119813    0.156743   -0.166060
| 12> C      0.875233    1.211605    0.329411
| 13> C      2.250170    1.058628    0.455227
| 14> C      2.880484   -0.132464    0.093069
| 15> C      4.367008   -0.302232    0.252868
| 16> C      2.095867   -1.173407   -0.412746
| 17> C      0.722573   -1.038461   -0.544117
| 18> H     -3.301679   -1.900515    0.295654
| 19> H     -3.514621   -1.728332    2.132549
| 20> H     -2.049479    0.296576    2.064631
| 21> H      0.392477    2.143116    0.587644
| 22> H      2.842356    1.882699    0.831571
| 23> H      4.794103   -0.860951   -0.579957
| 24> H      4.597393   -0.855973    1.166365
| 25> H      4.873811    0.659644    0.314839
| 26> H      2.568975   -2.098441   -0.716657
| 27> H      0.122971   -1.838083   -0.954756
| 28> *
| 29>
| 30>                          ****END OF INPUT****

CARTESIAN COORDINATES (ANGSTROEM)
---------------------------------
  C     -3.078529   -1.367977    1.210348
  C     -2.305286   -0.296520    1.197245
  S     -1.653876    0.347458   -0.339227
  O     -2.103694   -0.521011   -1.422004
  O     -1.949843    1.776690   -0.353711
  C      0.119813    0.156743   -0.166060
  C      0.875233    1.211605    0.329411
  C      2.250170    1.058628    0.455227
  C      2.880484   -0.132464    0.093069
  C      4.367008   -0.302232    0.252868
  C      2.095867   -1.173407   -0.412746
  C      0.722573   -1.038461   -0.544117
  H     -3.301679   -1.900515    0.295654
  H     -3.514621   -1.728332    2.132549
  H     -2.049479    0.296576    2.064631
  H      0.392477    2.143116    0.587644
  H      2.842356    1.882699    0.831571
  H      4.794103   -0.860951   -0.579957
  H      4.597393   -0.855973    1.166365
  H      4.873811    0.659644    0.314839
  H      2.568975   -2.098441   -0.716657
  H      0.122971   -1.838083   -0.954756

 Total Charge           Charge          ....    0
 Multiplicity           Mult            ....    1
 Number of Electrons    NEL             ....   96
 Basis Dimension        Dim             ....  786

ORBITAL ENERGIES
----------------

  NO   OCC          E(Eh)            E(eV)
   0   2.0000     -92.181457     -2508.3850
   1   2.0000     -20.541097      -558.9517
   2   2.0000     -20.539022      -558.8952
   3   2.0000     -11.276638      -306.8529
   4   2.0000     -11.273010      -306.7542
   5   2.0000     -11.269531      -306.6595
   6   2.0000     -11.269350      -306.6546
   7   2.0000     -11.263505      -306.4956
   8   2.0000     -11.263268      -306.4891
   9   2.0000     -11.249785      -306.1222
  10   2.0000     -11.249513      -306.1148
  11   2.0000     -11.240729      -305.8758
  12   2.0000      -9.149965      -248.9832
  13   2.0000      -6.834563      -185.9779
  14   2.0000      -6.834421      -185.9740
  15   2.0000      -6.834213      -185.9684
  16   2.0000      -1.439634       -39.1744
  17   2.0000      -1.329352       -36.1735
  18   2.0000      -1.184147       -32.2223
  19   2.0000      -1.095671       -29.8147
  20   2.0000      -1.075168       -29.2568
  21   2.0000      -1.040061       -28.3015
  22   2.0000      -0.974716       -26.5234
  23   2.0000      -0.907871       -24.7044
  24   2.0000      -0.855207       -23.2714
  25   2.0000      -0.827652       -22.5216
  26   2.0000      -0.780669       -21.2431
  27   2.0000      -0.726076       -19.7575
  28   2.0000      -0.689471       -18.7614
  29   2.0000      -0.670624       -18.2486
  30   2.0000      -0.655490       -17.8368
  31   2.0000      -0.652684       -17.7604
  32   2.0000      -0.626734       -17.0543
  33   2.0000      -0.617021       -16.7900
  34   2.0000      -0.610414       -16.6102
  35   2.0000      -0.594771       -16.1846
  36   2.0000      -0.572323       -15.5737
  37   2.0000      -0.559829       -15.2337
  38   2.0000      -0.531413       -14.4605
  39   2.0000      -0.520301       -14.1581
  40   2.0000      -0.511600       -13.9213
  41   2.0000      -0.494676       -13.4608
  42   2.0000      -0.489332       -13.3154
  43   2.0000      -0.469219       -12.7681
  44   2.0000      -0.438149       -11.9226
  45   2.0000      -0.420672       -11.4471
  46   2.0000      -0.359212        -9.7747
  47   2.0000      -0.353414        -9.6169
  48   0.0000       0.022540         0.6133
  49   0.0000       0.026667         0.7256
  50   0.0000       0.031115         0.8467
  51   0.0000       0.038874         1.0578
  52   0.0000       0.039542         1.0760

MULLIKEN ATOMIC CHARGES
-----------------------
   0 C :   -1.113963
   1 C :   -0.401316
   2 S :    2.037803
   3 O :   -1.061894
   4 O :   -1.084253
   5 C :    0.974373
   6 C :   -0.872755
   7 C :   -0.626302
   8 C :    1.336133
   9 C :   -0.933959
  10 C :   -0.872883
  11 C :   -0.880000
  12 H :    0.405830
  13 H :    0.423717
  14 H :    0.501129
  15 H :    0.460555
  16 H :    0.168266
  17 H :    0.291568
  18 H :    0.319465
  19 H :    0.260399
  20 H :    0.195639
  21 H :    0.472447
Sum of atomic charges:   -0.0000000

LOEWDIN ATOMIC CHARGES
----------------------
   0 C :    0.486655
   1 C :    0.077781
   2 S :    0.239529
   3 O :    0.045054
   4 O :    0.034507
   5 C :   -0.242421
   6 C :    0.170984
   7 C :    0.228923
   8 C :   -0.110755
   9 C :    0.589177
  10 C :    0.228020
  11 C :    0.171723
  12 H :   -0.234683
  13 H :   -0.212528
  14 H :   -0.230206
  15 H :   -0.195629
  16 H :   -0.177912
  17 H :   -0.169547
  18 H :   -0.160144
  19 H :   -0.174997
  20 H :   -0.174630
  21 H :   -0.188900

  Mayer bond orders larger than 0.100000
B(  0-C ,  1-C ) :   1.3414 B(  0-C , 12-H ) :   0.8652 B(  0-C , 13-H ) :   0.8243
B(  1-C ,  2-S ) :   1.0537 B(  1-C ,  4-O ) :   0.1744 B(  1-C ,  5-C ) :   0.2630
B(  1-C , 14-H ) :   0.6772 B(  2-S ,  3-O ) :   1.0760 B(  2-S ,  4-O ) :   0.9778
B(  2-S ,  5-C ) :   1.0761 B(  2-S ,  6-C ) :  -0.1288 B(  2-S , 11-C ) :  -0.1439
B(  3-O ,  5-C ) :   0.1908 B(  3-O , 10-C ) :  -0.1164 B(  4-O ,  5-C ) :   0.2113
B(  5-C ,  6-C ) :   0.6802 B(  5-C ,  7-C ) :  -0.1667 B(  5-C , 10-C ) :  -0.2265
B(  5-C , 11-C ) :   0.7707 B(  6-C ,  7-C ) :   1.2450 B(  6-C ,  8-C ) :   0.2103
B(  6-C , 11-C ) :   0.2314 B(  6-C , 15-H ) :   0.6887 B(  7-C ,  8-C ) :   0.7586
B(  7-C , 10-C ) :  -0.1575 B(  7-C , 16-H ) :   1.3255 B(  8-C ,  9-C ) :   0.3850
B(  8-C , 10-C ) :   0.6502 B(  8-C , 11-C ) :   0.1349 B(  8-C , 16-H ) :  -0.1457
B(  8-C , 20-H ) :  -0.1430 B(  9-C , 10-C ) :   0.1686 B(  9-C , 17-H ) :   1.0024
B(  9-C , 18-H ) :   0.9441 B(  9-C , 19-H ) :   1.0175 B( 10-C , 11-C ) :   1.3487
B( 10-C , 20-H ) :   1.2901 B( 11-C , 21-H ) :   0.6971

MP2 TOTAL ENERGY:     -896.153668110 Eh
FINAL SINGLE POINT ENERGY      -896.153668109508

DIPOLE MOMENT
-------------
                                X             Y             Z
Electronic contribution:     -9.70789       3.20735      -3.54387
Nuclear contribution   :     11.19288      -4.24546       5.06975
                        -----------------------------------------
Total Dipole Moment    :      1.48499      -1.03811       1.52588
                        -----------------------------------------
Magnitude (a.u.)       :      2.36879
Magnitude (Debye)      :      6.02098

Rotational constants in cm-1:     0.063497     0.015875     0.014860
Rotational constants in MHz :  1903.584436   475.934403   445.483236

                             ****ORCA TERMINATED NORMALLY****
TOTAL RUN TIME: 0 days 0 hours 20 minutes 31 seconds 114 msec
