                         Program Version 5.0.3 -  RELEASE  -
|  1> !ri-mp2 aug-cc-pvtz aug-cc-pvtz/c tightscf
|  2> %pal nprocs 16 end
|  3> %maxcore 3800
|  4>
|  5> * xyz 0 1
|  6> C    -2.671994    -0.703009    0.000000
|  7> C    -2.671994     0.703009    0.000000
|  8> C    -1.484704    -1.389843    0.000000
|  9> C    -1.484704     1.389843    0.000000
| 10> C     2.165927    -0.704380    0.000000
| 11> C     2.165927     0.704380    0.000000
| 12> C    -0.238733    -0.715972    0.000000
| 13> C    -0.238733     0.715972    0.000000
| 14> C     1.000485    -1.427436    0.000000
| 15> C     1.000485     1.427436    0.000000
| 16> C     1.037034    -2.932491    0.000000
| 17> C     1.037034     2.932491    0.000000
| 18> H    -3.609860    -1.242469    0.000000
| 19> H    -3.609860     1.242469    0.000000
| 20> H    -1.499421    -2.470177    0.000000
| 21> H    -1.499421     2.470177    0.000000
| 22> H     3.114870    -1.226313    0.000000
| 23> H     3.114870     1.226313    0.000000
| 24> H     2.065976    -3.288434    0.000000
| 25> H     0.540170    -3.350821    0.878303
| 26> H     0.540170    -3.350821   -0.878303
| 27> H     0.540170     3.350821    0.878303
| 28> H     2.065976     3.288434    0.000000
| 29> H     0.540170     3.350821   -0.878303
| 30> *
| 31>
| 32>                          ****END OF INPUT****

CARTESIAN COORDINATES (ANGSTROEM)
---------------------------------
  C     -2.671994   -0.703009    0.000000
  C     -2.671994    0.703009    0.000000
  C     -1.484704   -1.389843    0.000000
  C     -1.484704    1.389843    0.000000
  C      2.165927   -0.704380    0.000000
  C      2.165927    0.704380    0.000000
  C     -0.238733   -0.715972    0.000000
  C     -0.238733    0.715972    0.000000
  C      1.000485   -1.427436    0.000000
  C      1.000485    1.427436    0.000000
  C      1.037034   -2.932491    0.000000
  C      1.037034    2.932491    0.000000
  H     -3.609860   -1.242469    0.000000
  H     -3.609860    1.242469    0.000000
  H     -1.499421   -2.470177    0.000000
  H     -1.499421    2.470177    0.000000
  H      3.114870   -1.226313    0.000000
  H      3.114870    1.226313    0.000000
  H      2.065976   -3.288434    0.000000
  H      0.540170   -3.350821    0.878303
  H      0.540170   -3.350821   -0.878303
  H      0.540170    3.350821    0.878303
  H      2.065976    3.288434    0.000000
  H      0.540170    3.350821   -0.878303

 Total Charge           Charge          ....    0
 Multiplicity           Mult            ....    1
 Number of Electrons    NEL             ....   84
 Basis Dimension        Dim             ....  828

ORBITAL ENERGIES
----------------

  NO   OCC          E(Eh)            E(eV)
   0   2.0000     -11.239976      -305.8553
   1   2.0000     -11.239092      -305.8312
   2   2.0000     -11.237959      -305.8004
   3   2.0000     -11.237843      -305.7973
   4   2.0000     -11.233190      -305.6706
   5   2.0000     -11.232493      -305.6517
   6   2.0000     -11.231511      -305.6249
   7   2.0000     -11.231089      -305.6135
   8   2.0000     -11.226041      -305.4761
   9   2.0000     -11.224934      -305.4460
  10   2.0000     -11.222474      -305.3790
  11   2.0000     -11.222474      -305.3790
  12   2.0000      -1.177248       -32.0345
  13   2.0000      -1.112382       -30.2695
  14   2.0000      -1.077807       -29.3286
  15   2.0000      -1.005126       -27.3509
  16   2.0000      -1.000988       -27.2383
  17   2.0000      -0.974031       -26.5047
  18   2.0000      -0.896188       -24.3865
  19   2.0000      -0.844411       -22.9776
  20   2.0000      -0.837800       -22.7977
  21   2.0000      -0.769935       -20.9510
  22   2.0000      -0.701396       -19.0860
  23   2.0000      -0.691652       -18.8208
  24   2.0000      -0.661662       -18.0047
  25   2.0000      -0.624109       -16.9829
  26   2.0000      -0.606638       -16.5075
  27   2.0000      -0.583408       -15.8753
  28   2.0000      -0.580665       -15.8007
  29   2.0000      -0.573748       -15.6125
  30   2.0000      -0.571000       -15.5377
  31   2.0000      -0.549134       -14.9427
  32   2.0000      -0.540577       -14.7098
  33   2.0000      -0.528073       -14.3696
  34   2.0000      -0.518353       -14.1051
  35   2.0000      -0.510427       -13.8894
  36   2.0000      -0.476804       -12.9745
  37   2.0000      -0.464143       -12.6300
  38   2.0000      -0.440248       -11.9798
  39   2.0000      -0.368690       -10.0326
  40   2.0000      -0.317086        -8.6283
  41   2.0000      -0.280338        -7.6284
  42   0.0000       0.029185         0.7942
  43   0.0000       0.029424         0.8007
  44   0.0000       0.031153         0.8477
  45   0.0000       0.041318         1.1243
  46   0.0000       0.042012         1.1432

MULLIKEN ATOMIC CHARGES
-----------------------
   0 C :   -0.495731
   1 C :   -0.495648
   2 C :   -1.077968
   3 C :   -1.077896
   4 C :   -0.743435
   5 C :   -0.743531
   6 C :    1.154298
   7 C :    1.154371
   8 C :    0.879481
   9 C :    0.879330
  10 C :   -0.972582
  11 C :   -0.972509
  12 H :    0.581758
  13 H :    0.581760
  14 H :   -0.217519
  15 H :   -0.217616
  16 H :    0.153880
  17 H :    0.153873
  18 H :    0.223926
  19 H :    0.256940
  20 H :    0.256940
  21 H :    0.256960
  22 H :    0.223960
  23 H :    0.256960
Sum of atomic charges:    0.0000000

LOEWDIN ATOMIC CHARGES
----------------------
   0 C :    0.209019
   1 C :    0.209019
   2 C :    0.225672
   3 C :    0.225672
   4 C :    0.224805
   5 C :    0.224805
   6 C :   -0.076361
   7 C :   -0.076361
   8 C :   -0.087542
   9 C :   -0.087542
  10 C :    0.572005
  11 C :    0.572005
  12 H :   -0.184017
  13 H :   -0.184017
  14 H :   -0.194842
  15 H :   -0.194842
  16 H :   -0.181496
  17 H :   -0.181496
  18 H :   -0.178808
  19 H :   -0.164219
  20 H :   -0.164219
  21 H :   -0.164219
  22 H :   -0.178808
  23 H :   -0.164219

  Mayer bond orders larger than 0.100000
B(  0-C ,  1-C ) :   0.9553 B(  0-C ,  2-C ) :   0.9334 B(  0-C ,  6-C ) :   0.4312
B(  0-C ,  7-C ) :  -0.1595 B(  0-C ,  9-C ) :   0.1899 B(  0-C , 12-H ) :   0.5476
B(  0-C , 14-H ) :  -0.1941 B(  1-C ,  3-C ) :   0.9331 B(  1-C ,  6-C ) :  -0.1594
B(  1-C ,  7-C ) :   0.4311 B(  1-C ,  8-C ) :   0.1898 B(  1-C , 13-H ) :   0.5476
B(  1-C , 15-H ) :  -0.1942 B(  2-C ,  3-C ) :   0.2003 B(  2-C ,  6-C ) :  -0.3968
B(  2-C ,  7-C ) :  -0.3207 B(  2-C ,  8-C ) :   0.8940 B(  2-C , 10-C ) :  -0.1084
B(  2-C , 12-H ) :  -0.2217 B(  2-C , 14-H ) :   2.2000 B(  3-C ,  6-C ) :  -0.3207
B(  3-C ,  7-C ) :  -0.3971 B(  3-C ,  9-C ) :   0.8941 B(  3-C , 11-C ) :  -0.1084
B(  3-C , 13-H ) :  -0.2217 B(  3-C , 15-H ) :   2.2001 B(  4-C ,  5-C ) :   0.6308
B(  4-C ,  6-C ) :   0.4612 B(  4-C ,  8-C ) :   0.5699 B(  4-C ,  9-C ) :   0.2433
B(  4-C , 10-C ) :  -0.1416 B(  4-C , 15-H ) :  -0.1055 B(  4-C , 16-H ) :   1.2571
B(  4-C , 17-H ) :  -0.1470 B(  5-C ,  7-C ) :   0.4613 B(  5-C ,  8-C ) :   0.2433
B(  5-C ,  9-C ) :   0.5696 B(  5-C , 11-C ) :  -0.1416 B(  5-C , 14-H ) :  -0.1056
B(  5-C , 16-H ) :  -0.1470 B(  5-C , 17-H ) :   1.2572 B(  6-C ,  8-C ) :   0.1584
B(  6-C ,  9-C ) :   0.2795 B(  6-C , 10-C ) :   0.2714 B(  6-C , 12-H ) :  -0.1804
B(  6-C , 13-H ) :   0.1398 B(  7-C ,  8-C ) :   0.2795 B(  7-C ,  9-C ) :   0.1584
B(  7-C , 11-C ) :   0.2714 B(  7-C , 12-H ) :   0.1397 B(  7-C , 13-H ) :  -0.1802
B(  8-C ,  9-C ) :   0.3219 B(  8-C , 10-C ) :   0.2302 B(  8-C , 19-H ) :  -0.1280
B(  8-C , 20-H ) :  -0.1280 B(  9-C , 11-C ) :   0.2302 B(  9-C , 21-H ) :  -0.1280
B(  9-C , 23-H ) :  -0.1280 B( 10-C , 18-H ) :   1.0466 B( 10-C , 19-H ) :   1.0645
B( 10-C , 20-H ) :   1.0645 B( 11-C , 21-H ) :   1.0645 B( 11-C , 22-H ) :   1.0466
B( 11-C , 23-H ) :   1.0645 B( 12-H , 16-H ) :   0.1020 B( 13-H , 17-H ) :   0.1021

MP2 TOTAL ENERGY:     -463.531189560 Eh
FINAL SINGLE POINT ENERGY      -463.531189559832

DIPOLE MOMENT
-------------
                                X             Y             Z
Electronic contribution:     -2.30117      -0.00000      -0.00000
Nuclear contribution   :      2.32638      -0.00000       0.00000
                        -----------------------------------------
Total Dipole Moment    :      0.02520      -0.00000      -0.00000
                        -----------------------------------------
Magnitude (a.u.)       :      0.02520
Magnitude (Debye)      :      0.06406

Rotational constants in cm-1:     0.039511     0.037327     0.019331
Rotational constants in MHz :  1184.506011  1119.032012   579.523922

                             ****ORCA TERMINATED NORMALLY****
TOTAL RUN TIME: 0 days 0 hours 26 minutes 59 seconds 145 msec
