                         Program Version 5.0.3 -  RELEASE  -
|  1> !ri-mp2 aug-cc-pvtz aug-cc-pvtz/c tightscf
|  2> %pal nprocs 16 end
|  3> %maxcore 3800
|  4>
|  5> * xyz 0 1
|  6> C     -0.801844    2.711310   -0.338818
|  7> C     -1.556490    1.634435    0.440931
|  8> C     -1.752233    0.321404   -0.321811
|  9> S     -0.564304   -1.020795    0.008601
| 10> O     -0.486101   -1.205289    1.457548
| 11> C      1.079145   -0.500005   -0.592572
| 12> C      1.950093    0.217261    0.432281
| 13> C      3.350553    0.492327   -0.118099
| 14> O     -0.983323   -2.133534   -0.842642
| 15> H      0.202285    2.392866   -0.619062
| 16> H     -0.702543    3.619858    0.255426
| 17> H     -1.332410    2.972547   -1.256124
| 18> H     -2.546727    2.017284    0.694565
| 19> H     -1.068499    1.426270    1.394331
| 20> H     -1.766872    0.450649   -1.403970
| 21> H     -2.678996   -0.177479   -0.036482
| 22> H      0.908147    0.085211   -1.496916
| 23> H      1.520929   -1.450450   -0.895032
| 24> H      2.010961   -0.398610    1.328781
| 25> H      1.485259    1.155553    0.736171
| 26> H      3.854470   -0.434566   -0.397124
| 27> H      3.316961    1.131141   -1.002632
| 28> H      3.965955    0.992641    0.629730
| 29> *
| 30>
| 31>                          ****END OF INPUT****

CARTESIAN COORDINATES (ANGSTROEM)
---------------------------------
  C     -0.801844    2.711310   -0.338818
  C     -1.556490    1.634435    0.440931
  C     -1.752233    0.321404   -0.321811
  S     -0.564304   -1.020795    0.008601
  O     -0.486101   -1.205289    1.457548
  C      1.079145   -0.500005   -0.592572
  C      1.950093    0.217261    0.432281
  C      3.350553    0.492327   -0.118099
  O     -0.983323   -2.133534   -0.842642
  H      0.202285    2.392866   -0.619062
  H     -0.702543    3.619858    0.255426
  H     -1.332410    2.972547   -1.256124
  H     -2.546727    2.017284    0.694565
  H     -1.068499    1.426270    1.394331
  H     -1.766872    0.450649   -1.403970
  H     -2.678996   -0.177479   -0.036482
  H      0.908147    0.085211   -1.496916
  H      1.520929   -1.450450   -0.895032
  H      2.010961   -0.398610    1.328781
  H      1.485259    1.155553    0.736171
  H      3.854470   -0.434566   -0.397124
  H      3.316961    1.131141   -1.002632
  H      3.965955    0.992641    0.629730

 Total Charge           Charge          ....    0
 Multiplicity           Mult            ....    1
 Number of Electrons    NEL             ....   82
 Basis Dimension        Dim             ....  740

ORBITAL ENERGIES
----------------

  NO   OCC          E(Eh)            E(eV)
   0   2.0000     -92.168850     -2508.0419
   1   2.0000     -20.534909      -558.7833
   2   2.0000     -20.533094      -558.7339
   3   2.0000     -11.276114      -306.8387
   4   2.0000     -11.276014      -306.8359
   5   2.0000     -11.250953      -306.1540
   6   2.0000     -11.245754      -306.0125
   7   2.0000     -11.237032      -305.7752
   8   2.0000     -11.232490      -305.6516
   9   2.0000      -9.139020      -248.6854
  10   2.0000      -6.823378      -185.6736
  11   2.0000      -6.823035      -185.6642
  12   2.0000      -6.822938      -185.6616
  13   2.0000      -1.431598       -38.9557
  14   2.0000      -1.320969       -35.9454
  15   2.0000      -1.105857       -30.0919
  16   2.0000      -1.088326       -29.6149
  17   2.0000      -1.001201       -27.2441
  18   2.0000      -0.968790       -26.3621
  19   2.0000      -0.867809       -23.6143
  20   2.0000      -0.840090       -22.8600
  21   2.0000      -0.787785       -21.4367
  22   2.0000      -0.691410       -18.8142
  23   2.0000      -0.678894       -18.4736
  24   2.0000      -0.649289       -17.6680
  25   2.0000      -0.636156       -17.3107
  26   2.0000      -0.626582       -17.0502
  27   2.0000      -0.614412       -16.7190
  28   2.0000      -0.594675       -16.1819
  29   2.0000      -0.583945       -15.8900
  30   2.0000      -0.567075       -15.4309
  31   2.0000      -0.545848       -14.8533
  32   2.0000      -0.528353       -14.3772
  33   2.0000      -0.513565       -13.9748
  34   2.0000      -0.512058       -13.9338
  35   2.0000      -0.505062       -13.7434
  36   2.0000      -0.500862       -13.6291
  37   2.0000      -0.478520       -13.0212
  38   2.0000      -0.475499       -12.9390
  39   2.0000      -0.456967       -12.4347
  40   2.0000      -0.418120       -11.3776
  41   0.0000       0.021485         0.5846
  42   0.0000       0.029181         0.7941
  43   0.0000       0.031626         0.8606
  44   0.0000       0.037312         1.0153
  45   0.0000       0.045904         1.2491

MULLIKEN ATOMIC CHARGES
-----------------------
   0 C :   -1.003005
   1 C :   -0.416261
   2 C :   -0.629597
   3 S :    2.321789
   4 O :   -1.098553
   5 C :   -0.579464
   6 C :   -0.411648
   7 C :   -0.961298
   8 O :   -1.101374
   9 H :    0.415786
  10 H :    0.269268
  11 H :    0.211642
  12 H :    0.346298
  13 H :    0.208735
  14 H :    0.273283
  15 H :    0.263383
  16 H :    0.214959
  17 H :    0.292294
  18 H :    0.320674
  19 H :    0.233191
  20 H :    0.271147
  21 H :    0.285115
  22 H :    0.273635
Sum of atomic charges:    0.0000000

LOEWDIN ATOMIC CHARGES
----------------------
   0 C :    0.582671
   1 C :    0.246928
   2 C :    0.218634
   3 S :    0.313211
   4 O :    0.036580
   5 C :    0.206987
   6 C :    0.223440
   7 C :    0.589633
   8 O :    0.025609
   9 H :   -0.196338
  10 H :   -0.162052
  11 H :   -0.165562
  12 H :   -0.150475
  13 H :   -0.169048
  14 H :   -0.188014
  15 H :   -0.192781
  16 H :   -0.184364
  17 H :   -0.190967
  18 H :   -0.163066
  19 H :   -0.177719
  20 H :   -0.167759
  21 H :   -0.168263
  22 H :   -0.167285

  Mayer bond orders larger than 0.100000
B(  0-C ,  1-C ) :   0.8395 B(  0-C ,  9-H ) :   0.8422 B(  0-C , 10-H ) :   0.9973
B(  0-C , 11-H ) :   1.0318 B(  1-C ,  2-C ) :   0.9308 B(  1-C , 12-H ) :   0.8772
B(  1-C , 13-H ) :   1.0340 B(  2-C ,  3-S ) :   0.9479 B(  2-C ,  4-O ) :   0.1303
B(  2-C , 14-H ) :   0.9069 B(  2-C , 15-H ) :   0.9476 B(  3-S ,  4-O ) :   1.0003
B(  3-S ,  5-C ) :   1.0424 B(  3-S ,  8-O ) :   0.8394 B(  4-O ,  5-C ) :   0.1738
B(  5-C ,  6-C ) :   0.8876 B(  5-C ,  8-O ) :   0.1147 B(  5-C , 16-H ) :   1.0084
B(  5-C , 17-H ) :   0.8613 B(  6-C ,  7-C ) :   0.8334 B(  6-C , 18-H ) :   0.9272
B(  6-C , 19-H ) :   0.9692 B(  7-C , 20-H ) :   0.9701 B(  7-C , 21-H ) :   0.9594
B(  7-C , 22-H ) :   0.9848

MP2 TOTAL ENERGY:     -784.491359852 Eh
FINAL SINGLE POINT ENERGY      -784.491359852075

DIPOLE MOMENT
-------------
                                X             Y             Z
Electronic contribution:     -6.76697     -12.09065       1.47367
Nuclear contribution   :      7.34273      14.10675      -2.11052
                        -----------------------------------------
Total Dipole Moment    :      0.57576       2.01610      -0.63685
                        -----------------------------------------
Magnitude (a.u.)       :      2.19129
Magnitude (Debye)      :      5.56981

Rotational constants in cm-1:     0.046021     0.038294     0.025318
Rotational constants in MHz :  1379.678229  1148.016151   759.028371

                             ****ORCA TERMINATED NORMALLY****
TOTAL RUN TIME: 0 days 0 hours 14 minutes 51 seconds 665 msec
