                         Program Version 5.0.3 -  RELEASE  -
|  1> !ri-mp2 aug-cc-pvtz aug-cc-pvtz/c tightscf
|  2> %pal nprocs 16 end
|  3> %maxcore 3800
|  4>
|  5> * xyz 0 1
|  6> C     -3.194575   -0.313665    0.532954
|  7> C     -1.888732   -0.508814    1.083438
|  8> C     -3.009799    0.096865   -0.744869
|  9> C     -1.019311   -0.203012    0.091580
| 10> C      3.135362   -0.257975   -0.067413
| 11> C      2.506179    0.937102    0.061393
| 12> C      2.396422   -1.469775   -0.153237
| 13> C      1.044926   -1.406409   -0.107584
| 14> C      1.064931    1.048883    0.123453
| 15> N      0.385002   -0.209485    0.027326
| 16> O      0.429863    2.079331    0.252424
| 17> O     -1.682395    0.164204   -1.036752
| 18> H     -4.138874   -0.452415    1.029472
| 19> H     -1.631730   -0.812260    2.082940
| 20> H     -3.678984    0.370087   -1.539794
| 21> H      4.216627   -0.293566   -0.105985
| 22> H      3.049817    1.867462    0.131301
| 23> H      2.886862   -2.424324   -0.258784
| 24> H      0.409095   -2.276074   -0.174091
| 25> *
| 26>
| 27>                          ****END OF INPUT****

CARTESIAN COORDINATES (ANGSTROEM)
---------------------------------
  C     -3.194575   -0.313665    0.532954
  C     -1.888732   -0.508814    1.083438
  C     -3.009799    0.096865   -0.744869
  C     -1.019311   -0.203012    0.091580
  C      3.135362   -0.257975   -0.067413
  C      2.506179    0.937102    0.061393
  C      2.396422   -1.469775   -0.153237
  C      1.044926   -1.406409   -0.107584
  C      1.064931    1.048883    0.123453
  N      0.385002   -0.209485    0.027326
  O      0.429863    2.079331    0.252424
  O     -1.682395    0.164204   -1.036752
  H     -4.138874   -0.452415    1.029472
  H     -1.631730   -0.812260    2.082940
  H     -3.678984    0.370087   -1.539794
  H      4.216627   -0.293566   -0.105985
  H      3.049817    1.867462    0.131301
  H      2.886862   -2.424324   -0.258784
  H      0.409095   -2.276074   -0.174091

 Total Charge           Charge          ....    0
 Multiplicity           Mult            ....    1
 Number of Electrons    NEL             ....   84
 Basis Dimension        Dim             ....  713

ORBITAL ENERGIES
----------------

  NO   OCC          E(Eh)            E(eV)
   0   2.0000     -20.632109      -561.4282
   1   2.0000     -20.518680      -558.3417
   2   2.0000     -15.637559      -425.5196
   3   2.0000     -11.359696      -309.1130
   4   2.0000     -11.334286      -308.4216
   5   2.0000     -11.311663      -307.8060
   6   2.0000     -11.295402      -307.3635
   7   2.0000     -11.274487      -306.7944
   8   2.0000     -11.242412      -305.9216
   9   2.0000     -11.241746      -305.9035
  10   2.0000     -11.241616      -305.8999
  11   2.0000     -11.237077      -305.7764
  12   2.0000      -1.475198       -40.1422
  13   2.0000      -1.387050       -37.7435
  14   2.0000      -1.292416       -35.1684
  15   2.0000      -1.127163       -30.6717
  16   2.0000      -1.096006       -29.8238
  17   2.0000      -1.035699       -28.1828
  18   2.0000      -1.005182       -27.3524
  19   2.0000      -0.893414       -24.3110
  20   2.0000      -0.868834       -23.6422
  21   2.0000      -0.824424       -22.4337
  22   2.0000      -0.793530       -21.5931
  23   2.0000      -0.759406       -20.6645
  24   2.0000      -0.708564       -19.2810
  25   2.0000      -0.698691       -19.0124
  26   2.0000      -0.666051       -18.1242
  27   2.0000      -0.641526       -17.4568
  28   2.0000      -0.638820       -17.3832
  29   2.0000      -0.620260       -16.8781
  30   2.0000      -0.616736       -16.7822
  31   2.0000      -0.585582       -15.9345
  32   2.0000      -0.573695       -15.6110
  33   2.0000      -0.566656       -15.4195
  34   2.0000      -0.555593       -15.1185
  35   2.0000      -0.542278       -14.7561
  36   2.0000      -0.491884       -13.3848
  37   2.0000      -0.432417       -11.7667
  38   2.0000      -0.429808       -11.6957
  39   2.0000      -0.408059       -11.1038
  40   2.0000      -0.331175        -9.0117
  41   2.0000      -0.316492        -8.6122
  42   0.0000       0.023196         0.6312
  43   0.0000       0.028588         0.7779
  44   0.0000       0.034678         0.9436
  45   0.0000       0.036936         1.0051
  46   0.0000       0.043551         1.1851

MULLIKEN ATOMIC CHARGES
-----------------------
   0 C :   -0.540514
   1 C :   -1.060370
   2 C :   -0.575102
   3 C :    1.050009
   4 C :   -0.505931
   5 C :   -0.426322
   6 C :   -0.483287
   7 C :   -0.347239
   8 C :    0.440389
   9 N :    0.407355
  10 O :   -0.950224
  11 O :   -0.542782
  12 H :    0.490525
  13 H :    0.482435
  14 H :    0.760199
  15 H :    0.622089
  16 H :    0.232915
  17 H :    0.233332
  18 H :    0.712523
Sum of atomic charges:   -0.0000000

LOEWDIN ATOMIC CHARGES
----------------------
   0 C :    0.184796
   1 C :    0.215686
   2 C :   -0.012053
   3 C :   -0.500747
   4 C :    0.192588
   5 C :    0.225292
   6 C :    0.205647
   7 C :    0.131883
   8 C :   -0.658093
   9 N :    0.245615
  10 O :    0.445587
  11 O :    0.599910
  12 H :   -0.193601
  13 H :   -0.176104
  14 H :   -0.188719
  15 H :   -0.169699
  16 H :   -0.193343
  17 H :   -0.199305
  18 H :   -0.155338

  Mayer bond orders larger than 0.100000
B(  0-C ,  1-C ) :   1.1535 B(  0-C ,  2-C ) :   1.2432 B(  0-C , 11-O ) :  -0.1406
B(  0-C , 12-H ) :   0.8427 B(  1-C ,  2-C ) :   0.2910 B(  1-C ,  3-C ) :   1.0423
B(  1-C , 13-H ) :   0.8744 B(  2-C ,  3-C ) :  -0.2745 B(  2-C , 11-O ) :   1.2325
B(  2-C , 14-H ) :   0.3884 B(  3-C ,  7-C ) :  -0.3156 B(  3-C ,  8-C ) :  -0.1855
B(  3-C ,  9-N ) :   1.0130 B(  3-C , 11-O ) :   0.5362 B(  4-C ,  5-C ) :   1.6139
B(  4-C ,  6-C ) :   1.1368 B(  4-C ,  7-C ) :   0.2393 B(  4-C ,  8-C ) :   0.2640
B(  4-C , 15-H ) :   0.5143 B(  4-C , 17-H ) :  -0.1239 B(  5-C ,  6-C ) :  -0.2338
B(  5-C ,  8-C ) :   0.8388 B(  5-C ,  9-N ) :  -0.1143 B(  5-C , 16-H ) :   1.0633
B(  6-C ,  7-C ) :   1.0236 B(  6-C ,  9-N ) :  -0.2738 B(  6-C , 17-H ) :   1.2682
B(  7-C ,  8-C ) :   0.2031 B(  7-C ,  9-N ) :   1.0908 B(  7-C , 18-H ) :   0.4248
B(  8-C ,  9-N ) :   1.0633 B(  8-C , 10-O ) :   1.0846 B(  9-N , 10-O ) :  -0.2730
B(  9-N , 11-O ) :   0.1283

MP2 TOTAL ENERGY:     -551.323105932 Eh
FINAL SINGLE POINT ENERGY      -551.323105932192

DIPOLE MOMENT
-------------
                                X             Y             Z
Electronic contribution:     -0.80023       2.22086      -1.02971
Nuclear contribution   :      1.07221      -3.90279       1.12852
                        -----------------------------------------
Total Dipole Moment    :      0.27197      -1.68193       0.09881
                        -----------------------------------------
Magnitude (a.u.)       :      1.70664
Magnitude (Debye)      :      4.33794

Rotational constants in cm-1:     0.077979     0.022572     0.019584
Rotational constants in MHz :  2337.740547   676.680980   587.116801

                             ****ORCA TERMINATED NORMALLY****
TOTAL RUN TIME: 0 days 0 hours 15 minutes 50 seconds 96 msec
