                         Program Version 5.0.3 -  RELEASE  -
|  1> !ri-mp2 aug-cc-pvtz aug-cc-pvtz/c tightscf
|  2> %pal nprocs 16 end
|  3> %maxcore 3800
|  4>
|  5> * xyz 0 1
|  6> C      2.858294    3.448276    0.000000
|  7> C      1.443396    2.872081    0.000000
|  8> C      1.412286    1.343354    0.000000
|  9> C      0.000000    0.757661    0.000000
| 10> C     -0.030717   -0.771281    0.000000
| 11> C     -1.443246   -1.357334    0.000000
| 12> C     -1.465482   -2.889128    0.000000
| 13> N     -2.786976   -3.518510    0.000000
| 14> H      3.416468    3.123539    0.880618
| 15> H      3.416468    3.123539   -0.880618
| 16> H      2.845446    4.539098    0.000000
| 17> H      0.899109    3.242456    0.874013
| 18> H      0.899109    3.242456   -0.874013
| 19> H      1.957625    0.972748    0.874556
| 20> H      1.957625    0.972748   -0.874556
| 21> H     -0.544592    1.128853    0.874555
| 22> H     -0.544592    1.128853   -0.874555
| 23> H      0.514279   -1.142144   -0.874488
| 24> H      0.514279   -1.142144    0.874488
| 25> H     -1.990914   -0.993618    0.876239
| 26> H     -1.990914   -0.993618   -0.876239
| 27> H     -0.922544   -3.259922   -0.873380
| 28> H     -0.922544   -3.259922    0.873380
| 29> H     -3.321330   -3.237562   -0.813570
| 30> H     -3.321330   -3.237562    0.813570
| 31> *
| 32>
| 33>                          ****END OF INPUT****

CARTESIAN COORDINATES (ANGSTROEM)
---------------------------------
  C      2.858294    3.448276    0.000000
  C      1.443396    2.872081    0.000000
  C      1.412286    1.343354    0.000000
  C      0.000000    0.757661    0.000000
  C     -0.030717   -0.771281    0.000000
  C     -1.443246   -1.357334    0.000000
  C     -1.465482   -2.889128    0.000000
  N     -2.786976   -3.518510    0.000000
  H      3.416468    3.123539    0.880618
  H      3.416468    3.123539   -0.880618
  H      2.845446    4.539098    0.000000
  H      0.899109    3.242456    0.874013
  H      0.899109    3.242456   -0.874013
  H      1.957625    0.972748    0.874556
  H      1.957625    0.972748   -0.874556
  H     -0.544592    1.128853    0.874555
  H     -0.544592    1.128853   -0.874555
  H      0.514279   -1.142144   -0.874488
  H      0.514279   -1.142144    0.874488
  H     -1.990914   -0.993618    0.876239
  H     -1.990914   -0.993618   -0.876239
  H     -0.922544   -3.259922   -0.873380
  H     -0.922544   -3.259922    0.873380
  H     -3.321330   -3.237562   -0.813570
  H     -3.321330   -3.237562    0.813570

 Total Charge           Charge          ....    0
 Multiplicity           Mult            ....    1
 Number of Electrons    NEL             ....   66
 Basis Dimension        Dim             ....  759

ORBITAL ENERGIES
----------------

  NO   OCC          E(Eh)            E(eV)
   0   2.0000     -15.535707      -422.7481
   1   2.0000     -11.243139      -305.9414
   2   2.0000     -11.216858      -305.2262
   3   2.0000     -11.216199      -305.2083
   4   2.0000     -11.215518      -305.1898
   5   2.0000     -11.215204      -305.1812
   6   2.0000     -11.214206      -305.1540
   7   2.0000     -11.209964      -305.0386
   8   2.0000      -1.173988       -31.9458
   9   2.0000      -1.087243       -29.5854
  10   2.0000      -1.043478       -28.3945
  11   2.0000      -0.978257       -26.6197
  12   2.0000      -0.901291       -24.5254
  13   2.0000      -0.831158       -22.6170
  14   2.0000      -0.793312       -21.5871
  15   2.0000      -0.787063       -21.4171
  16   2.0000      -0.676146       -18.3989
  17   2.0000      -0.649197       -17.6655
  18   2.0000      -0.611712       -16.6455
  19   2.0000      -0.596362       -16.2278
  20   2.0000      -0.592564       -16.1245
  21   2.0000      -0.563993       -15.3470
  22   2.0000      -0.558422       -15.1954
  23   2.0000      -0.540129       -14.6977
  24   2.0000      -0.516703       -14.0602
  25   2.0000      -0.511867       -13.9286
  26   2.0000      -0.481593       -13.1048
  27   2.0000      -0.479760       -13.0549
  28   2.0000      -0.464636       -12.6434
  29   2.0000      -0.460045       -12.5185
  30   2.0000      -0.459950       -12.5159
  31   2.0000      -0.453317       -12.3354
  32   2.0000      -0.380160       -10.3447
  33   0.0000       0.029647         0.8067
  34   0.0000       0.031112         0.8466
  35   0.0000       0.035121         0.9557
  36   0.0000       0.035949         0.9782
  37   0.0000       0.044999         1.2245

MULLIKEN ATOMIC CHARGES
-----------------------
   0 C :   -1.008053
   1 C :   -0.505343
   2 C :   -0.290124
   3 C :   -0.390206
   4 C :   -0.310484
   5 C :   -0.407609
   6 C :   -0.126581
   7 N :   -0.710838
   8 H :    0.261478
   9 H :    0.261478
  10 H :    0.273821
  11 H :    0.227971
  12 H :    0.227971
  13 H :    0.239745
  14 H :    0.239745
  15 H :    0.229687
  16 H :    0.229687
  17 H :    0.234491
  18 H :    0.234491
  19 H :    0.211695
  20 H :    0.211694
  21 H :    0.240241
  22 H :    0.240241
  23 H :    0.092402
  24 H :    0.092402
Sum of atomic charges:   -0.0000000

LOEWDIN ATOMIC CHARGES
----------------------
   0 C :    0.577794
   1 C :    0.256276
   2 C :    0.269318
   3 C :    0.276194
   4 C :    0.273129
   5 C :    0.278170
   6 C :    0.150063
   7 N :    0.835278
   8 H :   -0.171750
   9 H :   -0.171750
  10 H :   -0.174372
  11 H :   -0.148211
  12 H :   -0.148211
  13 H :   -0.141506
  14 H :   -0.141506
  15 H :   -0.140498
  16 H :   -0.140498
  17 H :   -0.140613
  18 H :   -0.140613
  19 H :   -0.145974
  20 H :   -0.145974
  21 H :   -0.152107
  22 H :   -0.152107
  23 H :   -0.330267
  24 H :   -0.330267

  Mayer bond orders larger than 0.100000
B(  0-C ,  1-C ) :   0.9324 B(  0-C ,  8-H ) :   0.9716 B(  0-C ,  9-H ) :   0.9716
B(  0-C , 10-H ) :   0.9928 B(  1-C ,  2-C ) :   0.9096 B(  1-C , 11-H ) :   0.9731
B(  1-C , 12-H ) :   0.9731 B(  2-C ,  3-C ) :   0.9881 B(  2-C , 13-H ) :   0.9534
B(  2-C , 14-H ) :   0.9534 B(  3-C ,  4-C ) :   0.9569 B(  3-C , 15-H ) :   0.9631
B(  3-C , 16-H ) :   0.9631 B(  4-C ,  5-C ) :   0.9158 B(  4-C , 17-H ) :   0.9504
B(  4-C , 18-H ) :   0.9504 B(  5-C ,  6-C ) :   0.9195 B(  5-C , 19-H ) :   0.9702
B(  5-C , 20-H ) :   0.9702 B(  6-C ,  7-N ) :   0.6108 B(  6-C , 21-H ) :   0.9933
B(  6-C , 22-H ) :   0.9933 B(  7-N , 23-H ) :   1.0072 B(  7-N , 24-H ) :   1.0072

MP2 TOTAL ENERGY:     -331.019236430 Eh
FINAL SINGLE POINT ENERGY      -331.019236430362

DIPOLE MOMENT
-------------
                                X             Y             Z
Electronic contribution:     -3.10295      -3.92733      -0.00000
Nuclear contribution   :      3.06094       4.50450       0.00000
                        -----------------------------------------
Total Dipole Moment    :     -0.04201       0.57717      -0.00000
                        -----------------------------------------
Magnitude (a.u.)       :      0.57870
Magnitude (Debye)      :      1.47093

Rotational constants in cm-1:     0.370925     0.016114     0.015794
Rotational constants in MHz : 11120.048569   483.075822   473.503385

                             ****ORCA TERMINATED NORMALLY****
TOTAL RUN TIME: 0 days 0 hours 13 minutes 31 seconds 470 msec
