                         Program Version 5.0.3 -  RELEASE  -
|  1> !ri-mp2 aug-cc-pvtz aug-cc-pvtz/c tightscf
|  2> %pal nprocs 16 end
|  3>
|  4> * xyz 0 1
|  5> C     -2.900530   -2.061190    0.000000
|  6> C     -2.210491   -0.698205    0.000000
|  7> C      2.318193    2.117672    0.000000
|  8> S      1.820699    0.367544    0.000000
|  9> C      0.000000    0.560581    0.000000
| 10> C     -0.683216   -0.803015    0.000000
| 11> H      3.406072    2.138869    0.000000
| 12> H     -3.986273   -1.956738    0.000000
| 13> H     -2.623158   -2.643745    0.880787
| 14> H     -2.623158   -2.643745   -0.880787
| 15> H     -2.533340   -0.125846    0.874655
| 16> H     -2.533340   -0.125846   -0.874655
| 17> H      1.955763    2.628694    0.891218
| 18> H      1.955763    2.628694   -0.891218
| 19> H     -0.357222   -1.371028   -0.875684
| 20> H     -0.357222   -1.371028    0.875684
| 21> H     -0.289402    1.132982   -0.883547
| 22> H     -0.289402    1.132982    0.883547
| 23> *
| 24>
| 25>                          ****END OF INPUT****

CARTESIAN COORDINATES (ANGSTROEM)
---------------------------------
  C     -2.900530   -2.061190    0.000000
  C     -2.210491   -0.698205    0.000000
  C      2.318193    2.117672    0.000000
  S      1.820699    0.367544    0.000000
  C      0.000000    0.560581    0.000000
  C     -0.683216   -0.803015    0.000000
  H      3.406072    2.138869    0.000000
  H     -3.986273   -1.956738    0.000000
  H     -2.623158   -2.643745    0.880787
  H     -2.623158   -2.643745   -0.880787
  H     -2.533340   -0.125846    0.874655
  H     -2.533340   -0.125846   -0.874655
  H      1.955763    2.628694    0.891218
  H      1.955763    2.628694   -0.891218
  H     -0.357222   -1.371028   -0.875684
  H     -0.357222   -1.371028    0.875684
  H     -0.289402    1.132982   -0.883547
  H     -0.289402    1.132982    0.883547

 Total Charge           Charge          ....    0
 Multiplicity           Mult            ....    1
 Number of Electrons    NEL             ....   58
 Basis Dimension        Dim             ....  556

ORBITAL ENERGIES
----------------

  NO   OCC          E(Eh)            E(eV)
   0   2.0000     -91.940033     -2501.8155
   1   2.0000     -11.251874      -306.1790
   2   2.0000     -11.248779      -306.0948
   3   2.0000     -11.224691      -305.4394
   4   2.0000     -11.223042      -305.3945
   5   2.0000     -11.213868      -305.1449
   6   2.0000      -8.940064      -243.2715
   7   2.0000      -6.621346      -180.1760
   8   2.0000      -6.620428      -180.1510
   9   2.0000      -6.619459      -180.1246
  10   2.0000      -1.091843       -29.7106
  11   2.0000      -1.039289       -28.2805
  12   2.0000      -0.976060       -26.5599
  13   2.0000      -0.884217       -24.0608
  14   2.0000      -0.805946       -21.9309
  15   2.0000      -0.788880       -21.4665
  16   2.0000      -0.652943       -17.7675
  17   2.0000      -0.597109       -16.2482
  18   2.0000      -0.596959       -16.2441
  19   2.0000      -0.588378       -16.0106
  20   2.0000      -0.572092       -15.5674
  21   2.0000      -0.543469       -14.7885
  22   2.0000      -0.529002       -14.3949
  23   2.0000      -0.509007       -13.8508
  24   2.0000      -0.480047       -13.0628
  25   2.0000      -0.471025       -12.8173
  26   2.0000      -0.452403       -12.3105
  27   2.0000      -0.423649       -11.5281
  28   2.0000      -0.332866        -9.0578
  29   0.0000       0.029776         0.8103
  30   0.0000       0.032299         0.8789
  31   0.0000       0.038869         1.0577
  32   0.0000       0.039252         1.0681
  33   0.0000       0.047918         1.3039

MULLIKEN ATOMIC CHARGES
-----------------------
   0 C :   -0.986227
   1 C :   -0.427344
   2 C :   -0.841600
   3 S :   -0.276312
   4 C :   -0.302513
   5 C :   -0.394238
   6 H :    0.277380
   7 H :    0.281628
   8 H :    0.267887
   9 H :    0.267887
  10 H :    0.250904
  11 H :    0.250904
  12 H :    0.261863
  13 H :    0.261863
  14 H :    0.290192
  15 H :    0.290192
  16 H :    0.263767
  17 H :    0.263767
Sum of atomic charges:   -0.0000000

LOEWDIN ATOMIC CHARGES
----------------------
   0 C :    0.579105
   1 C :    0.249868
   2 C :    0.216149
   3 S :    1.169267
   4 C :   -0.079301
   5 C :    0.178682
   6 H :   -0.261708
   7 H :   -0.173487
   8 H :   -0.170690
   9 H :   -0.170690
  10 H :   -0.149326
  11 H :   -0.149326
  12 H :   -0.246406
  13 H :   -0.246406
  14 H :   -0.159322
  15 H :   -0.159322
  16 H :   -0.213543
  17 H :   -0.213543

  Mayer bond orders larger than 0.100000
B(  0-C ,  1-C ) :   0.9190 B(  0-C ,  7-H ) :   0.9714 B(  0-C ,  8-H ) :   0.9594
B(  0-C ,  9-H ) :   0.9594 B(  1-C ,  5-C ) :   0.8586 B(  1-C , 10-H ) :   0.9543
B(  1-C , 11-H ) :   0.9543 B(  2-C ,  3-S ) :   0.9987 B(  2-C ,  6-H ) :   0.9734
B(  2-C , 12-H ) :   0.9288 B(  2-C , 13-H ) :   0.9288 B(  3-S ,  4-C ) :   0.9808
B(  4-C ,  5-C ) :   1.0023 B(  4-C , 16-H ) :   0.9272 B(  4-C , 17-H ) :   0.9272
B(  5-C , 14-H ) :   0.9339 B(  5-C , 15-H ) :   0.9339

MP2 TOTAL ENERGY:     -595.028467582 Eh
FINAL SINGLE POINT ENERGY      -595.028467582395

DIPOLE MOMENT
-------------
                                X             Y             Z
Electronic contribution:      8.22222       1.13003       0.00000
Nuclear contribution   :     -8.70822      -0.61367       0.00000
                        -----------------------------------------
Total Dipole Moment    :     -0.48599       0.51635       0.00000
                        -----------------------------------------
Magnitude (a.u.)       :      0.70909
Magnitude (Debye)      :      1.80237

Rotational constants in cm-1:     0.369289     0.031353     0.029696
Rotational constants in MHz : 11071.006315   939.938807   890.274220

                             ****ORCA TERMINATED NORMALLY****
TOTAL RUN TIME: 0 days 0 hours 4 minutes 44 seconds 154 msec
