                         Program Version 5.0.3 -  RELEASE  -
|  1> !ri-mp2 aug-cc-pvtz aug-cc-pvtz/c tightscf
|  2> %pal nprocs 16 end
|  3>
|  4> * xyz 0 1
|  5> C      1.683448   -1.663575    0.000000
|  6> C      2.220125   -0.382943    0.000000
|  7> C      0.305726   -1.835687    0.000000
|  8> C      1.373807    0.717619    0.000000
|  9> C     -0.573870   -0.751190    0.000000
| 10> C      0.000000    0.522425    0.000000
| 11> C     -2.061411   -0.960930    0.000000
| 12> Cl    -1.036566    1.943162    0.000000
| 13> H      2.334268   -2.527315    0.000000
| 14> H      3.291363   -0.235053    0.000000
| 15> H     -0.108141   -2.835976    0.000000
| 16> H      1.769429    1.722783    0.000000
| 17> H     -2.526446   -0.504646    0.875379
| 18> H     -2.526446   -0.504646   -0.875379
| 19> H     -2.299351   -2.023197    0.000000
| 20> *
| 21>
| 22>                          ****END OF INPUT****

CARTESIAN COORDINATES (ANGSTROEM)
---------------------------------
  C      1.683448   -1.663575    0.000000
  C      2.220125   -0.382943    0.000000
  C      0.305726   -1.835687    0.000000
  C      1.373807    0.717619    0.000000
  C     -0.573870   -0.751190    0.000000
  C      0.000000    0.522425    0.000000
  C     -2.061411   -0.960930    0.000000
  Cl    -1.036566    1.943162    0.000000
  H      2.334268   -2.527315    0.000000
  H      3.291363   -0.235053    0.000000
  H     -0.108141   -2.835976    0.000000
  H      1.769429    1.722783    0.000000
  H     -2.526446   -0.504646    0.875379
  H     -2.526446   -0.504646   -0.875379
  H     -2.299351   -2.023197    0.000000

 Total Charge           Charge          ....    0
 Multiplicity           Mult            ....    1
 Number of Electrons    NEL             ....   66
 Basis Dimension        Dim             ....  533

ORBITAL ENERGIES
----------------

  NO   OCC          E(Eh)            E(eV)
   0   2.0000    -104.838242     -2852.7936
   1   2.0000     -11.299711      -307.4808
   2   2.0000     -11.257895      -306.3429
   3   2.0000     -11.247634      -306.0637
   4   2.0000     -11.243520      -305.9517
   5   2.0000     -11.242570      -305.9259
   6   2.0000     -11.241660      -305.9011
   7   2.0000     -11.229190      -305.5618
   8   2.0000     -10.561903      -287.4040
   9   2.0000      -8.028752      -218.4735
  10   2.0000      -8.026958      -218.4246
  11   2.0000      -8.026951      -218.4244
  12   2.0000      -1.191056       -32.4103
  13   2.0000      -1.115601       -30.3570
  14   2.0000      -1.058183       -28.7946
  15   2.0000      -1.000642       -27.2288
  16   2.0000      -0.941360       -25.6157
  17   2.0000      -0.834575       -22.7099
  18   2.0000      -0.806068       -21.9342
  19   2.0000      -0.695535       -18.9265
  20   2.0000      -0.659620       -17.9492
  21   2.0000      -0.635423       -17.2907
  22   2.0000      -0.589742       -16.0477
  23   2.0000      -0.588829       -16.0228
  24   2.0000      -0.577204       -15.7065
  25   2.0000      -0.550668       -14.9844
  26   2.0000      -0.522714       -14.2238
  27   2.0000      -0.511059       -13.9066
  28   2.0000      -0.499552       -13.5935
  29   2.0000      -0.467602       -12.7241
  30   2.0000      -0.451359       -12.2821
  31   2.0000      -0.343814        -9.3556
  32   2.0000      -0.332511        -9.0481
  33   0.0000       0.028028         0.7627
  34   0.0000       0.031884         0.8676
  35   0.0000       0.036607         0.9961
  36   0.0000       0.047535         1.2935
  37   0.0000       0.050643         1.3781

MULLIKEN ATOMIC CHARGES
-----------------------
   0 C :   -0.399670
   1 C :   -0.178544
   2 C :   -0.805487
   3 C :   -0.866895
   4 C :    0.809017
   5 C :    0.433696
   6 C :   -0.921444
   7 Cl:   -0.529528
   8 H :    0.563635
   9 H :    0.448666
  10 H :    0.149771
  11 H :    0.471073
  12 H :    0.303571
  13 H :    0.303571
  14 H :    0.218566
Sum of atomic charges:   -0.0000000

LOEWDIN ATOMIC CHARGES
----------------------
   0 C :    0.198182
   1 C :    0.186414
   2 C :    0.204316
   3 C :    0.103864
   4 C :   -0.205088
   5 C :   -0.715787
   6 C :    0.537143
   7 Cl:    0.986832
   8 H :   -0.183342
   9 H :   -0.184705
  10 H :   -0.181889
  11 H :   -0.205049
  12 H :   -0.179646
  13 H :   -0.179646
  14 H :   -0.181597

  Mayer bond orders larger than 0.100000
B(  0-C ,  1-C ) :   1.0835 B(  0-C ,  2-C ) :   1.0473 B(  0-C ,  8-H ) :   0.6393
B(  1-C ,  2-C ) :  -0.1741 B(  1-C ,  3-C ) :   1.0747 B(  1-C ,  4-C ) :   0.1232
B(  1-C ,  9-H ) :   0.8622 B(  2-C ,  4-C ) :   0.8096 B(  2-C ,  6-C ) :   0.1118
B(  2-C , 10-H ) :   1.3590 B(  3-C ,  4-C ) :   0.1196 B(  3-C ,  5-C ) :   1.2097
B(  3-C ,  9-H ) :  -0.1054 B(  3-C , 11-H ) :   0.8282 B(  4-C ,  5-C ) :   1.2892
B(  4-C ,  6-C ) :   0.3831 B(  4-C ,  7-Cl) :   0.2557 B(  5-C ,  6-C ) :   0.1060
B(  5-C ,  7-Cl) :   0.5077 B(  6-C , 12-H ) :   0.9773 B(  6-C , 13-H ) :   0.9773
B(  6-C , 14-H ) :   1.0462

MP2 TOTAL ENERGY:     -730.100557737 Eh
FINAL SINGLE POINT ENERGY      -730.100557737041

DIPOLE MOMENT
-------------
                                X             Y             Z
Electronic contribution:     -1.11807       8.84466      -0.00000
Nuclear contribution   :      1.38816      -9.48652       0.00000
                        -----------------------------------------
Total Dipole Moment    :      0.27008      -0.64186      -0.00000
                        -----------------------------------------
Magnitude (a.u.)       :      0.69637
Magnitude (Debye)      :      1.77004

Rotational constants in cm-1:     0.095114     0.050790     0.033312
Rotational constants in MHz :  2851.459600  1522.638078   998.662890

                             ****ORCA TERMINATED NORMALLY****
TOTAL RUN TIME: 0 days 0 hours 6 minutes 18 seconds 816 msec
