                         Program Version 5.0.3 -  RELEASE  -
|  1> !ri-mp2 aug-cc-pvtz aug-cc-pvtz/c tightscf
|  2> %pal nprocs 16 end
|  3> %maxcore 3800
|  4>
|  5> * xyz 0 1
|  6> C     -6.348463   -0.676838    0.000000
|  7> C     -5.115500    0.225307    0.000000
|  8> C     -3.797980   -0.550892    0.000000
|  9> C     -2.557416    0.342637    0.000000
| 10> C     -1.240689   -0.434878    0.000000
| 11> C      0.000000    0.458845    0.000000
| 12> C      1.316086   -0.319402    0.000000
| 13> C      2.556349    0.575341    0.000000
| 14> C      3.868290   -0.209696    0.000000
| 15> C      5.092393    0.687237    0.000000
| 16> O      6.258306   -0.139839    0.000000
| 17> H     -6.364365   -1.322364    0.880634
| 18> H     -6.364365   -1.322364   -0.880634
| 19> H     -7.270587   -0.093915    0.000000
| 20> H     -5.145071    0.883042   -0.873992
| 21> H     -5.145071    0.883042    0.873992
| 22> H     -3.769111   -1.209699    0.874515
| 23> H     -3.769111   -1.209699   -0.874515
| 24> H     -2.587308    1.001155    0.874567
| 25> H     -2.587308    1.001155   -0.874567
| 26> H     -1.210788   -1.093366    0.874472
| 27> H     -1.210788   -1.093366   -0.874472
| 28> H     -0.029832    1.117282    0.874617
| 29> H     -0.029832    1.117282   -0.874617
| 30> H      1.346921   -0.977463   -0.874449
| 31> H      1.346921   -0.977463    0.874449
| 32> H      2.524211    1.232959    0.875019
| 33> H      2.524211    1.232959   -0.875019
| 34> H      3.914692   -0.861511    0.876340
| 35> H      3.914692   -0.861511   -0.876340
| 36> H      5.083448    1.333838    0.885549
| 37> H      5.083448    1.333838   -0.885549
| 38> H      7.040122    0.418909    0.000000
| 39> *
| 40>
| 41>                          ****END OF INPUT****

CARTESIAN COORDINATES (ANGSTROEM)
---------------------------------
  C     -6.348463   -0.676838    0.000000
  C     -5.115500    0.225307    0.000000
  C     -3.797980   -0.550892    0.000000
  C     -2.557416    0.342637    0.000000
  C     -1.240689   -0.434878    0.000000
  C      0.000000    0.458845    0.000000
  C      1.316086   -0.319402    0.000000
  C      2.556349    0.575341    0.000000
  C      3.868290   -0.209696    0.000000
  C      5.092393    0.687237    0.000000
  O      6.258306   -0.139839    0.000000
  H     -6.364365   -1.322364    0.880634
  H     -6.364365   -1.322364   -0.880634
  H     -7.270587   -0.093915    0.000000
  H     -5.145071    0.883042   -0.873992
  H     -5.145071    0.883042    0.873992
  H     -3.769111   -1.209699    0.874515
  H     -3.769111   -1.209699   -0.874515
  H     -2.587308    1.001155    0.874567
  H     -2.587308    1.001155   -0.874567
  H     -1.210788   -1.093366    0.874472
  H     -1.210788   -1.093366   -0.874472
  H     -0.029832    1.117282    0.874617
  H     -0.029832    1.117282   -0.874617
  H      1.346921   -0.977463   -0.874449
  H      1.346921   -0.977463    0.874449
  H      2.524211    1.232959    0.875019
  H      2.524211    1.232959   -0.875019
  H      3.914692   -0.861511    0.876340
  H      3.914692   -0.861511   -0.876340
  H      5.083448    1.333838    0.885549
  H      5.083448    1.333838   -0.885549
  H      7.040122    0.418909    0.000000

 Total Charge           Charge          ....    0
 Multiplicity           Mult            ....    1
 Number of Electrons    NEL             ....   90
 Basis Dimension        Dim             .... 1012

ORBITAL ENERGIES
----------------

  NO   OCC          E(Eh)            E(eV)
   0   2.0000     -20.553711      -559.2949
   1   2.0000     -11.271701      -306.7186
   2   2.0000     -11.217485      -305.2433
   3   2.0000     -11.214573      -305.1640
   4   2.0000     -11.214527      -305.1628
   5   2.0000     -11.213643      -305.1387
   6   2.0000     -11.213549      -305.1362
   7   2.0000     -11.212967      -305.1203
   8   2.0000     -11.212503      -305.1077
   9   2.0000     -11.212034      -305.0950
  10   2.0000     -11.208649      -305.0029
  11   2.0000      -1.352632       -36.8070
  12   2.0000      -1.094720       -29.7888
  13   2.0000      -1.074291       -29.2329
  14   2.0000      -1.039951       -28.2985
  15   2.0000      -0.993802       -27.0427
  16   2.0000      -0.938490       -25.5376
  17   2.0000      -0.878534       -23.9061
  18   2.0000      -0.823922       -22.4201
  19   2.0000      -0.794005       -21.6060
  20   2.0000      -0.785976       -21.3875
  21   2.0000      -0.783183       -21.3115
  22   2.0000      -0.686672       -18.6853
  23   2.0000      -0.664814       -18.0905
  24   2.0000      -0.650766       -17.7082
  25   2.0000      -0.626608       -17.0509
  26   2.0000      -0.593770       -16.1573
  27   2.0000      -0.590915       -16.0796
  28   2.0000      -0.587917       -15.9980
  29   2.0000      -0.560635       -15.2557
  30   2.0000      -0.555797       -15.1240
  31   2.0000      -0.549179       -14.9439
  32   2.0000      -0.525946       -14.3117
  33   2.0000      -0.518091       -14.0980
  34   2.0000      -0.499805       -13.6004
  35   2.0000      -0.487212       -13.2577
  36   2.0000      -0.486325       -13.2336
  37   2.0000      -0.472300       -12.8519
  38   2.0000      -0.467466       -12.7204
  39   2.0000      -0.464343       -12.6354
  40   2.0000      -0.459374       -12.5002
  41   2.0000      -0.457480       -12.4487
  42   2.0000      -0.455550       -12.3961
  43   2.0000      -0.440736       -11.9930
  44   2.0000      -0.426253       -11.5989
  45   0.0000       0.028102         0.7647
  46   0.0000       0.030426         0.8279
  47   0.0000       0.034950         0.9510
  48   0.0000       0.036018         0.9801
  49   0.0000       0.037970         1.0332

MULLIKEN ATOMIC CHARGES
-----------------------
   0 C :   -1.011722
   1 C :   -0.525246
   2 C :   -0.327270
   3 C :   -0.358291
   4 C :   -0.299962
   5 C :   -0.333130
   6 C :   -0.345870
   7 C :   -0.351479
   8 C :   -0.412370
   9 C :   -0.268756
  10 O :   -0.621254
  11 H :    0.259996
  12 H :    0.259996
  13 H :    0.274264
  14 H :    0.220234
  15 H :    0.220234
  16 H :    0.223854
  17 H :    0.223853
  18 H :    0.215149
  19 H :    0.215148
  20 H :    0.209213
  21 H :    0.209212
  22 H :    0.206766
  23 H :    0.206766
  24 H :    0.210720
  25 H :    0.210722
  26 H :    0.223704
  27 H :    0.223704
  28 H :    0.225187
  29 H :    0.225187
  30 H :    0.221240
  31 H :    0.221240
  32 H :    0.148965
Sum of atomic charges:    0.0000000

LOEWDIN ATOMIC CHARGES
----------------------
   0 C :    0.577473
   1 C :    0.256172
   2 C :    0.269164
   3 C :    0.277422
   4 C :    0.279845
   5 C :    0.279839
   6 C :    0.279773
   7 C :    0.271161
   8 C :    0.265602
   9 C :    0.032071
  10 O :    0.806293
  11 H :   -0.171908
  12 H :   -0.171908
  13 H :   -0.174507
  14 H :   -0.148327
  15 H :   -0.148327
  16 H :   -0.141623
  17 H :   -0.141623
  18 H :   -0.140235
  19 H :   -0.140235
  20 H :   -0.139629
  21 H :   -0.139629
  22 H :   -0.139782
  23 H :   -0.139782
  24 H :   -0.139200
  25 H :   -0.139200
  26 H :   -0.141268
  27 H :   -0.141268
  28 H :   -0.144456
  29 H :   -0.144457
  30 H :   -0.153861
  31 H :   -0.153861
  32 H :   -0.499731

  Mayer bond orders larger than 0.100000
B(  0-C ,  1-C ) :   0.9359 B(  0-C , 11-H ) :   0.9747 B(  0-C , 12-H ) :   0.9747
B(  0-C , 13-H ) :   0.9933 B(  1-C ,  2-C ) :   0.9226 B(  1-C ,  3-C ) :  -0.1036
B(  1-C , 14-H ) :   0.9816 B(  1-C , 15-H ) :   0.9816 B(  2-C ,  3-C ) :   0.9903
B(  2-C , 16-H ) :   0.9693 B(  2-C , 17-H ) :   0.9693 B(  3-C ,  4-C ) :   0.9565
B(  3-C , 18-H ) :   0.9632 B(  3-C , 19-H ) :   0.9632 B(  4-C ,  5-C ) :   0.9653
B(  4-C , 20-H ) :   0.9608 B(  4-C , 21-H ) :   0.9608 B(  5-C ,  6-C ) :   0.9734
B(  5-C , 22-H ) :   0.9598 B(  5-C , 23-H ) :   0.9598 B(  6-C ,  7-C ) :   0.9628
B(  6-C ,  8-C ) :  -0.1042 B(  6-C , 24-H ) :   0.9648 B(  6-C , 25-H ) :   0.9648
B(  7-C ,  8-C ) :   0.9345 B(  7-C ,  9-C ) :  -0.1339 B(  7-C , 26-H ) :   0.9630
B(  7-C , 27-H ) :   0.9630 B(  8-C ,  9-C ) :   1.0425 B(  8-C , 10-O ) :  -0.1000
B(  8-C , 28-H ) :   0.9637 B(  8-C , 29-H ) :   0.9637 B(  9-C , 10-O ) :   0.8363
B(  9-C , 30-H ) :   1.0094 B(  9-C , 31-H ) :   1.0094 B( 10-O , 32-H ) :   1.0368

MP2 TOTAL ENERGY:     -468.557569904 Eh
FINAL SINGLE POINT ENERGY      -468.557569903761

DIPOLE MOMENT
-------------
                                X             Y             Z
Electronic contribution:     13.38191       0.08709       0.00000
Nuclear contribution   :    -13.46170       0.56654       0.00000
                        -----------------------------------------
Total Dipole Moment    :     -0.07979       0.65363       0.00000
                        -----------------------------------------
Magnitude (a.u.)       :      0.65849
Magnitude (Debye)      :      1.67374

Rotational constants in cm-1:     0.267259     0.006270     0.006196
Rotational constants in MHz :  8012.217886   187.978105   185.759793

                             ****ORCA TERMINATED NORMALLY****
TOTAL RUN TIME: 0 days 0 hours 27 minutes 7 seconds 430 msec
