                         Program Version 5.0.3 -  RELEASE  -
|  1> !ri-mp2 aug-cc-pvtz aug-cc-pvtz/c tightscf
|  2> %pal nprocs 16 end
|  3>
|  4> * xyz 0 1
|  5> C     -2.772926   -0.745430    0.127040
|  6> C     -2.835748    0.657366   -0.109605
|  7> C      2.860308    0.583052    0.103711
|  8> C      1.551119    1.154181    0.212862
|  9> C     -1.451987   -1.096859    0.185131
| 10> C     -1.550872    1.119466   -0.190721
| 11> C      2.691852   -0.736863   -0.133470
| 12> C      0.685887    0.123810    0.019734
| 13> N     -0.697666    0.046430   -0.010764
| 14> O      1.353226   -1.035205   -0.194701
| 15> H     -3.604798   -1.419043    0.239788
| 16> H     -3.724063    1.255180   -0.219283
| 17> H      3.800352    1.097381    0.201917
| 18> H      1.298133    2.176815    0.425961
| 19> H     -0.974196   -2.044614    0.349051
| 20> H     -1.163532    2.103939   -0.379320
| 21> H      3.360167   -1.565371   -0.273248
| 22> *
| 23>
| 24>                          ****END OF INPUT****

CARTESIAN COORDINATES (ANGSTROEM)
---------------------------------
  C     -2.772926   -0.745430    0.127040
  C     -2.835748    0.657366   -0.109605
  C      2.860308    0.583052    0.103711
  C      1.551119    1.154181    0.212862
  C     -1.451987   -1.096859    0.185131
  C     -1.550872    1.119466   -0.190721
  C      2.691852   -0.736863   -0.133470
  C      0.685887    0.123810    0.019734
  N     -0.697666    0.046430   -0.010764
  O      1.353226   -1.035205   -0.194701
  H     -3.604798   -1.419043    0.239788
  H     -3.724063    1.255180   -0.219283
  H      3.800352    1.097381    0.201917
  H      1.298133    2.176815    0.425961
  H     -0.974196   -2.044614    0.349051
  H     -1.163532    2.103939   -0.379320
  H      3.360167   -1.565371   -0.273248

 Total Charge           Charge          ....    0
 Multiplicity           Mult            ....    1
 Number of Electrons    NEL             ....   70
 Basis Dimension        Dim             ....  621

ORBITAL ENERGIES
----------------

  NO   OCC          E(Eh)            E(eV)
   0   2.0000     -20.634289      -561.4876
   1   2.0000     -15.629108      -425.2897
   2   2.0000     -11.344751      -308.7064
   3   2.0000     -11.289667      -307.2074
   4   2.0000     -11.262249      -306.4614
   5   2.0000     -11.261446      -306.4395
   6   2.0000     -11.239397      -305.8395
   7   2.0000     -11.231528      -305.6254
   8   2.0000     -11.221422      -305.3504
   9   2.0000     -11.219275      -305.2920
  10   2.0000      -1.476943       -40.1897
  11   2.0000      -1.318466       -35.8773
  12   2.0000      -1.103204       -30.0197
  13   2.0000      -1.086826       -29.5740
  14   2.0000      -0.990880       -26.9632
  15   2.0000      -0.984541       -26.7907
  16   2.0000      -0.839425       -22.8419
  17   2.0000      -0.826129       -22.4801
  18   2.0000      -0.771905       -21.0046
  19   2.0000      -0.763426       -20.7739
  20   2.0000      -0.751020       -20.4363
  21   2.0000      -0.676652       -18.4126
  22   2.0000      -0.663571       -18.0567
  23   2.0000      -0.617457       -16.8018
  24   2.0000      -0.597217       -16.2511
  25   2.0000      -0.585199       -15.9241
  26   2.0000      -0.579354       -15.7650
  27   2.0000      -0.572890       -15.5891
  28   2.0000      -0.562458       -15.3053
  29   2.0000      -0.547901       -14.9092
  30   2.0000      -0.537971       -14.6389
  31   2.0000      -0.414141       -11.2693
  32   2.0000      -0.388766       -10.5788
  33   2.0000      -0.310563        -8.4508
  34   2.0000      -0.293611        -7.9896
  35   0.0000       0.027349         0.7442
  36   0.0000       0.032179         0.8756
  37   0.0000       0.033494         0.9114
  38   0.0000       0.042647         1.1605
  39   0.0000       0.044780         1.2185

MULLIKEN ATOMIC CHARGES
-----------------------
   0 C :   -0.844621
   1 C :   -0.931398
   2 C :   -0.561746
   3 C :   -0.789010
   4 C :   -0.559575
   5 C :   -0.515180
   6 C :   -0.667345
   7 C :    0.691987
   8 N :    0.388390
   9 O :   -0.328104
  10 H :    0.415397
  11 H :    0.456874
  12 H :    0.450693
  13 H :    0.506247
  14 H :    0.758063
  15 H :    0.769072
  16 H :    0.760257
Sum of atomic charges:   -0.0000000

LOEWDIN ATOMIC CHARGES
----------------------
   0 C :    0.187594
   1 C :    0.187975
   2 C :    0.170230
   3 C :    0.206515
   4 C :    0.131095
   5 C :    0.125015
   6 C :   -0.011730
   7 C :   -0.457930
   8 N :    0.186691
   9 O :    0.594010
  10 H :   -0.196045
  11 H :   -0.194856
  12 H :   -0.191324
  13 H :   -0.190955
  14 H :   -0.175721
  15 H :   -0.173631
  16 H :   -0.196933

  Mayer bond orders larger than 0.100000
B(  0-C ,  1-C ) :   1.4986 B(  0-C ,  4-C ) :   1.1056 B(  0-C ,  8-N ) :  -0.3262
B(  0-C , 10-H ) :   1.0155 B(  1-C ,  4-C ) :   0.1207 B(  1-C ,  5-C ) :   1.1234
B(  1-C ,  8-N ) :  -0.2945 B(  1-C , 11-H ) :   0.9592 B(  2-C ,  3-C ) :   1.2319
B(  2-C ,  6-C ) :   1.2842 B(  2-C ,  7-C ) :  -0.2182 B(  2-C ,  9-O ) :  -0.1306
B(  2-C , 12-H ) :   0.9254 B(  3-C ,  6-C ) :   0.2467 B(  3-C ,  7-C ) :   1.0928
B(  3-C ,  8-N ) :  -0.2852 B(  3-C , 13-H ) :   0.8740 B(  4-C ,  5-C ) :   0.1895
B(  4-C ,  7-C ) :  -0.3568 B(  4-C ,  8-N ) :   1.1811 B(  4-C , 14-H ) :   0.3394
B(  5-C ,  7-C ) :  -0.3170 B(  5-C ,  8-N ) :   1.0978 B(  5-C , 15-H ) :   0.3595
B(  6-C ,  7-C ) :  -0.1267 B(  6-C ,  9-O ) :   1.1602 B(  6-C , 16-H ) :   0.3383
B(  7-C ,  8-N ) :   1.0398 B(  7-C ,  9-O ) :   0.8863 B(  8-N ,  9-O ) :  -0.1307

MP2 TOTAL ENERGY:     -438.156037853 Eh
FINAL SINGLE POINT ENERGY      -438.156037853420

DIPOLE MOMENT
-------------
                                X             Y             Z
Electronic contribution:      1.42011      -1.32695      -0.27584
Nuclear contribution   :     -0.97816       1.56814       0.33741
                        -----------------------------------------
Total Dipole Moment    :      0.44195       0.24119       0.06157
                        -----------------------------------------
Magnitude (a.u.)       :      0.50723
Magnitude (Debye)      :      1.28928

Rotational constants in cm-1:     0.154064     0.030129     0.025456
Rotational constants in MHz :  4618.715325   903.258249   763.165918

                             ****ORCA TERMINATED NORMALLY****
TOTAL RUN TIME: 0 days 0 hours 10 minutes 23 seconds 38 msec
