                         Program Version 5.0.3 -  RELEASE  -
|  1> !ri-mp2 aug-cc-pvtz aug-cc-pvtz/c tightscf
|  2> %pal nprocs 16 end
|  3>
|  4> * xyz 0 1
|  5> C      2.257879    3.177876    0.000000
|  6> C      1.939719    2.020940    0.000000
|  7> C     -2.330524   -2.718125    0.000000
|  8> C      1.527217    0.622766    0.000000
|  9> C     -1.925506   -1.245234    0.000000
| 10> C      0.000000    0.434858    0.000000
| 11> C     -0.410473   -1.036234    0.000000
| 12> H      2.546918    4.198732    0.000000
| 13> H     -3.415229   -2.832921    0.000000
| 14> H     -1.942770   -3.234004    0.880832
| 15> H     -1.942770   -3.234004   -0.880832
| 16> H      1.956087    0.124043   -0.874253
| 17> H      1.956087    0.124043    0.874253
| 18> H     -2.356942   -0.748038   -0.873782
| 19> H     -2.356942   -0.748038    0.873782
| 20> H     -0.418718    0.938863    0.874266
| 21> H     -0.418718    0.938863   -0.874266
| 22> H      0.021563   -1.534311   -0.874638
| 23> H      0.021563   -1.534311    0.874638
| 24> *
| 25>
| 26>                          ****END OF INPUT****

CARTESIAN COORDINATES (ANGSTROEM)
---------------------------------
  C      2.257879    3.177876    0.000000
  C      1.939719    2.020940    0.000000
  C     -2.330524   -2.718125    0.000000
  C      1.527217    0.622766    0.000000
  C     -1.925506   -1.245234    0.000000
  C      0.000000    0.434858    0.000000
  C     -0.410473   -1.036234    0.000000
  H      2.546918    4.198732    0.000000
  H     -3.415229   -2.832921    0.000000
  H     -1.942770   -3.234004    0.880832
  H     -1.942770   -3.234004   -0.880832
  H      1.956087    0.124043   -0.874253
  H      1.956087    0.124043    0.874253
  H     -2.356942   -0.748038   -0.873782
  H     -2.356942   -0.748038    0.873782
  H     -0.418718    0.938863    0.874266
  H     -0.418718    0.938863   -0.874266
  H      0.021563   -1.534311   -0.874638
  H      0.021563   -1.534311    0.874638

 Total Charge           Charge          ....    0
 Multiplicity           Mult            ....    1
 Number of Electrons    NEL             ....   54
 Basis Dimension        Dim             ....  598

ORBITAL ENERGIES
----------------

  NO   OCC          E(Eh)            E(eV)
   0   2.0000     -11.249122      -306.1042
   1   2.0000     -11.229691      -305.5754
   2   2.0000     -11.227335      -305.5113
   3   2.0000     -11.221782      -305.3602
   4   2.0000     -11.220667      -305.3299
   5   2.0000     -11.215491      -305.1890
   6   2.0000     -11.213285      -305.1290
   7   2.0000      -1.099907       -29.9300
   8   2.0000      -1.055011       -28.7083
   9   2.0000      -0.999343       -27.1935
  10   2.0000      -0.933180       -25.3931
  11   2.0000      -0.841051       -22.8862
  12   2.0000      -0.795200       -21.6385
  13   2.0000      -0.715188       -19.4613
  14   2.0000      -0.658568       -17.9206
  15   2.0000      -0.634909       -17.2768
  16   2.0000      -0.610791       -16.6205
  17   2.0000      -0.576905       -15.6984
  18   2.0000      -0.572366       -15.5749
  19   2.0000      -0.546238       -14.8639
  20   2.0000      -0.512538       -13.9469
  21   2.0000      -0.490975       -13.3601
  22   2.0000      -0.473727       -12.8908
  23   2.0000      -0.469667       -12.7803
  24   2.0000      -0.467497       -12.7212
  25   2.0000      -0.381941       -10.3931
  26   2.0000      -0.380686       -10.3590
  27   0.0000       0.029635         0.8064
  28   0.0000       0.031919         0.8686
  29   0.0000       0.035598         0.9687
  30   0.0000       0.038519         1.0482
  31   0.0000       0.044280         1.2049

MULLIKEN ATOMIC CHARGES
-----------------------
   0 C :   -1.748267
   1 C :    1.167281
   2 C :   -0.987747
   3 C :   -0.333891
   4 C :   -0.516187
   5 C :   -0.505313
   6 C :   -0.321764
   7 H :    0.470626
   8 H :    0.280950
   9 H :    0.268598
  10 H :    0.268598
  11 H :    0.218447
  12 H :    0.218448
  13 H :    0.239444
  14 H :    0.239445
  15 H :    0.245693
  16 H :    0.245692
  17 H :    0.274974
  18 H :    0.274973
Sum of atomic charges:   -0.0000000

LOEWDIN ATOMIC CHARGES
----------------------
   0 C :    0.394497
   1 C :    0.021657
   2 C :    0.579258
   3 C :    0.206199
   4 C :    0.258544
   5 C :    0.269991
   6 C :    0.267957
   7 H :   -0.307481
   8 H :   -0.173517
   9 H :   -0.171257
  10 H :   -0.171257
  11 H :   -0.157507
  12 H :   -0.157507
  13 H :   -0.147217
  14 H :   -0.147217
  15 H :   -0.141439
  16 H :   -0.141439
  17 H :   -0.141132
  18 H :   -0.141132

  Mayer bond orders larger than 0.100000
B(  0-C ,  5-C ) :   0.1329 B(  0-C ,  7-H ) :   1.0391 B(  1-C ,  3-C ) :   0.9040
B(  1-C ,  7-H ) :  -0.1851 B(  2-C ,  4-C ) :   0.9339 B(  2-C ,  8-H ) :   0.9820
B(  2-C ,  9-H ) :   0.9618 B(  2-C , 10-H ) :   0.9618 B(  3-C ,  5-C ) :   1.0877
B(  3-C , 11-H ) :   0.9675 B(  3-C , 12-H ) :   0.9675 B(  4-C ,  6-C ) :   0.9072
B(  4-C , 13-H ) :   0.9614 B(  4-C , 14-H ) :   0.9614 B(  5-C ,  6-C ) :   0.9307
B(  5-C , 15-H ) :   0.9442 B(  5-C , 16-H ) :   0.9442 B(  6-C , 17-H ) :   0.9275
B(  6-C , 18-H ) :   0.9276

MP2 TOTAL ENERGY:     -273.297342028 Eh
FINAL SINGLE POINT ENERGY      -273.297342027977

DIPOLE MOMENT
-------------
                                X             Y             Z
Electronic contribution:      6.49533       7.63878      -0.00000
Nuclear contribution   :     -6.69604      -7.95219       0.00000
                        -----------------------------------------
Total Dipole Moment    :     -0.20071      -0.31341      -0.00000
                        -----------------------------------------
Magnitude (a.u.)       :      0.37217
Magnitude (Debye)      :      0.94598

Rotational constants in cm-1:     0.457272     0.027139     0.026235
Rotational constants in MHz : 13708.683543   813.601342   786.491684

                             ****ORCA TERMINATED NORMALLY****
TOTAL RUN TIME: 0 days 0 hours 6 minutes 33 seconds 424 msec
