                         Program Version 5.0.3 -  RELEASE  -
|  1> !ri-mp2 aug-cc-pvtz aug-cc-pvtz/c tightscf
|  2> %pal nprocs 16 end
|  3>
|  4> * xyz 0 1
|  5> O     -1.911245    0.085603   -0.071095
|  6> O      1.911245   -0.085603   -0.071094
|  7> C     -0.597007   -0.013624    0.006112
|  8> C      0.597007    0.013624    0.006111
|  9> H     -2.328814   -0.541074    0.532088
| 10> H      2.328813    0.541078    0.532085
| 11> *
| 12>
| 13>                          ****END OF INPUT****

CARTESIAN COORDINATES (ANGSTROEM)
---------------------------------
  O     -1.911245    0.085603   -0.071095
  O      1.911245   -0.085603   -0.071094
  C     -0.597007   -0.013624    0.006112
  C      0.597007    0.013624    0.006111
  H     -2.328814   -0.541074    0.532088
  H      2.328813    0.541078    0.532085

 Total Charge           Charge          ....    0
 Multiplicity           Mult            ....    1
 Number of Electrons    NEL             ....   30
 Basis Dimension        Dim             ....  230

ORBITAL ENERGIES
----------------

  NO   OCC          E(Eh)            E(eV)
   0   2.0000     -20.626820      -561.2843
   1   2.0000     -20.626819      -561.2843
   2   2.0000     -11.282761      -307.0195
   3   2.0000     -11.278872      -306.9137
   4   2.0000      -1.436271       -39.0829
   5   2.0000      -1.431294       -38.9475
   6   2.0000      -1.018840       -27.7241
   7   2.0000      -0.820088       -22.3157
   8   2.0000      -0.779940       -21.2232
   9   2.0000      -0.664263       -18.0755
  10   2.0000      -0.654971       -17.8227
  11   2.0000      -0.607002       -16.5174
  12   2.0000      -0.605536       -16.4775
  13   2.0000      -0.368731       -10.0337
  14   2.0000      -0.367124        -9.9899
  15   0.0000       0.023092         0.6284
  16   0.0000       0.031261         0.8507
  17   0.0000       0.081034         2.2050
  18   0.0000       0.086356         2.3499
  19   0.0000       0.102047         2.7768

MULLIKEN ATOMIC CHARGES
-----------------------
   0 O :   -0.415325
   1 O :   -0.415325
   2 C :    0.171265
   3 C :    0.171266
   4 H :    0.244059
   5 H :    0.244059
Sum of atomic charges:    0.0000000

LOEWDIN ATOMIC CHARGES
----------------------
   0 O :    0.740497
   1 O :    0.740498
   2 C :   -0.261625
   3 C :   -0.261625
   4 H :   -0.478872
   5 H :   -0.478873

  Mayer bond orders larger than 0.100000
B(  0-O ,  2-C ) :   1.0067 B(  0-O ,  4-H ) :   0.9499 B(  1-O ,  3-C ) :   1.0067
B(  1-O ,  5-H ) :   0.9499 B(  2-C ,  3-C ) :   2.4548

MP2 TOTAL ENERGY:     -227.389690716 Eh
FINAL SINGLE POINT ENERGY      -227.389690716008

DIPOLE MOMENT
-------------
                                X             Y             Z
Electronic contribution:      0.00000      -0.00000      -0.21292
Nuclear contribution   :     -0.00000       0.00000       1.03094
                        -----------------------------------------
Total Dipole Moment    :     -0.00000       0.00000       0.81802
                        -----------------------------------------
Magnitude (a.u.)       :      0.81802
Magnitude (Debye)      :      2.07924

Rotational constants in cm-1:    11.258902     0.122923     0.122861
Rotational constants in MHz : 337533.385472  3685.141380  3683.291528

                             ****ORCA TERMINATED NORMALLY****
TOTAL RUN TIME: 0 days 0 hours 1 minutes 8 seconds 756 msec
