                         Program Version 5.0.3 -  RELEASE  -
|  1> !ri-mp2 aug-cc-pvtz aug-cc-pvtz/c tightscf
|  2> %pal nprocs 16 end
|  3>
|  4> * xyz 0 1
|  5> C      0.100732   -1.751447        0.000000
|  6> C     -1.100249   -1.123375        0.000000
|  7> C      1.230486    0.248996        0.000000
|  8> C      0.000000    1.043061        0.000000
|  9> N      1.273925   -1.045277        0.000000
| 10> N     -1.140617    0.238051        0.000000
| 11> O     -0.072478    2.260456        0.000000
| 12> H      0.169795   -2.828181        0.000000
| 13> H     -2.046117   -1.644386        0.000000
| 14> H      2.160066    0.806767        0.000000
| 15> H     -2.022892    0.729333        0.000000
| 16> *
| 17>
| 18>                          ****END OF INPUT****

CARTESIAN COORDINATES (ANGSTROEM)
---------------------------------
  C      0.100732   -1.751447    0.000000
  C     -1.100249   -1.123375    0.000000
  C      1.230486    0.248996    0.000000
  C      0.000000    1.043061    0.000000
  N      1.273925   -1.045277    0.000000
  N     -1.140617    0.238051    0.000000
  O     -0.072478    2.260456    0.000000
  H      0.169795   -2.828181    0.000000
  H     -2.046117   -1.644386    0.000000
  H      2.160066    0.806767    0.000000
  H     -2.022892    0.729333    0.000000

 Total Charge           Charge          ....    0
 Multiplicity           Mult            ....    1
 Number of Electrons    NEL             ....   50
 Basis Dimension        Dim             ....  414

ORBITAL ENERGIES
----------------

  NO   OCC          E(Eh)            E(eV)
   0   2.0000     -20.534468      -558.7713
   1   2.0000     -15.642533      -425.6550
   2   2.0000     -15.606642      -424.6783
   3   2.0000     -11.372229      -309.4541
   4   2.0000     -11.315952      -307.9227
   5   2.0000     -11.294661      -307.3433
   6   2.0000     -11.273577      -306.7696
   7   2.0000      -1.402423       -38.1619
   8   2.0000      -1.311968       -35.7005
   9   2.0000      -1.247461       -33.9451
  10   2.0000      -1.054554       -28.6959
  11   2.0000      -0.934629       -25.4326
  12   2.0000      -0.894993       -24.3540
  13   2.0000      -0.777822       -21.1656
  14   2.0000      -0.739180       -20.1141
  15   2.0000      -0.682920       -18.5832
  16   2.0000      -0.650379       -17.6977
  17   2.0000      -0.631174       -17.1751
  18   2.0000      -0.630667       -17.1613
  19   2.0000      -0.582042       -15.8382
  20   2.0000      -0.512807       -13.9542
  21   2.0000      -0.489398       -13.3172
  22   2.0000      -0.481069       -13.0905
  23   2.0000      -0.421838       -11.4788
  24   2.0000      -0.329999        -8.9797
  25   0.0000       0.018532         0.5043
  26   0.0000       0.033466         0.9106
  27   0.0000       0.040507         1.1023
  28   0.0000       0.051418         1.3992
  29   0.0000       0.055006         1.4968

MULLIKEN ATOMIC CHARGES
-----------------------
   0 C :   -0.264011
   1 C :   -0.598982
   2 C :   -0.306209
   3 C :    0.396498
   4 N :   -0.457329
   5 N :    0.164540
   6 O :   -0.848583
   7 H :    0.554397
   8 H :    0.634175
   9 H :    0.569209
  10 H :    0.156295
Sum of atomic charges:    0.0000000

LOEWDIN ATOMIC CHARGES
----------------------
   0 C :    0.014408
   1 C :    0.120204
   2 C :    0.050762
   3 C :   -0.664320
   4 N :    0.362703
   5 N :    0.534855
   6 O :    0.413125
   7 H :   -0.213144
   8 H :   -0.163438
   9 H :   -0.196722
  10 H :   -0.258434

  Mayer bond orders larger than 0.100000
B(  0-C ,  1-C ) :   1.4162 B(  0-C ,  2-C ) :  -0.1037 B(  0-C ,  4-N ) :   0.7807
B(  0-C ,  5-N ) :  -0.1787 B(  0-C ,  7-H ) :   0.6473 B(  1-C ,  2-C ) :   0.1948
B(  1-C ,  3-C ) :  -0.2285 B(  1-C ,  5-N ) :   1.0091 B(  1-C ,  8-H ) :   0.5267
B(  2-C ,  3-C ) :   0.9107 B(  2-C ,  4-N ) :   1.3239 B(  2-C ,  9-H ) :   0.5844
B(  3-C ,  5-N ) :   1.0478 B(  3-C ,  6-O ) :   1.4642 B(  5-N ,  6-O ) :  -0.1033
B(  5-N , 10-H ) :   1.0428

MP2 TOTAL ENERGY:     -338.945359245 Eh
FINAL SINGLE POINT ENERGY      -338.945359244834

DIPOLE MOMENT
-------------
                                X             Y             Z
Electronic contribution:      0.54574       1.66923       0.00000
Nuclear contribution   :     -1.69995      -2.83949       0.00000
                        -----------------------------------------
Total Dipole Moment    :     -1.15421      -1.17026       0.00000
                        -----------------------------------------
Magnitude (a.u.)       :      1.64369
Magnitude (Debye)      :      4.17792

Rotational constants in cm-1:     0.194690     0.095836     0.064223
Rotational constants in MHz :  5836.661124  2873.089659  1925.342198

                             ****ORCA TERMINATED NORMALLY****
TOTAL RUN TIME: 0 days 0 hours 3 minutes 17 seconds 612 msec
