                         Program Version 5.0.3 -  RELEASE  -
|  1> !ri-mp2 aug-cc-pvtz aug-cc-pvtz/c tightscf
|  2> %pal nprocs 16 end
|  3> %maxcore 3800
|  4>
|  5> * xyz 0 1
|  6> C     -1.970214    0.143052    0.172978
|  7> C     -1.480744   -1.307690    0.157221
|  8> C     -1.121757    1.024428   -0.749887
|  9> C      0.015884   -1.401750    0.468056
| 10> C      0.383838    0.959334   -0.431292
| 11> C      0.859319   -0.515324   -0.460979
| 12> C      0.725765    1.702133    0.867397
| 13> C      2.355971   -0.676582   -0.191592
| 14> H     -3.018288    0.190873   -0.131201
| 15> H     -1.932318    0.529274    1.195719
| 16> H     -2.052364   -1.909311    0.867681
| 17> H     -1.667570   -1.737320   -0.832885
| 18> H     -1.274482    0.696175   -1.783249
| 19> H     -1.464303    2.061271   -0.701898
| 20> H      0.192158   -1.114610    1.509552
| 21> H      0.350636   -2.438687    0.380000
| 22> H      0.910384    1.478545   -1.239286
| 23> H      0.676087   -0.866606   -1.483879
| 24> H      0.286020    1.232479    1.747768
| 25> H      1.802459    1.755395    1.027304
| 26> H      0.352228    2.726827    0.824022
| 27> H      2.609678   -0.437246    0.842406
| 28> H      2.671869   -1.705362   -0.374491
| 29> H      2.949430   -0.027309   -0.838979
| 30> *
| 31>
| 32>                          ****END OF INPUT****

CARTESIAN COORDINATES (ANGSTROEM)
---------------------------------
  C     -1.970214    0.143052    0.172978
  C     -1.480744   -1.307690    0.157221
  C     -1.121757    1.024428   -0.749887
  C      0.015884   -1.401750    0.468056
  C      0.383838    0.959334   -0.431292
  C      0.859319   -0.515324   -0.460979
  C      0.725765    1.702133    0.867397
  C      2.355971   -0.676582   -0.191592
  H     -3.018288    0.190873   -0.131201
  H     -1.932318    0.529274    1.195719
  H     -2.052364   -1.909311    0.867681
  H     -1.667570   -1.737320   -0.832885
  H     -1.274482    0.696175   -1.783249
  H     -1.464303    2.061271   -0.701898
  H      0.192158   -1.114610    1.509552
  H      0.350636   -2.438687    0.380000
  H      0.910384    1.478545   -1.239286
  H      0.676087   -0.866606   -1.483879
  H      0.286020    1.232479    1.747768
  H      1.802459    1.755395    1.027304
  H      0.352228    2.726827    0.824022
  H      2.609678   -0.437246    0.842406
  H      2.671869   -1.705362   -0.374491
  H      2.949430   -0.027309   -0.838979

 Total Charge           Charge          ....    0
 Multiplicity           Mult            ....    1
 Number of Electrons    NEL             ....   64
 Basis Dimension        Dim             ....  736

ORBITAL ENERGIES
----------------

  NO   OCC          E(Eh)            E(eV)
   0   2.0000     -11.218231      -305.2636
   1   2.0000     -11.217472      -305.2429
   2   2.0000     -11.211323      -305.0756
   3   2.0000     -11.210627      -305.0567
   4   2.0000     -11.209857      -305.0357
   5   2.0000     -11.209460      -305.0249
   6   2.0000     -11.206051      -304.9321
   7   2.0000     -11.205251      -304.9104
   8   2.0000      -1.121688       -30.5227
   9   2.0000      -1.029667       -28.0187
  10   2.0000      -1.017796       -27.6956
  11   2.0000      -0.939249       -25.5583
  12   2.0000      -0.896415       -24.3927
  13   2.0000      -0.815765       -22.1981
  14   2.0000      -0.796253       -21.6671
  15   2.0000      -0.720120       -19.5954
  16   2.0000      -0.646795       -17.6002
  17   2.0000      -0.619570       -16.8594
  18   2.0000      -0.601866       -16.3776
  19   2.0000      -0.590749       -16.0751
  20   2.0000      -0.565394       -15.3852
  21   2.0000      -0.553630       -15.0650
  22   2.0000      -0.537411       -14.6237
  23   2.0000      -0.525540       -14.3007
  24   2.0000      -0.509777       -13.8717
  25   2.0000      -0.494668       -13.4606
  26   2.0000      -0.478555       -13.0221
  27   2.0000      -0.472290       -12.8517
  28   2.0000      -0.460502       -12.5309
  29   2.0000      -0.436268       -11.8715
  30   2.0000      -0.417936       -11.3726
  31   2.0000      -0.414161       -11.2699
  32   0.0000       0.029872         0.8128
  33   0.0000       0.033943         0.9236
  34   0.0000       0.034799         0.9469
  35   0.0000       0.036153         0.9838
  36   0.0000       0.048283         1.3138

MULLIKEN ATOMIC CHARGES
-----------------------
   0 C :   -0.438677
   1 C :   -0.613930
   2 C :   -0.744962
   3 C :   -0.522409
   4 C :    0.260171
   5 C :    0.236964
   6 C :   -1.042630
   7 C :   -1.187755
   8 H :    0.352472
   9 H :    0.112362
  10 H :    0.326453
  11 H :    0.092454
  12 H :    0.135923
  13 H :    0.282289
  14 H :    0.165885
  15 H :    0.351902
  16 H :    0.395229
  17 H :    0.411435
  18 H :    0.265920
  19 H :    0.244488
  20 H :    0.224112
  21 H :    0.266902
  22 H :    0.191045
  23 H :    0.234358
Sum of atomic charges:    0.0000000

LOEWDIN ATOMIC CHARGES
----------------------
   0 C :    0.296654
   1 C :    0.300470
   2 C :    0.304654
   3 C :    0.298473
   4 C :    0.003081
   5 C :   -0.011252
   6 C :    0.594950
   7 C :    0.592436
   8 H :   -0.141339
   9 H :   -0.147310
  10 H :   -0.141695
  11 H :   -0.140249
  12 H :   -0.138039
  13 H :   -0.141161
  14 H :   -0.143044
  15 H :   -0.137205
  16 H :   -0.129936
  17 H :   -0.128686
  18 H :   -0.170350
  19 H :   -0.170848
  20 H :   -0.159846
  21 H :   -0.169208
  22 H :   -0.162522
  23 H :   -0.158030

  Mayer bond orders larger than 0.100000
B(  0-C ,  1-C ) :   0.8777 B(  0-C ,  2-C ) :   0.9001 B(  0-C ,  8-H ) :   0.8837
B(  0-C ,  9-H ) :   1.0726 B(  1-C ,  3-C ) :   0.9419 B(  1-C , 10-H ) :   0.8913
B(  1-C , 11-H ) :   1.1036 B(  2-C ,  4-C ) :   0.9462 B(  2-C , 12-H ) :   1.1002
B(  2-C , 13-H ) :   0.9425 B(  3-C ,  4-C ) :   0.1139 B(  3-C ,  5-C ) :   0.8255
B(  3-C , 14-H ) :   1.0608 B(  3-C , 15-H ) :   0.8596 B(  4-C ,  5-C ) :   1.0036
B(  4-C ,  6-C ) :   0.6526 B(  4-C , 16-H ) :   0.8526 B(  5-C ,  6-C ) :   0.1022
B(  5-C ,  7-C ) :   0.5935 B(  5-C , 17-H ) :   0.8276 B(  6-C , 18-H ) :   1.0120
B(  6-C , 19-H ) :   1.0056 B(  6-C , 20-H ) :   1.0307 B(  7-C , 21-H ) :   1.0234
B(  7-C , 22-H ) :   1.0982 B(  7-C , 23-H ) :   1.0466

MP2 TOTAL ENERGY:     -313.800134049 Eh
FINAL SINGLE POINT ENERGY      -313.800134048985

DIPOLE MOMENT
-------------
                                X             Y             Z
Electronic contribution:     -1.51035      -0.47027      -1.12144
Nuclear contribution   :      1.49060       0.46528       1.08031
                        -----------------------------------------
Total Dipole Moment    :     -0.01975      -0.00499      -0.04113
                        -----------------------------------------
Magnitude (a.u.)       :      0.04590
Magnitude (Debye)      :      0.11666

Rotational constants in cm-1:     0.087655     0.063193     0.045308
Rotational constants in MHz :  2627.830699  1894.464601  1358.286892

                             ****ORCA TERMINATED NORMALLY****
TOTAL RUN TIME: 0 days 0 hours 15 minutes 40 seconds 987 msec
