                         Program Version 5.0.3 -  RELEASE  -
|  1> !ri-mp2 aug-cc-pvtz aug-cc-pvtz/c tightscf
|  2> %pal nprocs 16 end
|  3>
|  4> * xyz 0 1
|  5> O     -0.672368   -0.891320        0.000000
|  6> N      0.733709   -0.902550        0.000000
|  7> N      1.120509    0.284725        0.000000
|  8> C      0.000000    1.089677        0.000000
|  9> N     -1.090635    0.393352        0.000000
| 10> H      0.033864    2.163813        0.000000
| 11> *
| 12>
| 13>                          ****END OF INPUT****

CARTESIAN COORDINATES (ANGSTROEM)
---------------------------------
  O     -0.672368   -0.891320    0.000000
  N      0.733709   -0.902550    0.000000
  N      1.120509    0.284725    0.000000
  C      0.000000    1.089677    0.000000
  N     -1.090635    0.393352    0.000000
  H      0.033864    2.163813    0.000000

 Total Charge           Charge          ....    0
 Multiplicity           Mult            ....    1
 Number of Electrons    NEL             ....   36
 Basis Dimension        Dim             ....  253

ORBITAL ENERGIES
----------------

  NO   OCC          E(Eh)            E(eV)
   0   2.0000     -20.713258      -563.6364
   1   2.0000     -15.738227      -428.2589
   2   2.0000     -15.685096      -426.8132
   3   2.0000     -15.666389      -426.3041
   4   2.0000     -11.341722      -308.6239
   5   2.0000      -1.597047       -43.4578
   6   2.0000      -1.360234       -37.0138
   7   2.0000      -1.229368       -33.4528
   8   2.0000      -0.947612       -25.7858
   9   2.0000      -0.907745       -24.7010
  10   2.0000      -0.775577       -21.1045
  11   2.0000      -0.728248       -19.8166
  12   2.0000      -0.648139       -17.6367
  13   2.0000      -0.608513       -16.5585
  14   2.0000      -0.536628       -14.6024
  15   2.0000      -0.525674       -14.3043
  16   2.0000      -0.510859       -13.9012
  17   2.0000      -0.458812       -12.4849
  18   0.0000       0.026110         0.7105
  19   0.0000       0.057882         1.5750
  20   0.0000       0.069082         1.8798
  21   0.0000       0.071248         1.9388
  22   0.0000       0.073406         1.9975

MULLIKEN ATOMIC CHARGES
-----------------------
   0 O :   -0.199542
   1 N :   -0.052009
   2 N :   -0.123029
   3 C :   -0.103981
   4 N :   -0.183760
   5 H :    0.662321
Sum of atomic charges:    0.0000000

LOEWDIN ATOMIC CHARGES
----------------------
   0 O :    0.236359
   1 N :   -0.014572
   2 N :    0.118479
   3 C :   -0.221605
   4 N :    0.091828
   5 H :   -0.210489

  Mayer bond orders larger than 0.100000
B(  0-O ,  1-N ) :   0.8113 B(  0-O ,  4-N ) :   0.8380 B(  1-N ,  2-N ) :   1.2048
B(  1-N ,  4-N ) :   0.1255 B(  2-N ,  3-C ) :   1.0013 B(  3-C ,  4-N ) :   1.5244
B(  3-C ,  5-H ) :   0.5115

MP2 TOTAL ENERGY:     -277.640853118 Eh
FINAL SINGLE POINT ENERGY      -277.640853118011

DIPOLE MOMENT
-------------
                                X             Y             Z
Electronic contribution:      0.05370      -1.16720       0.00000
Nuclear contribution   :      0.02641       2.04476       0.00000
                        -----------------------------------------
Total Dipole Moment    :      0.08011       0.87756       0.00000
                        -----------------------------------------
Magnitude (a.u.)       :      0.88121
Magnitude (Debye)      :      2.23985

Rotational constants in cm-1:     0.367175     0.340899     0.176775
Rotational constants in MHz : 11007.638176 10219.903875  5299.577491

                             ****ORCA TERMINATED NORMALLY****
TOTAL RUN TIME: 0 days 0 hours 1 minutes 29 seconds 614 msec
