                         Program Version 5.0.3 -  RELEASE  -
|  1> !ri-mp2 aug-cc-pvtz aug-cc-pvtz/c tightscf
|  2> %pal nprocs 16 end
|  3>
|  4> * xyz 0 1
|  5> C      2.480915   -0.213181   -0.298890
|  6> C      1.414749    0.338000    0.268186
|  7> C     -2.425591   -0.196397   -0.076523
|  8> C      0.075276   -0.316078    0.421811
|  9> C     -1.056864    0.450771   -0.277621
| 10> H      3.419178    0.318761   -0.382304
| 11> H      2.453489   -1.220352   -0.698261
| 12> H      1.492545    1.352012    0.652650
| 13> H     -2.441485   -1.215257   -0.468708
| 14> H     -3.209396    0.366453   -0.584990
| 15> H     -2.686714   -0.246940    0.982557
| 16> H      0.119287   -1.338660    0.037811
| 17> H     -0.166785   -0.392388    1.488258
| 18> H     -0.832514    0.519273   -1.344984
| 19> H     -1.078509    1.478406    0.096191
| 20> *
| 21>
| 22>                          ****END OF INPUT****

CARTESIAN COORDINATES (ANGSTROEM)
---------------------------------
  C      2.480915   -0.213181   -0.298890
  C      1.414749    0.338000    0.268186
  C     -2.425591   -0.196397   -0.076523
  C      0.075276   -0.316078    0.421811
  C     -1.056864    0.450771   -0.277621
  H      3.419178    0.318761   -0.382304
  H      2.453489   -1.220352   -0.698261
  H      1.492545    1.352012    0.652650
  H     -2.441485   -1.215257   -0.468708
  H     -3.209396    0.366453   -0.584990
  H     -2.686714   -0.246940    0.982557
  H      0.119287   -1.338660    0.037811
  H     -0.166785   -0.392388    1.488258
  H     -0.832514    0.519273   -1.344984
  H     -1.078509    1.478406    0.096191

 Total Charge           Charge          ....    0
 Multiplicity           Mult            ....    1
 Number of Electrons    NEL             ....   40
 Basis Dimension        Dim             ....  460

ORBITAL ENERGIES
----------------

  NO   OCC          E(Eh)            E(eV)
   0   2.0000     -11.229945      -305.5823
   1   2.0000     -11.223116      -305.3965
   2   2.0000     -11.220886      -305.3358
   3   2.0000     -11.216404      -305.2139
   4   2.0000     -11.212719      -305.1136
   5   2.0000      -1.087740       -29.5989
   6   2.0000      -1.022671       -27.8283
   7   2.0000      -0.923366       -25.1261
   8   2.0000      -0.812247       -22.1024
   9   2.0000      -0.756035       -20.5728
  10   2.0000      -0.649443       -17.6723
  11   2.0000      -0.615817       -16.7572
  12   2.0000      -0.590913       -16.0796
  13   2.0000      -0.566489       -15.4150
  14   2.0000      -0.537871       -14.6362
  15   2.0000      -0.510369       -13.8878
  16   2.0000      -0.482829       -13.1384
  17   2.0000      -0.471655       -12.8344
  18   2.0000      -0.469927       -12.7874
  19   2.0000      -0.358543        -9.7564
  20   0.0000       0.031207         0.8492
  21   0.0000       0.035538         0.9670
  22   0.0000       0.037352         1.0164
  23   0.0000       0.040584         1.1044
  24   0.0000       0.052438         1.4269

MULLIKEN ATOMIC CHARGES
-----------------------
   0 C :   -1.060738
   1 C :   -0.262706
   2 C :   -0.967814
   3 C :   -0.102973
   4 C :   -0.427548
   5 H :    0.527799
   6 H :    0.218066
   7 H :    0.223850
   8 H :    0.278854
   9 H :    0.274844
  10 H :    0.276318
  11 H :    0.193679
  12 H :    0.299478
  13 H :    0.283260
  14 H :    0.245632
Sum of atomic charges:    0.0000000

LOEWDIN ATOMIC CHARGES
----------------------
   0 C :    0.522579
   1 C :    0.176671
   2 C :    0.576850
   3 C :    0.235173
   4 C :    0.252065
   5 H :   -0.230951
   6 H :   -0.222847
   7 H :   -0.184338
   8 H :   -0.171096
   9 H :   -0.173842
  10 H :   -0.171968
  11 H :   -0.158399
  12 H :   -0.149230
  13 H :   -0.149137
  14 H :   -0.151530

  Mayer bond orders larger than 0.100000
B(  0-C ,  1-C ) :   1.4071 B(  0-C ,  5-H ) :   0.6138 B(  0-C ,  6-H ) :   1.1427
B(  1-C ,  3-C ) :   0.7628 B(  1-C ,  7-H ) :   1.0959 B(  2-C ,  4-C ) :   0.8953
B(  2-C ,  8-H ) :   0.9499 B(  2-C ,  9-H ) :   0.9633 B(  2-C , 10-H ) :   0.9451
B(  3-C ,  4-C ) :   0.9316 B(  3-C , 11-H ) :   0.9827 B(  3-C , 12-H ) :   0.9312
B(  4-C , 13-H ) :   0.9468 B(  4-C , 14-H ) :   0.9610

MP2 TOTAL ENERGY:     -196.083724562 Eh
FINAL SINGLE POINT ENERGY      -196.083724561612

DIPOLE MOMENT
-------------
                                X             Y             Z
Electronic contribution:      2.96949       0.43204       0.26527
Nuclear contribution   :     -3.13935      -0.40562      -0.23755
                        -----------------------------------------
Total Dipole Moment    :     -0.16986       0.02641       0.02771
                        -----------------------------------------
Magnitude (a.u.)       :      0.17412
Magnitude (Debye)      :      0.44258

Rotational constants in cm-1:     0.616880     0.070431     0.069277
Rotational constants in MHz : 18493.590493  2111.482657  2076.857963

                             ****ORCA TERMINATED NORMALLY****
TOTAL RUN TIME: 0 days 0 hours 2 minutes 54 seconds 993 msec
