                         Program Version 5.0.3 -  RELEASE  -
|  1> !ri-mp2 aug-cc-pvtz aug-cc-pvtz/c tightscf
|  2> %pal nprocs 16 end
|  3> %maxcore 3800
|  4>
|  5> * xyz 0 1
|  6> O      1.361068   -2.102147    0.000000
|  7> C      1.045295   -0.935880   -0.000003
|  8> C     -0.368855   -0.479577    0.000039
|  9> C     -0.663338    0.897964    0.000004
| 10> C     -1.998519    1.302976   -0.000021
| 11> C     -3.022439    0.362805   -0.000027
| 12> C     -2.725364   -0.995943   -0.000004
| 13> C     -1.400135   -1.413451    0.000019
| 14> C      0.412017    1.881771    0.000016
| 15> C      1.715208    1.558479    0.000033
| 16> C      2.154699    0.161657    0.000003
| 17> O      3.320597   -0.165604   -0.000046
| 18> H     -2.234107    2.359259   -0.000035
| 19> H     -4.052746    0.691593   -0.000046
| 20> H     -3.523054   -1.725709    0.000000
| 21> H     -1.145325   -2.463972    0.000055
| 22> H      0.118437    2.925051    0.000016
| 23> H      2.492067    2.310977    0.000032
| 24> *
| 25>
| 26>                          ****END OF INPUT****

CARTESIAN COORDINATES (ANGSTROEM)
---------------------------------
  O      1.361068   -2.102147    0.000000
  C      1.045295   -0.935880   -0.000003
  C     -0.368855   -0.479577    0.000039
  C     -0.663338    0.897964    0.000004
  C     -1.998519    1.302976   -0.000021
  C     -3.022439    0.362805   -0.000027
  C     -2.725364   -0.995943   -0.000004
  C     -1.400135   -1.413451    0.000019
  C      0.412017    1.881771    0.000016
  C      1.715208    1.558479    0.000033
  C      2.154699    0.161657    0.000003
  O      3.320597   -0.165604   -0.000046
  H     -2.234107    2.359259   -0.000035
  H     -4.052746    0.691593   -0.000046
  H     -3.523054   -1.725709    0.000000
  H     -1.145325   -2.463972    0.000055
  H      0.118437    2.925051    0.000016
  H      2.492067    2.310977    0.000032

 Total Charge           Charge          ....    0
 Multiplicity           Mult            ....    1
 Number of Electrons    NEL             ....   82
 Basis Dimension        Dim             ....  690

ORBITAL ENERGIES
----------------

  NO   OCC          E(Eh)            E(eV)
   0   2.0000     -20.572597      -559.8088
   1   2.0000     -20.570146      -559.7421
   2   2.0000     -11.352109      -308.9066
   3   2.0000     -11.348130      -308.7983
   4   2.0000     -11.288450      -307.1743
   5   2.0000     -11.282912      -307.0236
   6   2.0000     -11.270463      -306.6849
   7   2.0000     -11.268831      -306.6405
   8   2.0000     -11.267044      -306.5919
   9   2.0000     -11.266909      -306.5882
  10   2.0000     -11.262534      -306.4691
  11   2.0000     -11.261518      -306.4415
  12   2.0000      -1.422445       -38.7067
  13   2.0000      -1.391754       -37.8716
  14   2.0000      -1.202037       -32.7091
  15   2.0000      -1.127006       -30.6674
  16   2.0000      -1.062632       -28.9157
  17   2.0000      -1.035925       -28.1889
  18   2.0000      -0.959730       -26.1156
  19   2.0000      -0.880259       -23.9531
  20   2.0000      -0.851774       -23.1779
  21   2.0000      -0.825251       -22.4562
  22   2.0000      -0.742803       -20.2127
  23   2.0000      -0.727816       -19.8049
  24   2.0000      -0.703254       -19.1365
  25   2.0000      -0.663569       -18.0566
  26   2.0000      -0.656245       -17.8573
  27   2.0000      -0.639874       -17.4119
  28   2.0000      -0.627345       -17.0709
  29   2.0000      -0.620621       -16.8879
  30   2.0000      -0.599646       -16.3172
  31   2.0000      -0.583089       -15.8667
  32   2.0000      -0.544501       -14.8166
  33   2.0000      -0.539324       -14.6758
  34   2.0000      -0.525218       -14.2919
  35   2.0000      -0.518677       -14.1139
  36   2.0000      -0.488130       -13.2827
  37   2.0000      -0.439581       -11.9616
  38   2.0000      -0.413174       -11.2430
  39   2.0000      -0.367769       -10.0075
  40   2.0000      -0.339170        -9.2293
  41   0.0000       0.003607         0.0982
  42   0.0000       0.018750         0.5102
  43   0.0000       0.025420         0.6917
  44   0.0000       0.033275         0.9055
  45   0.0000       0.043511         1.1840

MULLIKEN ATOMIC CHARGES
-----------------------
   0 O :   -1.097289
   1 C :    1.100398
   2 C :    1.245079
   3 C :    1.599278
   4 C :   -1.238235
   5 C :   -0.368266
   6 C :   -0.269571
   7 C :   -1.353770
   8 C :   -1.047239
   9 C :   -0.692634
  10 C :    0.896440
  11 O :   -1.030008
  12 H :    0.182949
  13 H :    0.522961
  14 H :    0.632688
  15 H :    0.141008
  16 H :    0.317766
  17 H :    0.458444
Sum of atomic charges:    0.0000000

LOEWDIN ATOMIC CHARGES
----------------------
   0 O :    0.489292
   1 C :   -0.494268
   2 C :   -0.108907
   3 C :   -0.126484
   4 C :    0.230041
   5 C :    0.222631
   6 C :    0.226744
   7 C :    0.228774
   8 C :    0.229958
   9 C :    0.223293
  10 C :   -0.526665
  11 O :    0.470876
  12 H :   -0.176362
  13 H :   -0.175448
  14 H :   -0.179358
  15 H :   -0.176272
  16 H :   -0.169083
  17 H :   -0.188763

  Mayer bond orders larger than 0.100000
B(  0-O ,  1-C ) :   0.3097 B(  0-O , 10-C ) :   0.1183 B(  0-O , 15-H ) :   0.1168
B(  1-C ,  2-C ) :   0.4495 B(  1-C ,  7-C ) :   0.4981 B(  1-C ,  8-C ) :  -0.2022
B(  1-C , 10-C ) :   0.8538 B(  1-C , 14-H ) :   0.1195 B(  2-C ,  3-C ) :   0.8374
B(  2-C ,  4-C ) :  -0.2512 B(  2-C ,  7-C ) :   0.1445 B(  2-C , 10-C ) :   0.2872
B(  2-C , 12-H ) :  -0.1338 B(  3-C ,  4-C ) :   0.3059 B(  3-C ,  7-C ) :  -0.1637
B(  3-C ,  8-C ) :  -0.1001 B(  3-C , 10-C ) :  -0.2958 B(  3-C , 11-O ) :   0.1053
B(  3-C , 16-H ) :  -0.1528 B(  4-C ,  5-C ) :   1.0373 B(  4-C ,  8-C ) :   0.4254
B(  4-C , 12-H ) :   1.4016 B(  4-C , 13-H ) :  -0.1720 B(  5-C ,  6-C ) :   1.1143
B(  5-C , 13-H ) :   0.6792 B(  6-C ,  7-C ) :   1.1290 B(  6-C ,  8-C ) :   0.1075
B(  6-C , 14-H ) :   0.5520 B(  7-C , 14-H ) :  -0.2527 B(  7-C , 15-H ) :   1.3778
B(  8-C ,  9-C ) :   1.8067 B(  8-C , 11-O ) :   0.1551 B(  8-C , 16-H ) :   0.9926
B(  9-C , 10-C ) :   0.6978 B(  9-C , 11-O ) :   0.1141 B(  9-C , 16-H ) :  -0.1112
B(  9-C , 17-H ) :   0.6443 B( 10-C , 11-O ) :   0.5384

MP2 TOTAL ENERGY:     -534.099585418 Eh
FINAL SINGLE POINT ENERGY      -534.099585417584

DIPOLE MOMENT
-------------
                                X             Y             Z
Electronic contribution:      5.80424      -2.44057       0.00001
Nuclear contribution   :     -8.05369       3.95478       0.00002
                        -----------------------------------------
Total Dipole Moment    :     -2.24944       1.51420       0.00003
                        -----------------------------------------
Magnitude (a.u.)       :      2.71160
Magnitude (Debye)      :      6.89235

Rotational constants in cm-1:     0.066628     0.026713     0.019068
Rotational constants in MHz :  1997.467801   800.831442   571.645447

                             ****ORCA TERMINATED NORMALLY****
TOTAL RUN TIME: 0 days 0 hours 16 minutes 29 seconds 833 msec
