                         Program Version 5.0.3 -  RELEASE  -
|  1> !ri-mp2 aug-cc-pvtz aug-cc-pvtz/c tightscf
|  2> %pal nprocs 16 end
|  3>
|  4> * xyz 0 1
|  5> C      3.289623   -0.683161    0.151762
|  6> C      2.227943    0.295481   -0.346814
|  7> C      0.848628    0.047344    0.264611
|  8> C     -0.212368    1.027510   -0.233040
|  9> C     -1.589905    0.838545    0.373045
| 10> Cl    -2.363950   -0.734686   -0.125608
| 11> H      3.018596   -1.713424   -0.086887
| 12> H      3.409472   -0.616939    1.235067
| 13> H      4.260930   -0.481964   -0.301814
| 14> H      2.544221    1.319704   -0.126280
| 15> H      2.154297    0.228978   -1.436338
| 16> H      0.918418    0.115557    1.355563
| 17> H      0.530695   -0.973458    0.040898
| 18> H     -0.289842    0.977813   -1.321766
| 19> H      0.095882    2.051249    0.008963
| 20> H     -1.558172    0.815998    1.459589
| 21> H     -2.280876    1.611830    0.050962
| 22> *
| 23>
| 24>                          ****END OF INPUT****

CARTESIAN COORDINATES (ANGSTROEM)
---------------------------------
  C      3.289623   -0.683161    0.151762
  C      2.227943    0.295481   -0.346814
  C      0.848628    0.047344    0.264611
  C     -0.212368    1.027510   -0.233040
  C     -1.589905    0.838545    0.373045
  Cl    -2.363950   -0.734686   -0.125608
  H      3.018596   -1.713424   -0.086887
  H      3.409472   -0.616939    1.235067
  H      4.260930   -0.481964   -0.301814
  H      2.544221    1.319704   -0.126280
  H      2.154297    0.228978   -1.436338
  H      0.918418    0.115557    1.355563
  H      0.530695   -0.973458    0.040898
  H     -0.289842    0.977813   -1.321766
  H      0.095882    2.051249    0.008963
  H     -1.558172    0.815998    1.459589
  H     -2.280876    1.611830    0.050962

 Total Charge           Charge          ....    0
 Multiplicity           Mult            ....    1
 Number of Electrons    NEL             ....   58
 Basis Dimension        Dim             ....  533

ORBITAL ENERGIES
----------------

  NO   OCC          E(Eh)            E(eV)
   0   2.0000    -104.817023     -2852.2162
   1   2.0000     -11.293189      -307.3033
   2   2.0000     -11.236023      -305.7477
   3   2.0000     -11.222491      -305.3795
   4   2.0000     -11.221826      -305.3614
   5   2.0000     -11.213539      -305.1359
   6   2.0000     -10.541080      -286.8374
   7   2.0000      -8.007843      -217.9045
   8   2.0000      -8.006190      -217.8595
   9   2.0000      -8.006160      -217.8587
  10   2.0000      -1.133211       -30.8362
  11   2.0000      -1.073758       -29.2185
  12   2.0000      -1.006105       -27.3775
  13   2.0000      -0.917339       -24.9621
  14   2.0000      -0.825753       -22.4699
  15   2.0000      -0.794326       -21.6147
  16   2.0000      -0.657381       -17.8882
  17   2.0000      -0.634342       -17.2613
  18   2.0000      -0.603831       -16.4311
  19   2.0000      -0.580474       -15.7955
  20   2.0000      -0.572187       -15.5700
  21   2.0000      -0.536305       -14.5936
  22   2.0000      -0.515712       -14.0332
  23   2.0000      -0.489594       -13.3225
  24   2.0000      -0.475532       -12.9399
  25   2.0000      -0.472607       -12.8603
  26   2.0000      -0.468689       -12.7537
  27   2.0000      -0.428354       -11.6561
  28   2.0000      -0.426001       -11.5921
  29   0.0000       0.028407         0.7730
  30   0.0000       0.032251         0.8776
  31   0.0000       0.036322         0.9884
  32   0.0000       0.042150         1.1470
  33   0.0000       0.052010         1.4153

MULLIKEN ATOMIC CHARGES
-----------------------
   0 C :   -0.973231
   1 C :   -0.485500
   2 C :   -0.320763
   3 C :   -0.462028
   4 C :   -0.298185
   5 Cl:   -0.383759
   6 H :    0.270264
   7 H :    0.268237
   8 H :    0.269079
   9 H :    0.247455
  10 H :    0.251793
  11 H :    0.260838
  12 H :    0.309369
  13 H :    0.305363
  14 H :    0.243113
  15 H :    0.238485
  16 H :    0.259471
Sum of atomic charges:   -0.0000000

LOEWDIN ATOMIC CHARGES
----------------------
   0 C :    0.580303
   1 C :    0.255309
   2 C :    0.243170
   3 C :    0.187627
   4 C :   -0.230073
   5 Cl:    0.865799
   6 H :   -0.170224
   7 H :   -0.171023
   8 H :   -0.173437
   9 H :   -0.148337
  10 H :   -0.147296
  11 H :   -0.143574
  12 H :   -0.167916
  13 H :   -0.157462
  14 H :   -0.147854
  15 H :   -0.235677
  16 H :   -0.239334

  Mayer bond orders larger than 0.100000
B(  0-C ,  1-C ) :   0.9098 B(  0-C ,  6-H ) :   0.9580 B(  0-C ,  7-H ) :   0.9605
B(  0-C ,  8-H ) :   0.9916 B(  1-C ,  2-C ) :   0.8864 B(  1-C ,  9-H ) :   0.9578
B(  1-C , 10-H ) :   0.9549 B(  2-C ,  3-C ) :   0.9035 B(  2-C , 11-H ) :   0.9547
B(  2-C , 12-H ) :   0.9382 B(  3-C ,  4-C ) :   1.0028 B(  3-C , 13-H ) :   0.9181
B(  3-C , 14-H ) :   0.9441 B(  4-C ,  5-Cl) :   0.7271 B(  4-C , 15-H ) :   0.9709
B(  4-C , 16-H ) :   0.9829

MP2 TOTAL ENERGY:     -656.432864933 Eh
FINAL SINGLE POINT ENERGY      -656.432864933248

DIPOLE MOMENT
-------------
                                X             Y             Z
Electronic contribution:    -16.00574      -3.72127      -0.88775
Nuclear contribution   :     16.53975       4.48240       1.08080
                        -----------------------------------------
Total Dipole Moment    :      0.53401       0.76112       0.19305
                        -----------------------------------------
Magnitude (a.u.)       :      0.94960
Magnitude (Debye)      :      2.41369

Rotational constants in cm-1:     0.221340     0.033751     0.030886
Rotational constants in MHz :  6635.612852  1011.841360   925.929488

                             ****ORCA TERMINATED NORMALLY****
TOTAL RUN TIME: 0 days 0 hours 5 minutes 9 seconds 625 msec
