                         Program Version 5.0.3 -  RELEASE  -
|  1> !ri-mp2 aug-cc-pvtz aug-cc-pvtz/c tightscf
|  2> %pal nprocs 16 end
|  3> %maxcore 3800
|  4>
|  5> * xyz 0 1
|  6> C      3.923243   -0.294842    0.000054
|  7> C      2.698256    0.617692   -0.000087
|  8> C      1.382566   -0.165828    0.000024
|  9> C      0.168891    0.759188   -0.000133
| 10> S     -1.375513   -0.194329    0.000033
| 11> C     -2.659703    1.068823   -0.000208
| 12> O     -1.466231   -0.923301   -1.262796
| 13> O     -1.466246   -0.922837    1.263128
| 14> H      3.934055   -0.938927    0.881033
| 15> H      3.934060   -0.939189   -0.880734
| 16> H      4.846873    0.284744   -0.000030
| 17> H      2.730480    1.272993   -0.875356
| 18> H      2.730472    1.273253    0.874988
| 19> H      1.338291   -0.814008    0.877013
| 20> H      1.338307   -0.814284   -0.876761
| 21> H      0.138588    1.388271   -0.890317
| 22> H      0.138590    1.388574    0.889838
| 23> H     -3.601690    0.525093   -0.000121
| 24> H     -2.569767    1.670989    0.899941
| 25> H     -2.569747    1.670664   -0.900573
| 26> *
| 27>
| 28>                          ****END OF INPUT****

CARTESIAN COORDINATES (ANGSTROEM)
---------------------------------
  C      3.923243   -0.294842    0.000054
  C      2.698256    0.617692   -0.000087
  C      1.382566   -0.165828    0.000024
  C      0.168891    0.759188   -0.000133
  S     -1.375513   -0.194329    0.000033
  C     -2.659703    1.068823   -0.000208
  O     -1.466231   -0.923301   -1.262796
  O     -1.466246   -0.922837    1.263128
  H      3.934055   -0.938927    0.881033
  H      3.934060   -0.939189   -0.880734
  H      4.846873    0.284744   -0.000030
  H      2.730480    1.272993   -0.875356
  H      2.730472    1.273253    0.874988
  H      1.338291   -0.814008    0.877013
  H      1.338307   -0.814284   -0.876761
  H      0.138588    1.388271   -0.890317
  H      0.138590    1.388574    0.889838
  H     -3.601690    0.525093   -0.000121
  H     -2.569767    1.670989    0.899941
  H     -2.569747    1.670664   -0.900573

 Total Charge           Charge          ....    0
 Multiplicity           Mult            ....    1
 Number of Electrons    NEL             ....   74
 Basis Dimension        Dim             ....  648

ORBITAL ENERGIES
----------------

  NO   OCC          E(Eh)            E(eV)
   0   2.0000     -92.174709     -2508.2014
   1   2.0000     -20.537632      -558.8574
   2   2.0000     -20.537611      -558.8568
   3   2.0000     -11.278045      -306.8912
   4   2.0000     -11.276385      -306.8460
   5   2.0000     -11.241114      -305.8863
   6   2.0000     -11.235792      -305.7414
   7   2.0000     -11.221254      -305.3459
   8   2.0000      -9.144643      -248.8384
   9   2.0000      -6.829152      -185.8307
  10   2.0000      -6.828679      -185.8178
  11   2.0000      -6.828641      -185.8168
  12   2.0000      -1.436308       -39.0839
  13   2.0000      -1.324770       -36.0488
  14   2.0000      -1.106869       -30.1194
  15   2.0000      -1.051653       -28.6169
  16   2.0000      -1.010358       -27.4932
  17   2.0000      -0.908486       -24.7212
  18   2.0000      -0.819196       -22.2915
  19   2.0000      -0.799253       -21.7488
  20   2.0000      -0.681848       -18.5540
  21   2.0000      -0.678955       -18.4753
  22   2.0000      -0.657359       -17.8876
  23   2.0000      -0.646228       -17.5847
  24   2.0000      -0.608970       -16.5709
  25   2.0000      -0.606583       -16.5059
  26   2.0000      -0.593336       -16.1455
  27   2.0000      -0.589765       -16.0483
  28   2.0000      -0.556734       -15.1495
  29   2.0000      -0.526651       -14.3309
  30   2.0000      -0.503979       -13.7140
  31   2.0000      -0.496343       -13.5062
  32   2.0000      -0.491500       -13.3744
  33   2.0000      -0.481054       -13.0901
  34   2.0000      -0.478418       -13.0184
  35   2.0000      -0.461060       -12.5461
  36   2.0000      -0.426737       -11.6121
  37   0.0000       0.022382         0.6090
  38   0.0000       0.028964         0.7882
  39   0.0000       0.035253         0.9593
  40   0.0000       0.038544         1.0488
  41   0.0000       0.047212         1.2847

MULLIKEN ATOMIC CHARGES
-----------------------
   0 C :   -0.997462
   1 C :   -0.476886
   2 C :   -0.370152
   3 C :   -0.531609
   4 S :    2.159983
   5 C :   -1.121755
   6 O :   -1.059922
   7 O :   -1.059922
   8 H :    0.268557
   9 H :    0.268557
  10 H :    0.280897
  11 H :    0.242914
  12 H :    0.242909
  13 H :    0.305118
  14 H :    0.305117
  15 H :    0.329465
  16 H :    0.329464
  17 H :    0.295351
  18 H :    0.294688
  19 H :    0.294688
Sum of atomic charges:   -0.0000000

LOEWDIN ATOMIC CHARGES
----------------------
   0 C :    0.585661
   1 C :    0.258500
   2 C :    0.235404
   3 C :    0.195748
   4 S :    0.259573
   5 C :    0.509269
   6 O :    0.022526
   7 O :    0.022526
   8 H :   -0.168289
   9 H :   -0.168289
  10 H :   -0.171648
  11 H :   -0.147694
  12 H :   -0.147693
  13 H :   -0.150774
  14 H :   -0.150775
  15 H :   -0.180443
  16 H :   -0.180442
  17 H :   -0.207613
  18 H :   -0.207774
  19 H :   -0.207774

  Mayer bond orders larger than 0.100000
B(  0-C ,  1-C ) :   0.9175 B(  0-C ,  8-H ) :   0.9619 B(  0-C ,  9-H ) :   0.9619
B(  0-C , 10-H ) :   0.9800 B(  1-C ,  2-C ) :   0.8588 B(  1-C , 11-H ) :   0.9631
B(  1-C , 12-H ) :   0.9631 B(  2-C ,  3-C ) :   0.9934 B(  2-C , 13-H ) :   0.9274
B(  2-C , 14-H ) :   0.9274 B(  3-C ,  4-S ) :   0.9393 B(  3-C , 15-H ) :   0.8705
B(  3-C , 16-H ) :   0.8705 B(  4-S ,  5-C ) :   0.8220 B(  4-S ,  6-O ) :   1.1991
B(  4-S ,  7-O ) :   1.1991 B(  5-C , 17-H ) :   0.9751 B(  5-C , 18-H ) :   0.9026
B(  5-C , 19-H ) :   0.9026

MP2 TOTAL ENERGY:     -745.269419221 Eh
FINAL SINGLE POINT ENERGY      -745.269419221227

DIPOLE MOMENT
-------------
                                X             Y             Z
Electronic contribution:    -12.14688      -4.09666       0.00074
Nuclear contribution   :     12.63644       6.06590      -0.00110
                        -----------------------------------------
Total Dipole Moment    :      0.48956       1.96923      -0.00036
                        -----------------------------------------
Magnitude (a.u.)       :      2.02917
Magnitude (Debye)      :      5.15775

Rotational constants in cm-1:     0.129883     0.025235     0.024793
Rotational constants in MHz :  3893.779682   756.539382   743.261212

                             ****ORCA TERMINATED NORMALLY****
TOTAL RUN TIME: 0 days 0 hours 8 minutes 50 seconds 305 msec
