                         Program Version 5.0.3 -  RELEASE  -
|  1> !ri-mp2 aug-cc-pvtz aug-cc-pvtz/c tightscf
|  2> %pal nprocs 16 end
|  3>
|  4> * xyz 0 1
|  5> C      0.000000    1.019263        0.000000
|  6> C      1.348969    0.492686        0.000000
|  7> C     -1.138067    0.325279        0.000000
|  8> C      2.440288    1.261794        0.000000
|  9> H     -0.108466    2.099001        0.000000
| 10> H      1.454409   -0.585078        0.000000
| 11> H     -2.111345    0.788809        0.000000
| 12> Cl    -1.232208   -1.416011        0.000000
| 13> H      3.432030    0.832553        0.000000
| 14> H      2.373763    2.342770        0.000000
| 15> *
| 16>
| 17>                          ****END OF INPUT****

CARTESIAN COORDINATES (ANGSTROEM)
---------------------------------
  C      0.000000    1.019263    0.000000
  C      1.348969    0.492686    0.000000
  C     -1.138067    0.325279    0.000000
  C      2.440288    1.261794    0.000000
  H     -0.108466    2.099001    0.000000
  H      1.454409   -0.585078    0.000000
  H     -2.111345    0.788809    0.000000
  Cl    -1.232208   -1.416011    0.000000
  H      3.432030    0.832553    0.000000
  H      2.373763    2.342770    0.000000

 Total Charge           Charge          ....    0
 Multiplicity           Mult            ....    1
 Number of Electrons    NEL             ....   46
 Basis Dimension        Dim             ....  349

ORBITAL ENERGIES
----------------

  NO   OCC          E(Eh)            E(eV)
   0   2.0000    -104.842753     -2852.9163
   1   2.0000     -11.300113      -307.4917
   2   2.0000     -11.255802      -306.2859
   3   2.0000     -11.247386      -306.0569
   4   2.0000     -11.241011      -305.8835
   5   2.0000     -10.566612      -287.5321
   6   2.0000      -8.033503      -218.6027
   7   2.0000      -8.031660      -218.5526
   8   2.0000      -8.031639      -218.5520
   9   2.0000      -1.161041       -31.5935
  10   2.0000      -1.084303       -29.5054
  11   2.0000      -0.995159       -27.0796
  12   2.0000      -0.835229       -22.7277
  13   2.0000      -0.751082       -20.4380
  14   2.0000      -0.681843       -18.5539
  15   2.0000      -0.637789       -17.3551
  16   2.0000      -0.584299       -15.8996
  17   2.0000      -0.553996       -15.0750
  18   2.0000      -0.517488       -14.0816
  19   2.0000      -0.510415       -13.8891
  20   2.0000      -0.452979       -12.3262
  21   2.0000      -0.436491       -11.8775
  22   2.0000      -0.329595        -8.9687
  23   0.0000       0.029076         0.7912
  24   0.0000       0.033270         0.9053
  25   0.0000       0.040985         1.1153
  26   0.0000       0.054218         1.4753
  27   0.0000       0.060339         1.6419

MULLIKEN ATOMIC CHARGES
-----------------------
   0 C :   -0.089152
   1 C :   -0.020373
   2 C :   -0.356071
   3 C :   -1.233560
   4 H :    0.342159
   5 H :    0.430534
   6 H :    0.410298
   7 Cl:   -0.271156
   8 H :    0.418169
   9 H :    0.369153
Sum of atomic charges:   -0.0000000

LOEWDIN ATOMIC CHARGES
----------------------
   0 C :    0.045138
   1 C :    0.111819
   2 C :   -0.422538
   3 C :    0.528674
   4 H :   -0.207946
   5 H :   -0.228614
   6 H :   -0.297431
   7 Cl:    0.913949
   8 H :   -0.222934
   9 H :   -0.220118

  Mayer bond orders larger than 0.100000
B(  0-C ,  1-C ) :   0.6406 B(  0-C ,  2-C ) :   1.6151 B(  0-C ,  4-H ) :   0.9679
B(  0-C ,  7-Cl) :   0.2060 B(  1-C ,  3-C ) :   1.3226 B(  1-C ,  5-H ) :   0.9143
B(  2-C ,  6-H ) :   0.8122 B(  2-C ,  7-Cl) :   0.8064 B(  3-C ,  8-H ) :   0.8066
B(  3-C ,  9-H ) :   0.9646

MP2 TOTAL ENERGY:     -614.761799202 Eh
FINAL SINGLE POINT ENERGY      -614.761799202215

DIPOLE MOMENT
-------------
                                X             Y             Z
Electronic contribution:     -6.43678      -6.66239      -0.00000
Nuclear contribution   :      6.63838       7.32203       0.00000
                        -----------------------------------------
Total Dipole Moment    :      0.20160       0.65964      -0.00000
                        -----------------------------------------
Magnitude (a.u.)       :      0.68975
Magnitude (Debye)      :      1.75322

Rotational constants in cm-1:     0.428880     0.063607     0.055392
Rotational constants in MHz : 12857.513416  1906.901362  1660.615081

                             ****ORCA TERMINATED NORMALLY****
TOTAL RUN TIME: 0 days 0 hours 2 minutes 31 seconds 848 msec
