                         Program Version 5.0.3 -  RELEASE  -
|  1> !ri-mp2 aug-cc-pvtz aug-cc-pvtz/c tightscf
|  2> %pal nprocs 16 end
|  3>
|  4> * xyz 0 1
|  5> C      0.787546   -2.366357    0.000000
|  6> C     -0.561033   -2.023230    0.000000
|  7> C      1.353155   -0.175015    0.000000
|  8> C      0.000000    0.175622    0.000000
|  9> C     -0.407656    1.626191    0.000000
| 10> C     -1.879880    1.940275    0.000000
| 11> N      1.749484   -1.444574    0.000000
| 12> N     -0.957273   -0.754759    0.000000
| 13> O      0.445137    2.489136    0.000000
| 14> H      1.096738   -3.404743    0.000000
| 15> H     -1.330829   -2.785557    0.000000
| 16> H      2.112882    0.594562    0.000000
| 17> H     -2.362568    1.497437    0.871986
| 18> H     -2.362568    1.497437   -0.871986
| 19> H     -2.013020    3.018193    0.000000
| 20> *
| 21>
| 22>                          ****END OF INPUT****

CARTESIAN COORDINATES (ANGSTROEM)
---------------------------------
  C      0.787546   -2.366357    0.000000
  C     -0.561033   -2.023230    0.000000
  C      1.353155   -0.175015    0.000000
  C      0.000000    0.175622    0.000000
  C     -0.407656    1.626191    0.000000
  C     -1.879880    1.940275    0.000000
  N      1.749484   -1.444574    0.000000
  N     -0.957273   -0.754759    0.000000
  O      0.445137    2.489136    0.000000
  H      1.096738   -3.404743    0.000000
  H     -1.330829   -2.785557    0.000000
  H      2.112882    0.594562    0.000000
  H     -2.362568    1.497437    0.871986
  H     -2.362568    1.497437   -0.871986
  H     -2.013020    3.018193    0.000000

 Total Charge           Charge          ....    0
 Multiplicity           Mult            ....    1
 Number of Electrons    NEL             ....   64
 Basis Dimension        Dim             ....  552

ORBITAL ENERGIES
----------------

  NO   OCC          E(Eh)            E(eV)
   0   2.0000     -20.559134      -559.4425
   1   2.0000     -15.610688      -424.7884
   2   2.0000     -15.602374      -424.5622
   3   2.0000     -11.346578      -308.7561
   4   2.0000     -11.299861      -307.4849
   5   2.0000     -11.297891      -307.4312
   6   2.0000     -11.296096      -307.3824
   7   2.0000     -11.295374      -307.3627
   8   2.0000     -11.235037      -305.7209
   9   2.0000      -1.401924       -38.1483
  10   2.0000      -1.324874       -36.0517
  11   2.0000      -1.237101       -33.6632
  12   2.0000      -1.079830       -29.3837
  13   2.0000      -1.016227       -27.6529
  14   2.0000      -0.926391       -25.2084
  15   2.0000      -0.906702       -24.6726
  16   2.0000      -0.791838       -21.5470
  17   2.0000      -0.728131       -19.8135
  18   2.0000      -0.725794       -19.7498
  19   2.0000      -0.680313       -18.5123
  20   2.0000      -0.642955       -17.4957
  21   2.0000      -0.620100       -16.8738
  22   2.0000      -0.618605       -16.8331
  23   2.0000      -0.579809       -15.7774
  24   2.0000      -0.579788       -15.7768
  25   2.0000      -0.557465       -15.1694
  26   2.0000      -0.510900       -13.9023
  27   2.0000      -0.510603       -13.8942
  28   2.0000      -0.453068       -12.3286
  29   2.0000      -0.450709       -12.2644
  30   2.0000      -0.410023       -11.1573
  31   2.0000      -0.368866       -10.0373
  32   0.0000       0.023604         0.6423
  33   0.0000       0.031615         0.8603
  34   0.0000       0.038106         1.0369
  35   0.0000       0.044446         1.2094
  36   0.0000       0.047145         1.2829

MULLIKEN ATOMIC CHARGES
-----------------------
   0 C :   -0.327623
   1 C :   -0.590334
   2 C :   -0.876917
   3 C :    1.228693
   4 C :    0.635242
   5 C :   -0.809274
   6 N :   -0.503143
   7 N :   -0.514837
   8 O :   -0.913213
   9 H :    0.601576
  10 H :    0.549767
  11 H :    0.570810
  12 H :    0.308107
  13 H :    0.308107
  14 H :    0.333040
Sum of atomic charges:    0.0000000

LOEWDIN ATOMIC CHARGES
----------------------
   0 C :    0.030797
   1 C :    0.036914
   2 C :    0.041882
   3 C :   -0.299329
   4 C :   -0.529916
   5 C :    0.576641
   6 N :    0.388427
   7 N :    0.390386
   8 O :    0.471332
   9 H :   -0.190389
  10 H :   -0.193035
  11 H :   -0.192261
  12 H :   -0.174487
  13 H :   -0.174487
  14 H :   -0.182475

  Mayer bond orders larger than 0.100000
B(  0-C ,  1-C ) :   1.1594 B(  0-C ,  2-C ) :  -0.1917 B(  0-C ,  3-C ) :   0.2125
B(  0-C ,  6-N ) :   1.1064 B(  0-C ,  7-N ) :  -0.1049 B(  0-C ,  9-H ) :   0.5613
B(  1-C ,  2-C ) :   0.2129 B(  1-C ,  3-C ) :  -0.2314 B(  1-C ,  7-N ) :   1.2213
B(  1-C , 10-H ) :   0.6571 B(  2-C ,  3-C ) :   0.5436 B(  2-C ,  6-N ) :   0.8218
B(  2-C ,  7-N ) :   0.1234 B(  2-C ,  8-O ) :   0.1369 B(  2-C , 11-H ) :   0.5941
B(  3-C ,  4-C ) :   0.7557 B(  3-C ,  7-N ) :   0.4883 B(  3-C ,  8-O ) :  -0.1534
B(  4-C ,  5-C ) :   0.9114 B(  4-C ,  8-O ) :   1.2864 B(  5-C ,  7-N ) :  -0.1027
B(  5-C , 12-H ) :   0.9337 B(  5-C , 13-H ) :   0.9337 B(  5-C , 14-H ) :   0.9416

MP2 TOTAL ENERGY:     -416.193240957 Eh
FINAL SINGLE POINT ENERGY      -416.193240957102

DIPOLE MOMENT
-------------
                                X             Y             Z
Electronic contribution:      3.91292      -1.46618      -0.00000
Nuclear contribution   :     -4.77108       0.43665       0.00000
                        -----------------------------------------
Total Dipole Moment    :     -0.85815      -1.02954      -0.00000
                        -----------------------------------------
Magnitude (a.u.)       :      1.34029
Magnitude (Debye)      :      3.40674

Rotational constants in cm-1:     0.128328     0.042685     0.032218
Rotational constants in MHz :  3847.183977  1279.663720   965.885492

                             ****ORCA TERMINATED NORMALLY****
TOTAL RUN TIME: 0 days 0 hours 6 minutes 38 seconds 746 msec
