                         Program Version 5.0.3 -  RELEASE  -
|  1> !ri-mp2 aug-cc-pvtz aug-cc-pvtz/c tightscf
|  2> %pal nprocs 16 end
|  3>
|  4> * xyz 0 1
|  5> O     -0.307443   -0.870123   -1.164144
|  6> O     -0.307406   -0.869880    1.164290
|  7> O     -2.627780    0.100056    0.000029
|  8> O      3.229423    0.053522    0.000030
|  9> N      0.941114    0.662461   -0.000117
| 10> C     -0.281383   -0.078177   -0.000011
| 11> C     -1.450502    0.910137   -0.000090
| 12> C      2.088626    0.280911   -0.000031
| 13> H     -1.215065   -1.172916   -1.295790
| 14> H     -1.215054   -1.172515    1.296121
| 15> H     -3.410450    0.656719   -0.000033
| 16> H     -1.390992    1.532924    0.893801
| 17> H     -1.391037    1.532728   -0.894121
| 18> *
| 19>
| 20>                          ****END OF INPUT****

CARTESIAN COORDINATES (ANGSTROEM)
---------------------------------
  O     -0.307443   -0.870123   -1.164144
  O     -0.307406   -0.869880    1.164290
  O     -2.627780    0.100056    0.000029
  O      3.229423    0.053522    0.000030
  N      0.941114    0.662461   -0.000117
  C     -0.281383   -0.078177   -0.000011
  C     -1.450502    0.910137   -0.000090
  C      2.088626    0.280911   -0.000031
  H     -1.215065   -1.172916   -1.295790
  H     -1.215054   -1.172515    1.296121
  H     -3.410450    0.656719   -0.000033
  H     -1.390992    1.532924    0.893801
  H     -1.391037    1.532728   -0.894121

 Total Charge           Charge          ....    0
 Multiplicity           Mult            ....    1
 Number of Electrons    NEL             ....   62
 Basis Dimension        Dim             ....  483

ORBITAL ENERGIES
----------------

  NO   OCC          E(Eh)            E(eV)
   0   2.0000     -20.617808      -561.0391
   1   2.0000     -20.601642      -560.5992
   2   2.0000     -20.582145      -560.0686
   3   2.0000     -20.582124      -560.0681
   4   2.0000     -15.584837      -424.0850
   5   2.0000     -11.412777      -310.5575
   6   2.0000     -11.408890      -310.4517
   7   2.0000     -11.308067      -307.7081
   8   2.0000      -1.472544       -40.0699
   9   2.0000      -1.449155       -39.4335
  10   2.0000      -1.395193       -37.9651
  11   2.0000      -1.356519       -36.9128
  12   2.0000      -1.267994       -34.5039
  13   2.0000      -1.026607       -27.9354
  14   2.0000      -0.899146       -24.4670
  15   2.0000      -0.769009       -20.9258
  16   2.0000      -0.748331       -20.3631
  17   2.0000      -0.744401       -20.2562
  18   2.0000      -0.724136       -19.7047
  19   2.0000      -0.686292       -18.6750
  20   2.0000      -0.674757       -18.3611
  21   2.0000      -0.646116       -17.5817
  22   2.0000      -0.635007       -17.2794
  23   2.0000      -0.593801       -16.1582
  24   2.0000      -0.578398       -15.7390
  25   2.0000      -0.572263       -15.5721
  26   2.0000      -0.502198       -13.6655
  27   2.0000      -0.494700       -13.4615
  28   2.0000      -0.487154       -13.2561
  29   2.0000      -0.462284       -12.5794
  30   2.0000      -0.442656       -12.0453
  31   0.0000       0.017136         0.4663
  32   0.0000       0.036424         0.9912
  33   0.0000       0.038927         1.0593
  34   0.0000       0.042196         1.1482
  35   0.0000       0.060907         1.6574

MULLIKEN ATOMIC CHARGES
-----------------------
   0 O :   -0.628590
   1 O :   -0.628616
   2 O :   -0.545417
   3 O :   -0.483128
   4 N :   -0.059626
   5 C :    1.659913
   6 C :   -0.355751
   7 C :   -0.182755
   8 H :    0.205217
   9 H :    0.205236
  10 H :    0.139156
  11 H :    0.337177
  12 H :    0.337184
Sum of atomic charges:    0.0000000

LOEWDIN ATOMIC CHARGES
----------------------
   0 O :    0.837264
   1 O :    0.837266
   2 O :    0.823874
   3 O :    0.401590
   4 N :    0.303777
   5 C :   -1.037417
   6 C :    0.059702
   7 C :   -0.444497
   8 H :   -0.503905
   9 H :   -0.503915
  10 H :   -0.470933
  11 H :   -0.151404
  12 H :   -0.151402

  Mayer bond orders larger than 0.100000
B(  0-O ,  5-C ) :   0.4976 B(  0-O ,  6-C ) :   0.1103 B(  0-O ,  8-H ) :   0.9572
B(  1-O ,  5-C ) :   0.4976 B(  1-O ,  6-C ) :   0.1103 B(  1-O ,  9-H ) :   0.9572
B(  2-O ,  6-C ) :   0.7849 B(  2-O , 10-H ) :   1.0223 B(  3-O ,  4-N ) :  -0.2315
B(  3-O ,  7-C ) :   2.0662 B(  4-N ,  5-C ) :   0.3593 B(  4-N ,  6-C ) :   0.1104
B(  4-N ,  7-C ) :   1.7533 B(  5-C ,  6-C ) :   0.8639 B(  5-C ,  7-C ) :  -0.3193
B(  6-C , 11-H ) :   0.9077 B(  6-C , 12-H ) :   0.9077

MP2 TOTAL ENERGY:     -472.257861899 Eh
FINAL SINGLE POINT ENERGY      -472.257861899390

DIPOLE MOMENT
-------------
                                X             Y             Z
Electronic contribution:      6.35894      -0.70144       0.00002
Nuclear contribution   :     -8.42656       1.32581      -0.00002
                        -----------------------------------------
Total Dipole Moment    :     -2.06761       0.62437       0.00000
                        -----------------------------------------
Magnitude (a.u.)       :      2.15983
Magnitude (Debye)      :      5.48985

Rotational constants in cm-1:     0.172372     0.038508     0.038414
Rotational constants in MHz :  5167.580426  1154.429427  1151.630826

                             ****ORCA TERMINATED NORMALLY****
TOTAL RUN TIME: 0 days 0 hours 3 minutes 56 seconds 540 msec
