                         Program Version 5.0.3 -  RELEASE  -
|  1> !ri-mp2 aug-cc-pvtz aug-cc-pvtz/c tightscf
|  2> %pal nprocs 16 end
|  3>
|  4> * xyz 0 1
|  5> C      0.448354   -0.545579    0.000000
|  6> C     -0.285414   -0.171763    1.270135
|  7> C     -0.285414   -0.171763   -1.270135
|  8> F      0.361469   -0.731547    2.340045
|  9> F     -0.285414    1.179129    1.461730
| 10> F     -0.285414    1.179129   -1.461730
| 11> F      0.361469   -0.731547   -2.340045
| 12> H      0.581940   -1.627632    0.000000
| 13> H      1.431669   -0.074796    0.000000
| 14> H     -1.323885   -0.509706    1.300971
| 15> H     -1.323885   -0.509706   -1.300971
| 16> *
| 17>
| 18>                          ****END OF INPUT****

CARTESIAN COORDINATES (ANGSTROEM)
---------------------------------
  C      0.448354   -0.545579    0.000000
  C     -0.285414   -0.171763    1.270135
  C     -0.285414   -0.171763   -1.270135
  F      0.361469   -0.731547    2.340045
  F     -0.285414    1.179129    1.461730
  F     -0.285414    1.179129   -1.461730
  F      0.361469   -0.731547   -2.340045
  H      0.581940   -1.627632    0.000000
  H      1.431669   -0.074796    0.000000
  H     -1.323885   -0.509706    1.300971
  H     -1.323885   -0.509706   -1.300971

 Total Charge           Charge          ....    0
 Multiplicity           Mult            ....    1
 Number of Electrons    NEL             ....   58
 Basis Dimension        Dim             ....  414

ORBITAL ENERGIES
----------------

  NO   OCC          E(Eh)            E(eV)
   0   2.0000     -26.321954      -716.2568
   1   2.0000     -26.321954      -716.2568
   2   2.0000     -26.319975      -716.2029
   3   2.0000     -26.319974      -716.2029
   4   2.0000     -11.428423      -310.9832
   5   2.0000     -11.428417      -310.9830
   6   2.0000     -11.274257      -306.7881
   7   2.0000      -1.670102       -45.4458
   8   2.0000      -1.667164       -45.3658
   9   2.0000      -1.608898       -43.7803
  10   2.0000      -1.606962       -43.7277
  11   2.0000      -1.111350       -30.2414
  12   2.0000      -0.969301       -26.3760
  13   2.0000      -0.897326       -24.4175
  14   2.0000      -0.799456       -21.7543
  15   2.0000      -0.787925       -21.4405
  16   2.0000      -0.778451       -21.1827
  17   2.0000      -0.768425       -20.9099
  18   2.0000      -0.750492       -20.4219
  19   2.0000      -0.712792       -19.3960
  20   2.0000      -0.678667       -18.4675
  21   2.0000      -0.672864       -18.3096
  22   2.0000      -0.647071       -17.6077
  23   2.0000      -0.644390       -17.5348
  24   2.0000      -0.635555       -17.2943
  25   2.0000      -0.612603       -16.6698
  26   2.0000      -0.587080       -15.9753
  27   2.0000      -0.538256       -14.6467
  28   2.0000      -0.533844       -14.5266
  29   0.0000       0.024664         0.6712
  30   0.0000       0.037075         1.0089
  31   0.0000       0.043397         1.1809
  32   0.0000       0.047103         1.2817
  33   0.0000       0.084839         2.3086

MULLIKEN ATOMIC CHARGES
-----------------------
   0 C :   -0.615185
   1 C :    0.572534
   2 C :    0.572534
   3 F :   -0.452191
   4 F :   -0.448836
   5 F :   -0.448836
   6 F :   -0.452191
   7 H :    0.318817
   8 H :    0.274018
   9 H :    0.339668
  10 H :    0.339668
Sum of atomic charges:    0.0000000

LOEWDIN ATOMIC CHARGES
----------------------
   0 C :    0.256966
   1 C :   -0.762819
   2 C :   -0.762819
   3 F :    0.479194
   4 F :    0.485431
   5 F :    0.485431
   6 F :    0.479194
   7 H :   -0.161625
   8 H :   -0.152559
   9 H :   -0.173197
  10 H :   -0.173197

  Mayer bond orders larger than 0.100000
B(  0-C ,  1-C ) :   0.9485 B(  0-C ,  2-C ) :   0.9485 B(  0-C ,  7-H ) :   0.8942
B(  0-C ,  8-H ) :   0.9182 B(  1-C ,  3-F ) :   0.7280 B(  1-C ,  4-F ) :   0.7110
B(  1-C ,  9-H ) :   0.9204 B(  2-C ,  5-F ) :   0.7110 B(  2-C ,  6-F ) :   0.7280
B(  2-C , 10-H ) :   0.9204

MP2 TOTAL ENERGY:     -515.428473352 Eh
FINAL SINGLE POINT ENERGY      -515.428473351781

DIPOLE MOMENT
-------------
                                X             Y             Z
Electronic contribution:      0.18730       2.51228       0.00000
Nuclear contribution   :     -0.73620      -3.38440      -0.00000
                        -----------------------------------------
Total Dipole Moment    :     -0.54891      -0.87212       0.00000
                        -----------------------------------------
Magnitude (a.u.)       :      1.03048
Magnitude (Debye)      :      2.61928

Rotational constants in cm-1:     0.170449     0.049379     0.040106
Rotational constants in MHz :  5109.944121  1480.353398  1202.347123

                             ****ORCA TERMINATED NORMALLY****
TOTAL RUN TIME: 0 days 0 hours 2 minutes 31 seconds 876 msec
