                         Program Version 5.0.3 -  RELEASE  -
|  1> !ri-mp2 aug-cc-pvtz aug-cc-pvtz/c tightscf
|  2> %pal nprocs 16 end
|  3>
|  4> * xyz 0 1
|  5> O     2.804747    0.017257   -0.101685
|  6> N    -0.501813   -1.172528    0.046451
|  7> N    -0.518237    1.148566    0.064488
|  8> N    -1.829526   -0.691292   -0.149633
|  9> C     0.336696    0.001975    0.169153
| 10> C    -1.784183    0.580024   -0.127805
| 11> C     1.635206    0.015429   -0.087720
| 12> H    -0.507329   -1.788898    0.852503
| 13> H    -0.455507    1.869545    0.772931
| 14> H    -2.654421    1.203511   -0.262863
| 15> *
| 16>
| 17>                          ****END OF INPUT****

CARTESIAN COORDINATES (ANGSTROEM)
---------------------------------
  O      2.804747    0.017257   -0.101685
  N     -0.501813   -1.172528    0.046451
  N     -0.518237    1.148566    0.064488
  N     -1.829526   -0.691292   -0.149633
  C      0.336696    0.001975    0.169153
  C     -1.784183    0.580024   -0.127805
  C      1.635206    0.015429   -0.087720
  H     -0.507329   -1.788898    0.852503
  H     -0.455507    1.869545    0.772931
  H     -2.654421    1.203511   -0.262863

 Total Charge           Charge          ....    0
 Multiplicity           Mult            ....    1
 Number of Electrons    NEL             ....   50
 Basis Dimension        Dim             ....  391

ORBITAL ENERGIES
----------------

  NO   OCC          E(Eh)            E(eV)
   0   2.0000     -20.628413      -561.3276
   1   2.0000     -15.614641      -424.8960
   2   2.0000     -15.613468      -424.8641
   3   2.0000     -15.602635      -424.5693
   4   2.0000     -11.373322      -309.4838
   5   2.0000     -11.324533      -308.1562
   6   2.0000     -11.319423      -308.0172
   7   2.0000      -1.465323       -39.8735
   8   2.0000      -1.380329       -37.5607
   9   2.0000      -1.218404       -33.1544
  10   2.0000      -1.133914       -30.8554
  11   2.0000      -0.985284       -26.8110
  12   2.0000      -0.835340       -22.7308
  13   2.0000      -0.807371       -21.9697
  14   2.0000      -0.736950       -20.0534
  15   2.0000      -0.690299       -18.7840
  16   2.0000      -0.668805       -18.1991
  17   2.0000      -0.652110       -17.7448
  18   2.0000      -0.628964       -17.1150
  19   2.0000      -0.591033       -16.0828
  20   2.0000      -0.581695       -15.8287
  21   2.0000      -0.477682       -12.9984
  22   2.0000      -0.469847       -12.7852
  23   2.0000      -0.428547       -11.6614
  24   2.0000      -0.302619        -8.2347
  25   0.0000       0.020352         0.5538
  26   0.0000       0.037410         1.0180
  27   0.0000       0.039306         1.0696
  28   0.0000       0.055160         1.5010
  29   0.0000       0.077952         2.1212

MULLIKEN ATOMIC CHARGES
-----------------------
   0 O :   -0.503449
   1 N :   -0.179043
   2 N :   -0.174433
   3 N :   -0.422790
   4 C :    0.634484
   5 C :   -0.319707
   6 C :    0.163473
   7 H :    0.092753
   8 H :    0.096034
   9 H :    0.612678
Sum of atomic charges:    0.0000000

LOEWDIN ATOMIC CHARGES
----------------------
   0 O :    0.392356
   1 N :    0.361696
   2 N :    0.509799
   3 N :    0.276926
   4 C :   -0.406376
   5 C :   -0.102025
   6 C :   -0.232826
   7 H :   -0.330340
   8 H :   -0.291948
   9 H :   -0.177264

  Mayer bond orders larger than 0.100000
B(  0-O ,  4-C ) :  -0.1117 B(  0-O ,  6-C ) :   1.8509 B(  1-N ,  3-N ) :   0.4478
B(  1-N ,  4-C ) :   0.9562 B(  1-N ,  7-H ) :   1.0200 B(  2-N ,  4-C ) :   0.8747
B(  2-N ,  5-C ) :   1.0214 B(  2-N ,  8-H ) :   1.0340 B(  3-N ,  5-C ) :   1.6747
B(  4-C ,  5-C ) :  -0.1939 B(  4-C ,  6-C ) :   1.3382 B(  5-C ,  9-H ) :   0.5752

MP2 TOTAL ENERGY:     -354.881479308 Eh
FINAL SINGLE POINT ENERGY      -354.881479308337

DIPOLE MOMENT
-------------
                                X             Y             Z
Electronic contribution:      2.87832      -0.31655      -0.45338
Nuclear contribution   :     -3.47242       1.23838       1.31626
                        -----------------------------------------
Total Dipole Moment    :     -0.59410       0.92183       0.86288
                        -----------------------------------------
Magnitude (a.u.)       :      1.39545
Magnitude (Debye)      :      3.54696

Rotational constants in cm-1:     0.284730     0.064388     0.053371
Rotational constants in MHz :  8535.980253  1930.292405  1600.034666

                             ****ORCA TERMINATED NORMALLY****
TOTAL RUN TIME: 0 days 0 hours 2 minutes 56 seconds 349 msec
