                         Program Version 5.0.3 -  RELEASE  -
|  1> !ri-mp2 aug-cc-pvtz aug-cc-pvtz/c tightscf
|  2> %pal nprocs 16 end
|  3> %maxcore 3800
|  4>
|  5> * xyz 0 1
|  6> C      1.146241    1.193842   -0.045431
|  7> C      1.145772   -1.192583   -0.047381
|  8> C     -0.230006    1.193850   -0.240696
|  9> C     -0.229569   -1.192065   -0.242263
| 10> C      1.860578    0.000971    0.058338
| 11> C     -0.945645    0.001362   -0.341139
| 12> C      3.348664   -0.001567    0.293250
| 13> C     -3.212526   -0.002676    0.806592
| 14> C     -2.443952    0.001078   -0.522341
| 15> H      1.673704    2.137762    0.019717
| 16> H      1.673111   -2.136822    0.016045
| 17> H     -0.753713    2.138576   -0.325696
| 18> H     -0.753659   -2.136478   -0.328520
| 19> H      3.832697   -0.827825   -0.228257
| 20> H      3.806428    0.927029   -0.047139
| 21> H      3.579777   -0.109506    1.356230
| 22> H     -2.964444   -0.884319    1.399104
| 23> H     -4.290020   -0.003069    0.634112
| 24> H     -2.965687    0.876560    1.403176
| 25> H     -2.738175    0.877564   -1.103946
| 26> H     -2.737362   -0.872740   -1.108399
| 27> *
| 28>
| 29>                          ****END OF INPUT****

CARTESIAN COORDINATES (ANGSTROEM)
---------------------------------
  C      1.146241    1.193842   -0.045431
  C      1.145772   -1.192583   -0.047381
  C     -0.230006    1.193850   -0.240696
  C     -0.229569   -1.192065   -0.242263
  C      1.860578    0.000971    0.058338
  C     -0.945645    0.001362   -0.341139
  C      3.348664   -0.001567    0.293250
  C     -3.212526   -0.002676    0.806592
  C     -2.443952    0.001078   -0.522341
  H      1.673704    2.137762    0.019717
  H      1.673111   -2.136822    0.016045
  H     -0.753713    2.138576   -0.325696
  H     -0.753659   -2.136478   -0.328520
  H      3.832697   -0.827825   -0.228257
  H      3.806428    0.927029   -0.047139
  H      3.579777   -0.109506    1.356230
  H     -2.964444   -0.884319    1.399104
  H     -4.290020   -0.003069    0.634112
  H     -2.965687    0.876560    1.403176
  H     -2.738175    0.877564   -1.103946
  H     -2.737362   -0.872740   -1.108399

 Total Charge           Charge          ....    0
 Multiplicity           Mult            ....    1
 Number of Electrons    NEL             ....   66
 Basis Dimension        Dim             ....  690

ORBITAL ENERGIES
----------------

  NO   OCC          E(Eh)            E(eV)
   0   2.0000     -11.234209      -305.6984
   1   2.0000     -11.230923      -305.6090
   2   2.0000     -11.225793      -305.4694
   3   2.0000     -11.225595      -305.4640
   4   2.0000     -11.225055      -305.4493
   5   2.0000     -11.224450      -305.4328
   6   2.0000     -11.224340      -305.4298
   7   2.0000     -11.220368      -305.3217
   8   2.0000     -11.213672      -305.1395
   9   2.0000      -1.154468       -31.4147
  10   2.0000      -1.071185       -29.1484
  11   2.0000      -1.007933       -27.4273
  12   2.0000      -1.005879       -27.3713
  13   2.0000      -0.927648       -25.2426
  14   2.0000      -0.846501       -23.0345
  15   2.0000      -0.825127       -22.4528
  16   2.0000      -0.775849       -21.1119
  17   2.0000      -0.668112       -18.1802
  18   2.0000      -0.648515       -17.6470
  19   2.0000      -0.626537       -17.0489
  20   2.0000      -0.588000       -16.0003
  21   2.0000      -0.584386       -15.9020
  22   2.0000      -0.576645       -15.6913
  23   2.0000      -0.571743       -15.5579
  24   2.0000      -0.536467       -14.5980
  25   2.0000      -0.534458       -14.5433
  26   2.0000      -0.513382       -13.9698
  27   2.0000      -0.492316       -13.3966
  28   2.0000      -0.472640       -12.8612
  29   2.0000      -0.472485       -12.8570
  30   2.0000      -0.468880       -12.7589
  31   2.0000      -0.331823        -9.0294
  32   2.0000      -0.312394        -8.5007
  33   0.0000       0.029817         0.8114
  34   0.0000       0.030662         0.8343
  35   0.0000       0.034471         0.9380
  36   0.0000       0.040594         1.1046
  37   0.0000       0.043782         1.1914

MULLIKEN ATOMIC CHARGES
-----------------------
   0 C :   -0.912599
   1 C :   -0.984883
   2 C :   -1.007129
   3 C :   -1.063078
   4 C :    1.463417
   5 C :    1.600688
   6 C :   -0.927687
   7 C :   -0.901389
   8 C :   -0.355828
   9 H :    0.185964
  10 H :    0.218280
  11 H :    0.263773
  12 H :    0.244330
  13 H :    0.274525
  14 H :    0.262766
  15 H :    0.307718
  16 H :    0.280226
  17 H :    0.287639
  18 H :    0.279957
  19 H :    0.241078
  20 H :    0.242233
Sum of atomic charges:    0.0000000

LOEWDIN ATOMIC CHARGES
----------------------
   0 C :    0.217814
   1 C :    0.217455
   2 C :    0.220554
   3 C :    0.220257
   4 C :   -0.124636
   5 C :   -0.117149
   6 C :    0.575317
   7 C :    0.587590
   8 C :    0.254721
   9 H :   -0.180278
  10 H :   -0.178249
  11 H :   -0.175313
  12 H :   -0.175322
  13 H :   -0.175146
  14 H :   -0.178474
  15 H :   -0.165025
  16 H :   -0.169780
  17 H :   -0.172303
  18 H :   -0.169755
  19 H :   -0.156174
  20 H :   -0.156105

  Mayer bond orders larger than 0.100000
B(  0-C ,  2-C ) :   1.3900 B(  0-C ,  3-C ) :   0.1122 B(  0-C ,  4-C ) :   0.6959
B(  0-C ,  9-H ) :   1.2908 B(  1-C ,  3-C ) :   1.4231 B(  1-C ,  4-C ) :   0.6880
B(  1-C , 10-H ) :   1.2325 B(  2-C ,  5-C ) :   0.4122 B(  2-C , 11-H ) :   1.1194
B(  3-C ,  5-C ) :   0.4103 B(  3-C , 12-H ) :   1.1505 B(  4-C ,  6-C ) :   0.4305
B(  4-C ,  9-H ) :  -0.1258 B(  4-C , 10-H ) :  -0.1168 B(  5-C ,  8-C ) :   0.6698
B(  6-C , 13-H ) :   1.0191 B(  6-C , 14-H ) :   1.0169 B(  6-C , 15-H ) :   0.9497
B(  7-C ,  8-C ) :   0.8342 B(  7-C , 16-H ) :   0.9520 B(  7-C , 17-H ) :   0.9469
B(  7-C , 18-H ) :   0.9525 B(  8-C , 19-H ) :   0.9881 B(  8-C , 20-H ) :   0.9882

MP2 TOTAL ENERGY:     -349.429586816 Eh
FINAL SINGLE POINT ENERGY      -349.429586815803

DIPOLE MOMENT
-------------
                                X             Y             Z
Electronic contribution:      2.71355       0.00914      -1.71445
Nuclear contribution   :     -2.71980      -0.01368       1.73915
                        -----------------------------------------
Total Dipole Moment    :     -0.00625      -0.00454       0.02470
                        -----------------------------------------
Magnitude (a.u.)       :      0.02588
Magnitude (Debye)      :      0.06578

Rotational constants in cm-1:     0.146041     0.031223     0.027751
Rotational constants in MHz :  4378.192125   936.031987   831.961611

                             ****ORCA TERMINATED NORMALLY****
TOTAL RUN TIME: 0 days 0 hours 12 minutes 1 seconds 461 msec
