                         Program Version 5.0.3 -  RELEASE  -
|  1> !ri-mp2 aug-cc-pvtz aug-cc-pvtz/c tightscf
|  2> %pal nprocs 16 end
|  3>
|  4> * xyz 0 1
|  5> Cl    -0.802776    1.542890   -0.140419
|  6> Cl     2.113305   -0.235887   -0.445398
|  7> O     -0.818187   -1.131783   -0.204327
|  8> O     -2.257807   -1.225852   -0.211671
|  9> C     -0.450958   -0.091853    0.628640
| 10> C      1.015455   -0.237799    0.975858
| 11> H     -1.051458   -0.091718    1.536612
| 12> H      1.314562    0.581471    1.620958
| 13> H      1.157889   -1.186487    1.487459
| 14> H     -2.479028   -0.683324   -0.985157
| 15> *
| 16>
| 17>                          ****END OF INPUT****

CARTESIAN COORDINATES (ANGSTROEM)
---------------------------------
  Cl    -0.802776    1.542890   -0.140419
  Cl     2.113305   -0.235887   -0.445398
  O     -0.818187   -1.131783   -0.204327
  O     -2.257807   -1.225852   -0.211671
  C     -0.450958   -0.091853    0.628640
  C      1.015455   -0.237799    0.975858
  H     -1.051458   -0.091718    1.536612
  H      1.314562    0.581471    1.620958
  H      1.157889   -1.186487    1.487459
  H     -2.479028   -0.683324   -0.985157

 Total Charge           Charge          ....    0
 Multiplicity           Mult            ....    1
 Number of Electrons    NEL             ....   66
 Basis Dimension        Dim             ....  376

ORBITAL ENERGIES
----------------

  NO   OCC          E(Eh)            E(eV)
   0   2.0000    -104.840751     -2852.8619
   1   2.0000    -104.839426     -2852.8258
   2   2.0000     -20.665214      -562.3291
   3   2.0000     -20.655783      -562.0724
   4   2.0000     -11.385513      -309.8155
   5   2.0000     -11.323605      -308.1310
   6   2.0000     -10.565003      -287.4883
   7   2.0000     -10.563281      -287.4415
   8   2.0000      -8.031675      -218.5530
   9   2.0000      -8.030136      -218.5111
  10   2.0000      -8.030036      -218.5084
  11   2.0000      -8.029923      -218.5053
  12   2.0000      -8.028232      -218.4593
  13   2.0000      -8.028179      -218.4578
  14   2.0000      -1.520268       -41.3686
  15   2.0000      -1.280939       -34.8561
  16   2.0000      -1.152986       -31.3743
  17   2.0000      -1.111565       -30.2472
  18   2.0000      -0.987896       -26.8820
  19   2.0000      -0.846569       -23.0363
  20   2.0000      -0.768730       -20.9182
  21   2.0000      -0.700511       -19.0619
  22   2.0000      -0.689452       -18.7609
  23   2.0000      -0.659402       -17.9432
  24   2.0000      -0.610719       -16.6185
  25   2.0000      -0.568845       -15.4791
  26   2.0000      -0.552070       -15.0226
  27   2.0000      -0.527258       -14.3474
  28   2.0000      -0.488250       -13.2860
  29   2.0000      -0.467295       -12.7157
  30   2.0000      -0.457347       -12.4451
  31   2.0000      -0.449161       -12.2223
  32   2.0000      -0.444793       -12.1034
  33   0.0000       0.028029         0.7627
  34   0.0000       0.036853         1.0028
  35   0.0000       0.044452         1.2096
  36   0.0000       0.046900         1.2762
  37   0.0000       0.071486         1.9452

MULLIKEN ATOMIC CHARGES
-----------------------
   0 Cl:   -0.357466
   1 Cl:   -0.280992
   2 O :   -0.398387
   3 O :   -0.318275
   4 C :    0.416168
   5 C :   -0.281664
   6 H :    0.356975
   7 H :    0.320617
   8 H :    0.270857
   9 H :    0.272166
Sum of atomic charges:   -0.0000000

LOEWDIN ATOMIC CHARGES
----------------------
   0 Cl:    0.847773
   1 Cl:    0.892701
   2 O :    0.294028
   3 O :    0.590262
   4 C :   -0.947058
   5 C :   -0.370517
   6 H :   -0.251223
   7 H :   -0.258044
   8 H :   -0.244822
   9 H :   -0.553101

  Mayer bond orders larger than 0.100000
B(  0-Cl,  4-C ) :   0.8277 B(  1-Cl,  5-C ) :   0.8367 B(  2-O ,  3-O ) :   0.8395
B(  2-O ,  4-C ) :   0.7901 B(  3-O ,  9-H ) :   0.9337 B(  4-C ,  5-C ) :   0.9508
B(  4-C ,  6-H ) :   0.8924 B(  5-C ,  7-H ) :   0.9280 B(  5-C ,  8-H ) :   0.9215

MP2 TOTAL ENERGY:    -1148.034167464 Eh
FINAL SINGLE POINT ENERGY     -1148.034167464318

DIPOLE MOMENT
-------------
                                X             Y             Z
Electronic contribution:      2.52504       3.13916      -3.49987
Nuclear contribution   :     -2.82196      -3.11126       4.25116
                        -----------------------------------------
Total Dipole Moment    :     -0.29691       0.02790       0.75129
                        -----------------------------------------
Magnitude (a.u.)       :      0.80831
Magnitude (Debye)      :      2.05457

Rotational constants in cm-1:     0.100933     0.050763     0.038970
Rotational constants in MHz :  3025.890594  1521.827922  1168.288785

                             ****ORCA TERMINATED NORMALLY****
TOTAL RUN TIME: 0 days 0 hours 2 minutes 36 seconds 38 msec
