                         Program Version 5.0.3 -  RELEASE  -
|  1> !ri-mp2 aug-cc-pvtz aug-cc-pvtz/c tightscf
|  2> %pal nprocs 16 end
|  3> %maxcore 3800
|  4>
|  5> * xyz 0 1
|  6> C     -3.260747    0.996763    0.430923
|  7> C     -1.865684    1.229535    0.570709
|  8> C     -3.546891   -0.215226   -0.118964
|  9> C     -1.112417    0.187192    0.114195
| 10> C      2.381637    1.125229   -0.488236
| 11> C      2.306330   -1.101133    0.504790
| 12> C      1.033891    1.153086   -0.447360
| 13> C      0.961179   -1.008421    0.530032
| 14> C      3.145966   -0.022380   -0.008396
| 15> N      0.292939    0.105453    0.062562
| 16> O      4.374161   -0.076554   -0.036314
| 17> S     -2.114227   -1.095088   -0.513823
| 18> H     -4.018281    1.696745    0.749056
| 19> H     -1.438528    2.118035    1.010517
| 20> H     -4.511080   -0.656491   -0.304364
| 21> H      2.922894    1.963430   -0.901979
| 22> H      2.789940   -1.988514    0.885958
| 23> H      0.451171    1.981024   -0.821014
| 24> H      0.328052   -1.786428    0.929407
| 25> *
| 26>
| 27>                          ****END OF INPUT****

CARTESIAN COORDINATES (ANGSTROEM)
---------------------------------
  C     -3.260747    0.996763    0.430923
  C     -1.865684    1.229535    0.570709
  C     -3.546891   -0.215226   -0.118964
  C     -1.112417    0.187192    0.114195
  C      2.381637    1.125229   -0.488236
  C      2.306330   -1.101133    0.504790
  C      1.033891    1.153086   -0.447360
  C      0.961179   -1.008421    0.530032
  C      3.145966   -0.022380   -0.008396
  N      0.292939    0.105453    0.062562
  O      4.374161   -0.076554   -0.036314
  S     -2.114227   -1.095088   -0.513823
  H     -4.018281    1.696745    0.749056
  H     -1.438528    2.118035    1.010517
  H     -4.511080   -0.656491   -0.304364
  H      2.922894    1.963430   -0.901979
  H      2.789940   -1.988514    0.885958
  H      0.451171    1.981024   -0.821014
  H      0.328052   -1.786428    0.929407

 Total Charge           Charge          ....    0
 Multiplicity           Mult            ....    1
 Number of Electrons    NEL             ....   92
 Basis Dimension        Dim             ....  717

ORBITAL ENERGIES
----------------

  NO   OCC          E(Eh)            E(eV)
   0   2.0000     -92.012302     -2503.7820
   1   2.0000     -20.507109      -558.0268
   2   2.0000     -15.654084      -425.9693
   3   2.0000     -11.333104      -308.3894
   4   2.0000     -11.316545      -307.9388
   5   2.0000     -11.311374      -307.7981
   6   2.0000     -11.311232      -307.7943
   7   2.0000     -11.286148      -307.1117
   8   2.0000     -11.264522      -306.5232
   9   2.0000     -11.263308      -306.4902
  10   2.0000     -11.237604      -305.7908
  11   2.0000     -11.237328      -305.7832
  12   2.0000      -9.012389      -245.2396
  13   2.0000      -6.693331      -182.1348
  14   2.0000      -6.692843      -182.1215
  15   2.0000      -6.691993      -182.0984
  16   2.0000      -1.351616       -36.7793
  17   2.0000      -1.338673       -36.4271
  18   2.0000      -1.195346       -32.5270
  19   2.0000      -1.090858       -29.6838
  20   2.0000      -1.070447       -29.1283
  21   2.0000      -1.015155       -27.6238
  22   2.0000      -0.995229       -27.0816
  23   2.0000      -0.887027       -24.1372
  24   2.0000      -0.866869       -23.5887
  25   2.0000      -0.810852       -22.0644
  26   2.0000      -0.786821       -21.4105
  27   2.0000      -0.737829       -20.0774
  28   2.0000      -0.703541       -19.1443
  29   2.0000      -0.680549       -18.5187
  30   2.0000      -0.657818       -17.9001
  31   2.0000      -0.636037       -17.3074
  32   2.0000      -0.629227       -17.1221
  33   2.0000      -0.612708       -16.6726
  34   2.0000      -0.586211       -15.9516
  35   2.0000      -0.569352       -15.4929
  36   2.0000      -0.559929       -15.2364
  37   2.0000      -0.547204       -14.8902
  38   2.0000      -0.542974       -14.7751
  39   2.0000      -0.510578       -13.8935
  40   2.0000      -0.498829       -13.5738
  41   2.0000      -0.402327       -10.9479
  42   2.0000      -0.393056       -10.6956
  43   2.0000      -0.376546       -10.2463
  44   2.0000      -0.369099       -10.0437
  45   2.0000      -0.313554        -8.5322
  46   0.0000       0.019040         0.5181
  47   0.0000       0.027444         0.7468
  48   0.0000       0.031974         0.8701
  49   0.0000       0.034981         0.9519
  50   0.0000       0.043343         1.1794

MULLIKEN ATOMIC CHARGES
-----------------------
   0 C :   -0.529346
   1 C :   -1.239833
   2 C :   -0.402235
   3 C :    1.235465
   4 C :   -0.622944
   5 C :   -0.573333
   6 C :   -0.307605
   7 C :   -0.423214
   8 C :    0.555455
   9 N :    0.041311
  10 O :   -1.032018
  11 S :   -0.276264
  12 H :    0.488215
  13 H :    0.395973
  14 H :    0.503726
  15 H :    0.288996
  16 H :    0.283606
  17 H :    0.820681
  18 H :    0.793362
Sum of atomic charges:    0.0000000

LOEWDIN ATOMIC CHARGES
----------------------
   0 C :    0.079351
   1 C :    0.115959
   2 C :   -0.177205
   3 C :   -0.591147
   4 C :    0.229017
   5 C :    0.227503
   6 C :    0.127055
   7 C :    0.109944
   8 C :   -0.613600
   9 N :    0.150284
  10 O :    0.403008
  11 S :    1.299028
  12 H :   -0.190818
  13 H :   -0.177163
  14 H :   -0.260563
  15 H :   -0.194360
  16 H :   -0.194145
  17 H :   -0.163791
  18 H :   -0.178356

  Mayer bond orders larger than 0.100000
B(  0-C ,  1-C ) :   1.4539 B(  0-C ,  2-C ) :   1.3913 B(  0-C ,  3-C ) :  -0.2016
B(  0-C , 12-H ) :   0.8203 B(  1-C ,  3-C ) :   0.6693 B(  1-C , 11-S ) :   0.3276
B(  1-C , 13-H ) :   0.9884 B(  2-C ,  3-C ) :  -0.1033 B(  2-C , 11-S ) :   1.1996
B(  2-C , 14-H ) :   0.7627 B(  3-C ,  6-C ) :  -0.2953 B(  3-C ,  7-C ) :  -0.3370
B(  3-C ,  9-N ) :   0.9523 B(  3-C , 11-S ) :   0.7846 B(  3-C , 17-H ) :  -0.1493
B(  3-C , 18-H ) :  -0.1207 B(  4-C ,  5-C ) :   0.1672 B(  4-C ,  6-C ) :   1.0410
B(  4-C ,  7-C ) :  -0.2269 B(  4-C ,  8-C ) :   1.1822 B(  4-C ,  9-N ) :  -0.2057
B(  4-C , 15-H ) :   1.1257 B(  4-C , 17-H ) :  -0.1454 B(  5-C ,  6-C ) :  -0.2356
B(  5-C ,  7-C ) :   1.0289 B(  5-C ,  8-C ) :   1.1648 B(  5-C ,  9-N ) :  -0.2048
B(  5-C , 16-H ) :   1.1244 B(  5-C , 18-H ) :  -0.1291 B(  6-C ,  7-C ) :   0.3939
B(  6-C ,  8-C ) :   0.2037 B(  6-C ,  9-N ) :   1.1688 B(  6-C , 17-H ) :   0.2988
B(  7-C ,  8-C ) :   0.2317 B(  7-C ,  9-N ) :   1.2136 B(  7-C , 18-H ) :   0.2637
B(  8-C , 10-O ) :   1.0131

MP2 TOTAL ENERGY:     -873.923774746 Eh
FINAL SINGLE POINT ENERGY      -873.923774745744

DIPOLE MOMENT
-------------
                                X             Y             Z
Electronic contribution:      0.33560      -2.89145      -1.33259
Nuclear contribution   :     -3.25627       3.27683       1.52408
                        -----------------------------------------
Total Dipole Moment    :     -2.92067       0.38538       0.19150
                        -----------------------------------------
Magnitude (a.u.)       :      2.95221
Magnitude (Debye)      :      7.50391

Rotational constants in cm-1:     0.092594     0.014684     0.013303
Rotational constants in MHz :  2775.907989   440.217701   398.824330

                             ****ORCA TERMINATED NORMALLY****
TOTAL RUN TIME: 0 days 0 hours 17 minutes 4 seconds 214 msec
