                         Program Version 5.0.3 -  RELEASE  -
|  1> !ri-mp2 aug-cc-pvtz aug-cc-pvtz/c tightscf
|  2> %pal nprocs 16 end
|  3>
|  4> * xyz 0 1
|  5> F     -0.068610    1.517102   -0.198375
|  6> F     -2.172960   -0.385347    0.136936
|  7> N      2.539942   -0.590490   -0.068123
|  8> C      0.095496    0.250121    0.339624
|  9> C     -0.898581   -0.714336   -0.288536
| 10> C      1.473579   -0.202694    0.110068
| 11> H     -0.088862    0.322052    1.413853
| 12> H     -0.677638   -1.735688    0.024438
| 13> H     -0.861929   -0.637279   -1.375414
| 14> *
| 15>
| 16>                          ****END OF INPUT****

CARTESIAN COORDINATES (ANGSTROEM)
---------------------------------
  F     -0.068610    1.517102   -0.198375
  F     -2.172960   -0.385347    0.136936
  N      2.539942   -0.590490   -0.068123
  C      0.095496    0.250121    0.339624
  C     -0.898581   -0.714336   -0.288536
  C      1.473579   -0.202694    0.110068
  H     -0.088862    0.322052    1.413853
  H     -0.677638   -1.735688    0.024438
  H     -0.861929   -0.637279   -1.375414

 Total Charge           Charge          ....    0
 Multiplicity           Mult            ....    1
 Number of Electrons    NEL             ....   46
 Basis Dimension        Dim             ....  345

ORBITAL ENERGIES
----------------

  NO   OCC          E(Eh)            E(eV)
   0   2.0000     -26.330277      -716.4833
   1   2.0000     -26.317022      -716.1226
   2   2.0000     -15.608618      -424.7321
   3   2.0000     -11.397320      -310.1368
   4   2.0000     -11.358709      -309.0862
   5   2.0000     -11.303334      -307.5794
   6   2.0000      -1.643505       -44.7220
   7   2.0000      -1.625059       -44.2201
   8   2.0000      -1.256655       -34.1953
   9   2.0000      -1.106580       -30.1116
  10   2.0000      -0.944943       -25.7132
  11   2.0000      -0.805878       -21.9291
  12   2.0000      -0.776521       -21.1302
  13   2.0000      -0.748295       -20.3621
  14   2.0000      -0.718359       -19.5476
  15   2.0000      -0.712279       -19.3821
  16   2.0000      -0.667941       -18.1756
  17   2.0000      -0.629273       -17.1234
  18   2.0000      -0.586019       -15.9464
  19   2.0000      -0.569904       -15.5079
  20   2.0000      -0.565962       -15.4006
  21   2.0000      -0.506650       -13.7866
  22   2.0000      -0.493692       -13.4340
  23   0.0000       0.026094         0.7101
  24   0.0000       0.034399         0.9360
  25   0.0000       0.043374         1.1803
  26   0.0000       0.061190         1.6651
  27   0.0000       0.082512         2.2453

MULLIKEN ATOMIC CHARGES
-----------------------
   0 F :   -0.482837
   1 F :   -0.475504
   2 N :   -0.479323
   3 C :    0.617736
   4 C :   -0.218351
   5 C :    0.037403
   6 H :    0.345583
   7 H :    0.341614
   8 H :    0.313678
Sum of atomic charges:   -0.0000000

LOEWDIN ATOMIC CHARGES
----------------------
   0 F :    0.483535
   1 F :    0.466745
   2 N :    0.279758
   3 C :   -0.439672
   4 C :   -0.080518
   5 C :   -0.213934
   6 H :   -0.166498
   7 H :   -0.166527
   8 H :   -0.162889

  Mayer bond orders larger than 0.100000
B(  0-F ,  3-C ) :   0.5482 B(  1-F ,  4-C ) :   0.6857 B(  2-N ,  5-C ) :   2.3956
B(  3-C ,  4-C ) :   0.9123 B(  3-C ,  5-C ) :   0.8380 B(  3-C ,  6-H ) :   0.8982
B(  4-C ,  5-C ) :   0.1364 B(  4-C ,  7-H ) :   0.9024 B(  4-C ,  8-H ) :   0.9249

MP2 TOTAL ENERGY:     -369.979363503 Eh
FINAL SINGLE POINT ENERGY      -369.979363502669

DIPOLE MOMENT
-------------
                                X             Y             Z
Electronic contribution:     -1.15628       2.54793       0.12962
Nuclear contribution   :      0.56946      -3.00946       0.11684
                        -----------------------------------------
Total Dipole Moment    :     -0.58683      -0.46153       0.24646
                        -----------------------------------------
Magnitude (a.u.)       :      0.78620
Magnitude (Debye)      :      1.99836

Rotational constants in cm-1:     0.241326     0.074976     0.060300
Rotational constants in MHz :  7234.764696  2247.725309  1807.739104

                             ****ORCA TERMINATED NORMALLY****
TOTAL RUN TIME: 0 days 0 hours 1 minutes 54 seconds 448 msec
