                         Program Version 5.0.3 -  RELEASE  -
|  1> !ri-mp2 aug-cc-pvtz aug-cc-pvtz/c tightscf
|  2> %pal nprocs 16 end
|  3>
|  4> * xyz 0 1
|  5> O      1.086627   -0.768894   -0.000019
|  6> O     -1.086627   -0.768894   -0.000018
|  7> N      3.344570    0.172429    0.000005
|  8> N     -3.344570    0.172429    0.000011
|  9> C      0.000000    0.087074   -0.000001
| 10> C      2.270510   -0.244533   -0.000005
| 11> C     -2.270510   -0.244533   -0.000002
| 12> C      0.000000    1.401601    0.000027
| 13> H     -0.931172    1.945319    0.000038
| 14> H      0.931172    1.945319    0.000038
| 15> *
| 16>
| 17>                          ****END OF INPUT****

CARTESIAN COORDINATES (ANGSTROEM)
---------------------------------
  O      1.086627   -0.768894   -0.000019
  O     -1.086627   -0.768894   -0.000018
  N      3.344570    0.172429    0.000005
  N     -3.344570    0.172429    0.000011
  C      0.000000    0.087074   -0.000001
  C      2.270510   -0.244533   -0.000005
  C     -2.270510   -0.244533   -0.000002
  C      0.000000    1.401601    0.000027
  H     -0.931172    1.945319    0.000038
  H      0.931172    1.945319    0.000038

 Total Charge           Charge          ....    0
 Multiplicity           Mult            ....    1
 Number of Electrons    NEL             ....   56
 Basis Dimension        Dim             ....  414

ORBITAL ENERGIES
----------------

  NO   OCC          E(Eh)            E(eV)
   0   2.0000     -20.723709      -563.9208
   1   2.0000     -20.723695      -563.9204
   2   2.0000     -15.606440      -424.6728
   3   2.0000     -15.606440      -424.6728
   4   2.0000     -11.449958      -311.5692
   5   2.0000     -11.372081      -309.4501
   6   2.0000     -11.372079      -309.4500
   7   2.0000     -11.286983      -307.1344
   8   2.0000      -1.587149       -43.1885
   9   2.0000      -1.527478       -41.5648
  10   2.0000      -1.258759       -34.2526
  11   2.0000      -1.252419       -34.0801
  12   2.0000      -1.122711       -30.5505
  13   2.0000      -1.008030       -27.4299
  14   2.0000      -0.866645       -23.5826
  15   2.0000      -0.790203       -21.5025
  16   2.0000      -0.767066       -20.8729
  17   2.0000      -0.766313       -20.8524
  18   2.0000      -0.702163       -19.1068
  19   2.0000      -0.682422       -18.5696
  20   2.0000      -0.631057       -17.1719
  21   2.0000      -0.598882       -16.2964
  22   2.0000      -0.595876       -16.2146
  23   2.0000      -0.512190       -13.9374
  24   2.0000      -0.502886       -13.6842
  25   2.0000      -0.499702       -13.5976
  26   2.0000      -0.481885       -13.1127
  27   2.0000      -0.423792       -11.5320
  28   0.0000       0.022915         0.6236
  29   0.0000       0.044817         1.2195
  30   0.0000       0.046886         1.2758
  31   0.0000       0.058800         1.6000
  32   0.0000       0.061157         1.6642

MULLIKEN ATOMIC CHARGES
-----------------------
   0 O :   -0.049470
   1 O :   -0.049470
   2 N :   -0.494431
   3 N :   -0.494431
   4 C :    0.685232
   5 C :    0.105163
   6 C :    0.105163
   7 C :   -0.855445
   8 H :    0.523845
   9 H :    0.523845
Sum of atomic charges:    0.0000000

LOEWDIN ATOMIC CHARGES
----------------------
   0 O :    0.536156
   1 O :    0.536156
   2 N :    0.229195
   3 N :    0.229195
   4 C :   -0.598332
   5 C :   -0.515744
   6 C :   -0.515744
   7 C :    0.544831
   8 H :   -0.222856
   9 H :   -0.222856

  Mayer bond orders larger than 0.100000
B(  0-O ,  1-O ) :  -0.1787 B(  0-O ,  2-N ) :  -0.2019 B(  0-O ,  4-C ) :   0.8243
B(  0-O ,  5-C ) :   1.2029 B(  0-O ,  7-C ) :  -0.1365 B(  1-O ,  3-N ) :  -0.2019
B(  1-O ,  4-C ) :   0.8243 B(  1-O ,  6-C ) :   1.2029 B(  1-O ,  7-C ) :  -0.1365
B(  2-N ,  5-C ) :   2.6082 B(  3-N ,  6-C ) :   2.6082 B(  4-C ,  7-C ) :   1.6221
B(  5-C ,  7-C ) :  -0.1049 B(  6-C ,  7-C ) :  -0.1049 B(  7-C ,  8-H ) :   0.7458
B(  7-C ,  9-H ) :   0.7458 B(  8-H ,  9-H ) :   0.1014

MP2 TOTAL ENERGY:     -412.766434521 Eh
FINAL SINGLE POINT ENERGY      -412.766434521116

DIPOLE MOMENT
-------------
                                X             Y             Z
Electronic contribution:     -0.00000      -3.55502      -0.00007
Nuclear contribution   :      0.00000       3.69622       0.00007
                        -----------------------------------------
Total Dipole Moment    :     -0.00000       0.14119      -0.00000
                        -----------------------------------------
Magnitude (a.u.)       :      0.14119
Magnitude (Debye)      :      0.35888

Rotational constants in cm-1:     0.321909     0.035360     0.031861
Rotational constants in MHz :  9650.579710  1060.079603   955.159007

                             ****ORCA TERMINATED NORMALLY****
TOTAL RUN TIME: 0 days 0 hours 2 minutes 59 seconds 384 msec
