                         Program Version 5.0.3 -  RELEASE  -
|  1> !ri-mp2 aug-cc-pvtz aug-cc-pvtz/c tightscf
|  2> %pal nprocs 16 end
|  3>
|  4> * xyz 0 1
|  5> F    -0.357644   -0.471312    1.292576
|  6> F    -1.367380   -0.721561   -0.632011
|  7> O     0.767788   -0.495627   -0.659306
|  8> O     1.909998    0.165753   -0.077280
|  9> C    -0.382758   -0.035679   -0.006307
| 10> C    -0.624405    1.447497   -0.059329
| 11> H     2.203516   -0.500296    0.562031
| 12> H    -0.689198    1.760727   -1.098748
| 13> H    -1.559522    1.670655    0.449572
| 14> H     0.191108    1.972855    0.428559
| 15> *
| 16>
| 17>                          ****END OF INPUT****

CARTESIAN COORDINATES (ANGSTROEM)
---------------------------------
  F     -0.357644   -0.471312    1.292576
  F     -1.367380   -0.721561   -0.632011
  O      0.767788   -0.495627   -0.659306
  O      1.909998    0.165753   -0.077280
  C     -0.382758   -0.035679   -0.006307
  C     -0.624405    1.447497   -0.059329
  H      2.203516   -0.500296    0.562031
  H     -0.689198    1.760727   -1.098748
  H     -1.559522    1.670655    0.449572
  H      0.191108    1.972855    0.428559

 Total Charge           Charge          ....    0
 Multiplicity           Mult            ....    1
 Number of Electrons    NEL             ....   50
 Basis Dimension        Dim             ....  368

ORBITAL ENERGIES
----------------

  NO   OCC          E(Eh)            E(eV)
   0   2.0000     -26.326439      -716.3788
   1   2.0000     -26.322106      -716.2609
   2   2.0000     -20.661877      -562.2382
   3   2.0000     -20.658384      -562.1432
   4   2.0000     -11.476268      -312.2851
   5   2.0000     -11.248412      -306.0849
   6   2.0000      -1.685024       -45.8518
   7   2.0000      -1.614899       -43.9436
   8   2.0000      -1.511260       -41.1235
   9   2.0000      -1.263456       -34.3804
  10   2.0000      -1.050068       -28.5738
  11   2.0000      -0.893839       -24.3226
  12   2.0000      -0.791206       -21.5298
  13   2.0000      -0.788653       -21.4603
  14   2.0000      -0.763025       -20.7630
  15   2.0000      -0.725051       -19.7296
  16   2.0000      -0.689531       -18.7631
  17   2.0000      -0.662365       -18.0239
  18   2.0000      -0.647441       -17.6178
  19   2.0000      -0.616983       -16.7890
  20   2.0000      -0.594229       -16.1698
  21   2.0000      -0.578322       -15.7369
  22   2.0000      -0.572506       -15.5787
  23   2.0000      -0.522248       -14.2111
  24   2.0000      -0.511141       -13.9089
  25   0.0000       0.028812         0.7840
  26   0.0000       0.037568         1.0223
  27   0.0000       0.047796         1.3006
  28   0.0000       0.050649         1.3782
  29   0.0000       0.077118         2.0985

MULLIKEN ATOMIC CHARGES
-----------------------
   0 F :   -0.459803
   1 F :   -0.415999
   2 O :   -0.332243
   3 O :   -0.304051
   4 C :    1.349216
   5 C :   -1.051647
   6 H :    0.240037
   7 H :    0.322021
   8 H :    0.303752
   9 H :    0.348718
Sum of atomic charges:    0.0000000

LOEWDIN ATOMIC CHARGES
----------------------
   0 F :    0.473054
   1 F :    0.499289
   2 O :    0.338634
   3 O :    0.597761
   4 C :   -1.407247
   5 C :    0.565010
   6 H :   -0.529671
   7 H :   -0.171858
   8 H :   -0.175373
   9 H :   -0.189598

  Mayer bond orders larger than 0.100000
B(  0-F ,  4-C ) :   0.6192 B(  0-F ,  5-C ) :   0.1065 B(  1-F ,  4-C ) :   0.7139
B(  2-O ,  3-O ) :   0.8214 B(  2-O ,  4-C ) :   0.7689 B(  3-O ,  6-H ) :   0.9667
B(  4-C ,  5-C ) :   0.9181 B(  5-C ,  7-H ) :   0.9009 B(  5-C ,  8-H ) :   0.9192
B(  5-C ,  9-H ) :   0.8904

MP2 TOTAL ENERGY:     -428.093979172 Eh
FINAL SINGLE POINT ENERGY      -428.093979171772

DIPOLE MOMENT
-------------
                                X             Y             Z
Electronic contribution:     -1.54490      -5.23229       0.68567
Nuclear contribution   :      1.81177       5.81995      -0.30893
                        -----------------------------------------
Total Dipole Moment    :      0.26688       0.58766       0.37674
                        -----------------------------------------
Magnitude (a.u.)       :      0.74733
Magnitude (Debye)      :      1.89957

Rotational constants in cm-1:     0.166444     0.099896     0.097163
Rotational constants in MHz :  4989.856540  2994.800688  2912.874584

                             ****ORCA TERMINATED NORMALLY****
TOTAL RUN TIME: 0 days 0 hours 2 minutes 35 seconds 447 msec
