                         Program Version 5.0.3 -  RELEASE  -
|  1> !ri-mp2 aug-cc-pvtz aug-cc-pvtz/c tightscf
|  2> %pal nprocs 16 end
|  3>
|  4> * xyz 0 1
|  5> Cl     2.984399   -0.417879   -0.152987
|  6> O      0.545008    1.604346   -0.451726
|  7> N     -1.674474   -0.203357   -0.321610
|  8> N     -2.891489   -0.320120   -0.222649
|  9> N     -4.011018   -0.462784   -0.239944
| 10> C      0.486114    0.564884    0.505089
| 11> C     -0.961721    0.258054    0.891001
| 12> C      1.212507   -0.698086    0.052682
| 13> H      0.985966    0.954778    1.392928
| 14> H     -1.421537    1.170797    1.275391
| 15> H     -0.999608   -0.510498    1.668236
| 16> H      1.110587   -1.489064    0.791667
| 17> H      0.836499   -1.050422   -0.903648
| 18> H      0.010714    1.348290   -1.213192
| 19> *
| 20>
| 21>                          ****END OF INPUT****

CARTESIAN COORDINATES (ANGSTROEM)
---------------------------------
  Cl     2.984399   -0.417879   -0.152987
  O      0.545008    1.604346   -0.451726
  N     -1.674474   -0.203357   -0.321610
  N     -2.891489   -0.320120   -0.222649
  N     -4.011018   -0.462784   -0.239944
  C      0.486114    0.564884    0.505089
  C     -0.961721    0.258054    0.891001
  C      1.212507   -0.698086    0.052682
  H      0.985966    0.954778    1.392928
  H     -1.421537    1.170797    1.275391
  H     -0.999608   -0.510498    1.668236
  H      1.110587   -1.489064    0.791667
  H      0.836499   -1.050422   -0.903648
  H      0.010714    1.348290   -1.213192

 Total Charge           Charge          ....    0
 Multiplicity           Mult            ....    1
 Number of Electrons    NEL             ....   70
 Basis Dimension        Dim             ....  510

ORBITAL ENERGIES
----------------

  NO   OCC          E(Eh)            E(eV)
   0   2.0000    -104.824617     -2852.4229
   1   2.0000     -20.571653      -559.7831
   2   2.0000     -15.800041      -429.9410
   3   2.0000     -15.683464      -426.7687
   4   2.0000     -15.623725      -425.1432
   5   2.0000     -11.311851      -307.8111
   6   2.0000     -11.300356      -307.4983
   7   2.0000     -11.299964      -307.4877
   8   2.0000     -10.548528      -287.0400
   9   2.0000      -8.015344      -218.1086
  10   2.0000      -8.013574      -218.0604
  11   2.0000      -8.013537      -218.0594
  12   2.0000      -1.525061       -41.4990
  13   2.0000      -1.382597       -37.6224
  14   2.0000      -1.311642       -35.6916
  15   2.0000      -1.135753       -30.9054
  16   2.0000      -1.062203       -28.9040
  17   2.0000      -0.946946       -25.7677
  18   2.0000      -0.854280       -23.2461
  19   2.0000      -0.761972       -20.7343
  20   2.0000      -0.730076       -19.8664
  21   2.0000      -0.725165       -19.7327
  22   2.0000      -0.693708       -18.8768
  23   2.0000      -0.674947       -18.3662
  24   2.0000      -0.655095       -17.8260
  25   2.0000      -0.642594       -17.4859
  26   2.0000      -0.603029       -16.4093
  27   2.0000      -0.576000       -15.6737
  28   2.0000      -0.537827       -14.6350
  29   2.0000      -0.509291       -13.8585
  30   2.0000      -0.476971       -12.9790
  31   2.0000      -0.460894       -12.5416
  32   2.0000      -0.434887       -11.8339
  33   2.0000      -0.429413       -11.6849
  34   2.0000      -0.397665       -10.8210
  35   0.0000       0.025806         0.7022
  36   0.0000       0.035736         0.9724
  37   0.0000       0.037842         1.0297
  38   0.0000       0.045646         1.2421
  39   0.0000       0.058245         1.5849

MULLIKEN ATOMIC CHARGES
-----------------------
   0 Cl:   -0.382212
   1 O :   -0.758608
   2 N :   -0.701576
   3 N :    1.254051
   4 N :   -0.961734
   5 C :    0.459170
   6 C :   -0.303278
   7 C :   -0.367231
   8 H :    0.461991
   9 H :    0.279744
  10 H :    0.284033
  11 H :    0.269338
  12 H :    0.275980
  13 H :    0.190332
Sum of atomic charges:    0.0000000

LOEWDIN ATOMIC CHARGES
----------------------
   0 Cl:    0.890891
   1 O :    0.823260
   2 N :    0.219390
   3 N :   -0.229724
   4 N :    0.292251
   5 C :   -0.373972
   6 C :    0.106359
   7 C :   -0.265437
   8 H :   -0.164811
   9 H :   -0.155912
  10 H :   -0.156430
  11 H :   -0.237407
  12 H :   -0.242946
  13 H :   -0.505511

  Mayer bond orders larger than 0.100000
B(  0-Cl,  7-C ) :   0.7814 B(  1-O ,  5-C ) :   0.3697 B(  1-O ,  6-C ) :   0.1677
B(  1-O ,  7-C ) :   0.1249 B(  1-O , 13-H ) :   0.9872 B(  2-N ,  3-N ) :   0.8799
B(  2-N ,  4-N ) :   0.8078 B(  2-N ,  6-C ) :   0.7870 B(  3-N ,  4-N ) :   0.8334
B(  5-C ,  6-C ) :   0.9428 B(  5-C ,  7-C ) :   0.9714 B(  5-C ,  8-H ) :   0.8524
B(  6-C ,  9-H ) :   0.9209 B(  6-C , 10-H ) :   0.9401 B(  7-C , 11-H ) :   0.9360
B(  7-C , 12-H ) :   0.9376

MP2 TOTAL ENERGY:     -816.445553657 Eh
FINAL SINGLE POINT ENERGY      -816.445553657390

DIPOLE MOMENT
-------------
                                X             Y             Z
Electronic contribution:      2.76024      -1.41572      -2.48919
Nuclear contribution   :     -3.67449       1.00982       3.12144
                        -----------------------------------------
Total Dipole Moment    :     -0.91426      -0.40591       0.63225
                        -----------------------------------------
Magnitude (a.u.)       :      1.18337
Magnitude (Debye)      :      3.00789

Rotational constants in cm-1:     0.169351     0.021931     0.020803
Rotational constants in MHz :  5077.000464   657.476579   623.669011

                             ****ORCA TERMINATED NORMALLY****
TOTAL RUN TIME: 0 days 0 hours 5 minutes 44 seconds 231 msec
