                         Program Version 5.0.3 -  RELEASE  -
|  1> !ri-mp2 aug-cc-pvtz aug-cc-pvtz/c tightscf
|  2> %pal nprocs 16 end
|  3> %maxcore 3800
|  4>
|  5> * xyz 0 1
|  6> C     0.000000     4.931161    0.525769
|  7> C     0.000000    -4.931161    0.525769
|  8> C     0.000000     3.717960   -0.402856
|  9> C     0.000000    -3.717960   -0.402856
| 10> C     0.000000     2.388987    0.353309
| 11> C     0.000000    -2.388987    0.353309
| 12> C     0.000000     1.184688   -0.571073
| 13> C     0.000000    -1.184688   -0.571073
| 14> O     0.000000     0.000000    0.205597
| 15> H    -0.880623     4.932775    1.171072
| 16> H     0.880623     4.932775    1.171072
| 17> H     0.000000     5.864641   -0.038469
| 18> H     0.880623    -4.932775    1.171072
| 19> H    -0.880623    -4.932775    1.171072
| 20> H     0.000000    -5.864641   -0.038469
| 21> H    -0.874418     3.763393   -1.058921
| 22> H     0.874418     3.763393   -1.058921
| 23> H     0.874418    -3.763393   -1.058921
| 24> H    -0.874418    -3.763393   -1.058921
| 25> H     0.876326     2.331130    1.004232
| 26> H    -0.876326     2.331130    1.004232
| 27> H    -0.876326    -2.331130    1.004232
| 28> H     0.876326    -2.331130    1.004232
| 29> H    -0.884669     1.203511   -1.223789
| 30> H     0.884669     1.203511   -1.223789
| 31> H     0.884669    -1.203511   -1.223789
| 32> H    -0.884669    -1.203511   -1.223789
| 33> *
| 34>
| 35>                          ****END OF INPUT****

CARTESIAN COORDINATES (ANGSTROEM)
---------------------------------
  C      0.000000    4.931161    0.525769
  C      0.000000   -4.931161    0.525769
  C      0.000000    3.717960   -0.402856
  C      0.000000   -3.717960   -0.402856
  C      0.000000    2.388987    0.353309
  C      0.000000   -2.388987    0.353309
  C      0.000000    1.184688   -0.571073
  C      0.000000   -1.184688   -0.571073
  O      0.000000    0.000000    0.205597
  H     -0.880623    4.932775    1.171072
  H      0.880623    4.932775    1.171072
  H      0.000000    5.864641   -0.038469
  H      0.880623   -4.932775    1.171072
  H     -0.880623   -4.932775    1.171072
  H      0.000000   -5.864641   -0.038469
  H     -0.874418    3.763393   -1.058921
  H      0.874418    3.763393   -1.058921
  H      0.874418   -3.763393   -1.058921
  H     -0.874418   -3.763393   -1.058921
  H      0.876326    2.331130    1.004232
  H     -0.876326    2.331130    1.004232
  H     -0.876326   -2.331130    1.004232
  H      0.876326   -2.331130    1.004232
  H     -0.884669    1.203511   -1.223789
  H      0.884669    1.203511   -1.223789
  H      0.884669   -1.203511   -1.223789
  H     -0.884669   -1.203511   -1.223789

 Total Charge           Charge          ....    0
 Multiplicity           Mult            ....    1
 Number of Electrons    NEL             ....   74
 Basis Dimension        Dim             ....  828

ORBITAL ENERGIES
----------------

  NO   OCC          E(Eh)            E(eV)
   0   2.0000     -20.548095      -559.1421
   1   2.0000     -11.267797      -306.6123
   2   2.0000     -11.267777      -306.6118
   3   2.0000     -11.219182      -305.2895
   4   2.0000     -11.219181      -305.2894
   5   2.0000     -11.212981      -305.1207
   6   2.0000     -11.212980      -305.1207
   7   2.0000     -11.210949      -305.0654
   8   2.0000     -11.210949      -305.0654
   9   2.0000      -1.366777       -37.1919
  10   2.0000      -1.079285       -29.3688
  11   2.0000      -1.062858       -28.9218
  12   2.0000      -0.993362       -27.0308
  13   2.0000      -0.951860       -25.9014
  14   2.0000      -0.864199       -23.5160
  15   2.0000      -0.833585       -22.6830
  16   2.0000      -0.800554       -21.7842
  17   2.0000      -0.786696       -21.4071
  18   2.0000      -0.679199       -18.4819
  19   2.0000      -0.647782       -17.6271
  20   2.0000      -0.641761       -17.4632
  21   2.0000      -0.616317       -16.7708
  22   2.0000      -0.611952       -16.6521
  23   2.0000      -0.575004       -15.6466
  24   2.0000      -0.570503       -15.5242
  25   2.0000      -0.558939       -15.2095
  26   2.0000      -0.530667       -14.4402
  27   2.0000      -0.523094       -14.2341
  28   2.0000      -0.506097       -13.7716
  29   2.0000      -0.494749       -13.4628
  30   2.0000      -0.477822       -13.0022
  31   2.0000      -0.472669       -12.8620
  32   2.0000      -0.468237       -12.7414
  33   2.0000      -0.462844       -12.5946
  34   2.0000      -0.460094       -12.5198
  35   2.0000      -0.453731       -12.3466
  36   2.0000      -0.415639       -11.3101
  37   0.0000       0.029970         0.8155
  38   0.0000       0.030541         0.8311
  39   0.0000       0.035893         0.9767
  40   0.0000       0.037514         1.0208
  41   0.0000       0.043151         1.1742

MULLIKEN ATOMIC CHARGES
-----------------------
   0 C :   -0.982858
   1 C :   -0.982858
   2 C :   -0.416544
   3 C :   -0.416544
   4 C :   -0.345049
   5 C :   -0.345049
   6 C :   -0.288522
   7 C :   -0.288522
   8 O :   -0.619158
   9 H :    0.262364
  10 H :    0.262364
  11 H :    0.293354
  12 H :    0.262364
  13 H :    0.262364
  14 H :    0.293354
  15 H :    0.243886
  16 H :    0.243886
  17 H :    0.243886
  18 H :    0.243886
  19 H :    0.230624
  20 H :    0.230624
  21 H :    0.230624
  22 H :    0.230624
  23 H :    0.287725
  24 H :    0.287725
  25 H :    0.287725
  26 H :    0.287725
Sum of atomic charges:   -0.0000000

LOEWDIN ATOMIC CHARGES
----------------------
   0 C :    0.578270
   1 C :    0.578270
   2 C :    0.250432
   3 C :    0.250432
   4 C :    0.266965
   5 C :    0.266965
   6 C :    0.009052
   7 C :    0.009052
   8 O :    0.583638
   9 H :   -0.171092
  10 H :   -0.171092
  11 H :   -0.174002
  12 H :   -0.171092
  13 H :   -0.171092
  14 H :   -0.174002
  15 H :   -0.148916
  16 H :   -0.148916
  17 H :   -0.148916
  18 H :   -0.148916
  19 H :   -0.144160
  20 H :   -0.144160
  21 H :   -0.144160
  22 H :   -0.144160
  23 H :   -0.147100
  24 H :   -0.147100
  25 H :   -0.147100
  26 H :   -0.147100

  Mayer bond orders larger than 0.100000
B(  0-C ,  2-C ) :   0.8980 B(  0-C ,  9-H ) :   0.9647 B(  0-C , 10-H ) :   0.9647
B(  0-C , 11-H ) :   0.9624 B(  1-C ,  3-C ) :   0.8980 B(  1-C , 12-H ) :   0.9647
B(  1-C , 13-H ) :   0.9647 B(  1-C , 14-H ) :   0.9624 B(  2-C ,  4-C ) :   0.8735
B(  2-C , 15-H ) :   0.9471 B(  2-C , 16-H ) :   0.9471 B(  3-C ,  5-C ) :   0.8735
B(  3-C , 17-H ) :   0.9471 B(  3-C , 18-H ) :   0.9471 B(  4-C ,  6-C ) :   1.0236
B(  4-C ,  8-O ) :  -0.1602 B(  4-C , 19-H ) :   0.9601 B(  4-C , 20-H ) :   0.9601
B(  5-C ,  7-C ) :   1.0236 B(  5-C ,  8-O ) :  -0.1602 B(  5-C , 21-H ) :   0.9601
B(  5-C , 22-H ) :   0.9601 B(  6-C ,  7-C ) :   0.1766 B(  6-C ,  8-O ) :   1.0603
B(  6-C , 23-H ) :   0.8870 B(  6-C , 24-H ) :   0.8870 B(  7-C ,  8-O ) :   1.0603
B(  7-C , 25-H ) :   0.8870 B(  7-C , 26-H ) :   0.8870

MP2 TOTAL ENERGY:     -390.095658090 Eh
FINAL SINGLE POINT ENERGY      -390.095658090229

DIPOLE MOMENT
-------------
                                X             Y             Z
Electronic contribution:     -0.00000      -0.00000       0.05659
Nuclear contribution   :      0.00000       0.00000      -0.53712
                        -----------------------------------------
Total Dipole Moment    :     -0.00000      -0.00000      -0.48054
                        -----------------------------------------
Magnitude (a.u.)       :      0.48054
Magnitude (Debye)      :      1.22143

Rotational constants in cm-1:     0.308374     0.012471     0.012202
Rotational constants in MHz :  9244.814829   373.865743   365.816678

                             ****ORCA TERMINATED NORMALLY****
TOTAL RUN TIME: 0 days 0 hours 14 minutes 9 seconds 665 msec
