                         Program Version 5.0.3 -  RELEASE  -
|  1> !ri-mp2 aug-cc-pvtz aug-cc-pvtz/c tightscf
|  2> %pal nprocs 16 end
|  3>
|  4> * xyz 0 1
|  5> Cl   -3.572987   -0.567278   -0.510317
|  6> S     3.299035   -1.317260   -0.006901
|  7> N     2.079494    1.156701   -0.250864
|  8> C     0.857173    1.910593   -0.125215
|  9> C    -2.394964   -0.380030    0.871471
| 10> C    -0.304421    1.103913    0.230165
| 11> C    -1.256817    0.432000    0.515067
| 12> C     2.559311    0.073133   -0.131631
| 13> H     0.675175    2.422451   -1.072973
| 14> H     1.016661    2.691477    0.622020
| 15> H    -2.961711    0.058649    1.688357
| 16> H    -2.092050   -1.387238    1.145296
| 17> *
| 18>
| 19>                          ****END OF INPUT****

CARTESIAN COORDINATES (ANGSTROEM)
---------------------------------
  Cl    -3.572987   -0.567278   -0.510317
  S      3.299035   -1.317260   -0.006901
  N      2.079494    1.156701   -0.250864
  C      0.857173    1.910593   -0.125215
  C     -2.394964   -0.380030    0.871471
  C     -0.304421    1.103913    0.230165
  C     -1.256817    0.432000    0.515067
  C      2.559311    0.073133   -0.131631
  H      0.675175    2.422451   -1.072973
  H      1.016661    2.691477    0.622020
  H     -2.961711    0.058649    1.688357
  H     -2.092050   -1.387238    1.145296

 Total Charge           Charge          ....    0
 Multiplicity           Mult            ....    1
 Number of Electrons    NEL             ....   74
 Basis Dimension        Dim             ....  468

ORBITAL ENERGIES
----------------

  NO   OCC          E(Eh)            E(eV)
   0   2.0000    -104.840755     -2852.8620
   1   2.0000     -91.954376     -2502.2058
   2   2.0000     -15.614435      -424.8904
   3   2.0000     -11.381553      -309.7078
   4   2.0000     -11.341704      -308.6235
   5   2.0000     -11.335672      -308.4593
   6   2.0000     -11.263616      -306.4986
   7   2.0000     -11.259526      -306.3873
   8   2.0000     -10.564383      -287.4715
   9   2.0000      -8.957674      -243.7507
  10   2.0000      -8.031158      -218.5389
  11   2.0000      -8.029277      -218.4877
  12   2.0000      -8.029239      -218.4867
  13   2.0000      -6.639296      -180.6644
  14   2.0000      -6.636803      -180.5966
  15   2.0000      -6.636517      -180.5888
  16   2.0000      -1.304493       -35.4971
  17   2.0000      -1.155154       -31.4333
  18   2.0000      -1.100910       -29.9573
  19   2.0000      -1.047115       -28.4934
  20   2.0000      -1.006408       -27.3858
  21   2.0000      -0.942250       -25.6399
  22   2.0000      -0.776497       -21.1295
  23   2.0000      -0.705913       -19.2089
  24   2.0000      -0.677527       -18.4364
  25   2.0000      -0.673862       -18.3367
  26   2.0000      -0.657442       -17.8899
  27   2.0000      -0.602176       -16.3860
  28   2.0000      -0.576488       -15.6870
  29   2.0000      -0.552421       -15.0321
  30   2.0000      -0.541922       -14.7464
  31   2.0000      -0.458805       -12.4847
  32   2.0000      -0.455774       -12.4022
  33   2.0000      -0.416788       -11.3414
  34   2.0000      -0.408798       -11.1239
  35   2.0000      -0.373454       -10.1622
  36   2.0000      -0.361052        -9.8247
  37   0.0000       0.023146         0.6298
  38   0.0000       0.029596         0.8053
  39   0.0000       0.040367         1.0985
  40   0.0000       0.044509         1.2111
  41   0.0000       0.062758         1.7077

MULLIKEN ATOMIC CHARGES
-----------------------
   0 Cl:   -0.298736
   1 S :   -0.319177
   2 N :    0.082869
   3 C :    0.105461
   4 C :   -0.342230
   5 C :    0.010866
   6 C :   -0.038281
   7 C :   -0.393450
   8 H :    0.321681
   9 H :    0.332371
  10 H :    0.289287
  11 H :    0.249338
Sum of atomic charges:    0.0000000

LOEWDIN ATOMIC CHARGES
----------------------
   0 Cl:    0.847012
   1 S :    0.833777
   2 N :    0.223644
   3 C :    0.057244
   4 C :   -0.313932
   5 C :    0.086052
   6 C :   -0.006276
   7 C :   -0.889463
   8 H :   -0.166134
   9 H :   -0.166824
  10 H :   -0.253457
  11 H :   -0.251643

  Mayer bond orders larger than 0.100000
B(  0-Cl,  4-C ) :   0.8127 B(  1-S ,  7-C ) :   1.8250 B(  2-N ,  3-C ) :   0.5532
B(  2-N ,  5-C ) :   0.1016 B(  2-N ,  7-C ) :   1.9718 B(  3-C ,  4-C ) :   0.1559
B(  3-C ,  5-C ) :   0.8743 B(  3-C ,  7-C ) :  -0.5022 B(  3-C ,  8-H ) :   0.8892
B(  3-C ,  9-H ) :   0.9242 B(  4-C ,  5-C ) :  -0.1560 B(  4-C ,  6-C ) :   1.2182
B(  4-C , 10-H ) :   0.9369 B(  4-C , 11-H ) :   0.9233 B(  5-C ,  6-C ) :   2.1337
B(  5-C ,  7-C ) :   0.1507

MP2 TOTAL ENERGY:    -1104.544502197 Eh
FINAL SINGLE POINT ENERGY     -1104.544502196652

DIPOLE MOMENT
-------------
                                X             Y             Z
Electronic contribution:     -2.00760      -3.55350      -2.34761
Nuclear contribution   :      1.58461       4.43289       2.96986
                        -----------------------------------------
Total Dipole Moment    :     -0.42300       0.87939       0.62225
                        -----------------------------------------
Magnitude (a.u.)       :      1.15734
Magnitude (Debye)      :      2.94173

Rotational constants in cm-1:     0.087648     0.015574     0.013854
Rotational constants in MHz :  2627.616892   466.899520   415.340395

                             ****ORCA TERMINATED NORMALLY****
TOTAL RUN TIME: 0 days 0 hours 4 minutes 21 seconds 498 msec
