                         Program Version 5.0.3 -  RELEASE  -
|  1> !ri-mp2 aug-cc-pvtz aug-cc-pvtz/c tightscf
|  2> %pal nprocs 16 end
|  3>
|  4> * xyz 0 1
|  5> C     -1.485209    1.351731    0.043199
|  6> C     -2.539465   -0.658118    0.027515
|  7> C     -0.256809    0.716701   -0.007150
|  8> C     -0.286056   -0.686804   -0.018776
|  9> C      2.255116   -0.024473    0.324269
| 10> N     -2.633772    0.663232    0.061234
| 11> N     -1.410366   -1.376466   -0.006097
| 12> S      1.321935    1.487762   -0.135275
| 13> S      1.275421   -1.509989   -0.105022
| 14> H     -1.560648    2.432329    0.064669
| 15> H     -3.465024   -1.219915    0.032889
| 16> H      3.180774   -0.038600   -0.242667
| 17> H      2.470711   -0.019781    1.389566
| 18> *
| 19>
| 20>                          ****END OF INPUT****

CARTESIAN COORDINATES (ANGSTROEM)
---------------------------------
  C     -1.485209    1.351731    0.043199
  C     -2.539465   -0.658118    0.027515
  C     -0.256809    0.716701   -0.007150
  C     -0.286056   -0.686804   -0.018776
  C      2.255116   -0.024473    0.324269
  N     -2.633772    0.663232    0.061234
  N     -1.410366   -1.376466   -0.006097
  S      1.321935    1.487762   -0.135275
  S      1.275421   -1.509989   -0.105022
  H     -1.560648    2.432329    0.064669
  H     -3.465024   -1.219915    0.032889
  H      3.180774   -0.038600   -0.242667
  H      2.470711   -0.019781    1.389566

 Total Charge           Charge          ....    0
 Multiplicity           Mult            ....    1
 Number of Electrons    NEL             ....   80
 Basis Dimension        Dim             ....  514

ORBITAL ENERGIES
----------------

  NO   OCC          E(Eh)            E(eV)
   0   2.0000     -91.992692     -2503.2484
   1   2.0000     -91.990832     -2503.1978
   2   2.0000     -15.585231      -424.0957
   3   2.0000     -15.579789      -423.9476
   4   2.0000     -11.342077      -308.6336
   5   2.0000     -11.322050      -308.0886
   6   2.0000     -11.317172      -307.9559
   7   2.0000     -11.308766      -307.7272
   8   2.0000     -11.289815      -307.2115
   9   2.0000      -8.992893      -244.7090
  10   2.0000      -8.990659      -244.6483
  11   2.0000      -6.673878      -181.6055
  12   2.0000      -6.673077      -181.5837
  13   2.0000      -6.672015      -181.5548
  14   2.0000      -6.671834      -181.5498
  15   2.0000      -6.671011      -181.5274
  16   2.0000      -6.669849      -181.4958
  17   2.0000      -1.329389       -36.1745
  18   2.0000      -1.214092       -33.0371
  19   2.0000      -1.154632       -31.4191
  20   2.0000      -1.053714       -28.6730
  21   2.0000      -1.004573       -27.3358
  22   2.0000      -0.915961       -24.9246
  23   2.0000      -0.863491       -23.4968
  24   2.0000      -0.837399       -22.7868
  25   2.0000      -0.731168       -19.8961
  26   2.0000      -0.705092       -19.1865
  27   2.0000      -0.650969       -17.7138
  28   2.0000      -0.610598       -16.6152
  29   2.0000      -0.599767       -16.3205
  30   2.0000      -0.593969       -16.1627
  31   2.0000      -0.557637       -15.1741
  32   2.0000      -0.548251       -14.9187
  33   2.0000      -0.482622       -13.1328
  34   2.0000      -0.467674       -12.7261
  35   2.0000      -0.459631       -12.5072
  36   2.0000      -0.442021       -12.0280
  37   2.0000      -0.421761       -11.4767
  38   2.0000      -0.378876       -10.3097
  39   2.0000      -0.320673        -8.7260
  40   0.0000       0.027093         0.7372
  41   0.0000       0.033404         0.9090
  42   0.0000       0.039717         1.0808
  43   0.0000       0.041328         1.1246
  44   0.0000       0.061804         1.6818

MULLIKEN ATOMIC CHARGES
-----------------------
   0 C :   -0.776365
   1 C :   -0.692525
   2 C :    1.143921
   3 C :    0.697087
   4 C :   -0.313168
   5 N :   -0.406488
   6 N :   -0.558383
   7 S :   -0.457539
   8 S :   -0.332576
   9 H :    0.597551
  10 H :    0.589418
  11 H :    0.270191
  12 H :    0.238877
Sum of atomic charges:   -0.0000000

LOEWDIN ATOMIC CHARGES
----------------------
   0 C :   -0.054301
   1 C :   -0.178352
   2 C :   -0.611540
   3 C :   -0.809966
   4 C :   -0.373944
   5 N :    0.359793
   6 N :    0.306247
   7 S :    1.167732
   8 S :    1.194695
   9 H :   -0.192510
  10 H :   -0.203102
  11 H :   -0.307770
  12 H :   -0.296982

  Mayer bond orders larger than 0.100000
B(  0-C ,  1-C ) :  -0.1801 B(  0-C ,  2-C ) :   0.3710 B(  0-C ,  3-C ) :   0.4891
B(  0-C ,  5-N ) :   0.7347 B(  0-C ,  6-N ) :   0.1231 B(  0-C ,  9-H ) :   0.5811
B(  1-C ,  3-C ) :  -0.3161 B(  1-C ,  5-N ) :   1.4166 B(  1-C ,  6-N ) :   1.3642
B(  1-C , 10-H ) :   0.5691 B(  2-C ,  3-C ) :   0.9570 B(  2-C ,  7-S ) :   0.7114
B(  3-C ,  6-N ) :   0.6655 B(  3-C ,  8-S ) :   0.7536 B(  4-C ,  7-S ) :   1.0004
B(  4-C ,  8-S ) :   0.9609 B(  4-C , 11-H ) :   0.9505 B(  4-C , 12-H ) :   0.9339

MP2 TOTAL ENERGY:    -1097.297562446 Eh
FINAL SINGLE POINT ENERGY     -1097.297562446472

DIPOLE MOMENT
-------------
                                X             Y             Z
Electronic contribution:      0.37813      -0.73870      -0.97011
Nuclear contribution   :      0.50197       1.10653       1.20430
                        -----------------------------------------
Total Dipole Moment    :      0.88010       0.36783       0.23419
                        -----------------------------------------
Magnitude (a.u.)       :      0.98220
Magnitude (Debye)      :      2.49656

Rotational constants in cm-1:     0.074103     0.038734     0.025771
Rotational constants in MHz :  2221.556837  1161.223627   772.583270

                             ****ORCA TERMINATED NORMALLY****
TOTAL RUN TIME: 0 days 0 hours 6 minutes 48 seconds 185 msec
