                         Program Version 5.0.3 -  RELEASE  -
|  1> !ri-mp2 aug-cc-pvtz aug-cc-pvtz/c tightscf
|  2> %pal nprocs 16 end
|  3>
|  4> * xyz 0 1
|  5> C     -0.299342    0.692073    0.892875
|  6> C      0.299342   -0.692073    0.892875
|  7> Cl     0.299342    1.715125   -0.469310
|  8> Cl    -0.299342   -1.715125   -0.469310
|  9> H     -1.381552    0.661641    0.812196
| 10> H     -0.016551    1.207148    1.808816
| 11> H      0.016551   -1.207148    1.808816
| 12> H      1.381552   -0.661641    0.812196
| 13> *
| 14>
| 15>                          ****END OF INPUT****

CARTESIAN COORDINATES (ANGSTROEM)
---------------------------------
  C     -0.299342    0.692073    0.892875
  C      0.299342   -0.692073    0.892875
  Cl     0.299342    1.715125   -0.469310
  Cl    -0.299342   -1.715125   -0.469310
  H     -1.381552    0.661641    0.812196
  H     -0.016551    1.207148    1.808816
  H      0.016551   -1.207148    1.808816
  H      1.381552   -0.661641    0.812196

 Total Charge           Charge          ....    0
 Multiplicity           Mult            ....    1
 Number of Electrons    NEL             ....   50
 Basis Dimension        Dim             ....  284

ORBITAL ENERGIES
----------------

  NO   OCC          E(Eh)            E(eV)
   0   2.0000    -104.833287     -2852.6588
   1   2.0000    -104.833287     -2852.6588
   2   2.0000     -11.315582      -307.9126
   3   2.0000     -11.314912      -307.8944
   4   2.0000     -10.557308      -287.2789
   5   2.0000     -10.557306      -287.2789
   6   2.0000      -8.024119      -218.3474
   7   2.0000      -8.024118      -218.3473
   8   2.0000      -8.022321      -218.2985
   9   2.0000      -8.022321      -218.2985
  10   2.0000      -8.022276      -218.2972
  11   2.0000      -8.022275      -218.2972
  12   2.0000      -1.170142       -31.8412
  13   2.0000      -1.109837       -30.2002
  14   2.0000      -0.986765       -26.8513
  15   2.0000      -0.846992       -23.0478
  16   2.0000      -0.668527       -18.1916
  17   2.0000      -0.654304       -17.8045
  18   2.0000      -0.602533       -16.3958
  19   2.0000      -0.542460       -14.7611
  20   2.0000      -0.529065       -14.3966
  21   2.0000      -0.455129       -12.3847
  22   2.0000      -0.448780       -12.2119
  23   2.0000      -0.439639       -11.9632
  24   2.0000      -0.437512       -11.9053
  25   0.0000       0.025216         0.6862
  26   0.0000       0.039353         1.0708
  27   0.0000       0.043649         1.1878
  28   0.0000       0.049618         1.3502
  29   0.0000       0.074256         2.0206

MULLIKEN ATOMIC CHARGES
-----------------------
   0 C :   -0.302547
   1 C :   -0.302547
   2 Cl:   -0.292888
   3 Cl:   -0.292888
   4 H :    0.311046
   5 H :    0.284389
   6 H :    0.284389
   7 H :    0.311046
Sum of atomic charges:    0.0000000

LOEWDIN ATOMIC CHARGES
----------------------
   0 C :   -0.363171
   1 C :   -0.363171
   2 Cl:    0.867069
   3 Cl:    0.867069
   4 H :   -0.257706
   5 H :   -0.246192
   6 H :   -0.246192
   7 H :   -0.257706

  Mayer bond orders larger than 0.100000
B(  0-C ,  1-C ) :   0.9848 B(  0-C ,  2-Cl) :   0.8528 B(  0-C ,  4-H ) :   0.9126
B(  0-C ,  5-H ) :   0.9217 B(  1-C ,  3-Cl) :   0.8528 B(  1-C ,  6-H ) :   0.9217
B(  1-C ,  7-H ) :   0.9126

MP2 TOTAL ENERGY:     -997.875475112 Eh
FINAL SINGLE POINT ENERGY      -997.875475111595

DIPOLE MOMENT
-------------
                                X             Y             Z
Electronic contribution:      0.00000      -0.00000      -5.04576
Nuclear contribution   :      0.00000       0.00000       6.24841
                        -----------------------------------------
Total Dipole Moment    :      0.00000      -0.00000       1.20265
                        -----------------------------------------
Magnitude (a.u.)       :      1.20265
Magnitude (Debye)      :      3.05690

Rotational constants in cm-1:     0.333371     0.071352     0.062386
Rotational constants in MHz :  9994.198873  2139.069033  1870.275691

                             ****ORCA TERMINATED NORMALLY****
TOTAL RUN TIME: 0 days 0 hours 1 minutes 24 seconds 165 msec
