                         Program Version 5.0.3 -  RELEASE  -
|  1> !ri-mp2 aug-cc-pvtz aug-cc-pvtz/c tightscf
|  2> %pal nprocs 16 end
|  3>
|  4> * xyz 0 1
|  5> C      0.016027    0.345002    0.000000
|  6> C     -1.158543    1.289602    0.000000
|  7> F      1.179679    1.042816    0.000000
|  8> Cl     0.016027   -0.698667    1.468731
|  9> Cl     0.016027   -0.698667   -1.468731
| 10> H     -2.090468    0.731884    0.000000
| 11> H     -1.108226    1.914914    0.889721
| 12> H     -1.108226    1.914914   -0.889721
| 13> *
| 14>
| 15>                          ****END OF INPUT****

CARTESIAN COORDINATES (ANGSTROEM)
---------------------------------
  C      0.016027    0.345002    0.000000
  C     -1.158543    1.289602    0.000000
  F      1.179679    1.042816    0.000000
  Cl     0.016027   -0.698667    1.468731
  Cl     0.016027   -0.698667   -1.468731
  H     -2.090468    0.731884    0.000000
  H     -1.108226    1.914914    0.889721
  H     -1.108226    1.914914   -0.889721

 Total Charge           Charge          ....    0
 Multiplicity           Mult            ....    1
 Number of Electrons    NEL             ....   58
 Basis Dimension        Dim             ....  307

ORBITAL ENERGIES
----------------

  NO   OCC          E(Eh)            E(eV)
   0   2.0000    -104.857803     -2853.3259
   1   2.0000    -104.857802     -2853.3259
   2   2.0000     -26.337426      -716.6778
   3   2.0000     -11.467002      -312.0330
   4   2.0000     -11.262198      -306.4600
   5   2.0000     -10.582142      -287.9547
   6   2.0000     -10.582133      -287.9545
   7   2.0000      -8.048861      -219.0207
   8   2.0000      -8.048861      -219.0206
   9   2.0000      -8.046907      -218.9675
  10   2.0000      -8.046906      -218.9675
  11   2.0000      -8.046870      -218.9665
  12   2.0000      -8.046870      -218.9665
  13   2.0000      -1.660230       -45.1772
  14   2.0000      -1.195374       -32.5278
  15   2.0000      -1.106285       -30.1035
  16   2.0000      -1.031436       -28.0668
  17   2.0000      -0.862246       -23.4629
  18   2.0000      -0.737600       -20.0711
  19   2.0000      -0.736683       -20.0462
  20   2.0000      -0.712898       -19.3990
  21   2.0000      -0.620467       -16.8838
  22   2.0000      -0.590482       -16.0678
  23   2.0000      -0.578777       -15.7493
  24   2.0000      -0.534412       -14.5421
  25   2.0000      -0.495074       -13.4716
  26   2.0000      -0.472653       -12.8615
  27   2.0000      -0.472250       -12.8506
  28   2.0000      -0.452447       -12.3117
  29   0.0000       0.029643         0.8066
  30   0.0000       0.046086         1.2541
  31   0.0000       0.046588         1.2677
  32   0.0000       0.065249         1.7755
  33   0.0000       0.080460         2.1894

MULLIKEN ATOMIC CHARGES
-----------------------
   0 C :    0.861564
   1 C :   -0.907402
   2 F :   -0.444813
   3 Cl:   -0.269444
   4 Cl:   -0.269444
   5 H :    0.369872
   6 H :    0.329834
   7 H :    0.329834
Sum of atomic charges:   -0.0000000

LOEWDIN ATOMIC CHARGES
----------------------
   0 C :   -1.887108
   1 C :    0.383043
   2 F :    0.391501
   3 Cl:    0.850719
   4 Cl:    0.850719
   5 H :   -0.201989
   6 H :   -0.193442
   7 H :   -0.193442

  Mayer bond orders larger than 0.100000
B(  0-C ,  1-C ) :   0.9158 B(  0-C ,  2-F ) :   0.6299 B(  0-C ,  3-Cl) :   0.9243
B(  0-C ,  4-Cl) :   0.9243 B(  1-C ,  5-H ) :   0.8890 B(  1-C ,  6-H ) :   0.8992
B(  1-C ,  7-H ) :   0.8992

MP2 TOTAL ENERGY:    -1097.017059274 Eh
FINAL SINGLE POINT ENERGY     -1097.017059273979

DIPOLE MOMENT
-------------
                                X             Y             Z
Electronic contribution:      4.41485      -4.64995       0.00000
Nuclear contribution   :     -5.13934       5.15157       0.00000
                        -----------------------------------------
Total Dipole Moment    :     -0.72449       0.50161       0.00000
                        -----------------------------------------
Magnitude (a.u.)       :      0.88119
Magnitude (Debye)      :      2.23981

Rotational constants in cm-1:     0.126222     0.082743     0.070557
Rotational constants in MHz :  3784.047840  2480.560673  2115.233668

                             ****ORCA TERMINATED NORMALLY****
TOTAL RUN TIME: 0 days 0 hours 1 minutes 24 seconds 182 msec
