                         Program Version 5.0.3 -  RELEASE  -
|  1> !ri-mp2 aug-cc-pvtz aug-cc-pvtz/c tightscf
|  2> %pal nprocs 16 end
|  3>
|  4> * xyz 0 1
|  5> C     -1.857174    0.019065   -0.276434
|  6> C     -0.721381   -0.297100    0.333323
|  7> C      1.726840   -0.243467   -0.291830
|  8> C      0.536972    0.517277    0.306749
|  9> H     -2.729067   -0.618792   -0.220189
| 10> H     -1.956005    0.931088   -0.853592
| 11> H     -0.671041   -1.224905    0.898141
| 12> H      2.633033    0.362779   -0.261767
| 13> H      1.534052   -0.514731   -1.330436
| 14> H      1.923869   -1.164107    0.260591
| 15> H      0.363340    1.438791   -0.253243
| 16> H      0.790277    0.815231    1.329652
| 17> *
| 18>
| 19>                          ****END OF INPUT****

CARTESIAN COORDINATES (ANGSTROEM)
---------------------------------
  C     -1.857174    0.019065   -0.276434
  C     -0.721381   -0.297100    0.333323
  C      1.726840   -0.243467   -0.291830
  C      0.536972    0.517277    0.306749
  H     -2.729067   -0.618792   -0.220189
  H     -1.956005    0.931088   -0.853592
  H     -0.671041   -1.224905    0.898141
  H      2.633033    0.362779   -0.261767
  H      1.534052   -0.514731   -1.330436
  H      1.923869   -1.164107    0.260591
  H      0.363340    1.438791   -0.253243
  H      0.790277    0.815231    1.329652

 Total Charge           Charge          ....    0
 Multiplicity           Mult            ....    1
 Number of Electrons    NEL             ....   32
 Basis Dimension        Dim             ....  368

ORBITAL ENERGIES
----------------

  NO   OCC          E(Eh)            E(eV)
   0   2.0000     -11.230312      -305.5923
   1   2.0000     -11.225803      -305.4696
   2   2.0000     -11.216728      -305.2227
   3   2.0000     -11.215592      -305.1918
   4   2.0000      -1.080105       -29.3912
   5   2.0000      -0.989323       -26.9208
   6   2.0000      -0.856626       -23.3100
   7   2.0000      -0.754882       -20.5414
   8   2.0000      -0.642537       -17.4843
   9   2.0000      -0.606653       -16.5079
  10   2.0000      -0.585289       -15.9265
  11   2.0000      -0.535322       -14.5668
  12   2.0000      -0.517370       -14.0783
  13   2.0000      -0.486874       -13.2485
  14   2.0000      -0.474994       -12.9252
  15   2.0000      -0.359630        -9.7860
  16   0.0000       0.031598         0.8598
  17   0.0000       0.036789         1.0011
  18   0.0000       0.039488         1.0745
  19   0.0000       0.043056         1.1716
  20   0.0000       0.054994         1.4965

MULLIKEN ATOMIC CHARGES
-----------------------
   0 C :   -1.062296
   1 C :   -0.208341
   2 C :   -0.924245
   3 C :   -0.219260
   4 H :    0.521430
   5 H :    0.246175
   6 H :    0.288996
   7 H :    0.266848
   8 H :    0.306420
   9 H :    0.283178
  10 H :    0.228226
  11 H :    0.272870
Sum of atomic charges:    0.0000000

LOEWDIN ATOMIC CHARGES
----------------------
   0 C :    0.519785
   1 C :    0.168200
   2 C :    0.573937
   3 C :    0.222658
   4 H :   -0.231227
   5 H :   -0.223423
   6 H :   -0.186077
   7 H :   -0.175022
   8 H :   -0.172576
   9 H :   -0.174902
  10 H :   -0.165498
  11 H :   -0.155854

  Mayer bond orders larger than 0.100000
B(  0-C ,  1-C ) :   1.4313 B(  0-C ,  4-H ) :   0.6372 B(  0-C ,  5-H ) :   1.0886
B(  1-C ,  3-C ) :   0.8240 B(  1-C ,  6-H ) :   0.9861 B(  2-C ,  3-C ) :   0.9280
B(  2-C ,  7-H ) :   0.9668 B(  2-C ,  8-H ) :   0.9308 B(  2-C ,  9-H ) :   0.9416
B(  3-C , 10-H ) :   0.9552 B(  3-C , 11-H ) :   0.9413

MP2 TOTAL ENERGY:     -156.858546386 Eh
FINAL SINGLE POINT ENERGY      -156.858546386492

DIPOLE MOMENT
-------------
                                X             Y             Z
Electronic contribution:     -1.86177      -0.00236       0.50133
Nuclear contribution   :      2.02276       0.02716      -0.46149
                        -----------------------------------------
Total Dipole Moment    :      0.16099       0.02480       0.03984
                        -----------------------------------------
Magnitude (a.u.)       :      0.16769
Magnitude (Debye)      :      0.42624

Rotational constants in cm-1:     0.764516     0.138033     0.134798
Rotational constants in MHz : 22919.607201  4138.114896  4041.146910

                             ****ORCA TERMINATED NORMALLY****
TOTAL RUN TIME: 0 days 0 hours 1 minutes 54 seconds 661 msec
