                         Program Version 5.0.3 -  RELEASE  -
|  1> !ri-mp2 aug-cc-pvtz aug-cc-pvtz/c tightscf
|  2> %pal nprocs 16 end
|  3>
|  4> * xyz 0 1
|  5> N      0.000164    1.282141    0.000519
|  6> N     -0.000164   -1.282141    0.000519
|  7> C      0.000164    0.780285    1.382256
|  8> C     -1.196693    0.781006   -0.691218
|  9> C      1.196818    0.780687   -0.691334
| 10> C     -0.000164   -0.780285    1.382256
| 11> C      1.196693   -0.781006   -0.691218
| 12> C     -1.196818   -0.780687   -0.691334
| 13> H     -0.879522    1.179699    1.890037
| 14> H      0.880122    1.179356    1.889830
| 15> H     -1.194813    1.179661   -1.707165
| 16> H     -2.076388    1.180253   -0.183417
| 17> H      2.076725    1.179835   -0.183814
| 18> H      1.194755    1.179230   -1.707324
| 19> H      0.879522   -1.179699    1.890037
| 20> H     -0.880122   -1.179356    1.889830
| 21> H      1.194813   -1.179661   -1.707165
| 22> H      2.076388   -1.180253   -0.183417
| 23> H     -2.076725   -1.179835   -0.183814
| 24> H     -1.194755   -1.179230   -1.707324
| 25> *
| 26>
| 27>                          ****END OF INPUT****

CARTESIAN COORDINATES (ANGSTROEM)
---------------------------------
  N      0.000164    1.282141    0.000519
  N     -0.000164   -1.282141    0.000519
  C      0.000164    0.780285    1.382256
  C     -1.196693    0.781006   -0.691218
  C      1.196818    0.780687   -0.691334
  C     -0.000164   -0.780285    1.382256
  C      1.196693   -0.781006   -0.691218
  C     -1.196818   -0.780687   -0.691334
  H     -0.879522    1.179699    1.890037
  H      0.880122    1.179356    1.889830
  H     -1.194813    1.179661   -1.707165
  H     -2.076388    1.180253   -0.183417
  H      2.076725    1.179835   -0.183814
  H      1.194755    1.179230   -1.707324
  H      0.879522   -1.179699    1.890037
  H     -0.880122   -1.179356    1.889830
  H      1.194813   -1.179661   -1.707165
  H      2.076388   -1.180253   -0.183417
  H     -2.076725   -1.179835   -0.183814
  H     -1.194755   -1.179230   -1.707324

 Total Charge           Charge          ....    0
 Multiplicity           Mult            ....    1
 Number of Electrons    NEL             ....   62
 Basis Dimension        Dim             ....  644

ORBITAL ENERGIES
----------------

  NO   OCC          E(Eh)            E(eV)
   0   2.0000     -15.544616      -422.9905
   1   2.0000     -15.544604      -422.9902
   2   2.0000     -11.243773      -305.9586
   3   2.0000     -11.243757      -305.9582
   4   2.0000     -11.243662      -305.9556
   5   2.0000     -11.243233      -305.9439
   6   2.0000     -11.243225      -305.9437
   7   2.0000     -11.243125      -305.9410
   8   2.0000      -1.271121       -34.5890
   9   2.0000      -1.175060       -31.9750
  10   2.0000      -1.016656       -27.6646
  11   2.0000      -1.016390       -27.6574
  12   2.0000      -0.861787       -23.4504
  13   2.0000      -0.861647       -23.4466
  14   2.0000      -0.857936       -23.3456
  15   2.0000      -0.710982       -19.3468
  16   2.0000      -0.673252       -18.3201
  17   2.0000      -0.673147       -18.3173
  18   2.0000      -0.669587       -18.2204
  19   2.0000      -0.568348       -15.4655
  20   2.0000      -0.566942       -15.4273
  21   2.0000      -0.566794       -15.4233
  22   2.0000      -0.539589       -14.6830
  23   2.0000      -0.539330       -14.6759
  24   2.0000      -0.523520       -14.2457
  25   2.0000      -0.523202       -14.2371
  26   2.0000      -0.468267       -12.7422
  27   2.0000      -0.453651       -12.3445
  28   2.0000      -0.453420       -12.3382
  29   2.0000      -0.417772       -11.3682
  30   2.0000      -0.313969        -8.5435
  31   0.0000       0.030819         0.8386
  32   0.0000       0.036733         0.9996
  33   0.0000       0.036734         0.9996
  34   0.0000       0.041041         1.1168
  35   0.0000       0.050069         1.3625

MULLIKEN ATOMIC CHARGES
-----------------------
   0 N :   -0.399384
   1 N :   -0.399384
   2 C :   -0.430324
   3 C :   -0.430620
   4 C :   -0.430562
   5 C :   -0.430325
   6 C :   -0.430617
   7 C :   -0.430563
   8 H :    0.282144
   9 H :    0.281276
  10 H :    0.281504
  11 H :    0.282249
  12 H :    0.283070
  13 H :    0.280646
  14 H :    0.282143
  15 H :    0.281278
  16 H :    0.281501
  17 H :    0.282250
  18 H :    0.283071
  19 H :    0.280646
Sum of atomic charges:    0.0000000

LOEWDIN ATOMIC CHARGES
----------------------
   0 N :    0.280163
   1 N :    0.280163
   2 C :    0.202168
   3 C :    0.203060
   4 C :    0.203054
   5 C :    0.202168
   6 C :    0.203060
   7 C :    0.203054
   8 H :   -0.147951
   9 H :   -0.147958
  10 H :   -0.148228
  11 H :   -0.148040
  12 H :   -0.148031
  13 H :   -0.148236
  14 H :   -0.147951
  15 H :   -0.147958
  16 H :   -0.148228
  17 H :   -0.148040
  18 H :   -0.148031
  19 H :   -0.148236

  Mayer bond orders larger than 0.100000
B(  0-N ,  2-C ) :   0.8051 B(  0-N ,  3-C ) :   0.8065 B(  0-N ,  4-C ) :   0.8065
B(  1-N ,  5-C ) :   0.8051 B(  1-N ,  6-C ) :   0.8065 B(  1-N ,  7-C ) :   0.8065
B(  2-C ,  5-C ) :   0.9151 B(  2-C ,  8-H ) :   0.9718 B(  2-C ,  9-H ) :   0.9723
B(  3-C ,  7-C ) :   0.9151 B(  3-C , 10-H ) :   0.9729 B(  3-C , 11-H ) :   0.9710
B(  4-C ,  6-C ) :   0.9151 B(  4-C , 12-H ) :   0.9706 B(  4-C , 13-H ) :   0.9733
B(  5-C , 14-H ) :   0.9718 B(  5-C , 15-H ) :   0.9723 B(  6-C , 16-H ) :   0.9729
B(  6-C , 17-H ) :   0.9710 B(  7-C , 18-H ) :   0.9706 B(  7-C , 19-H ) :   0.9733

MP2 TOTAL ENERGY:     -344.631480639 Eh
FINAL SINGLE POINT ENERGY      -344.631480638911

DIPOLE MOMENT
-------------
                                X             Y             Z
Electronic contribution:      0.00000       0.00000       0.00302
Nuclear contribution   :      0.00000       0.00000      -0.00384
                        -----------------------------------------
Total Dipole Moment    :      0.00000       0.00000      -0.00082
                        -----------------------------------------
Magnitude (a.u.)       :      0.00082
Magnitude (Debye)      :      0.00208

Rotational constants in cm-1:     0.088623     0.083505     0.083475
Rotational constants in MHz :  2656.840963  2503.403314  2502.506605

                             ****ORCA TERMINATED NORMALLY****
TOTAL RUN TIME: 0 days 0 hours 11 minutes 44 seconds 807 msec
