                         Program Version 5.0.3 -  RELEASE  -
|  1> !ri-mp2 aug-cc-pvtz aug-cc-pvtz/c tightscf
|  2> %pal nprocs 16 end
|  3>
|  4> * xyz 0 1
|  5> C     -0.828503    1.164117   -0.040476
|  6> C     -2.134122    0.751924   -0.019718
|  7> C     -0.858343   -1.090763    0.034212
|  8> C     -0.008337   -0.005922   -0.006066
|  9> C      1.460971   -0.144754   -0.008282
| 10> N     -2.135628   -0.622343    0.026759
| 11> N      2.177223    1.021662    0.019301
| 12> O      2.017893   -1.232462   -0.050329
| 13> H     -0.508559    2.191256   -0.090948
| 14> H     -3.051869    1.312081   -0.038511
| 15> H     -0.625407   -2.139469    0.067307
| 16> H     -2.958272   -1.197272    0.051277
| 17> H      1.744712    1.904010    0.219798
| 18> H      3.175101    0.946245    0.113271
| 19> *
| 20>
| 21>                          ****END OF INPUT****

CARTESIAN COORDINATES (ANGSTROEM)
---------------------------------
  C     -0.828503    1.164117   -0.040476
  C     -2.134122    0.751924   -0.019718
  C     -0.858343   -1.090763    0.034212
  C     -0.008337   -0.005922   -0.006066
  C      1.460971   -0.144754   -0.008282
  N     -2.135628   -0.622343    0.026759
  N      2.177223    1.021662    0.019301
  O      2.017893   -1.232462   -0.050329
  H     -0.508559    2.191256   -0.090948
  H     -3.051869    1.312081   -0.038511
  H     -0.625407   -2.139469    0.067307
  H     -2.958272   -1.197272    0.051277
  H      1.744712    1.904010    0.219798
  H      3.175101    0.946245    0.113271

 Total Charge           Charge          ....    0
 Multiplicity           Mult            ....    1
 Number of Electrons    NEL             ....   58
 Basis Dimension        Dim             ....  506

ORBITAL ENERGIES
----------------

  NO   OCC          E(Eh)            E(eV)
   0   2.0000     -20.504641      -557.9597
   1   2.0000     -15.626436      -425.2169
   2   2.0000     -15.574695      -423.8090
   3   2.0000     -11.346648      -308.7580
   4   2.0000     -11.275411      -306.8195
   5   2.0000     -11.269247      -306.6518
   6   2.0000     -11.232664      -305.6563
   7   2.0000     -11.227306      -305.5105
   8   2.0000      -1.367938       -37.2235
   9   2.0000      -1.312979       -35.7280
  10   2.0000      -1.200840       -32.6765
  11   2.0000      -1.069346       -29.0984
  12   2.0000      -1.003053       -27.2945
  13   2.0000      -0.871041       -23.7022
  14   2.0000      -0.805547       -21.9201
  15   2.0000      -0.760311       -20.6891
  16   2.0000      -0.757836       -20.6218
  17   2.0000      -0.705694       -19.2029
  18   2.0000      -0.638050       -17.3622
  19   2.0000      -0.601074       -16.3560
  20   2.0000      -0.599602       -16.3160
  21   2.0000      -0.595870       -16.2144
  22   2.0000      -0.579239       -15.7619
  23   2.0000      -0.555077       -15.1044
  24   2.0000      -0.546798       -14.8791
  25   2.0000      -0.421185       -11.4610
  26   2.0000      -0.406632       -11.0650
  27   2.0000      -0.366885        -9.9834
  28   2.0000      -0.315751        -8.5920
  29   0.0000       0.020929         0.5695
  30   0.0000       0.027619         0.7515
  31   0.0000       0.035330         0.9614
  32   0.0000       0.048571         1.3217
  33   0.0000       0.055089         1.4991

MULLIKEN ATOMIC CHARGES
-----------------------
   0 C :   -0.550849
   1 C :   -0.916303
   2 C :   -0.953840
   3 C :    1.263228
   4 C :    0.417522
   5 N :    0.017758
   6 N :   -0.409957
   7 O :   -0.900451
   8 H :    0.349082
   9 H :    0.667696
  10 H :    0.644764
  11 H :    0.064008
  12 H :    0.172480
  13 H :    0.134862
Sum of atomic charges:    0.0000000

LOEWDIN ATOMIC CHARGES
----------------------
   0 C :    0.192963
   1 C :    0.132735
   2 C :    0.150039
   3 C :   -0.153287
   4 C :   -0.705261
   5 N :    0.510083
   6 N :    0.848627
   7 O :    0.418307
   8 H :   -0.194565
   9 H :   -0.177313
  10 H :   -0.154014
  11 H :   -0.246732
  12 H :   -0.325145
  13 H :   -0.296437

  Mayer bond orders larger than 0.100000
B(  0-C ,  1-C ) :   1.1102 B(  0-C ,  3-C ) :   0.9261 B(  0-C ,  5-N ) :  -0.1522
B(  0-C ,  8-H ) :   1.0667 B(  1-C ,  2-C ) :   0.1197 B(  1-C ,  3-C ) :  -0.1513
B(  1-C ,  5-N ) :   1.0701 B(  1-C ,  9-H ) :   0.4425 B(  2-C ,  3-C ) :   0.7686
B(  2-C ,  5-N ) :   1.1263 B(  2-C , 10-H ) :   0.4758 B(  3-C ,  4-C ) :   0.4684
B(  3-C ,  5-N ) :  -0.1875 B(  3-C ,  6-N ) :  -0.1974 B(  4-C ,  6-N ) :   1.0017
B(  4-C ,  7-O ) :   1.1475 B(  5-N , 11-H ) :   1.1686 B(  6-N , 12-H ) :   1.0053
B(  6-N , 13-H ) :   1.0522

MP2 TOTAL ENERGY:     -378.199947383 Eh
FINAL SINGLE POINT ENERGY      -378.199947382981

DIPOLE MOMENT
-------------
                                X             Y             Z
Electronic contribution:      0.70649      -2.00972      -0.09055
Nuclear contribution   :     -2.16859       2.96741       0.31820
                        -----------------------------------------
Total Dipole Moment    :     -1.46210       0.95769       0.22765
                        -----------------------------------------
Magnitude (a.u.)       :      1.76259
Magnitude (Debye)      :      4.48016

Rotational constants in cm-1:     0.170139     0.051830     0.039760
Rotational constants in MHz :  5100.634912  1553.836866  1191.975893

                             ****ORCA TERMINATED NORMALLY****
TOTAL RUN TIME: 0 days 0 hours 5 minutes 5 seconds 345 msec
