                         Program Version 5.0.3 -  RELEASE  -
|  1> !ri-mp2 aug-cc-pvtz aug-cc-pvtz/c tightscf
|  2> %pal nprocs 16 end
|  3>
|  4> * xyz 0 1
|  5> C     0.245890   -0.471484   -0.000001
|  6> C     1.412981    0.161547    0.000001
|  7> C    -1.126370    0.134384   -0.000001
|  8> F     0.234429   -1.812633    0.000002
|  9> F     2.559922   -0.475620    0.000002
| 10> F     1.575610    1.460961    0.000000
| 11> F    -1.821022   -0.263524    1.082021
| 12> F    -1.082861    1.471534   -0.000098
| 13> F    -1.821079   -0.263683   -1.081926
| 14> *
| 15>
| 16>                          ****END OF INPUT****

CARTESIAN COORDINATES (ANGSTROEM)
---------------------------------
  C      0.245890   -0.471484   -0.000001
  C      1.412981    0.161547    0.000001
  C     -1.126370    0.134384   -0.000001
  F      0.234429   -1.812633    0.000002
  F      2.559922   -0.475620    0.000002
  F      1.575610    1.460961    0.000000
  F     -1.821022   -0.263524    1.082021
  F     -1.082861    1.471534   -0.000098
  F     -1.821079   -0.263683   -1.081926

 Total Charge           Charge          ....    0
 Multiplicity           Mult            ....    1
 Number of Electrons    NEL             ....   72
 Basis Dimension        Dim             ....  414

ORBITAL ENERGIES
----------------

  NO   OCC          E(Eh)            E(eV)
   0   2.0000     -26.391656      -718.1535
   1   2.0000     -26.389444      -718.0933
   2   2.0000     -26.368330      -717.5187
   3   2.0000     -26.360596      -717.3083
   4   2.0000     -26.360574      -717.3077
   5   2.0000     -26.359858      -717.2882
   6   2.0000     -11.549408      -314.2754
   7   2.0000     -11.480640      -312.4041
   8   2.0000     -11.383185      -309.7522
   9   2.0000      -1.754777       -47.7499
  10   2.0000      -1.747916       -47.5632
  11   2.0000      -1.686675       -45.8968
  12   2.0000      -1.674094       -45.5544
  13   2.0000      -1.660454       -45.1832
  14   2.0000      -1.653945       -45.0061
  15   2.0000      -1.142080       -31.0776
  16   2.0000      -1.017963       -27.7002
  17   2.0000      -0.927635       -25.2422
  18   2.0000      -0.879985       -23.9456
  19   2.0000      -0.857974       -23.3467
  20   2.0000      -0.847406       -23.0591
  21   2.0000      -0.835962       -22.7477
  22   2.0000      -0.808300       -21.9950
  23   2.0000      -0.802144       -21.8275
  24   2.0000      -0.747147       -20.3309
  25   2.0000      -0.732159       -19.9230
  26   2.0000      -0.729947       -19.8629
  27   2.0000      -0.729087       -19.8395
  28   2.0000      -0.720497       -19.6057
  29   2.0000      -0.712514       -19.3885
  30   2.0000      -0.706332       -19.2203
  31   2.0000      -0.683643       -18.6029
  32   2.0000      -0.682790       -18.5797
  33   2.0000      -0.670831       -18.2542
  34   2.0000      -0.612206       -16.6590
  35   2.0000      -0.432423       -11.7668
  36   0.0000       0.049435         1.3452
  37   0.0000       0.063108         1.7173
  38   0.0000       0.065588         1.7848
  39   0.0000       0.072898         1.9837
  40   0.0000       0.089997         2.4490

MULLIKEN ATOMIC CHARGES
-----------------------
   0 C :    0.303610
   1 C :    0.427697
   2 C :    1.358507
   3 F :   -0.455314
   4 F :   -0.230555
   5 F :   -0.299953
   6 F :   -0.371490
   7 F :   -0.361012
   8 F :   -0.371491
Sum of atomic charges:    0.0000000

LOEWDIN ATOMIC CHARGES
----------------------
   0 C :   -0.586820
   1 C :   -0.924586
   2 C :   -1.535622
   3 F :    0.496949
   4 F :    0.522185
   5 F :    0.523471
   6 F :    0.496106
   7 F :    0.512207
   8 F :    0.496109

  Mayer bond orders larger than 0.100000
B(  0-C ,  1-C ) :   1.3743 B(  0-C ,  2-C ) :   0.8918 B(  0-C ,  3-F ) :   0.7620
B(  1-C ,  4-F ) :   0.8138 B(  1-C ,  5-F ) :   0.9787 B(  2-C ,  6-F ) :   0.8063
B(  2-C ,  7-F ) :   0.8505 B(  2-C ,  8-F ) :   0.8063

MP2 TOTAL ENERGY:     -712.462684448 Eh
FINAL SINGLE POINT ENERGY      -712.462684448400

DIPOLE MOMENT
-------------
                                X             Y             Z
Electronic contribution:      0.10883       0.26382      -0.00000
Nuclear contribution   :      0.31601      -0.10418      -0.00000
                        -----------------------------------------
Total Dipole Moment    :      0.42483       0.15964      -0.00000
                        -----------------------------------------
Magnitude (a.u.)       :      0.45384
Magnitude (Debye)      :      1.15356

Rotational constants in cm-1:     0.084828     0.041582     0.032722
Rotational constants in MHz :  2543.080261  1246.588658   980.984170

                             ****ORCA TERMINATED NORMALLY****
TOTAL RUN TIME: 0 days 0 hours 2 minutes 37 seconds 689 msec
