                         Program Version 5.0.3 -  RELEASE  -
|  1> !ri-mp2 aug-cc-pvtz aug-cc-pvtz/c tightscf
|  2> %pal nprocs 16 end
|  3>
|  4> * xyz 0 1
|  5> C      2.201897   -1.170837    0.000000
|  6> C      1.510358    0.188385    0.000000
|  7> C     -0.014350    0.152620    0.000000
|  8> Cl    -0.646271    1.840726    0.000000
|  9> Cl    -0.646271   -0.685884    1.463336
| 10> Cl    -0.646271   -0.685884   -1.463336
| 11> H      1.942156   -1.751560   -0.883333
| 12> H      3.281345   -1.020850    0.000000
| 13> H      1.942156   -1.751560    0.883333
| 14> H      1.803357    0.765336   -0.877934
| 15> H      1.803357    0.765336    0.877934
| 16> *
| 17>
| 18>                          ****END OF INPUT****

CARTESIAN COORDINATES (ANGSTROEM)
---------------------------------
  C      2.201897   -1.170837    0.000000
  C      1.510358    0.188385    0.000000
  C     -0.014350    0.152620    0.000000
  Cl    -0.646271    1.840726    0.000000
  Cl    -0.646271   -0.685884    1.463336
  Cl    -0.646271   -0.685884   -1.463336
  H      1.942156   -1.751560   -0.883333
  H      3.281345   -1.020850    0.000000
  H      1.942156   -1.751560    0.883333
  H      1.803357    0.765336   -0.877934
  H      1.803357    0.765336    0.877934

 Total Charge           Charge          ....    0
 Multiplicity           Mult            ....    1
 Number of Electrons    NEL             ....   74
 Basis Dimension        Dim             ....  403

ORBITAL ENERGIES
----------------

  NO   OCC          E(Eh)            E(eV)
   0   2.0000    -104.857844     -2853.3270
   1   2.0000    -104.857844     -2853.3270
   2   2.0000    -104.857299     -2853.3122
   3   2.0000     -11.439703      -311.2902
   4   2.0000     -11.266126      -306.5669
   5   2.0000     -11.234184      -305.6977
   6   2.0000     -10.581961      -287.9498
   7   2.0000     -10.581953      -287.9496
   8   2.0000     -10.581389      -287.9342
   9   2.0000      -8.048672      -219.0155
  10   2.0000      -8.048672      -219.0155
  11   2.0000      -8.048094      -218.9998
  12   2.0000      -8.046670      -218.9610
  13   2.0000      -8.046670      -218.9610
  14   2.0000      -8.046644      -218.9603
  15   2.0000      -8.046642      -218.9603
  16   2.0000      -8.046089      -218.9452
  17   2.0000      -8.046063      -218.9445
  18   2.0000      -1.235479       -33.6191
  19   2.0000      -1.103231       -30.0204
  20   2.0000      -1.102575       -30.0026
  21   2.0000      -1.061164       -28.8757
  22   2.0000      -0.913499       -24.8576
  23   2.0000      -0.786492       -21.4015
  24   2.0000      -0.665793       -18.1172
  25   2.0000      -0.651976       -17.7412
  26   2.0000      -0.621285       -16.9060
  27   2.0000      -0.593367       -16.1463
  28   2.0000      -0.550997       -14.9934
  29   2.0000      -0.534429       -14.5426
  30   2.0000      -0.512804       -13.9541
  31   2.0000      -0.493794       -13.4368
  32   2.0000      -0.488782       -13.3004
  33   2.0000      -0.462082       -12.5739
  34   2.0000      -0.455557       -12.3963
  35   2.0000      -0.454759       -12.3746
  36   2.0000      -0.443528       -12.0690
  37   0.0000       0.029259         0.7962
  38   0.0000       0.041287         1.1235
  39   0.0000       0.043344         1.1794
  40   0.0000       0.049658         1.3513
  41   0.0000       0.060546         1.6475

MULLIKEN ATOMIC CHARGES
-----------------------
   0 C :   -0.940939
   1 C :   -0.368405
   2 C :    0.773415
   3 Cl:   -0.368797
   4 Cl:   -0.335709
   5 Cl:   -0.335709
   6 H :    0.304324
   7 H :    0.282918
   8 H :    0.304324
   9 H :    0.342289
  10 H :    0.342289
Sum of atomic charges:   -0.0000000

LOEWDIN ATOMIC CHARGES
----------------------
   0 C :    0.524568
   1 C :   -0.025930
   2 C :   -2.046497
   3 Cl:    0.828495
   4 Cl:    0.842282
   5 Cl:    0.842282
   6 H :   -0.201884
   7 H :   -0.170616
   8 H :   -0.201884
   9 H :   -0.195408
  10 H :   -0.195408

  Mayer bond orders larger than 0.100000
B(  0-C ,  1-C ) :   0.8148 B(  0-C ,  6-H ) :   0.9401 B(  0-C ,  7-H ) :   0.9523
B(  0-C ,  8-H ) :   0.9401 B(  1-C ,  2-C ) :   0.9769 B(  1-C ,  9-H ) :   0.9120
B(  1-C , 10-H ) :   0.9120 B(  2-C ,  3-Cl) :   0.8132 B(  2-C ,  4-Cl) :   0.7748
B(  2-C ,  5-Cl) :   0.7748

MP2 TOTAL ENERGY:    -1496.219872034 Eh
FINAL SINGLE POINT ENERGY     -1496.219872033698

DIPOLE MOMENT
-------------
                                X             Y             Z
Electronic contribution:    -11.89960       3.37941       0.00000
Nuclear contribution   :     12.76933      -3.45409       0.00000
                        -----------------------------------------
Total Dipole Moment    :      0.86973      -0.07468       0.00000
                        -----------------------------------------
Magnitude (a.u.)       :      0.87293
Magnitude (Debye)      :      2.21881

Rotational constants in cm-1:     0.061473     0.050651     0.045745
Rotational constants in MHz :  1842.919088  1518.470500  1371.387332

                             ****ORCA TERMINATED NORMALLY****
TOTAL RUN TIME: 0 days 0 hours 2 minutes 40 seconds 644 msec
