                         Program Version 5.0.3 -  RELEASE  -
|  1> !ri-mp2 aug-cc-pvtz aug-cc-pvtz/c tightscf
|  2> %pal nprocs 16 end
|  3>
|  4> * xyz 0 1
|  5> C     -3.998201   -0.032014    0.092137
|  6> C     -2.629647    0.130528   -0.566038
|  7> C     -1.467215   -0.100900    0.400376
|  8> C     -0.099316    0.063086   -0.264256
|  9> C      1.038289   -0.173687    0.725014
| 10> N      2.364390   -0.001301    0.031077
| 11> O      2.905108   -1.004150   -0.406070
| 12> O      2.792402    1.136336   -0.078101
| 13> H     -4.802943    0.140790   -0.623098
| 14> H     -4.125783   -1.037723    0.497305
| 15> H     -4.128535    0.674598    0.914043
| 16> H     -2.547318    1.133724   -0.993858
| 17> H     -2.543271   -0.565696   -1.405148
| 18> H     -1.548032   -1.105658    0.827165
| 19> H     -1.550790    0.596612    1.239848
| 20> H     -0.003675    1.068374   -0.678690
| 21> H     -0.002303   -0.642032   -1.092626
| 22> H      1.032650   -1.187298    1.115133
| 23> H      1.025724    0.553854    1.532353
| 24> *
| 25>
| 26>                          ****END OF INPUT****

CARTESIAN COORDINATES (ANGSTROEM)
---------------------------------
  C     -3.998201   -0.032014    0.092137
  C     -2.629647    0.130528   -0.566038
  C     -1.467215   -0.100900    0.400376
  C     -0.099316    0.063086   -0.264256
  C      1.038289   -0.173687    0.725014
  N      2.364390   -0.001301    0.031077
  O      2.905108   -1.004150   -0.406070
  O      2.792402    1.136336   -0.078101
  H     -4.802943    0.140790   -0.623098
  H     -4.125783   -1.037723    0.497305
  H     -4.128535    0.674598    0.914043
  H     -2.547318    1.133724   -0.993858
  H     -2.543271   -0.565696   -1.405148
  H     -1.548032   -1.105658    0.827165
  H     -1.550790    0.596612    1.239848
  H     -0.003675    1.068374   -0.678690
  H     -0.002303   -0.642032   -1.092626
  H      1.032650   -1.187298    1.115133
  H      1.025724    0.553854    1.532353

 Total Charge           Charge          ....    0
 Multiplicity           Mult            ....    1
 Number of Electrons    NEL             ....   64
 Basis Dimension        Dim             ....  621

ORBITAL ENERGIES
----------------

  NO   OCC          E(Eh)            E(eV)
   0   2.0000     -20.602059      -560.6105
   1   2.0000     -20.601033      -560.5826
   2   2.0000     -15.843117      -431.1131
   3   2.0000     -11.305956      -307.6507
   4   2.0000     -11.254864      -306.2604
   5   2.0000     -11.243307      -305.9459
   6   2.0000     -11.235237      -305.7264
   7   2.0000     -11.224201      -305.4260
   8   2.0000      -1.603360       -43.6297
   9   2.0000      -1.398398       -38.0523
  10   2.0000      -1.134487       -30.8710
  11   2.0000      -1.075832       -29.2749
  12   2.0000      -0.993387       -27.0314
  13   2.0000      -0.892902       -24.2971
  14   2.0000      -0.836664       -22.7668
  15   2.0000      -0.814986       -22.1769
  16   2.0000      -0.747345       -20.3363
  17   2.0000      -0.733188       -19.9511
  18   2.0000      -0.710655       -19.3379
  19   2.0000      -0.679685       -18.4952
  20   2.0000      -0.631171       -17.1750
  21   2.0000      -0.600558       -16.3420
  22   2.0000      -0.585413       -15.9299
  23   2.0000      -0.568516       -15.4701
  24   2.0000      -0.535778       -14.5793
  25   2.0000      -0.514670       -14.0049
  26   2.0000      -0.505386       -13.7522
  27   2.0000      -0.490264       -13.3408
  28   2.0000      -0.489465       -13.3190
  29   2.0000      -0.484793       -13.1919
  30   2.0000      -0.468475       -12.7479
  31   2.0000      -0.451029       -12.2731
  32   0.0000       0.024383         0.6635
  33   0.0000       0.029929         0.8144
  34   0.0000       0.033756         0.9186
  35   0.0000       0.038083         1.0363
  36   0.0000       0.049243         1.3400

MULLIKEN ATOMIC CHARGES
-----------------------
   0 C :   -0.975592
   1 C :   -0.508142
   2 C :   -0.306632
   3 C :   -0.465037
   4 C :   -0.266963
   5 N :    0.888033
   6 O :   -0.704906
   7 O :   -0.711286
   8 H :    0.277009
   9 H :    0.269566
  10 H :    0.270100
  11 H :    0.242379
  12 H :    0.241357
  13 H :    0.276965
  14 H :    0.278675
  15 H :    0.278353
  16 H :    0.279221
  17 H :    0.319720
  18 H :    0.317177
Sum of atomic charges:   -0.0000000

LOEWDIN ATOMIC CHARGES
----------------------
   0 C :    0.583442
   1 C :    0.262810
   2 C :    0.273741
   3 C :    0.284319
   4 C :    0.215445
   5 N :   -0.713510
   6 O :    0.379106
   7 O :    0.379375
   8 H :   -0.171502
   9 H :   -0.169805
  10 H :   -0.169843
  11 H :   -0.145296
  12 H :   -0.145376
  13 H :   -0.139435
  14 H :   -0.139350
  15 H :   -0.142213
  16 H :   -0.138664
  17 H :   -0.154058
  18 H :   -0.149186

  Mayer bond orders larger than 0.100000
B(  0-C ,  1-C ) :   0.9149 B(  0-C ,  8-H ) :   0.9859 B(  0-C ,  9-H ) :   0.9583
B(  0-C , 10-H ) :   0.9574 B(  1-C ,  2-C ) :   0.9105 B(  1-C , 11-H ) :   0.9628
B(  1-C , 12-H ) :   0.9637 B(  2-C ,  3-C ) :   0.8971 B(  2-C , 13-H ) :   0.9277
B(  2-C , 14-H ) :   0.9280 B(  3-C ,  4-C ) :   0.9858 B(  3-C , 15-H ) :   0.9360
B(  3-C , 16-H ) :   0.9318 B(  4-C ,  5-N ) :   0.8847 B(  4-C , 17-H ) :   0.9082
B(  4-C , 18-H ) :   0.9091 B(  5-N ,  6-O ) :   1.0807 B(  5-N ,  7-O ) :   1.0659
B(  6-O ,  7-O ) :   0.1771

MP2 TOTAL ENERGY:     -401.546933959 Eh
FINAL SINGLE POINT ENERGY      -401.546933959299

DIPOLE MOMENT
-------------
                                X             Y             Z
Electronic contribution:     17.85645       0.22308      -0.73093
Nuclear contribution   :    -19.58740      -0.37797       1.35946
                        -----------------------------------------
Total Dipole Moment    :     -1.73094      -0.15489       0.62853
                        -----------------------------------------
Magnitude (a.u.)       :      1.84803
Magnitude (Debye)      :      4.69731

Rotational constants in cm-1:     0.229801     0.022348     0.021828
Rotational constants in MHz :  6889.261237   669.976038   654.388206

                             ****ORCA TERMINATED NORMALLY****
TOTAL RUN TIME: 0 days 0 hours 8 minutes 23 seconds 357 msec
