                         Program Version 5.0.3 -  RELEASE  -
|  1> !ri-mp2 aug-cc-pvtz aug-cc-pvtz/c tightscf
|  2> %pal nprocs 16 end
|  3>
|  4> * xyz 0 1
|  5> C      0.000000    0.000000    1.747016
|  6> C      0.000000    0.000000    0.425505
|  7> H      0.000000    0.930182    2.293878
|  8> H      0.000000   -0.930182    2.293878
|  9> Cl     0.000000    1.459069   -0.518320
| 10> Cl     0.000000   -1.459069   -0.518320
| 11> *
| 12>
| 13>                          ****END OF INPUT****

CARTESIAN COORDINATES (ANGSTROEM)
---------------------------------
  C      0.000000    0.000000    1.747016
  C      0.000000    0.000000    0.425505
  H      0.000000    0.930182    2.293878
  H      0.000000   -0.930182    2.293878
  Cl     0.000000    1.459069   -0.518320
  Cl     0.000000   -1.459069   -0.518320

 Total Charge           Charge          ....    0
 Multiplicity           Mult            ....    1
 Number of Electrons    NEL             ....   48
 Basis Dimension        Dim             ....  238

ORBITAL ENERGIES
----------------

  NO   OCC          E(Eh)            E(eV)
   0   2.0000    -104.862773     -2853.4611
   1   2.0000    -104.862772     -2853.4611
   2   2.0000     -11.369881      -309.3902
   3   2.0000     -11.261193      -306.4326
   4   2.0000     -10.586542      -288.0745
   5   2.0000     -10.586531      -288.0742
   6   2.0000      -8.053439      -219.1452
   7   2.0000      -8.053437      -219.1452
   8   2.0000      -8.051362      -219.0887
   9   2.0000      -8.051360      -219.0886
  10   2.0000      -8.051336      -219.0880
  11   2.0000      -8.051334      -219.0879
  12   2.0000      -1.213424       -33.0189
  13   2.0000      -1.110342       -30.2139
  14   2.0000      -1.023393       -27.8479
  15   2.0000      -0.770403       -20.9637
  16   2.0000      -0.664436       -18.0802
  17   2.0000      -0.643021       -17.4975
  18   2.0000      -0.564153       -15.3514
  19   2.0000      -0.548412       -14.9231
  20   2.0000      -0.491923       -13.3859
  21   2.0000      -0.478032       -13.0079
  22   2.0000      -0.456460       -12.4209
  23   2.0000      -0.376589       -10.2475
  24   0.0000       0.030376         0.8266
  25   0.0000       0.044364         1.2072
  26   0.0000       0.063186         1.7194
  27   0.0000       0.072684         1.9778
  28   0.0000       0.079004         2.1498

MULLIKEN ATOMIC CHARGES
-----------------------
   0 C :   -0.972918
   1 C :    0.445925
   2 H :    0.460311
   3 H :    0.460311
   4 Cl:   -0.196814
   5 Cl:   -0.196814
Sum of atomic charges:    0.0000000

LOEWDIN ATOMIC CHARGES
----------------------
   0 C :    0.285504
   1 C :   -1.497602
   2 H :   -0.255636
   3 H :   -0.255636
   4 Cl:    0.861685
   5 Cl:    0.861685

  Mayer bond orders larger than 0.100000
B(  0-C ,  1-C ) :   1.6773 B(  0-C ,  2-H ) :   0.7840 B(  0-C ,  3-H ) :   0.7840
B(  1-C ,  4-Cl) :   0.9225 B(  1-C ,  5-Cl) :   0.9225

MP2 TOTAL ENERGY:     -996.645796531 Eh
FINAL SINGLE POINT ENERGY      -996.645796531002

DIPOLE MOMENT
-------------
                                X             Y             Z
Electronic contribution:     -0.00000      -0.00000      -4.99157
Nuclear contribution   :      0.00000       0.00000       5.64522
                        -----------------------------------------
Total Dipole Moment    :     -0.00000      -0.00000       0.65365
                        -----------------------------------------
Magnitude (a.u.)       :      0.65365
Magnitude (Debye)      :      1.66146

Rotational constants in cm-1:     0.247489     0.110401     0.076345
Rotational constants in MHz :  7419.531549  3309.734880  2288.756881

                             ****ORCA TERMINATED NORMALLY****
TOTAL RUN TIME: 0 days 0 hours 1 minutes 17 seconds 864 msec
