                         Program Version 5.0.3 -  RELEASE  -
|  1> !ri-mp2 aug-cc-pvtz aug-cc-pvtz/c tightscf
|  2> %pal nprocs 16 end
|  3>
|  4> * xyz 0 1
|  5> O     -2.416628   -0.098841   -0.000028
|  6> C      0.087033   -0.011100    0.000005
|  7> C     -1.117057   -0.002424   -0.000010
|  8> C      1.449836    0.001422    0.000013
|  9> C      2.655112    0.011669    0.000023
| 10> H     -2.832487    0.773856    0.000005
| 11> H      3.715965    0.019465    0.000027
| 12> *
| 13>
| 14>                          ****END OF INPUT****

CARTESIAN COORDINATES (ANGSTROEM)
---------------------------------
  O     -2.416628   -0.098841   -0.000028
  C      0.087033   -0.011100    0.000005
  C     -1.117057   -0.002424   -0.000010
  C      1.449836    0.001422    0.000013
  C      2.655112    0.011669    0.000023
  H     -2.832487    0.773856    0.000005
  H      3.715965    0.019465    0.000027

 Total Charge           Charge          ....    0
 Multiplicity           Mult            ....    1
 Number of Electrons    NEL             ....   34
 Basis Dimension        Dim             ....  276

ORBITAL ENERGIES
----------------

  NO   OCC          E(Eh)            E(eV)
   0   2.0000     -20.654415      -562.0352
   1   2.0000     -11.320713      -308.0523
   2   2.0000     -11.257191      -306.3237
   3   2.0000     -11.250066      -306.1299
   4   2.0000     -11.242252      -305.9172
   5   2.0000      -1.468332       -39.9553
   6   2.0000      -1.084588       -29.5131
   7   2.0000      -1.014071       -27.5943
   8   2.0000      -0.859879       -23.3985
   9   2.0000      -0.803124       -21.8541
  10   2.0000      -0.706016       -19.2117
  11   2.0000      -0.683337       -18.5945
  12   2.0000      -0.640097       -17.4179
  13   2.0000      -0.481461       -13.1012
  14   2.0000      -0.475406       -12.9365
  15   2.0000      -0.358395        -9.7524
  16   2.0000      -0.346541        -9.4299
  17   0.0000       0.020296         0.5523
  18   0.0000       0.031930         0.8689
  19   0.0000       0.071078         1.9341
  20   0.0000       0.075646         2.0584
  21   0.0000       0.079384         2.1602

MULLIKEN ATOMIC CHARGES
-----------------------
   0 O :   -0.426173
   1 C :    0.832060
   2 C :    0.056495
   3 C :    0.253056
   4 C :   -1.299857
   5 H :    0.243282
   6 H :    0.341135
Sum of atomic charges:    0.0000000

LOEWDIN ATOMIC CHARGES
----------------------
   0 O :    0.775854
   1 C :   -0.104143
   2 C :   -0.172114
   3 C :   -0.132159
   4 C :    0.384963
   5 H :   -0.454126
   6 H :   -0.298274

  Mayer bond orders larger than 0.100000
B(  0-O ,  1-C ) :   0.1217 B(  0-O ,  2-C ) :   0.7747 B(  0-O ,  4-C ) :  -0.1282
B(  0-O ,  5-H ) :   0.9626 B(  1-C ,  2-C ) :   1.3622 B(  1-C ,  3-C ) :   1.6597
B(  1-C ,  4-C ) :  -1.3929 B(  2-C ,  3-C ) :  -0.4580 B(  2-C ,  4-C ) :   1.5700
B(  3-C ,  4-C ) :   1.4123 B(  3-C ,  6-H ) :  -0.2492 B(  4-C ,  6-H ) :   1.1991

MP2 TOTAL ENERGY:     -228.277856986 Eh
FINAL SINGLE POINT ENERGY      -228.277856986109

DIPOLE MOMENT
-------------
                                X             Y             Z
Electronic contribution:     -1.26459      -0.15066      -0.00001
Nuclear contribution   :      0.81717       0.76534       0.00003
                        -----------------------------------------
Total Dipole Moment    :     -0.44742       0.61468       0.00002
                        -----------------------------------------
Magnitude (a.u.)       :      0.76028
Magnitude (Debye)      :      1.93247

Rotational constants in cm-1:    22.907733     0.070109     0.069895
Rotational constants in MHz : 686756.556928  2101.823284  2095.410267

                             ****ORCA TERMINATED NORMALLY****
TOTAL RUN TIME: 0 days 0 hours 1 minutes 33 seconds 624 msec
