                         Program Version 5.0.3 -  RELEASE  -
|  1> !ri-mp2 aug-cc-pvtz aug-cc-pvtz/c tightscf
|  2> %pal nprocs 16 end
|  3>
|  4> * xyz 0 1
|  5> O     -1.586677    0.242823   -0.452011
|  6> O      2.127839   -0.895530    1.082740
|  7> O      2.980961    0.036614   -0.679653
|  8> O     -3.549446   -0.597000   -0.150032
|  9> N      2.051118   -0.418864   -0.038076
| 10> N     -2.519406   -0.492165    0.375228
| 11> C     -0.310700    0.372479    0.201478
| 12> C      0.684193   -0.397131   -0.672929
| 13> C      0.022761    1.846227    0.352622
| 14> H     -0.376425   -0.112909    1.175395
| 15> H      0.382088   -1.438003   -0.762724
| 16> H      0.800672    0.053603   -1.652876
| 17> H      0.997303    1.974383    0.824190
| 18> H     -0.723135    2.333423    0.978516
| 19> H      0.038585    2.342002   -0.617938
| 20> *
| 21>
| 22>                          ****END OF INPUT****

CARTESIAN COORDINATES (ANGSTROEM)
---------------------------------
  O     -1.586677    0.242823   -0.452011
  O      2.127839   -0.895530    1.082740
  O      2.980961    0.036614   -0.679653
  O     -3.549446   -0.597000   -0.150032
  N      2.051118   -0.418864   -0.038076
  N     -2.519406   -0.492165    0.375228
  C     -0.310700    0.372479    0.201478
  C      0.684193   -0.397131   -0.672929
  C      0.022761    1.846227    0.352622
  H     -0.376425   -0.112909    1.175395
  H      0.382088   -1.438003   -0.762724
  H      0.800672    0.053603   -1.652876
  H      0.997303    1.974383    0.824190
  H     -0.723135    2.333423    0.978516
  H      0.038585    2.342002   -0.617938

 Total Charge           Charge          ....    0
 Multiplicity           Mult            ....    1
 Number of Electrons    NEL             ....   70
 Basis Dimension        Dim             ....  552

ORBITAL ENERGIES
----------------

  NO   OCC          E(Eh)            E(eV)
   0   2.0000     -20.681699      -562.7776
   1   2.0000     -20.641671      -561.6884
   2   2.0000     -20.619344      -561.0809
   3   2.0000     -20.614982      -560.9622
   4   2.0000     -15.859984      -431.5721
   5   2.0000     -15.809261      -430.1919
   6   2.0000     -11.334997      -308.4409
   7   2.0000     -11.321488      -308.0734
   8   2.0000     -11.247747      -306.0668
   9   2.0000      -1.625990       -44.2454
  10   2.0000      -1.620251       -44.0893
  11   2.0000      -1.418423       -38.5973
  12   2.0000      -1.415110       -38.5071
  13   2.0000      -1.140176       -31.0258
  14   2.0000      -1.040587       -28.3158
  15   2.0000      -0.959175       -26.1005
  16   2.0000      -0.903224       -24.5780
  17   2.0000      -0.843710       -22.9585
  18   2.0000      -0.784332       -21.3428
  19   2.0000      -0.760379       -20.6910
  20   2.0000      -0.754268       -20.5247
  21   2.0000      -0.745024       -20.2731
  22   2.0000      -0.722670       -19.6648
  23   2.0000      -0.700848       -19.0710
  24   2.0000      -0.654542       -17.8110
  25   2.0000      -0.630461       -17.1557
  26   2.0000      -0.609110       -16.5747
  27   2.0000      -0.584827       -15.9140
  28   2.0000      -0.556707       -15.1488
  29   2.0000      -0.535899       -14.5825
  30   2.0000      -0.510455       -13.8902
  31   2.0000      -0.506141       -13.7728
  32   2.0000      -0.485781       -13.2188
  33   2.0000      -0.467000       -12.7077
  34   2.0000      -0.462869       -12.5953
  35   0.0000       0.029058         0.7907
  36   0.0000       0.031676         0.8620
  37   0.0000       0.037806         1.0288
  38   0.0000       0.051780         1.4090
  39   0.0000       0.053960         1.4683

MULLIKEN ATOMIC CHARGES
-----------------------
   0 O :   -0.601969
   1 O :   -0.750396
   2 O :   -0.726028
   3 O :   -0.387135
   4 N :    1.013738
   5 N :    0.292247
   6 C :    0.540997
   7 C :   -0.376591
   8 C :   -0.983599
   9 H :    0.492637
  10 H :    0.306447
  11 H :    0.328507
  12 H :    0.312799
  13 H :    0.263081
  14 H :    0.275268
Sum of atomic charges:    0.0000000

LOEWDIN ATOMIC CHARGES
----------------------
   0 O :    0.401280
   1 O :    0.390655
   2 O :    0.392734
   3 O :    0.275187
   4 N :   -0.711830
   5 N :   -0.226236
   6 C :   -0.339519
   7 C :    0.214422
   8 C :    0.590246
   9 H :   -0.188496
  10 H :   -0.144422
  11 H :   -0.159742
  12 H :   -0.167656
  13 H :   -0.164027
  14 H :   -0.162597

  Mayer bond orders larger than 0.100000
B(  0-O ,  5-N ) :   1.0319 B(  0-O ,  6-C ) :   0.4980 B(  0-O ,  7-C ) :   0.1112
B(  0-O ,  9-H ) :  -0.1088 B(  1-O ,  2-O ) :   0.1836 B(  1-O ,  4-N ) :   1.0307
B(  2-O ,  4-N ) :   1.0814 B(  3-O ,  5-N ) :   1.4971 B(  4-N ,  7-C ) :   0.8634
B(  5-N ,  9-H ) :  -0.1363 B(  6-C ,  7-C ) :   0.8506 B(  6-C ,  8-C ) :   0.7795
B(  6-C ,  9-H ) :   0.8648 B(  7-C ,  8-C ) :   0.1141 B(  7-C , 10-H ) :   0.9136
B(  7-C , 11-H ) :   0.8786 B(  8-C , 12-H ) :   0.9273 B(  8-C , 13-H ) :   0.9727
B(  8-C , 14-H ) :   0.9428

MP2 TOTAL ENERGY:     -527.322726693 Eh
FINAL SINGLE POINT ENERGY      -527.322726692818

DIPOLE MOMENT
-------------
                                X             Y             Z
Electronic contribution:     -1.79951      -4.75841      -0.12069
Nuclear contribution   :      1.09405       5.02761      -0.05549
                        -----------------------------------------
Total Dipole Moment    :     -0.70546       0.26919      -0.17618
                        -----------------------------------------
Magnitude (a.u.)       :      0.77535
Magnitude (Debye)      :      1.97079

Rotational constants in cm-1:     0.127083     0.025572     0.024065
Rotational constants in MHz :  3809.845660   766.628077   721.447337

                             ****ORCA TERMINATED NORMALLY****
TOTAL RUN TIME: 0 days 0 hours 6 minutes 26 seconds 339 msec
