                         Program Version 5.0.3 -  RELEASE  -
|  1> !ri-mp2 aug-cc-pvtz aug-cc-pvtz/c tightscf
|  2> %pal nprocs 16 end
|  3>
|  4> * xyz 0 1
|  5> C     0.578488    0.148776    0.311897
|  6> C    -0.726971   -0.530081   -0.225129
|  7> F     0.477526    0.252431    1.648651
|  8> Cl    1.977285   -0.887503   -0.077159
|  9> Cl    0.788750    1.767240   -0.389497
| 10> Cl   -2.180351    0.394434    0.227356
| 11> F    -0.665283   -0.645666   -1.555470
| 12> F    -0.819545   -1.759329    0.300984
| 13> *
| 14>
| 15>                          ****END OF INPUT****

CARTESIAN COORDINATES (ANGSTROEM)
---------------------------------
  C      0.578488    0.148776    0.311897
  C     -0.726971   -0.530081   -0.225129
  F      0.477526    0.252431    1.648651
  Cl     1.977285   -0.887503   -0.077159
  Cl     0.788750    1.767240   -0.389497
  Cl    -2.180351    0.394434    0.227356
  F     -0.665283   -0.645666   -1.555470
  F     -0.819545   -1.759329    0.300984

 Total Charge           Charge          ....    0
 Multiplicity           Mult            ....    1
 Number of Electrons    NEL             ....   90
 Basis Dimension        Dim             ....  380

ORBITAL ENERGIES
----------------

  NO   OCC          E(Eh)            E(eV)
   0   2.0000    -104.885727     -2854.0857
   1   2.0000    -104.883653     -2854.0293
   2   2.0000    -104.882343     -2853.9936
   3   2.0000     -26.370529      -717.5786
   4   2.0000     -26.368713      -717.5292
   5   2.0000     -26.368086      -717.5121
   6   2.0000     -11.528546      -313.7077
   7   2.0000     -11.502368      -312.9953
   8   2.0000     -10.609914      -288.7104
   9   2.0000     -10.607782      -288.6524
  10   2.0000     -10.606705      -288.6231
  11   2.0000      -8.076701      -219.7782
  12   2.0000      -8.074563      -219.7200
  13   2.0000      -8.074514      -219.7187
  14   2.0000      -8.074492      -219.7181
  15   2.0000      -8.073499      -219.6911
  16   2.0000      -8.072381      -219.6607
  17   2.0000      -8.072351      -219.6598
  18   2.0000      -8.071362      -219.6329
  19   2.0000      -8.071347      -219.6325
  20   2.0000      -1.732162       -47.1345
  21   2.0000      -1.694160       -46.1004
  22   2.0000      -1.662902       -45.2499
  23   2.0000      -1.230461       -33.4825
  24   2.0000      -1.176161       -32.0050
  25   2.0000      -1.134444       -30.8698
  26   2.0000      -1.013268       -27.5724
  27   2.0000      -0.909469       -24.7479
  28   2.0000      -0.838343       -22.8125
  29   2.0000      -0.827970       -22.5302
  30   2.0000      -0.798236       -21.7211
  31   2.0000      -0.765861       -20.8401
  32   2.0000      -0.752311       -20.4714
  33   2.0000      -0.721892       -19.6437
  34   2.0000      -0.710013       -19.3204
  35   2.0000      -0.686407       -18.6781
  36   2.0000      -0.644290       -17.5320
  37   2.0000      -0.590514       -16.0687
  38   2.0000      -0.574868       -15.6430
  39   2.0000      -0.521683       -14.1957
  40   2.0000      -0.512015       -13.9326
  41   2.0000      -0.508043       -13.8245
  42   2.0000      -0.495121       -13.4729
  43   2.0000      -0.489724       -13.3261
  44   2.0000      -0.472152       -12.8479
  45   0.0000       0.051817         1.4100
  46   0.0000       0.060413         1.6439
  47   0.0000       0.065822         1.7911
  48   0.0000       0.073990         2.0134
  49   0.0000       0.086612         2.3568

MULLIKEN ATOMIC CHARGES
-----------------------
   0 C :    0.763834
   1 C :    1.092778
   2 F :   -0.415924
   3 Cl:   -0.222544
   4 Cl:   -0.212214
   5 Cl:   -0.225224
   6 F :   -0.392366
   7 F :   -0.388339
Sum of atomic charges:   -0.0000000

LOEWDIN ATOMIC CHARGES
----------------------
   0 C :   -2.044695
   1 C :   -1.923632
   2 F :    0.393118
   3 Cl:    0.890414
   4 Cl:    0.886667
   5 Cl:    0.918804
   6 F :    0.439231
   7 F :    0.440093

  Mayer bond orders larger than 0.100000
B(  0-C ,  1-C ) :   0.9685 B(  0-C ,  2-F ) :   0.6559 B(  0-C ,  3-Cl) :   0.9633
B(  0-C ,  4-Cl) :   0.9230 B(  1-C ,  5-Cl) :   0.9581 B(  1-C ,  6-F ) :   0.7408
B(  1-C ,  7-F ) :   0.7483

MP2 TOTAL ENERGY:    -1754.403717858 Eh
FINAL SINGLE POINT ENERGY     -1754.403717858473

DIPOLE MOMENT
-------------
                                X             Y             Z
Electronic contribution:     -0.09000      -0.06309      -0.03778
Nuclear contribution   :      0.14153       0.27328      -0.04232
                        -----------------------------------------
Total Dipole Moment    :      0.05153       0.21020      -0.08010
                        -----------------------------------------
Magnitude (a.u.)       :      0.23077
Magnitude (Debye)      :      0.58657

Rotational constants in cm-1:     0.051988     0.035595     0.029024
Rotational constants in MHz :  1558.551422  1067.107277   870.122978

                             ****ORCA TERMINATED NORMALLY****
TOTAL RUN TIME: 0 days 0 hours 2 minutes 33 seconds 611 msec
