                         Program Version 5.0.3 -  RELEASE  -
|  1> !ri-mp2 aug-cc-pvtz aug-cc-pvtz/c tightscf
|  2> %pal nprocs 16 end
|  3>
|  4> * xyz 0 1
|  5> C      0.000000    0.150318    0.000000
|  6> C      0.002169   -1.056593    0.000000
|  7> C     -0.002595    1.513662    0.000000
|  8> C      0.004244   -2.507221    0.000000
|  9> C     -0.005012    2.718859    0.000000
| 10> H     -0.007164    3.779665    0.000000
| 11> H      0.514494   -2.897262    0.882841
| 12> H      0.514494   -2.897262   -0.882841
| 13> H     -1.014660   -2.899289    0.000000
| 14> *
| 15>
| 16>                          ****END OF INPUT****

CARTESIAN COORDINATES (ANGSTROEM)
---------------------------------
  C      0.000000    0.150318    0.000000
  C      0.002169   -1.056593    0.000000
  C     -0.002595    1.513662    0.000000
  C      0.004244   -2.507221    0.000000
  C     -0.005012    2.718859    0.000000
  H     -0.007164    3.779665    0.000000
  H      0.514494   -2.897262    0.882841
  H      0.514494   -2.897262   -0.882841
  H     -1.014660   -2.899289    0.000000

 Total Charge           Charge          ....    0
 Multiplicity           Mult            ....    1
 Number of Electrons    NEL             ....   34
 Basis Dimension        Dim             ....  322

ORBITAL ENERGIES
----------------

  NO   OCC          E(Eh)            E(eV)
   0   2.0000     -11.259593      -306.3891
   1   2.0000     -11.255965      -306.2904
   2   2.0000     -11.255572      -306.2797
   3   2.0000     -11.244505      -305.9785
   4   2.0000     -11.244126      -305.9682
   5   2.0000      -1.092944       -29.7405
   6   2.0000      -1.043243       -28.3881
   7   2.0000      -0.970955       -26.4210
   8   2.0000      -0.824421       -22.4336
   9   2.0000      -0.708576       -19.2813
  10   2.0000      -0.643677       -17.5153
  11   2.0000      -0.602432       -16.3930
  12   2.0000      -0.602422       -16.3927
  13   2.0000      -0.476142       -12.9565
  14   2.0000      -0.476142       -12.9565
  15   2.0000      -0.351652        -9.5689
  16   2.0000      -0.351651        -9.5689
  17   0.0000       0.026051         0.7089
  18   0.0000       0.030897         0.8407
  19   0.0000       0.046922         1.2768
  20   0.0000       0.046923         1.2768
  21   0.0000       0.064770         1.7625

MULLIKEN ATOMIC CHARGES
-----------------------
   0 C :    0.074851
   1 C :   -0.316669
   2 C :    0.963315
   3 C :   -0.944318
   4 C :   -1.128160
   5 H :    0.392291
   6 H :    0.319572
   7 H :    0.319572
   8 H :    0.319547
Sum of atomic charges:   -0.0000000

LOEWDIN ATOMIC CHARGES
----------------------
   0 C :   -0.045790
   1 C :    0.084717
   2 C :   -0.111222
   3 C :    0.522893
   4 C :    0.391086
   5 H :   -0.296328
   6 H :   -0.181784
   7 H :   -0.181784
   8 H :   -0.181790

  Mayer bond orders larger than 0.100000
B(  0-C ,  1-C ) :  -0.3395 B(  0-C ,  2-C ) :   2.9229 B(  0-C ,  3-C ) :  -1.4297
B(  0-C ,  4-C ) :  -5.1350 B(  0-C ,  5-H ) :  -0.2483 B(  1-C ,  2-C ) :  -2.0753
B(  1-C ,  3-C ) :   1.0401 B(  1-C ,  4-C ) :   5.0441 B(  1-C ,  5-H ) :   0.1919
B(  2-C ,  3-C ) :   0.4059 B(  2-C ,  4-C ) :   0.9593 B(  2-C ,  5-H ) :  -0.1840
B(  3-C ,  4-C ) :   0.9778 B(  3-C ,  6-H ) :   0.9176 B(  3-C ,  7-H ) :   0.9176
B(  3-C ,  8-H ) :   0.9176 B(  4-C ,  5-H ) :   1.1161

MP2 TOTAL ENERGY:     -192.396311645 Eh
FINAL SINGLE POINT ENERGY      -192.396311645264

DIPOLE MOMENT
-------------
                                X             Y             Z
Electronic contribution:     -0.00664       4.41070      -0.00000
Nuclear contribution   :      0.00714      -4.89632       0.00000
                        -----------------------------------------
Total Dipole Moment    :      0.00050      -0.48562      -0.00000
                        -----------------------------------------
Magnitude (a.u.)       :      0.48562
Magnitude (Debye)      :      1.23434

Rotational constants in cm-1:     5.364169     0.068392     0.068392
Rotational constants in MHz : 160813.745745  2050.337403  2050.336865

                             ****ORCA TERMINATED NORMALLY****
TOTAL RUN TIME: 0 days 0 hours 1 minutes 37 seconds 838 msec
