                         Program Version 5.0.3 -  RELEASE  -
|  1> !ri-mp2 aug-cc-pvtz aug-cc-pvtz/c tightscf
|  2> %pal nprocs 16 end
|  3>
|  4> * xyz 0 1
|  5> Cl   -0.676413    1.647673   -0.198839
|  6> O     2.973312   -0.003864   -0.788694
|  7> N     1.171490   -0.909893    0.447772
|  8> N    -2.183834   -1.569197   -1.071477
|  9> C     0.125081   -0.508516    1.336558
| 10> C    -1.098061    0.085661    0.622655
| 11> C    -1.695846   -0.827966   -0.341528
| 12> C     2.065665   -0.383032   -0.161385
| 13> H     0.479121    0.224746    2.062267
| 14> H    -0.217303   -1.388512    1.882361
| 15> H    -1.843922    0.340978    1.373321
| 16> *
| 17>
| 18>                          ****END OF INPUT****

CARTESIAN COORDINATES (ANGSTROEM)
---------------------------------
  Cl    -0.676413    1.647673   -0.198839
  O      2.973312   -0.003864   -0.788694
  N      1.171490   -0.909893    0.447772
  N     -2.183834   -1.569197   -1.071477
  C      0.125081   -0.508516    1.336558
  C     -1.098061    0.085661    0.622655
  C     -1.695846   -0.827966   -0.341528
  C      2.065665   -0.383032   -0.161385
  H      0.479121    0.224746    2.062267
  H     -0.217303   -1.388512    1.882361
  H     -1.843922    0.340978    1.373321

 Total Charge           Charge          ....    0
 Multiplicity           Mult            ....    1
 Number of Electrons    NEL             ....   66
 Basis Dimension        Dim             ....  441

ORBITAL ENERGIES
----------------

  NO   OCC          E(Eh)            E(eV)
   0   2.0000    -104.871724     -2853.7047
   1   2.0000     -20.623465      -561.1930
   2   2.0000     -15.607051      -424.6895
   3   2.0000     -15.599312      -424.4788
   4   2.0000     -11.418362      -310.7094
   5   2.0000     -11.379586      -309.6543
   6   2.0000     -11.343029      -308.6595
   7   2.0000     -11.299337      -307.4706
   8   2.0000     -10.595407      -288.3157
   9   2.0000      -8.062176      -219.3830
  10   2.0000      -8.060193      -219.3290
  11   2.0000      -8.060157      -219.3280
  12   2.0000      -1.476929       -40.1893
  13   2.0000      -1.303664       -35.4745
  14   2.0000      -1.251882       -34.0654
  15   2.0000      -1.184712       -32.2377
  16   2.0000      -1.066902       -29.0319
  17   2.0000      -0.958393       -26.0792
  18   2.0000      -0.796154       -21.6644
  19   2.0000      -0.740562       -20.1517
  20   2.0000      -0.709590       -19.3089
  21   2.0000      -0.695801       -18.9337
  22   2.0000      -0.685374       -18.6500
  23   2.0000      -0.645797       -17.5730
  24   2.0000      -0.631744       -17.1906
  25   2.0000      -0.591851       -16.1051
  26   2.0000      -0.576583       -15.6896
  27   2.0000      -0.502825       -13.6826
  28   2.0000      -0.498209       -13.5570
  29   2.0000      -0.480761       -13.0822
  30   2.0000      -0.476652       -12.9704
  31   2.0000      -0.462088       -12.5741
  32   2.0000      -0.445368       -12.1191
  33   0.0000       0.016272         0.4428
  34   0.0000       0.034723         0.9449
  35   0.0000       0.037405         1.0178
  36   0.0000       0.052429         1.4267
  37   0.0000       0.069375         1.8878

MULLIKEN ATOMIC CHARGES
-----------------------
   0 Cl:   -0.308781
   1 O :   -0.447076
   2 N :   -0.043763
   3 N :   -0.590976
   4 C :    0.016612
   5 C :    0.238866
   6 C :    0.317958
   7 C :   -0.146641
   8 H :    0.354557
   9 H :    0.328604
  10 H :    0.280639
Sum of atomic charges:   -0.0000000

LOEWDIN ATOMIC CHARGES
----------------------
   0 Cl:    0.974278
   1 O :    0.388370
   2 N :    0.291513
   3 N :    0.280771
   4 C :    0.014043
   5 C :   -0.604897
   6 C :   -0.311882
   7 C :   -0.480224
   8 H :   -0.163029
   9 H :   -0.158182
  10 H :   -0.230762

  Mayer bond orders larger than 0.100000
B(  0-Cl,  5-C ) :   0.7968 B(  1-O ,  2-N ) :  -0.1655 B(  1-O ,  7-C ) :   2.0094
B(  2-N ,  4-C ) :   0.4814 B(  2-N ,  7-C ) :   1.8311 B(  3-N ,  6-C ) :   2.2971
B(  4-C ,  5-C ) :   0.9221 B(  4-C ,  6-C ) :   0.1248 B(  4-C ,  7-C ) :  -0.1690
B(  4-C ,  8-H ) :   0.9344 B(  4-C ,  9-H ) :   0.8868 B(  5-C ,  6-C ) :   0.9492
B(  5-C , 10-H ) :   0.9206

MP2 TOTAL ENERGY:     -798.057378305 Eh
FINAL SINGLE POINT ENERGY      -798.057378305156

DIPOLE MOMENT
-------------
                                X             Y             Z
Electronic contribution:      0.29537       3.53178      -3.41601
Nuclear contribution   :     -0.54455      -3.03359       5.30468
                        -----------------------------------------
Total Dipole Moment    :     -0.24918       0.49819       1.88867
                        -----------------------------------------
Magnitude (a.u.)       :      1.96910
Magnitude (Debye)      :      5.00505

Rotational constants in cm-1:     0.074881     0.040578     0.033352
Rotational constants in MHz :  2244.866626  1216.504364   999.860818

                             ****ORCA TERMINATED NORMALLY****
TOTAL RUN TIME: 0 days 0 hours 3 minutes 45 seconds 397 msec
