                         Program Version 5.0.3 -  RELEASE  -
|  1> !ri-mp2 aug-cc-pvtz aug-cc-pvtz/c tightscf
|  2> %pal nprocs 16 end
|  3>
|  4> * xyz 0 1
|  5> C      0.327267   -0.588904    1.198224
|  6> N      0.327267    0.236816    0.000000
|  7> N     -0.931112    0.994972    0.000000
|  8> H     -0.869402    1.616300    0.803103
|  9> H     -0.869402    1.616300   -0.803103
| 10> H      0.334815    0.048085    2.083911
| 11> H     -0.549984   -1.250736    1.251362
| 12> H      1.234428   -1.191485    1.209716
| 13> C      0.327267   -0.588904   -1.198224
| 14> H      0.334815    0.048085   -2.083911
| 15> H     -0.549984   -1.250736   -1.251362
| 16> H      1.234428   -1.191485   -1.209716
| 17> *
| 18>
| 19>                          ****END OF INPUT****

CARTESIAN COORDINATES (ANGSTROEM)
---------------------------------
  C      0.327267   -0.588904    1.198224
  N      0.327267    0.236816    0.000000
  N     -0.931112    0.994972    0.000000
  H     -0.869402    1.616300    0.803103
  H     -0.869402    1.616300   -0.803103
  H      0.334815    0.048085    2.083911
  H     -0.549984   -1.250736    1.251362
  H      1.234428   -1.191485    1.209716
  C      0.327267   -0.588904   -1.198224
  H      0.334815    0.048085   -2.083911
  H     -0.549984   -1.250736   -1.251362
  H      1.234428   -1.191485   -1.209716

 Total Charge           Charge          ....    0
 Multiplicity           Mult            ....    1
 Number of Electrons    NEL             ....   34
 Basis Dimension        Dim             ....  368

ORBITAL ENERGIES
----------------

  NO   OCC          E(Eh)            E(eV)
   0   2.0000     -15.577132      -423.8753
   1   2.0000     -15.570356      -423.6909
   2   2.0000     -11.240962      -305.8821
   3   2.0000     -11.240946      -305.8817
   4   2.0000      -1.276131       -34.7253
   5   2.0000      -1.071048       -29.1447
   6   2.0000      -0.954278       -25.9672
   7   2.0000      -0.824073       -22.4242
   8   2.0000      -0.670122       -18.2350
   9   2.0000      -0.652442       -17.7538
  10   2.0000      -0.625769       -17.0280
  11   2.0000      -0.562145       -15.2967
  12   2.0000      -0.536885       -14.6094
  13   2.0000      -0.514491       -14.0000
  14   2.0000      -0.509345       -13.8600
  15   2.0000      -0.481020       -13.0892
  16   2.0000      -0.339024        -9.2253
  17   0.0000       0.030088         0.8187
  18   0.0000       0.040034         1.0894
  19   0.0000       0.040698         1.1074
  20   0.0000       0.049441         1.3453
  21   0.0000       0.059041         1.6066

MULLIKEN ATOMIC CHARGES
-----------------------
   0 C :   -0.859910
   1 N :   -0.088215
   2 N :   -0.455361
   3 H :    0.127852
   4 H :    0.127852
   5 H :    0.341076
   6 H :    0.326816
   7 H :    0.335955
   8 C :   -0.859910
   9 H :    0.341076
  10 H :    0.326816
  11 H :    0.335955
Sum of atomic charges:   -0.0000000

LOEWDIN ATOMIC CHARGES
----------------------
   0 C :    0.419326
   1 N :    0.124952
   2 N :    0.743873
   3 H :   -0.340631
   4 H :   -0.340631
   5 H :   -0.175548
   6 H :   -0.161475
   7 H :   -0.176085
   8 C :    0.419326
   9 H :   -0.175548
  10 H :   -0.161475
  11 H :   -0.176085

  Mayer bond orders larger than 0.100000
B(  0-C ,  1-N ) :   0.9201 B(  0-C ,  5-H ) :   0.9170 B(  0-C ,  6-H ) :   0.8920
B(  0-C ,  7-H ) :   0.8959 B(  1-N ,  2-N ) :   0.7045 B(  1-N ,  8-C ) :   0.9201
B(  2-N ,  3-H ) :   0.9740 B(  2-N ,  4-H ) :   0.9740 B(  8-C ,  9-H ) :   0.9170
B(  8-C , 10-H ) :   0.8920 B(  8-C , 11-H ) :   0.8959

MP2 TOTAL ENERGY:     -190.110327254 Eh
FINAL SINGLE POINT ENERGY      -190.110327253532

DIPOLE MOMENT
-------------
                                X             Y             Z
Electronic contribution:     -0.14252       1.73218      -0.00000
Nuclear contribution   :      0.31467      -1.64517       0.00000
                        -----------------------------------------
Total Dipole Moment    :      0.17215       0.08701      -0.00000
                        -----------------------------------------
Magnitude (a.u.)       :      0.19289
Magnitude (Debye)      :      0.49029

Rotational constants in cm-1:     0.301689     0.296938     0.167889
Rotational constants in MHz :  9044.413365  8901.989191  5033.199135

                             ****ORCA TERMINATED NORMALLY****
TOTAL RUN TIME: 0 days 0 hours 2 minutes 24 seconds 560 msec
