                         Program Version 5.0.3 -  RELEASE  -
|  1> !ri-mp2 aug-cc-pvtz aug-cc-pvtz/c tightscf
|  2> %pal nprocs 16 end
|  3>
|  4> * xyz 0 1
|  5> C      3.132473    0.770972    0.253731
|  6> C     -3.489777    0.102524    0.120232
|  7> C      2.463060   -0.488339   -0.280821
|  8> C     -1.182999   -0.374018    0.214782
|  9> C      0.153763    0.132123   -0.293733
| 10> O     -2.191518    0.483645   -0.283274
| 11> O      1.158560   -0.710687    0.238596
| 12> H      4.155816    0.833282   -0.120982
| 13> H      2.611059    1.675762   -0.058785
| 14> H      3.167460    0.751844    1.343340
| 15> H     -4.186566    0.819251   -0.309463
| 16> H     -3.589678    0.116485    1.212175
| 17> H     -3.741954   -0.902048   -0.239929
| 18> H      3.038609   -1.367952    0.008601
| 19> H      2.422491   -0.463753   -1.377404
| 20> H     -1.184178   -0.379223    1.312052
| 21> H     -1.345961   -1.404224   -0.125418
| 22> H      0.289010    1.172957    0.018531
| 23> H      0.168426    0.104380   -1.390449
| 24> *
| 25>
| 26>                          ****END OF INPUT****

CARTESIAN COORDINATES (ANGSTROEM)
---------------------------------
  C      3.132473    0.770972    0.253731
  C     -3.489777    0.102524    0.120232
  C      2.463060   -0.488339   -0.280821
  C     -1.182999   -0.374018    0.214782
  C      0.153763    0.132123   -0.293733
  O     -2.191518    0.483645   -0.283274
  O      1.158560   -0.710687    0.238596
  H      4.155816    0.833282   -0.120982
  H      2.611059    1.675762   -0.058785
  H      3.167460    0.751844    1.343340
  H     -4.186566    0.819251   -0.309463
  H     -3.589678    0.116485    1.212175
  H     -3.741954   -0.902048   -0.239929
  H      3.038609   -1.367952    0.008601
  H      2.422491   -0.463753   -1.377404
  H     -1.184178   -0.379223    1.312052
  H     -1.345961   -1.404224   -0.125418
  H      0.289010    1.172957    0.018531
  H      0.168426    0.104380   -1.390449

 Total Charge           Charge          ....    0
 Multiplicity           Mult            ....    1
 Number of Electrons    NEL             ....   58
 Basis Dimension        Dim             ....  598

ORBITAL ENERGIES
----------------

  NO   OCC          E(Eh)            E(eV)
   0   2.0000     -20.556730      -559.3771
   1   2.0000     -20.553016      -559.2760
   2   2.0000     -11.274253      -306.7880
   3   2.0000     -11.270635      -306.6896
   4   2.0000     -11.269897      -306.6695
   5   2.0000     -11.269735      -306.6651
   6   2.0000     -11.215610      -305.1923
   7   2.0000      -1.377936       -37.4956
   8   2.0000      -1.366152       -37.1749
   9   2.0000      -1.038631       -28.2626
  10   2.0000      -0.991593       -26.9826
  11   2.0000      -0.911346       -24.7990
  12   2.0000      -0.845178       -22.9985
  13   2.0000      -0.815419       -22.1887
  14   2.0000      -0.684640       -18.6300
  15   2.0000      -0.668020       -18.1777
  16   2.0000      -0.660482       -17.9726
  17   2.0000      -0.632961       -17.2238
  18   2.0000      -0.614476       -16.7207
  19   2.0000      -0.609491       -16.5851
  20   2.0000      -0.570697       -15.5295
  21   2.0000      -0.543973       -14.8023
  22   2.0000      -0.534519       -14.5450
  23   2.0000      -0.510557       -13.8930
  24   2.0000      -0.494291       -13.4503
  25   2.0000      -0.477595       -12.9960
  26   2.0000      -0.463009       -12.5991
  27   2.0000      -0.423665       -11.5285
  28   2.0000      -0.418618       -11.3912
  29   0.0000       0.030816         0.8385
  30   0.0000       0.033969         0.9243
  31   0.0000       0.039228         1.0674
  32   0.0000       0.040587         1.1044
  33   0.0000       0.049840         1.3562

MULLIKEN ATOMIC CHARGES
-----------------------
   0 C :   -0.921437
   1 C :   -0.864657
   2 C :   -0.342358
   3 C :   -0.149316
   4 C :   -0.157913
   5 O :   -0.616016
   6 O :   -0.646018
   7 H :    0.282897
   8 H :    0.294844
   9 H :    0.278373
  10 H :    0.336329
  11 H :    0.337626
  12 H :    0.338047
  13 H :    0.338418
  14 H :    0.313598
  15 H :    0.286068
  16 H :    0.275070
  17 H :    0.310920
  18 H :    0.305525
Sum of atomic charges:    0.0000000

LOEWDIN ATOMIC CHARGES
----------------------
   0 C :    0.578795
   1 C :    0.314002
   2 C :    0.015150
   3 C :   -0.001702
   4 C :    0.003648
   5 O :    0.545111
   6 O :    0.568393
   7 H :   -0.175514
   8 H :   -0.183960
   9 H :   -0.170862
  10 H :   -0.189358
  11 H :   -0.179286
  12 H :   -0.179539
  13 H :   -0.166793
  14 H :   -0.161614
  15 H :   -0.152205
  16 H :   -0.152913
  17 H :   -0.159210
  18 H :   -0.152143

  Mayer bond orders larger than 0.100000
B(  0-C ,  2-C ) :   0.9026 B(  0-C ,  7-H ) :   0.9529 B(  0-C ,  8-H ) :   0.9307
B(  0-C ,  9-H ) :   0.9382 B(  1-C ,  5-O ) :   0.9948 B(  1-C , 10-H ) :   0.9551
B(  1-C , 11-H ) :   0.8715 B(  1-C , 12-H ) :   0.8716 B(  2-C ,  6-O ) :   0.8945
B(  2-C , 13-H ) :   0.9258 B(  2-C , 14-H ) :   0.9203 B(  3-C ,  4-C ) :   0.9466
B(  3-C ,  5-O ) :   0.9653 B(  3-C , 15-H ) :   0.9205 B(  3-C , 16-H ) :   0.9413
B(  4-C ,  6-O ) :   0.9920 B(  4-C , 17-H ) :   0.8931 B(  4-C , 18-H ) :   0.9130

MP2 TOTAL ENERGY:     -347.524156129 Eh
FINAL SINGLE POINT ENERGY      -347.524156128829

DIPOLE MOMENT
-------------
                                X             Y             Z
Electronic contribution:     -1.81324      -1.02635      -0.32890
Nuclear contribution   :      1.87031       0.99692       0.28403
                        -----------------------------------------
Total Dipole Moment    :      0.05707      -0.02943      -0.04487
                        -----------------------------------------
Magnitude (a.u.)       :      0.07834
Magnitude (Debye)      :      0.19911

Rotational constants in cm-1:     0.339037     0.029840     0.028803
Rotational constants in MHz : 10164.067734   894.595477   863.497281

                             ****ORCA TERMINATED NORMALLY****
TOTAL RUN TIME: 0 days 0 hours 6 minutes 18 seconds 717 msec
