                         Program Version 5.0.3 -  RELEASE  -
|  1> !ri-mp2 aug-cc-pvtz aug-cc-pvtz/c tightscf
|  2> %pal nprocs 16 end
|  3>
|  4> * xyz 0 1
|  5> C     -2.057620   -0.570893    0.000000
|  6> C     -1.349473   -1.765667    0.000000
|  7> C     -1.385262    0.643953    0.000000
|  8> C      0.722393   -0.566463    0.000000
|  9> C      0.048829   -1.783697    0.000000
| 10> C      0.000000    0.619586    0.000000
| 11> C      0.801538   -3.087682    0.000000
| 12> N      0.736402    1.899710    0.000000
| 13> O      0.081540    2.932000    0.000000
| 14> O      1.958229    1.853894    0.000000
| 15> H     -3.138638   -0.583862    0.000000
| 16> H     -1.890749   -2.703493    0.000000
| 17> H     -1.907623    1.587184    0.000000
| 18> H      1.800839   -0.524533    0.000000
| 19> H      1.877726   -2.925062    0.000000
| 20> H      0.551524   -3.685088    0.878569
| 21> H      0.551524   -3.685088   -0.878569
| 22> *
| 23>
| 24>                          ****END OF INPUT****

CARTESIAN COORDINATES (ANGSTROEM)
---------------------------------
  C     -2.057620   -0.570893    0.000000
  C     -1.349473   -1.765667    0.000000
  C     -1.385262    0.643953    0.000000
  C      0.722393   -0.566463    0.000000
  C      0.048829   -1.783697    0.000000
  C      0.000000    0.619586    0.000000
  C      0.801538   -3.087682    0.000000
  N      0.736402    1.899710    0.000000
  O      0.081540    2.932000    0.000000
  O      1.958229    1.853894    0.000000
  H     -3.138638   -0.583862    0.000000
  H     -1.890749   -2.703493    0.000000
  H     -1.907623    1.587184    0.000000
  H      1.800839   -0.524533    0.000000
  H      1.877726   -2.925062    0.000000
  H      0.551524   -3.685088    0.878569
  H      0.551524   -3.685088   -0.878569

 Total Charge           Charge          ....    0
 Multiplicity           Mult            ....    1
 Number of Electrons    NEL             ....   72
 Basis Dimension        Dim             ....  621

ORBITAL ENERGIES
----------------

  NO   OCC          E(Eh)            E(eV)
   0   2.0000     -20.600471      -560.5673
   1   2.0000     -20.600402      -560.5654
   2   2.0000     -15.852146      -431.3588
   3   2.0000     -11.308345      -307.7157
   4   2.0000     -11.270372      -306.6824
   5   2.0000     -11.268507      -306.6317
   6   2.0000     -11.266609      -306.5800
   7   2.0000     -11.264898      -306.5335
   8   2.0000     -11.261872      -306.4511
   9   2.0000     -11.243271      -305.9450
  10   2.0000      -1.605125       -43.6777
  11   2.0000      -1.398090       -38.0440
  12   2.0000      -1.200144       -32.6576
  13   2.0000      -1.100305       -29.9408
  14   2.0000      -1.066545       -29.0222
  15   2.0000      -0.968725       -26.3604
  16   2.0000      -0.954953       -25.9856
  17   2.0000      -0.849320       -23.1112
  18   2.0000      -0.818780       -22.2801
  19   2.0000      -0.766844       -20.8669
  20   2.0000      -0.726919       -19.7805
  21   2.0000      -0.717951       -19.5364
  22   2.0000      -0.704422       -19.1683
  23   2.0000      -0.667149       -18.1540
  24   2.0000      -0.636527       -17.3208
  25   2.0000      -0.603379       -16.4188
  26   2.0000      -0.598180       -16.2773
  27   2.0000      -0.565982       -15.4012
  28   2.0000      -0.543033       -14.7767
  29   2.0000      -0.523169       -14.2361
  30   2.0000      -0.521010       -14.1774
  31   2.0000      -0.492603       -13.4044
  32   2.0000      -0.491712       -13.3802
  33   2.0000      -0.453505       -12.3405
  34   2.0000      -0.373760       -10.1705
  35   2.0000      -0.357135        -9.7181
  36   0.0000       0.021799         0.5932
  37   0.0000       0.028137         0.7656
  38   0.0000       0.036716         0.9991
  39   0.0000       0.036873         1.0034
  40   0.0000       0.040515         1.1025

MULLIKEN ATOMIC CHARGES
-----------------------
   0 C :   -0.549133
   1 C :   -0.957916
   2 C :   -0.368982
   3 C :   -0.752559
   4 C :    1.155125
   5 C :    0.629273
   6 C :   -1.000699
   7 N :    0.699049
   8 O :   -0.670402
   9 O :   -0.680179
  10 H :    0.456226
  11 H :    0.329586
  12 H :    0.516879
  13 H :    0.419220
  14 H :    0.244399
  15 H :    0.265057
  16 H :    0.265057
Sum of atomic charges:    0.0000000

LOEWDIN ATOMIC CHARGES
----------------------
   0 C :    0.219286
   1 C :    0.232613
   2 C :    0.212482
   3 C :    0.229959
   4 C :   -0.105566
   5 C :   -0.210973
   6 C :    0.588772
   7 N :   -0.707188
   8 O :    0.390732
   9 O :    0.391665
  10 H :   -0.178980
  11 H :   -0.166549
  12 H :   -0.195844
  13 H :   -0.195650
  14 H :   -0.176176
  15 H :   -0.164292
  16 H :   -0.164292

  Mayer bond orders larger than 0.100000
B(  0-C ,  1-C ) :   1.1931 B(  0-C ,  2-C ) :   1.1226 B(  0-C ,  5-C ) :  -0.1918
B(  0-C , 10-H ) :   0.8096 B(  1-C ,  2-C ) :   0.1765 B(  1-C ,  3-C ) :   0.2619
B(  1-C ,  4-C ) :   0.6119 B(  1-C ,  5-C ) :  -0.2188 B(  1-C ,  6-C ) :   0.1348
B(  1-C , 10-H ) :  -0.1099 B(  1-C , 11-H ) :   1.0170 B(  2-C ,  3-C ) :   0.1319
B(  2-C ,  5-C ) :   0.7288 B(  2-C ,  7-N ) :  -0.1362 B(  2-C ,  8-O ) :  -0.1379
B(  2-C , 12-H ) :   0.7247 B(  3-C ,  4-C ) :   0.7126 B(  3-C ,  5-C ) :   0.5277
B(  3-C ,  7-N ) :  -0.2022 B(  3-C ,  9-O ) :  -0.1405 B(  3-C , 13-H ) :   0.8474
B(  4-C ,  5-C ) :   0.1900 B(  4-C ,  6-C ) :   0.4674 B(  5-C ,  7-N ) :   1.3002
B(  5-C ,  8-O ) :   0.3207 B(  5-C ,  9-O ) :   0.3629 B(  6-C , 14-H ) :   1.0256
B(  6-C , 15-H ) :   1.0264 B(  6-C , 16-H ) :   1.0264 B(  7-N ,  8-O ) :   1.0329
B(  7-N ,  9-O ) :   1.0551 B(  8-O ,  9-O ) :   0.1060 B(  9-O , 13-H ) :  -0.1166

MP2 TOTAL ENERGY:     -475.212466217 Eh
FINAL SINGLE POINT ENERGY      -475.212466217006

DIPOLE MOMENT
-------------
                                X             Y             Z
Electronic contribution:      1.17026      10.30659      -0.00000
Nuclear contribution   :     -2.08930     -12.25957       0.00000
                        -----------------------------------------
Total Dipole Moment    :     -0.91904      -1.95298      -0.00000
                        -----------------------------------------
Magnitude (a.u.)       :      2.15841
Magnitude (Debye)      :      5.48625

Rotational constants in cm-1:     0.089344     0.032804     0.024101
Rotational constants in MHz :  2678.477999   983.428006   722.522786

                             ****ORCA TERMINATED NORMALLY****
TOTAL RUN TIME: 0 days 0 hours 9 minutes 45 seconds 220 msec
