                         Program Version 5.0.3 -  RELEASE  -
|  1> !ri-mp2 aug-cc-pvtz aug-cc-pvtz/c tightscf
|  2> %pal nprocs 16 end
|  3>
|  4> * xyz 0 1
|  5> C     -1.364294   -0.257422    0.000000
|  6> Cl    -2.663967    1.000357    0.000000
|  7> C      0.000000    0.402791    0.000000
|  8> C      3.235965   -1.355048    0.000000
|  9> C      2.301786   -0.163749    0.000000
| 10> O      0.959835   -0.634578    0.000000
| 11> H      4.273451   -1.018738    0.000000
| 12> H     -1.508982   -0.865324    0.887556
| 13> H     -1.508982   -0.865324   -0.887556
| 14> H      0.111166    1.038659   -0.886420
| 15> H      0.111166    1.038659    0.886420
| 16> H      3.073565   -1.971524   -0.883887
| 17> H      3.073565   -1.971524    0.883887
| 18> H      2.471534    0.463118    0.884863
| 19> H      2.471534    0.463118   -0.884863
| 20> *
| 21>
| 22>                          ****END OF INPUT****

CARTESIAN COORDINATES (ANGSTROEM)
---------------------------------
  C     -1.364294   -0.257422    0.000000
  Cl    -2.663967    1.000357    0.000000
  C      0.000000    0.402791    0.000000
  C      3.235965   -1.355048    0.000000
  C      2.301786   -0.163749    0.000000
  O      0.959835   -0.634578    0.000000
  H      4.273451   -1.018738    0.000000
  H     -1.508982   -0.865324    0.887556
  H     -1.508982   -0.865324   -0.887556
  H      0.111166    1.038659   -0.886420
  H      0.111166    1.038659    0.886420
  H      3.073565   -1.971524   -0.883887
  H      3.073565   -1.971524    0.883887
  H      2.471534    0.463118    0.884863
  H      2.471534    0.463118   -0.884863

 Total Charge           Charge          ....    0
 Multiplicity           Mult            ....    1
 Number of Electrons    NEL             ....   58
 Basis Dimension        Dim             ....  487

ORBITAL ENERGIES
----------------

  NO   OCC          E(Eh)            E(eV)
   0   2.0000    -104.825038     -2852.4343
   1   2.0000     -20.567144      -559.6604
   2   2.0000     -11.293834      -307.3208
   3   2.0000     -11.290996      -307.2436
   4   2.0000     -11.283959      -307.0521
   5   2.0000     -11.220591      -305.3278
   6   2.0000     -10.549042      -287.0540
   7   2.0000      -8.015851      -218.1224
   8   2.0000      -8.014135      -218.0757
   9   2.0000      -8.014104      -218.0748
  10   2.0000      -1.386088       -37.7174
  11   2.0000      -1.133952       -30.8564
  12   2.0000      -1.038979       -28.2721
  13   2.0000      -0.967640       -26.3308
  14   2.0000      -0.844969       -22.9928
  15   2.0000      -0.841321       -22.8935
  16   2.0000      -0.696099       -18.9418
  17   2.0000      -0.674820       -18.3628
  18   2.0000      -0.636437       -17.3183
  19   2.0000      -0.622160       -16.9298
  20   2.0000      -0.566269       -15.4090
  21   2.0000      -0.552528       -15.0351
  22   2.0000      -0.539713       -14.6863
  23   2.0000      -0.514605       -14.0031
  24   2.0000      -0.507982       -13.8229
  25   2.0000      -0.488598       -13.2954
  26   2.0000      -0.436326       -11.8730
  27   2.0000      -0.436014       -11.8645
  28   2.0000      -0.433074       -11.7845
  29   0.0000       0.028887         0.7861
  30   0.0000       0.036915         1.0045
  31   0.0000       0.037751         1.0273
  32   0.0000       0.040109         1.0914
  33   0.0000       0.054105         1.4723

MULLIKEN ATOMIC CHARGES
-----------------------
   0 C :   -0.326266
   1 Cl:   -0.371398
   2 C :   -0.279780
   3 C :   -0.983136
   4 C :   -0.188421
   5 O :   -0.528751
   6 H :    0.328878
   7 H :    0.262805
   8 H :    0.262805
   9 H :    0.344187
  10 H :    0.344187
  11 H :    0.265902
  12 H :    0.265902
  13 H :    0.301543
  14 H :    0.301543
Sum of atomic charges:   -0.0000000

LOEWDIN ATOMIC CHARGES
----------------------
   0 C :   -0.265521
   1 Cl:    0.870107
   2 C :   -0.093758
   3 C :    0.578745
   4 C :   -0.003779
   5 O :    0.562545
   6 H :   -0.175754
   7 H :   -0.237784
   8 H :   -0.237784
   9 H :   -0.169700
  10 H :   -0.169700
  11 H :   -0.173744
  12 H :   -0.173744
  13 H :   -0.155064
  14 H :   -0.155064

  Mayer bond orders larger than 0.100000
B(  0-C ,  1-Cl) :   0.7606 B(  0-C ,  2-C ) :   1.0239 B(  0-C ,  7-H ) :   0.9448
B(  0-C ,  8-H ) :   0.9448 B(  2-C ,  5-O ) :   0.9522 B(  2-C ,  9-H ) :   0.8715
B(  2-C , 10-H ) :   0.8715 B(  3-C ,  4-C ) :   0.8876 B(  3-C ,  6-H ) :   0.9197
B(  3-C , 11-H ) :   0.9629 B(  3-C , 12-H ) :   0.9629 B(  4-C ,  5-O ) :   0.8940
B(  4-C , 13-H ) :   0.8812 B(  4-C , 14-H ) :   0.8812

MP2 TOTAL ENERGY:     -692.317467378 Eh
FINAL SINGLE POINT ENERGY      -692.317467377755

DIPOLE MOMENT
-------------
                                X             Y             Z
Electronic contribution:    -15.53695       5.03964       0.00000
Nuclear contribution   :     16.44876      -5.14707       0.00000
                        -----------------------------------------
Total Dipole Moment    :      0.91181      -0.10743       0.00000
                        -----------------------------------------
Magnitude (a.u.)       :      0.91812
Magnitude (Debye)      :      2.33368

Rotational constants in cm-1:     0.553980     0.028473     0.027643
Rotational constants in MHz : 16607.902970   853.586367   828.701890

                             ****ORCA TERMINATED NORMALLY****
TOTAL RUN TIME: 0 days 0 hours 4 minutes 0 seconds 95 msec
