                         Program Version 5.0.3 -  RELEASE  -
|  1> !ri-mp2 aug-cc-pvtz aug-cc-pvtz/c tightscf
|  2> %pal nprocs 16 end
|  3>
|  4> * xyz 0 1
|  5> C      0.000000    0.000000    0.000000
|  6> C      0.000000    0.000000    1.271509
|  7> C      0.000000    0.000000   -1.271509
|  8> O      0.000000    0.000000    2.431267
|  9> O      0.000000    0.000000   -2.431267
| 10> *
| 11>
| 12>                          ****END OF INPUT****

CARTESIAN COORDINATES (ANGSTROEM)
---------------------------------
  C      0.000000    0.000000    0.000000
  C      0.000000    0.000000    1.271509
  C      0.000000    0.000000   -1.271509
  O      0.000000    0.000000    2.431267
  O      0.000000    0.000000   -2.431267

 Total Charge           Charge          ....    0
 Multiplicity           Mult            ....    1
 Number of Electrons    NEL             ....   34
 Basis Dimension        Dim             ....  230

ORBITAL ENERGIES
----------------

  NO   OCC          E(Eh)            E(eV)
   0   2.0000     -20.653755      -562.0173
   1   2.0000     -20.653754      -562.0172
   2   2.0000     -11.431703      -311.0725
   3   2.0000     -11.431685      -311.0720
   4   2.0000     -11.257247      -306.3253
   5   2.0000      -1.501426       -40.8559
   6   2.0000      -1.500333       -40.8261
   7   2.0000      -1.117185       -30.4002
   8   2.0000      -0.946185       -25.7470
   9   2.0000      -0.763676       -20.7807
  10   2.0000      -0.752411       -20.4741
  11   2.0000      -0.674221       -18.3465
  12   2.0000      -0.674221       -18.3465
  13   2.0000      -0.642016       -17.4701
  14   2.0000      -0.642016       -17.4701
  15   2.0000      -0.410516       -11.1707
  16   2.0000      -0.410516       -11.1707
  17   0.0000       0.047581         1.2947
  18   0.0000       0.055727         1.5164
  19   0.0000       0.064274         1.7490
  20   0.0000       0.064274         1.7490
  21   0.0000       0.068610         1.8670

MULLIKEN ATOMIC CHARGES
-----------------------
   0 C :    1.711499
   1 C :   -0.441964
   2 C :   -0.441964
   3 O :   -0.413785
   4 O :   -0.413785
Sum of atomic charges:    0.0000000

LOEWDIN ATOMIC CHARGES
----------------------
   0 C :   -0.073378
   1 C :   -0.375211
   2 C :   -0.375211
   3 O :    0.411900
   4 O :    0.411900

  Mayer bond orders larger than 0.100000
B(  0-C ,  1-C ) :   0.3459 B(  0-C ,  2-C ) :   0.3459 B(  0-C ,  3-O ) :  -0.2574
B(  0-C ,  4-O ) :  -0.2574 B(  1-C ,  3-O ) :   1.8048 B(  1-C ,  4-O ) :   0.1026
B(  2-C ,  3-O ) :   0.1026 B(  2-C ,  4-O ) :   1.8048

MP2 TOTAL ENERGY:     -264.292793510 Eh
FINAL SINGLE POINT ENERGY      -264.292793510312

DIPOLE MOMENT
-------------
                                X             Y             Z
Electronic contribution:      0.00000       0.00000      -0.00000
Nuclear contribution   :      0.00000       0.00000       0.00000
                        -----------------------------------------
Total Dipole Moment    :      0.00000       0.00000      -0.00000
                        -----------------------------------------
Magnitude (a.u.)       :      0.00000
Magnitude (Debye)      :      0.00000

Rotational constants in cm-1:     0.000000     0.073944     0.073944
Rotational constants in MHz :     0.000000  2216.778076  2216.778076

                             ****ORCA TERMINATED NORMALLY****
TOTAL RUN TIME: 0 days 0 hours 1 minutes 4 seconds 767 msec
