                         Program Version 5.0.3 -  RELEASE  -
|  1> !ri-mp2 aug-cc-pvtz aug-cc-pvtz/c tightscf
|  2> %pal nprocs 16 end
|  3>
|  4> * xyz 0 1
|  5> C      0.000000    1.283548        0.000000
|  6> N      1.195886    0.688755        0.000000
|  7> N     -1.187170    0.683937        0.000000
|  8> C      1.154952   -0.633315        0.000000
|  9> C     -0.067010   -1.302568        0.000000
| 10> N     -1.219098   -0.643966        0.000000
| 11> H     -0.131661   -2.382786        0.000000
| 12> H      2.096736   -1.170292        0.000000
| 13> H     -0.020059    2.366010        0.000000
| 14> *
| 15>
| 16>                          ****END OF INPUT****

CARTESIAN COORDINATES (ANGSTROEM)
---------------------------------
  C      0.000000    1.283548    0.000000
  N      1.195886    0.688755    0.000000
  N     -1.187170    0.683937    0.000000
  C      1.154952   -0.633315    0.000000
  C     -0.067010   -1.302568    0.000000
  N     -1.219098   -0.643966    0.000000
  H     -0.131661   -2.382786    0.000000
  H      2.096736   -1.170292    0.000000
  H     -0.020059    2.366010    0.000000

 Total Charge           Charge          ....    0
 Multiplicity           Mult            ....    1
 Number of Electrons    NEL             ....   42
 Basis Dimension        Dim             ....  345

ORBITAL ENERGIES
----------------

  NO   OCC          E(Eh)            E(eV)
   0   2.0000     -15.642566      -425.6559
   1   2.0000     -15.622846      -425.1193
   2   2.0000     -15.607862      -424.7115
   3   2.0000     -11.325903      -308.1935
   4   2.0000     -11.318199      -307.9839
   5   2.0000     -11.296057      -307.3814
   6   2.0000      -1.387120       -37.7455
   7   2.0000      -1.262032       -34.3416
   8   2.0000      -1.138648       -30.9842
   9   2.0000      -0.952654       -25.9230
  10   2.0000      -0.926301       -25.2059
  11   2.0000      -0.749500       -20.3949
  12   2.0000      -0.745054       -20.2739
  13   2.0000      -0.680786       -18.5251
  14   2.0000      -0.617485       -16.8026
  15   2.0000      -0.614008       -16.7080
  16   2.0000      -0.525251       -14.2928
  17   2.0000      -0.500035       -13.6066
  18   2.0000      -0.463165       -12.6034
  19   2.0000      -0.411466       -11.1966
  20   2.0000      -0.403290       -10.9741
  21   0.0000       0.024030         0.6539
  22   0.0000       0.036511         0.9935
  23   0.0000       0.039779         1.0825
  24   0.0000       0.050613         1.3772
  25   0.0000       0.071906         1.9567

MULLIKEN ATOMIC CHARGES
-----------------------
   0 C :   -0.371300
   1 N :   -0.300927
   2 N :   -0.389455
   3 C :   -0.276152
   4 C :   -0.181903
   5 N :   -0.269612
   6 H :    0.599180
   7 H :    0.580690
   8 H :    0.609479
Sum of atomic charges:    0.0000000

LOEWDIN ATOMIC CHARGES
----------------------
   0 C :   -0.182983
   1 N :    0.370443
   2 N :    0.191914
   3 C :    0.012719
   4 C :    0.007345
   5 N :    0.194955
   6 H :   -0.202384
   7 H :   -0.183120
   8 H :   -0.208890

  Mayer bond orders larger than 0.100000
B(  0-C ,  1-N ) :   1.2283 B(  0-C ,  2-N ) :   1.4007 B(  0-C ,  8-H ) :   0.5712
B(  1-N ,  3-C ) :   1.1259 B(  2-N ,  5-N ) :   0.4081 B(  3-C ,  4-C ) :   1.2363
B(  3-C ,  7-H ) :   0.6407 B(  4-C ,  5-N ) :   1.2162 B(  4-C ,  6-H ) :   0.5954

MP2 TOTAL ENERGY:     -279.808864327 Eh
FINAL SINGLE POINT ENERGY      -279.808864327465

DIPOLE MOMENT
-------------
                                X             Y             Z
Electronic contribution:     -0.94096       0.60293       0.00000
Nuclear contribution   :      1.88535      -1.15071       0.00000
                        -----------------------------------------
Total Dipole Moment    :      0.94439      -0.54778       0.00000
                        -----------------------------------------
Magnitude (a.u.)       :      1.09176
Magnitude (Debye)      :      2.77503

Rotational constants in cm-1:     0.220686     0.207093     0.106837
Rotational constants in MHz :  6616.011043  6208.497939  3202.889949

                             ****ORCA TERMINATED NORMALLY****
TOTAL RUN TIME: 0 days 0 hours 2 minutes 27 seconds 363 msec
