                         Program Version 5.0.3 -  RELEASE  -
|  1> !ri-mp2 aug-cc-pvtz aug-cc-pvtz/c tightscf
|  2> %pal nprocs 16 end
|  3>
|  4> * xyz 0 1
|  5> C      0.536731    3.223064    0.000000
|  6> C     -0.454928    2.061221    0.000000
|  7> C      0.239825    0.697977    0.000000
|  8> C     -0.768764   -0.447146    0.000000
|  9> N     -0.044489   -1.768093    0.000000
| 10> O      0.239825   -2.250342    1.084249
| 11> O      0.239825   -2.250342   -1.084249
| 12> H      0.018030    4.181913    0.000000
| 13> H      1.179997    3.192827    0.881142
| 14> H      1.179997    3.192827   -0.881142
| 15> H     -1.106167    2.136482    0.875255
| 16> H     -1.106167    2.136482   -0.875255
| 17> H      0.880107    0.607526   -0.879899
| 18> H      0.880107    0.607526    0.879899
| 19> H     -1.384437   -0.442080    0.895216
| 20> H     -1.384437   -0.442080   -0.895216
| 21> *
| 22>
| 23>                          ****END OF INPUT****

CARTESIAN COORDINATES (ANGSTROEM)
---------------------------------
  C      0.536731    3.223064    0.000000
  C     -0.454928    2.061221    0.000000
  C      0.239825    0.697977    0.000000
  C     -0.768764   -0.447146    0.000000
  N     -0.044489   -1.768093    0.000000
  O      0.239825   -2.250342    1.084249
  O      0.239825   -2.250342   -1.084249
  H      0.018030    4.181913    0.000000
  H      1.179997    3.192827    0.881142
  H      1.179997    3.192827   -0.881142
  H     -1.106167    2.136482    0.875255
  H     -1.106167    2.136482   -0.875255
  H      0.880107    0.607526   -0.879899
  H      0.880107    0.607526    0.879899
  H     -1.384437   -0.442080    0.895216
  H     -1.384437   -0.442080   -0.895216

 Total Charge           Charge          ....    0
 Multiplicity           Mult            ....    1
 Number of Electrons    NEL             ....   56
 Basis Dimension        Dim             ....  529

ORBITAL ENERGIES
----------------

  NO   OCC          E(Eh)            E(eV)
   0   2.0000     -20.601937      -560.6072
   1   2.0000     -20.601885      -560.6058
   2   2.0000     -15.843522      -431.1242
   3   2.0000     -11.306341      -307.6612
   4   2.0000     -11.255543      -306.2789
   5   2.0000     -11.246424      -306.0308
   6   2.0000     -11.230366      -305.5938
   7   2.0000      -1.603819       -43.6421
   8   2.0000      -1.398879       -38.0654
   9   2.0000      -1.133796       -30.8522
  10   2.0000      -1.058088       -28.7921
  11   2.0000      -0.948765       -25.8172
  12   2.0000      -0.847948       -23.0739
  13   2.0000      -0.827474       -22.5167
  14   2.0000      -0.748193       -20.3594
  15   2.0000      -0.733549       -19.9609
  16   2.0000      -0.712035       -19.3755
  17   2.0000      -0.677141       -18.4260
  18   2.0000      -0.613991       -16.7076
  19   2.0000      -0.606883       -16.5141
  20   2.0000      -0.567818       -15.4511
  21   2.0000      -0.540997       -14.7213
  22   2.0000      -0.518618       -14.1123
  23   2.0000      -0.504738       -13.7346
  24   2.0000      -0.496199       -13.5023
  25   2.0000      -0.490494       -13.3470
  26   2.0000      -0.474269       -12.9055
  27   2.0000      -0.451392       -12.2830
  28   0.0000       0.023988         0.6528
  29   0.0000       0.031821         0.8659
  30   0.0000       0.035242         0.9590
  31   0.0000       0.040080         1.0906
  32   0.0000       0.052871         1.4387

MULLIKEN ATOMIC CHARGES
-----------------------
   0 C :   -0.984372
   1 C :   -0.435004
   2 C :   -0.392095
   3 C :   -0.286390
   4 N :    0.884898
   5 O :   -0.701973
   6 O :   -0.701973
   7 H :    0.275934
   8 H :    0.272898
   9 H :    0.272898
  10 H :    0.269531
  11 H :    0.269531
  12 H :    0.298802
  13 H :    0.298802
  14 H :    0.329257
  15 H :    0.329257
Sum of atomic charges:   -0.0000000

LOEWDIN ATOMIC CHARGES
----------------------
   0 C :    0.587766
   1 C :    0.261928
   2 C :    0.276831
   3 C :    0.213120
   4 N :   -0.714055
   5 O :    0.379314
   6 O :    0.379314
   7 H :   -0.170092
   8 H :   -0.167811
   9 H :   -0.167811
  10 H :   -0.145518
  11 H :   -0.145518
  12 H :   -0.141676
  13 H :   -0.141676
  14 H :   -0.152058
  15 H :   -0.152058

  Mayer bond orders larger than 0.100000
B(  0-C ,  1-C ) :   0.9008 B(  0-C ,  7-H ) :   0.9854 B(  0-C ,  8-H ) :   0.9533
B(  0-C ,  9-H ) :   0.9533 B(  1-C ,  2-C ) :   0.8465 B(  1-C , 10-H ) :   0.9387
B(  1-C , 11-H ) :   0.9387 B(  2-C ,  3-C ) :   0.9697 B(  2-C , 12-H ) :   0.9168
B(  2-C , 13-H ) :   0.9168 B(  3-C ,  4-N ) :   0.8962 B(  3-C , 14-H ) :   0.8932
B(  3-C , 15-H ) :   0.8932 B(  4-N ,  5-O ) :   1.0846 B(  4-N ,  6-O ) :   1.0846
B(  5-O ,  6-O ) :   0.1735

MP2 TOTAL ENERGY:     -362.321833019 Eh
FINAL SINGLE POINT ENERGY      -362.321833019100

DIPOLE MOMENT
-------------
                                X             Y             Z
Electronic contribution:      0.16419     -13.69311       0.00000
Nuclear contribution   :     -0.85229      15.39024       0.00000
                        -----------------------------------------
Total Dipole Moment    :     -0.68810       1.69713       0.00000
                        -----------------------------------------
Magnitude (a.u.)       :      1.83132
Magnitude (Debye)      :      4.65484

Rotational constants in cm-1:     0.240335     0.036448     0.035107
Rotational constants in MHz :  7205.047998  1092.670783  1052.477320

                             ****ORCA TERMINATED NORMALLY****
TOTAL RUN TIME: 0 days 0 hours 5 minutes 2 seconds 360 msec
