                         Program Version 5.0.3 -  RELEASE  -
|  1> !ri-mp2 aug-cc-pvtz aug-cc-pvtz/c tightscf
|  2> %pal nprocs 16 end
|  3>
|  4> * xyz 0 1
|  5> C      2.555199   -0.206184   -0.030002
|  6> C      1.904094   -1.432601   -0.092797
|  7> C      1.822358    0.969098    0.049255
|  8> C      0.521008   -1.464364   -0.071553
|  9> C      0.424347    0.981756    0.050347
| 10> C     -0.196494   -0.273992   -0.013060
| 11> C     -0.290301    2.302138    0.145550
| 12> N     -1.666810   -0.404509   -0.018623
| 13> O     -2.143297   -1.460414    0.374057
| 14> O     -2.328126    0.540642   -0.426159
| 15> H      3.635895   -0.163364   -0.037093
| 16> H      2.465502   -2.353997   -0.153385
| 17> H      2.342694    1.915301    0.114787
| 18> H     -0.021103   -2.396371   -0.103663
| 19> H     -0.772031    2.558749   -0.796957
| 20> H     -1.076089    2.289354    0.898913
| 21> H      0.422924    3.084965    0.398137
| 22> *
| 23>
| 24>                          ****END OF INPUT****

CARTESIAN COORDINATES (ANGSTROEM)
---------------------------------
  C      2.555199   -0.206184   -0.030002
  C      1.904094   -1.432601   -0.092797
  C      1.822358    0.969098    0.049255
  C      0.521008   -1.464364   -0.071553
  C      0.424347    0.981756    0.050347
  C     -0.196494   -0.273992   -0.013060
  C     -0.290301    2.302138    0.145550
  N     -1.666810   -0.404509   -0.018623
  O     -2.143297   -1.460414    0.374057
  O     -2.328126    0.540642   -0.426159
  H      3.635895   -0.163364   -0.037093
  H      2.465502   -2.353997   -0.153385
  H      2.342694    1.915301    0.114787
  H     -0.021103   -2.396371   -0.103663
  H     -0.772031    2.558749   -0.796957
  H     -1.076089    2.289354    0.898913
  H      0.422924    3.084965    0.398137

 Total Charge           Charge          ....    0
 Multiplicity           Mult            ....    1
 Number of Electrons    NEL             ....   72
 Basis Dimension        Dim             ....  621

ORBITAL ENERGIES
----------------

  NO   OCC          E(Eh)            E(eV)
   0   2.0000     -20.600647      -560.5721
   1   2.0000     -20.599430      -560.5390
   2   2.0000     -15.851482      -431.3408
   3   2.0000     -11.307989      -307.7060
   4   2.0000     -11.286184      -307.1127
   5   2.0000     -11.270349      -306.6818
   6   2.0000     -11.267615      -306.6074
   7   2.0000     -11.257295      -306.3266
   8   2.0000     -11.256518      -306.3054
   9   2.0000     -11.237177      -305.7791
  10   2.0000      -1.605003       -43.6743
  11   2.0000      -1.397591       -38.0304
  12   2.0000      -1.200099       -32.6564
  13   2.0000      -1.091199       -29.6930
  14   2.0000      -1.074096       -29.2276
  15   2.0000      -0.982089       -26.7240
  16   2.0000      -0.933713       -25.4076
  17   2.0000      -0.849174       -23.1072
  18   2.0000      -0.827000       -22.5038
  19   2.0000      -0.767229       -20.8774
  20   2.0000      -0.725689       -19.7470
  21   2.0000      -0.720007       -19.5924
  22   2.0000      -0.694561       -18.9000
  23   2.0000      -0.663618       -18.0580
  24   2.0000      -0.638773       -17.3819
  25   2.0000      -0.600852       -16.3500
  26   2.0000      -0.591216       -16.0878
  27   2.0000      -0.565518       -15.3885
  28   2.0000      -0.543972       -14.8022
  29   2.0000      -0.523728       -14.2514
  30   2.0000      -0.522199       -14.2098
  31   2.0000      -0.493021       -13.4158
  32   2.0000      -0.485332       -13.2065
  33   2.0000      -0.451786       -12.2937
  34   2.0000      -0.373526       -10.1642
  35   2.0000      -0.357383        -9.7249
  36   0.0000       0.022321         0.6074
  37   0.0000       0.029032         0.7900
  38   0.0000       0.035750         0.9728
  39   0.0000       0.043169         1.1747
  40   0.0000       0.047610         1.2955

MULLIKEN ATOMIC CHARGES
-----------------------
   0 C :   -0.494068
   1 C :   -0.293392
   2 C :   -0.705917
   3 C :   -0.806031
   4 C :    0.800081
   5 C :    0.580672
   6 C :   -0.891171
   7 N :    0.683012
   8 O :   -0.683950
   9 O :   -0.646729
  10 H :    0.661845
  11 H :    0.343129
  12 H :    0.026091
  13 H :    0.604772
  14 H :    0.305592
  15 H :    0.267582
  16 H :    0.248483
Sum of atomic charges:   -0.0000000

LOEWDIN ATOMIC CHARGES
----------------------
   0 C :    0.218870
   1 C :    0.215413
   2 C :    0.224726
   3 C :    0.204335
   4 C :   -0.089383
   5 C :   -0.183074
   6 C :    0.570578
   7 N :   -0.697154
   8 O :    0.394239
   9 O :    0.409860
  10 H :   -0.172959
  11 H :   -0.180785
  12 H :   -0.180834
  13 H :   -0.198084
  14 H :   -0.173309
  15 H :   -0.181170
  16 H :   -0.181270

  Mayer bond orders larger than 0.100000
B(  0-C ,  1-C ) :   1.0984 B(  0-C ,  2-C ) :   1.0406 B(  0-C ,  3-C ) :   0.3352
B(  0-C ,  4-C ) :   0.3222 B(  0-C , 10-H ) :   0.4593 B(  0-C , 11-H ) :  -0.1265
B(  1-C ,  2-C ) :  -0.2680 B(  1-C ,  3-C ) :   1.1782 B(  1-C ,  4-C ) :   0.1735
B(  1-C ,  5-C ) :  -0.3328 B(  1-C , 11-H ) :   1.0104 B(  2-C ,  4-C ) :   0.8746
B(  2-C ,  5-C ) :  -0.3644 B(  2-C , 12-H ) :   1.5497 B(  3-C ,  4-C ) :   0.3754
B(  3-C ,  5-C ) :   0.8302 B(  3-C ,  7-N ) :  -0.1550 B(  3-C , 13-H ) :   0.4170
B(  4-C ,  5-C ) :   1.1494 B(  4-C ,  6-C ) :   0.4229 B(  4-C ,  7-N ) :  -0.1391
B(  4-C , 13-H ) :  -0.1451 B(  5-C ,  6-C ) :   0.2168 B(  5-C ,  7-N ) :   1.1553
B(  5-C ,  8-O ) :   0.1884 B(  5-C , 13-H ) :   0.2195 B(  6-C , 14-H ) :   0.9612
B(  6-C , 15-H ) :   0.9947 B(  6-C , 16-H ) :   1.0178 B(  7-N ,  8-O ) :   1.1516
B(  7-N ,  9-O ) :   1.1858

MP2 TOTAL ENERGY:     -475.209360670 Eh
FINAL SINGLE POINT ENERGY      -475.209360670062

DIPOLE MOMENT
-------------
                                X             Y             Z
Electronic contribution:     -4.95480      -4.48854      -0.30452
Nuclear contribution   :      6.82084       4.84903       0.31534
                        -----------------------------------------
Total Dipole Moment    :      1.86604       0.36049       0.01082
                        -----------------------------------------
Magnitude (a.u.)       :      1.90057
Magnitude (Debye)      :      4.83087

Rotational constants in cm-1:     0.075593     0.041947     0.027621
Rotational constants in MHz :  2266.230310  1257.547886   828.062224

                             ****ORCA TERMINATED NORMALLY****
TOTAL RUN TIME: 0 days 0 hours 10 minutes 29 seconds 439 msec
