                         Program Version 5.0.3 -  RELEASE  -
|  1> !ri-mp2 aug-cc-pvtz aug-cc-pvtz/c tightscf
|  2> %pal nprocs 16 end
|  3>
|  4> * xyz 0 1
|  5> N      0.000000    0.691069   -0.992631
|  6> N      0.000000   -0.691069   -0.992631
|  7> C      0.000000   -1.080094    0.251566
|  8> N      0.000000    0.000000    1.085367
|  9> C      0.000000    1.080094    0.251566
| 10> H      0.000000   -2.100069    0.594993
| 11> H      0.000000    0.000000    2.090477
| 12> H      0.000000    2.100069    0.594993
| 13> *
| 14>
| 15>                          ****END OF INPUT****

CARTESIAN COORDINATES (ANGSTROEM)
---------------------------------
  N      0.000000    0.691069   -0.992631
  N      0.000000   -0.691069   -0.992631
  C      0.000000   -1.080094    0.251566
  N      0.000000    0.000000    1.085367
  C      0.000000    1.080094    0.251566
  H      0.000000   -2.100069    0.594993
  H      0.000000    0.000000    2.090477
  H      0.000000    2.100069    0.594993

 Total Charge           Charge          ....    0
 Multiplicity           Mult            ....    1
 Number of Electrons    NEL             ....   36
 Basis Dimension        Dim             ....  299

ORBITAL ENERGIES
----------------

  NO   OCC          E(Eh)            E(eV)
   0   2.0000     -15.642502      -425.6541
   1   2.0000     -15.584485      -424.0754
   2   2.0000     -15.583834      -424.0577
   3   2.0000     -11.310362      -307.7706
   4   2.0000     -11.310321      -307.7695
   5   2.0000      -1.402283       -38.1581
   6   2.0000      -1.220391       -33.2085
   7   2.0000      -1.100417       -29.9439
   8   2.0000      -0.858355       -23.3570
   9   2.0000      -0.844889       -22.9906
  10   2.0000      -0.785876       -21.3848
  11   2.0000      -0.647993       -17.6328
  12   2.0000      -0.633057       -17.2263
  13   2.0000      -0.627332       -17.0706
  14   2.0000      -0.484678       -13.1888
  15   2.0000      -0.435315       -11.8455
  16   2.0000      -0.433654       -11.8003
  17   2.0000      -0.370526       -10.0825
  18   0.0000       0.015001         0.4082
  19   0.0000       0.031183         0.8485
  20   0.0000       0.043523         1.1843
  21   0.0000       0.067396         1.8339
  22   0.0000       0.078809         2.1445

MULLIKEN ATOMIC CHARGES
-----------------------
   0 N :   -0.390375
   1 N :   -0.390375
   2 C :   -0.325300
   3 N :    0.081004
   4 C :   -0.325300
   5 H :    0.602389
   6 H :    0.145568
   7 H :    0.602389
Sum of atomic charges:    0.0000000

LOEWDIN ATOMIC CHARGES
----------------------
   0 N :    0.168247
   1 N :    0.168247
   2 C :   -0.108480
   3 N :    0.498171
   4 C :   -0.108480
   5 H :   -0.183024
   6 H :   -0.251658
   7 H :   -0.183024

  Mayer bond orders larger than 0.100000
B(  0-N ,  1-N ) :   0.4326 B(  0-N ,  4-C ) :   1.5198 B(  1-N ,  2-C ) :   1.5198
B(  2-C ,  3-N ) :   1.1483 B(  2-C ,  4-C ) :  -0.2502 B(  2-C ,  5-H ) :   0.5930
B(  3-N ,  4-C ) :   1.1483 B(  3-N ,  6-H ) :   1.0363 B(  4-C ,  7-H ) :   0.5930

MP2 TOTAL ENERGY:     -241.814465087 Eh
FINAL SINGLE POINT ENERGY      -241.814465086953

DIPOLE MOMENT
-------------
                                X             Y             Z
Electronic contribution:      0.00000      -0.00000      -0.85734
Nuclear contribution   :      0.00000       0.00000       3.20612
                        -----------------------------------------
Total Dipole Moment    :      0.00000      -0.00000       2.34878
                        -----------------------------------------
Magnitude (a.u.)       :      2.34878
Magnitude (Debye)      :      5.97012

Rotational constants in cm-1:     0.335181     0.333229     0.167101
Rotational constants in MHz : 10048.483028  9989.949655  5009.565426

                             ****ORCA TERMINATED NORMALLY****
TOTAL RUN TIME: 0 days 0 hours 1 minutes 48 seconds 697 msec
