                         Program Version 5.0.3 -  RELEASE  -
|  1> !ri-mp2 aug-cc-pvtz aug-cc-pvtz/c tightscf
|  2> %pal nprocs 16 end
|  3>
|  4> * xyz 0 1
|  5> C     0.000000     1.297147    0.000000
|  6> C     0.000000     0.000000    0.783698
|  7> C     0.000000     0.000000   -0.783698
|  8> C    -1.123362    -0.648574    0.000000
|  9> C     1.123362    -0.648574    0.000000
| 10> H     0.913369     1.877008    0.000000
| 11> H    -0.913369     1.877008    0.000000
| 12> H    -2.082221    -0.147503    0.000000
| 13> H    -1.168852    -1.729505    0.000000
| 14> H     2.082221    -0.147503    0.000000
| 15> H     1.168852    -1.729505    0.000000
| 16> *
| 17>
| 18>                          ****END OF INPUT****

CARTESIAN COORDINATES (ANGSTROEM)
---------------------------------
  C      0.000000    1.297147    0.000000
  C      0.000000    0.000000    0.783698
  C      0.000000    0.000000   -0.783698
  C     -1.123362   -0.648574    0.000000
  C      1.123362   -0.648574    0.000000
  H      0.913369    1.877008    0.000000
  H     -0.913369    1.877008    0.000000
  H     -2.082221   -0.147503    0.000000
  H     -1.168852   -1.729505    0.000000
  H      2.082221   -0.147503    0.000000
  H      1.168852   -1.729505    0.000000

 Total Charge           Charge          ....    0
 Multiplicity           Mult            ....    1
 Number of Electrons    NEL             ....   36
 Basis Dimension        Dim             ....  368

ORBITAL ENERGIES
----------------

  NO   OCC          E(Eh)            E(eV)
   0   2.0000     -11.260400      -306.4111
   1   2.0000     -11.259553      -306.3880
   2   2.0000     -11.258013      -306.3461
   3   2.0000     -11.258013      -306.3461
   4   2.0000     -11.257701      -306.3376
   5   2.0000      -1.280521       -34.8447
   6   2.0000      -0.948557       -25.8115
   7   2.0000      -0.948556       -25.8115
   8   2.0000      -0.774312       -21.0701
   9   2.0000      -0.731211       -19.8973
  10   2.0000      -0.653428       -17.7807
  11   2.0000      -0.653427       -17.7807
  12   2.0000      -0.541567       -14.7368
  13   2.0000      -0.518307       -14.1038
  14   2.0000      -0.518306       -14.1038
  15   2.0000      -0.443657       -12.0725
  16   2.0000      -0.443657       -12.0725
  17   2.0000      -0.367139        -9.9904
  18   0.0000       0.031339         0.8528
  19   0.0000       0.036527         0.9940
  20   0.0000       0.036527         0.9940
  21   0.0000       0.055424         1.5082
  22   0.0000       0.055424         1.5082

MULLIKEN ATOMIC CHARGES
-----------------------
   0 C :   -0.598413
   1 C :   -0.233723
   2 C :   -0.233723
   3 C :   -0.598418
   4 C :   -0.598418
   5 H :    0.377116
   6 H :    0.377116
   7 H :    0.377113
   8 H :    0.377118
   9 H :    0.377113
  10 H :    0.377118
Sum of atomic charges:    0.0000000

LOEWDIN ATOMIC CHARGES
----------------------
   0 C :    0.337980
   1 C :   -0.028534
   2 C :   -0.028534
   3 C :    0.337980
   4 C :    0.337980
   5 H :   -0.159479
   6 H :   -0.159479
   7 H :   -0.159479
   8 H :   -0.159479
   9 H :   -0.159479
  10 H :   -0.159479

  Mayer bond orders larger than 0.100000
B(  0-C ,  1-C ) :   0.9185 B(  0-C ,  2-C ) :   0.9185 B(  0-C ,  5-H ) :   0.8469
B(  0-C ,  6-H ) :   0.8469 B(  1-C ,  2-C ) :   0.6217 B(  1-C ,  3-C ) :   0.9185
B(  1-C ,  4-C ) :   0.9185 B(  2-C ,  3-C ) :   0.9185 B(  2-C ,  4-C ) :   0.9185
B(  3-C ,  7-H ) :   0.8469 B(  3-C ,  8-H ) :   0.8469 B(  4-C ,  9-H ) :   0.8469
B(  4-C , 10-H ) :   0.8469

MP2 TOTAL ENERGY:     -193.600843828 Eh
FINAL SINGLE POINT ENERGY      -193.600843827995

DIPOLE MOMENT
-------------
                                X             Y             Z
Electronic contribution:     -0.00000      -0.00000       0.00000
Nuclear contribution   :      0.00000       0.00000       0.00000
                        -----------------------------------------
Total Dipole Moment    :     -0.00000       0.00000       0.00000
                        -----------------------------------------
Magnitude (a.u.)       :      0.00000
Magnitude (Debye)      :      0.00000

Rotational constants in cm-1:     0.289426     0.289426     0.193805
Rotational constants in MHz :  8676.779829  8676.775015  5810.138479

                             ****ORCA TERMINATED NORMALLY****
TOTAL RUN TIME: 0 days 0 hours 1 minutes 45 seconds 485 msec
