                         Program Version 5.0.3 -  RELEASE  -
|  1> !ri-mp2 aug-cc-pvtz aug-cc-pvtz/c tightscf
|  2> %pal nprocs 16 end
|  3>
|  4> * xyz 0 1
|  5> C      1.979205   -0.084993   -0.208488
|  6> C     -1.523606   -0.931315   -0.078157
|  7> C     -0.762496    1.356133    0.045941
|  8> N      0.728676   -0.487073    0.418360
|  9> N     -0.413231   -0.017131   -0.292792
| 10> H      2.801931   -0.442661    0.411618
| 11> H      2.096531    0.998915   -0.340160
| 12> H      2.053124   -0.556251   -1.187265
| 13> H     -1.223290   -1.932786   -0.375989
| 14> H     -2.371774   -0.616432   -0.686760
| 15> H     -1.848711   -0.963839    0.974835
| 16> H     -1.044241    1.465794    1.107744
| 17> H     -1.603731    1.682831   -0.565341
| 18> H      0.077866    2.017471   -0.159362
| 19> H      0.695565   -0.162564    1.385928
| 20> *
| 21>
| 22>                          ****END OF INPUT****

CARTESIAN COORDINATES (ANGSTROEM)
---------------------------------
  C      1.979205   -0.084993   -0.208488
  C     -1.523606   -0.931315   -0.078157
  C     -0.762496    1.356133    0.045941
  N      0.728676   -0.487073    0.418360
  N     -0.413231   -0.017131   -0.292792
  H      2.801931   -0.442661    0.411618
  H      2.096531    0.998915   -0.340160
  H      2.053124   -0.556251   -1.187265
  H     -1.223290   -1.932786   -0.375989
  H     -2.371774   -0.616432   -0.686760
  H     -1.848711   -0.963839    0.974835
  H     -1.044241    1.465794    1.107744
  H     -1.603731    1.682831   -0.565341
  H      0.077866    2.017471   -0.159362
  H      0.695565   -0.162564    1.385928

 Total Charge           Charge          ....    0
 Multiplicity           Mult            ....    1
 Number of Electrons    NEL             ....   42
 Basis Dimension        Dim             ....  460

ORBITAL ENERGIES
----------------

  NO   OCC          E(Eh)            E(eV)
   0   2.0000     -15.572667      -423.7538
   1   2.0000     -15.566952      -423.5983
   2   2.0000     -11.243585      -305.9535
   3   2.0000     -11.238406      -305.8126
   4   2.0000     -11.236066      -305.7489
   5   2.0000      -1.288872       -35.0720
   6   2.0000      -1.096143       -29.8276
   7   2.0000      -0.953359       -25.9422
   8   2.0000      -0.902645       -24.5622
   9   2.0000      -0.817982       -22.2584
  10   2.0000      -0.674862       -18.3639
  11   2.0000      -0.641730       -17.4624
  12   2.0000      -0.629442       -17.1280
  13   2.0000      -0.591672       -16.1002
  14   2.0000      -0.555721       -15.1219
  15   2.0000      -0.544965       -14.8293
  16   2.0000      -0.535026       -14.5588
  17   2.0000      -0.512988       -13.9591
  18   2.0000      -0.503961       -13.7135
  19   2.0000      -0.379234       -10.3195
  20   2.0000      -0.366330        -9.9683
  21   0.0000       0.029707         0.8084
  22   0.0000       0.038886         1.0582
  23   0.0000       0.041040         1.1168
  24   0.0000       0.042593         1.1590
  25   0.0000       0.056213         1.5296

MULLIKEN ATOMIC CHARGES
-----------------------
   0 C :   -0.853012
   1 C :   -0.924115
   2 C :   -0.978541
   3 N :   -0.343343
   4 N :    0.009964
   5 H :    0.368815
   6 H :    0.322217
   7 H :    0.345964
   8 H :    0.353391
   9 H :    0.334041
  10 H :    0.316742
  11 H :    0.314647
  12 H :    0.310076
  13 H :    0.374827
  14 H :    0.048325
Sum of atomic charges:    0.0000000

LOEWDIN ATOMIC CHARGES
----------------------
   0 C :    0.450442
   1 C :    0.433219
   2 C :    0.439828
   3 N :    0.425136
   4 N :    0.120960
   5 H :   -0.177664
   6 H :   -0.180544
   7 H :   -0.175652
   8 H :   -0.175999
   9 H :   -0.176588
  10 H :   -0.160493
  11 H :   -0.157586
  12 H :   -0.170217
  13 H :   -0.184868
  14 H :   -0.309973

  Mayer bond orders larger than 0.100000
B(  0-C ,  3-N ) :   0.8696 B(  0-C ,  5-H ) :   0.8759 B(  0-C ,  6-H ) :   0.9101
B(  0-C ,  7-H ) :   0.8916 B(  1-C ,  4-N ) :   0.8883 B(  1-C ,  8-H ) :   0.9092
B(  1-C ,  9-H ) :   0.9005 B(  1-C , 10-H ) :   0.9092 B(  2-C ,  4-N ) :   0.9628
B(  2-C , 11-H ) :   0.9082 B(  2-C , 12-H ) :   0.9406 B(  2-C , 13-H ) :   0.8642
B(  3-N ,  4-N ) :   0.6617 B(  3-N , 14-H ) :   0.9948

MP2 TOTAL ENERGY:     -229.329037378 Eh
FINAL SINGLE POINT ENERGY      -229.329037378269

DIPOLE MOMENT
-------------
                                X             Y             Z
Electronic contribution:      0.32449      -1.13350      -0.27975
Nuclear contribution   :     -0.38827       1.58288       0.60227
                        -----------------------------------------
Total Dipole Moment    :     -0.06378       0.44938       0.32252
                        -----------------------------------------
Magnitude (a.u.)       :      0.55680
Magnitude (Debye)      :      1.41528

Rotational constants in cm-1:     0.268911     0.125587     0.096439
Rotational constants in MHz :  8061.734465  3764.991662  2891.168018

                             ****ORCA TERMINATED NORMALLY****
TOTAL RUN TIME: 0 days 0 hours 3 minutes 17 seconds 469 msec
