                         Program Version 5.0.3 -  RELEASE  -
|  1> !ri-mp2 aug-cc-pvtz aug-cc-pvtz/c tightscf
|  2> %pal nprocs 16 end
|  3>
|  4> * xyz 0 1
|  5> S     -0.919300   -0.968615    0.000000
|  6> N     -2.596878    1.348222    0.000000
|  7> C      3.166496    0.507266    0.000001
|  8> C      1.788843    0.050261    0.000001
|  9> C      0.640017   -0.308782    0.000000
| 10> C     -1.880155    0.442903    0.000000
| 11> H      3.698733    0.156257    0.885244
| 12> H      3.198185    1.598130   -0.000150
| 13> H      3.698808    0.156014   -0.885101
| 14> *
| 15>
| 16>                          ****END OF INPUT****

CARTESIAN COORDINATES (ANGSTROEM)
---------------------------------
  S     -0.919300   -0.968615    0.000000
  N     -2.596878    1.348222    0.000000
  C      3.166496    0.507266    0.000001
  C      1.788843    0.050261    0.000001
  C      0.640017   -0.308782    0.000000
  C     -1.880155    0.442903    0.000000
  H      3.698733    0.156257    0.885244
  H      3.198185    1.598130   -0.000150
  H      3.698808    0.156014   -0.885101

 Total Charge           Charge          ....    0
 Multiplicity           Mult            ....    1
 Number of Electrons    NEL             ....   50
 Basis Dimension        Dim             ....  349

ORBITAL ENERGIES
----------------

  NO   OCC          E(Eh)            E(eV)
   0   2.0000     -92.052890     -2504.8865
   1   2.0000     -15.591174      -424.2574
   2   2.0000     -11.304659      -307.6154
   3   2.0000     -11.274108      -306.7841
   4   2.0000     -11.270731      -306.6922
   5   2.0000     -11.269942      -306.6707
   6   2.0000      -9.050443      -246.2751
   7   2.0000      -6.731985      -183.1866
   8   2.0000      -6.730649      -183.1503
   9   2.0000      -6.729508      -183.1192
  10   2.0000      -1.238589       -33.7037
  11   2.0000      -1.124941       -30.6112
  12   2.0000      -1.064784       -28.9742
  13   2.0000      -0.971645       -26.4398
  14   2.0000      -0.759442       -20.6655
  15   2.0000      -0.661168       -17.9913
  16   2.0000      -0.616130       -16.7657
  17   2.0000      -0.615869       -16.7587
  18   2.0000      -0.603124       -16.4118
  19   2.0000      -0.567340       -15.4381
  20   2.0000      -0.549007       -14.9392
  21   2.0000      -0.480684       -13.0801
  22   2.0000      -0.464974       -12.6526
  23   2.0000      -0.416589       -11.3360
  24   2.0000      -0.362662        -9.8685
  25   0.0000       0.022211         0.6044
  26   0.0000       0.041242         1.1223
  27   0.0000       0.042519         1.1570
  28   0.0000       0.048387         1.3167
  29   0.0000       0.067960         1.8493

MULLIKEN ATOMIC CHARGES
-----------------------
   0 S :   -0.214978
   1 N :   -0.391368
   2 C :   -1.216168
   3 C :    0.265676
   4 C :    0.469388
   5 C :    0.167814
   6 H :    0.307868
   7 H :    0.303900
   8 H :    0.307868
Sum of atomic charges:   -0.0000000

LOEWDIN ATOMIC CHARGES
----------------------
   0 S :    1.081125
   1 N :    0.143798
   2 C :    0.517323
   3 C :   -0.021154
   4 C :   -0.443255
   5 C :   -0.733899
   6 H :   -0.182008
   7 H :   -0.179921
   8 H :   -0.182008

  Mayer bond orders larger than 0.100000
B(  0-S ,  3-C ) :  -0.2969 B(  0-S ,  4-C ) :   1.0618 B(  0-S ,  5-C ) :   1.1459
B(  1-N ,  5-C ) :   2.5444 B(  2-C ,  3-C ) :   1.5392 B(  2-C ,  4-C ) :  -0.3153
B(  2-C ,  6-H ) :   0.9323 B(  2-C ,  7-H ) :   0.9418 B(  2-C ,  8-H ) :   0.9323
B(  3-C ,  4-C ) :   1.7175

MP2 TOTAL ENERGY:     -606.190902593 Eh
FINAL SINGLE POINT ENERGY      -606.190902593305

DIPOLE MOMENT
-------------
                                X             Y             Z
Electronic contribution:     -8.56997      -2.55932       0.00000
Nuclear contribution   :     10.25593       1.88339      -0.00001
                        -----------------------------------------
Total Dipole Moment    :      1.68596      -0.67593      -0.00000
                        -----------------------------------------
Magnitude (a.u.)       :      1.81641
Magnitude (Debye)      :      4.61695

Rotational constants in cm-1:     0.254684     0.046026     0.039268
Rotational constants in MHz :  7635.224686  1379.835798  1177.239678

                             ****ORCA TERMINATED NORMALLY****
TOTAL RUN TIME: 0 days 0 hours 1 minutes 36 seconds 849 msec
