                         Program Version 5.0.3 -  RELEASE  -
|  1> !ri-mp2 aug-cc-pvtz aug-cc-pvtz/c tightscf
|  2> %pal nprocs 16 end
|  3>
|  4> * xyz 0 1
|  5> C      1.064770    0.234648        0.000000
|  6> N      0.637569   -1.003032        0.000000
|  7> N     -0.722757   -0.922964        0.000000
|  8> N     -1.117376    0.298568        0.000000
|  9> N      0.000000    1.052457        0.000000
| 10> H      2.089591    0.560077        0.000000
| 11> H     -0.060257    2.056832        0.000000
| 12> *
| 13>
| 14>                          ****END OF INPUT****

CARTESIAN COORDINATES (ANGSTROEM)
---------------------------------
  C      1.064770    0.234648    0.000000
  N      0.637569   -1.003032    0.000000
  N     -0.722757   -0.922964    0.000000
  N     -1.117376    0.298568    0.000000
  N      0.000000    1.052457    0.000000
  H      2.089591    0.560077    0.000000
  H     -0.060257    2.056832    0.000000

 Total Charge           Charge          ....    0
 Multiplicity           Mult            ....    1
 Number of Electrons    NEL             ....   36
 Basis Dimension        Dim             ....  276

ORBITAL ENERGIES
----------------

  NO   OCC          E(Eh)            E(eV)
   0   2.0000     -15.682980      -426.7556
   1   2.0000     -15.665961      -426.2925
   2   2.0000     -15.649948      -425.8567
   3   2.0000     -15.605505      -424.6474
   4   2.0000     -11.338769      -308.5436
   5   2.0000      -1.496797       -40.7299
   6   2.0000      -1.256726       -34.1972
   7   2.0000      -1.198619       -32.6161
   8   2.0000      -0.909129       -24.7387
   9   2.0000      -0.890635       -24.2354
  10   2.0000      -0.801587       -21.8123
  11   2.0000      -0.679403       -18.4875
  12   2.0000      -0.678740       -18.4695
  13   2.0000      -0.571999       -15.5649
  14   2.0000      -0.480145       -13.0654
  15   2.0000      -0.475006       -12.9256
  16   2.0000      -0.457455       -12.4480
  17   2.0000      -0.421943       -11.4816
  18   0.0000       0.014794         0.4026
  19   0.0000       0.034606         0.9417
  20   0.0000       0.067917         1.8481
  21   0.0000       0.071978         1.9586
  22   0.0000       0.093741         2.5508

MULLIKEN ATOMIC CHARGES
-----------------------
   0 C :   -0.261124
   1 N :   -0.287661
   2 N :   -0.149162
   3 N :   -0.257617
   4 N :    0.157960
   5 H :    0.624644
   6 H :    0.172961
Sum of atomic charges:   -0.0000000

LOEWDIN ATOMIC CHARGES
----------------------
   0 C :   -0.119920
   1 N :    0.162038
   2 N :   -0.018812
   3 N :    0.099195
   4 N :    0.316839
   5 H :   -0.178848
   6 H :   -0.260493

  Mayer bond orders larger than 0.100000
B(  0-C ,  1-N ) :   1.4306 B(  0-C ,  4-N ) :   1.2392 B(  0-C ,  5-H ) :   0.5471
B(  1-N ,  2-N ) :   0.7239 B(  1-N ,  3-N ) :   0.1255 B(  2-N ,  3-N ) :   1.1151
B(  2-N ,  4-N ) :   0.1230 B(  3-N ,  4-N ) :   0.8154 B(  4-N ,  6-H ) :   1.0467

MP2 TOTAL ENERGY:     -257.825224790 Eh
FINAL SINGLE POINT ENERGY      -257.825224789725

DIPOLE MOMENT
-------------
                                X             Y             Z
Electronic contribution:     -0.91693      -0.60122      -0.00000
Nuclear contribution   :      1.95171       2.52234       0.00000
                        -----------------------------------------
Total Dipole Moment    :      1.03479       1.92112      -0.00000
                        -----------------------------------------
Magnitude (a.u.)       :      2.18208
Magnitude (Debye)      :      5.54642

Rotational constants in cm-1:     0.352715     0.346845     0.174877
Rotational constants in MHz : 10574.117452 10398.138191  5242.694748

                             ****ORCA TERMINATED NORMALLY****
TOTAL RUN TIME: 0 days 0 hours 1 minutes 12 seconds 719 msec
