                         Program Version 5.0.3 -  RELEASE  -
|  1> !ri-mp2 aug-cc-pvtz aug-cc-pvtz/c tightscf
|  2> %pal nprocs 16 end
|  3>
|  4> * xyz 0 1
|  5> C      0.416411    0.100268    0.386308
|  6> C      1.263415   -1.037984   -0.112361
|  7> H      0.427859    0.216469    1.466770
|  8> F      0.842920    1.284656   -0.164507
|  9> Cl    -1.324878   -0.129863   -0.054942
| 10> H      1.189287   -1.116293   -1.195399
| 11> H      2.302538   -0.853754    0.163176
| 12> H      0.938014   -1.974348    0.336348
| 13> *
| 14>
| 15>                          ****END OF INPUT****

CARTESIAN COORDINATES (ANGSTROEM)
---------------------------------
  C      0.416411    0.100268    0.386308
  C      1.263415   -1.037984   -0.112361
  H      0.427859    0.216469    1.466770
  F      0.842920    1.284656   -0.164507
  Cl    -1.324878   -0.129863   -0.054942
  H      1.189287   -1.116293   -1.195399
  H      2.302538   -0.853754    0.163176
  H      0.938014   -1.974348    0.336348

 Total Charge           Charge          ....    0
 Multiplicity           Mult            ....    1
 Number of Electrons    NEL             ....   42
 Basis Dimension        Dim             ....  280

ORBITAL ENERGIES
----------------

  NO   OCC          E(Eh)            E(eV)
   0   2.0000    -104.837223     -2852.7659
   1   2.0000     -26.309431      -715.9160
   2   2.0000     -11.392439      -310.0040
   3   2.0000     -11.247807      -306.0684
   4   2.0000     -10.561674      -287.3978
   5   2.0000      -8.028399      -218.4638
   6   2.0000      -8.026670      -218.4168
   7   2.0000      -8.026585      -218.4145
   8   2.0000      -1.624587       -44.2073
   9   2.0000      -1.142774       -31.0965
  10   2.0000      -1.023833       -27.8599
  11   2.0000      -0.869304       -23.6550
  12   2.0000      -0.742864       -20.2143
  13   2.0000      -0.704751       -19.1773
  14   2.0000      -0.687391       -18.7049
  15   2.0000      -0.605442       -16.4749
  16   2.0000      -0.574554       -15.6344
  17   2.0000      -0.554853       -15.0983
  18   2.0000      -0.513025       -13.9601
  19   2.0000      -0.460882       -12.5412
  20   2.0000      -0.448956       -12.2167
  21   0.0000       0.028164         0.7664
  22   0.0000       0.038969         1.0604
  23   0.0000       0.045188         1.2296
  24   0.0000       0.052346         1.4244
  25   0.0000       0.079477         2.1627

MULLIKEN ATOMIC CHARGES
-----------------------
   0 C :    0.405415
   1 C :   -0.925085
   2 H :    0.319676
   3 F :   -0.471722
   4 Cl:   -0.300461
   5 H :    0.323382
   6 H :    0.298589
   7 H :    0.350206
Sum of atomic charges:   -0.0000000

LOEWDIN ATOMIC CHARGES
----------------------
   0 C :   -0.962640
   1 C :    0.482735
   2 H :   -0.254779
   3 F :    0.423516
   4 Cl:    0.866568
   5 H :   -0.187988
   6 H :   -0.178439
   7 H :   -0.188973

  Mayer bond orders larger than 0.100000
B(  0-C ,  1-C ) :   0.9442 B(  0-C ,  2-H ) :   0.9126 B(  0-C ,  3-F ) :   0.6254
B(  0-C ,  4-Cl) :   0.9058 B(  1-C ,  5-H ) :   0.9067 B(  1-C ,  6-H ) :   0.9104
B(  1-C ,  7-H ) :   0.8883

MP2 TOTAL ENERGY:     -637.897580469 Eh
FINAL SINGLE POINT ENERGY      -637.897580468616

DIPOLE MOMENT
-------------
                                X             Y             Z
Electronic contribution:     -5.03971       3.95104      -0.54477
Nuclear contribution   :      5.66048      -4.59942       0.96749
                        -----------------------------------------
Total Dipole Moment    :      0.62077      -0.64838       0.42272
                        -----------------------------------------
Magnitude (a.u.)       :      0.99220
Magnitude (Debye)      :      2.52197

Rotational constants in cm-1:     0.300014     0.151186     0.108668
Rotational constants in MHz :  8994.195728  4532.443628  3257.774980

                             ****ORCA TERMINATED NORMALLY****
TOTAL RUN TIME: 0 days 0 hours 1 minutes 15 seconds 450 msec
