                         Program Version 5.0.3 -  RELEASE  -
|  1> !ri-mp2 aug-cc-pvtz aug-cc-pvtz/c tightscf
|  2> %pal nprocs 16 end
|  3>
|  4> * xyz 0 1
|  5> C     -1.854995    0.059212    0.000286
|  6> C     -0.682965    0.318398    0.000121
|  7> C     -3.272404   -0.269344   -0.000016
|  8> C      2.908916   -0.231355   -0.000182
|  9> C      0.731823    0.658966    0.000000
| 10> O      1.525377   -0.520062    0.000268
| 11> H     -3.785213    0.196056   -0.843401
| 12> H     -3.757047    0.068458    0.917494
| 13> H     -3.416982   -1.348358   -0.076266
| 14> H      3.201339    0.338694    0.890135
| 15> H      3.200880    0.338009   -0.891089
| 16> H      3.434078   -1.183772    0.000063
| 17> H      0.968850    1.268307    0.883485
| 18> H      0.968823    1.267833   -0.883814
| 19> *
| 20>
| 21>                          ****END OF INPUT****

CARTESIAN COORDINATES (ANGSTROEM)
---------------------------------
  C     -1.854995    0.059212    0.000286
  C     -0.682965    0.318398    0.000121
  C     -3.272404   -0.269344   -0.000016
  C      2.908916   -0.231355   -0.000182
  C      0.731823    0.658966    0.000000
  O      1.525377   -0.520062    0.000268
  H     -3.785213    0.196056   -0.843401
  H     -3.757047    0.068458    0.917494
  H     -3.416982   -1.348358   -0.076266
  H      3.201339    0.338694    0.890135
  H      3.200880    0.338009   -0.891089
  H      3.434078   -1.183772    0.000063
  H      0.968850    1.268307    0.883485
  H      0.968823    1.267833   -0.883814

 Total Charge           Charge          ....    0
 Multiplicity           Mult            ....    1
 Number of Electrons    NEL             ....   46
 Basis Dimension        Dim             ....  460

ORBITAL ENERGIES
----------------

  NO   OCC          E(Eh)            E(eV)
   0   2.0000     -20.562521      -559.5346
   1   2.0000     -11.300980      -307.5153
   2   2.0000     -11.273359      -306.7637
   3   2.0000     -11.244662      -305.9828
   4   2.0000     -11.224612      -305.4372
   5   2.0000     -11.214777      -305.1696
   6   2.0000      -1.378299       -37.5054
   7   2.0000      -1.065241       -28.9867
   8   2.0000      -1.005564       -27.3628
   9   2.0000      -0.935245       -25.4493
  10   2.0000      -0.885048       -24.0834
  11   2.0000      -0.692554       -18.8453
  12   2.0000      -0.671965       -18.2851
  13   2.0000      -0.653403       -17.7800
  14   2.0000      -0.625886       -17.0312
  15   2.0000      -0.588419       -16.0117
  16   2.0000      -0.585505       -15.9324
  17   2.0000      -0.566992       -15.4286
  18   2.0000      -0.559729       -15.2310
  19   2.0000      -0.492016       -13.3884
  20   2.0000      -0.436114       -11.8673
  21   2.0000      -0.376312       -10.2400
  22   2.0000      -0.366367        -9.9693
  23   0.0000       0.029499         0.8027
  24   0.0000       0.031449         0.8558
  25   0.0000       0.042125         1.1463
  26   0.0000       0.042655         1.1607
  27   0.0000       0.052882         1.4390

MULLIKEN ATOMIC CHARGES
-----------------------
   0 C :   -0.493505
   1 C :    0.608606
   2 C :   -0.892307
   3 C :   -0.828488
   4 C :   -0.235249
   5 O :   -0.555896
   6 H :    0.285388
   7 H :    0.284215
   8 H :    0.267725
   9 H :    0.327347
  10 H :    0.327166
  11 H :    0.353748
  12 H :    0.275942
  13 H :    0.275309
Sum of atomic charges:   -0.0000000

LOEWDIN ATOMIC CHARGES
----------------------
   0 C :    0.080519
   1 C :    0.085765
   2 C :    0.510434
   3 C :    0.311328
   4 C :   -0.074343
   5 O :    0.533266
   6 H :   -0.186724
   7 H :   -0.186669
   8 H :   -0.185195
   9 H :   -0.179501
  10 H :   -0.179506
  11 H :   -0.187940
  12 H :   -0.170709
  13 H :   -0.170724

  Mayer bond orders larger than 0.100000
B(  0-C ,  1-C ) :   1.9828 B(  0-C ,  2-C ) :   1.0389 B(  0-C ,  4-C ) :   0.3125
B(  1-C ,  2-C ) :  -0.1997 B(  1-C ,  4-C ) :   0.7090 B(  1-C ,  5-O ) :  -0.1240
B(  2-C ,  4-C ) :   0.2641 B(  2-C ,  6-H ) :   0.9535 B(  2-C ,  7-H ) :   0.9542
B(  2-C ,  8-H ) :   0.9654 B(  3-C ,  5-O ) :   0.9250 B(  3-C ,  9-H ) :   0.8757
B(  3-C , 10-H ) :   0.8759 B(  3-C , 11-H ) :   0.9364 B(  4-C ,  5-O ) :   1.0308
B(  4-C , 12-H ) :   0.9412 B(  4-C , 13-H ) :   0.9415

MP2 TOTAL ENERGY:     -269.955033543 Eh
FINAL SINGLE POINT ENERGY      -269.955033542996

DIPOLE MOMENT
-------------
                                X             Y             Z
Electronic contribution:     -0.78792      -0.50264       0.00243
Nuclear contribution   :      0.86144       0.96235      -0.00348
                        -----------------------------------------
Total Dipole Moment    :      0.07352       0.45971      -0.00105
                        -----------------------------------------
Magnitude (a.u.)       :      0.46556
Magnitude (Debye)      :      1.18335

Rotational constants in cm-1:     0.709294     0.042091     0.040642
Rotational constants in MHz : 21264.090812  1261.850887  1218.416026

                             ****ORCA TERMINATED NORMALLY****
TOTAL RUN TIME: 0 days 0 hours 2 minutes 38 seconds 99 msec
