                         Program Version 5.0.3 -  RELEASE  -
|  1> !ri-mp2 aug-cc-pvtz aug-cc-pvtz/c tightscf
|  2> %pal nprocs 16 end
|  3>
|  4> * xyz 0 1
|  5> C      0.743618   -1.988841        0.000000
|  6> N     -0.536382   -1.791562        0.000000
|  7> C     -0.865081   -0.470779        0.000000
|  8> C      0.000000    0.626262        0.000000
|  9> C     -0.849694    1.757502        0.000000
| 10> N     -2.119175    1.395232        0.000000
| 11> N     -2.113501    0.036902        0.000000
| 12> N      1.682928   -1.003258        0.000000
| 13> C      1.418760    0.396955        0.000000
| 14> H      1.125544   -3.002395        0.000000
| 15> O      2.336731    1.192002        0.000000
| 16> H     -0.582351    2.800421        0.000000
| 17> H      2.661588   -1.251117        0.000000
| 18> H     -2.981334   -0.470717        0.000000
| 19> *
| 20>
| 21>                          ****END OF INPUT****

CARTESIAN COORDINATES (ANGSTROEM)
---------------------------------
  C      0.743618   -1.988841    0.000000
  N     -0.536382   -1.791562    0.000000
  C     -0.865081   -0.470779    0.000000
  C      0.000000    0.626262    0.000000
  C     -0.849694    1.757502    0.000000
  N     -2.119175    1.395232    0.000000
  N     -2.113501    0.036902    0.000000
  N      1.682928   -1.003258    0.000000
  C      1.418760    0.396955    0.000000
  H      1.125544   -3.002395    0.000000
  O      2.336731    1.192002    0.000000
  H     -0.582351    2.800421    0.000000
  H      2.661588   -1.251117    0.000000
  H     -2.981334   -0.470717    0.000000

 Total Charge           Charge          ....    0
 Multiplicity           Mult            ....    1
 Number of Electrons    NEL             ....   70
 Basis Dimension        Dim             ....  552

ORBITAL ENERGIES
----------------

  NO   OCC          E(Eh)            E(eV)
   0   2.0000     -20.538291      -558.8753
   1   2.0000     -15.651380      -425.8957
   2   2.0000     -15.643928      -425.6929
   3   2.0000     -15.606729      -424.6807
   4   2.0000     -15.590179      -424.2303
   5   2.0000     -11.381150      -309.6968
   6   2.0000     -11.371000      -309.4206
   7   2.0000     -11.338154      -308.5269
   8   2.0000     -11.279753      -306.9377
   9   2.0000     -11.241843      -305.9061
  10   2.0000      -1.411306       -38.4036
  11   2.0000      -1.394129       -37.9362
  12   2.0000      -1.331737       -36.2384
  13   2.0000      -1.230850       -33.4931
  14   2.0000      -1.118841       -30.4452
  15   2.0000      -1.088276       -29.6135
  16   2.0000      -0.928371       -25.2622
  17   2.0000      -0.911960       -24.8157
  18   2.0000      -0.838046       -22.8044
  19   2.0000      -0.793353       -21.5882
  20   2.0000      -0.756063       -20.5735
  21   2.0000      -0.725601       -19.7446
  22   2.0000      -0.674420       -18.3519
  23   2.0000      -0.661179       -17.9916
  24   2.0000      -0.632932       -17.2229
  25   2.0000      -0.626483       -17.0475
  26   2.0000      -0.613262       -16.6877
  27   2.0000      -0.604358       -16.4454
  28   2.0000      -0.537077       -14.6146
  29   2.0000      -0.488403       -13.2901
  30   2.0000      -0.466798       -12.7022
  31   2.0000      -0.450404       -12.2561
  32   2.0000      -0.445096       -12.1117
  33   2.0000      -0.389580       -10.6010
  34   2.0000      -0.339264        -9.2318
  35   0.0000       0.017653         0.4804
  36   0.0000       0.032808         0.8928
  37   0.0000       0.039598         1.0775
  38   0.0000       0.047098         1.2816
  39   0.0000       0.054301         1.4776

MULLIKEN ATOMIC CHARGES
-----------------------
   0 C :   -0.593409
   1 N :   -0.439031
   2 C :   -0.095245
   3 C :    1.484879
   4 C :   -0.691976
   5 N :   -0.787099
   6 N :    0.288752
   7 N :    0.100281
   8 C :    0.148560
   9 H :    0.667335
  10 O :   -0.889878
  11 H :    0.570553
  12 H :    0.130134
  13 H :    0.106144
Sum of atomic charges:   -0.0000000

LOEWDIN ATOMIC CHARGES
----------------------
   0 C :   -0.043024
   1 N :    0.407217
   2 C :   -0.445089
   3 C :   -0.130340
   4 C :    0.040227
   5 N :    0.312093
   6 N :    0.374775
   7 N :    0.562972
   8 C :   -0.648111
   9 H :   -0.159269
  10 O :    0.431110
  11 H :   -0.180794
  12 H :   -0.270148
  13 H :   -0.251619

  Mayer bond orders larger than 0.100000
B(  0-C ,  1-N ) :   1.6363 B(  0-C ,  2-C ) :  -0.3112 B(  0-C ,  3-C ) :   0.1428
B(  0-C ,  7-N ) :   1.0961 B(  0-C ,  8-C ) :  -0.2359 B(  0-C ,  9-H ) :   0.4374
B(  1-N ,  2-C ) :   0.2819 B(  1-N ,  3-C ) :   0.1362 B(  1-N ,  6-N ) :  -0.1606
B(  2-C ,  3-C ) :   0.6799 B(  2-C ,  4-C ) :   0.4179 B(  2-C ,  5-N ) :   0.1149
B(  2-C ,  6-N ) :   1.2425 B(  2-C ,  8-C ) :   0.4483 B(  3-C ,  4-C ) :   0.2112
B(  3-C ,  5-N ) :  -0.1604 B(  3-C ,  7-N ) :  -0.1720 B(  3-C , 10-O ) :   0.1695
B(  4-C ,  5-N ) :   1.4592 B(  4-C ,  6-N ) :  -0.1556 B(  4-C ,  8-C ) :  -0.1457
B(  4-C , 11-H ) :   0.6824 B(  5-N ,  6-N ) :   0.2977 B(  6-N , 13-H ) :   1.1226
B(  7-N ,  8-C ) :   0.9270 B(  7-N , 12-H ) :   1.0626 B(  8-C , 10-O ) :   1.0298

MP2 TOTAL ENERGY:     -486.327339247 Eh
FINAL SINGLE POINT ENERGY      -486.327339247276

DIPOLE MOMENT
-------------
                                X             Y             Z
Electronic contribution:     -0.12926       0.15559      -0.00000
Nuclear contribution   :      0.23390      -1.84768       0.00000
                        -----------------------------------------
Total Dipole Moment    :      0.10463      -1.69209      -0.00000
                        -----------------------------------------
Magnitude (a.u.)       :      1.69532
Magnitude (Debye)      :      4.30916

Rotational constants in cm-1:     0.080926     0.050151     0.030963
Rotational constants in MHz :  2426.102444  1503.495006   928.245948

                             ****ORCA TERMINATED NORMALLY****
TOTAL RUN TIME: 0 days 0 hours 7 minutes 24 seconds 501 msec
