                         Program Version 5.0.3 -  RELEASE  -
|  1> !ri-mp2 aug-cc-pvtz aug-cc-pvtz/c tightscf
|  2> %pal nprocs 16 end
|  3>
|  4> * xyz 0 1
|  5> C      0.662598   -0.995432        0.000000
|  6> C     -0.743268   -0.890370        0.000000
|  7> C      1.107645    0.307032        0.000000
|  8> N     -1.142688    0.375589        0.000000
|  9> N      0.000000    1.085189        0.000000
| 10> H      1.262650   -1.887482        0.000000
| 11> H     -1.475618   -1.680369        0.000000
| 12> H      2.098322    0.726839        0.000000
| 13> H     -0.048386    2.088195        0.000000
| 14> *
| 15>
| 16>                          ****END OF INPUT****

CARTESIAN COORDINATES (ANGSTROEM)
---------------------------------
  C      0.662598   -0.995432    0.000000
  C     -0.743268   -0.890370    0.000000
  C      1.107645    0.307032    0.000000
  N     -1.142688    0.375589    0.000000
  N      0.000000    1.085189    0.000000
  H      1.262650   -1.887482    0.000000
  H     -1.475618   -1.680369    0.000000
  H      2.098322    0.726839    0.000000
  H     -0.048386    2.088195    0.000000

 Total Charge           Charge          ....    0
 Multiplicity           Mult            ....    1
 Number of Electrons    NEL             ....   36
 Basis Dimension        Dim             ....  322

ORBITAL ENERGIES
----------------

  NO   OCC          E(Eh)            E(eV)
   0   2.0000     -15.640594      -425.6022
   1   2.0000     -15.587541      -424.1585
   2   2.0000     -11.278732      -306.9099
   3   2.0000     -11.252795      -306.2041
   4   2.0000     -11.222192      -305.3714
   5   2.0000      -1.376860       -37.4663
   6   2.0000      -1.098998       -29.9052
   7   2.0000      -1.053145       -28.6575
   8   2.0000      -0.826076       -22.4787
   9   2.0000      -0.802530       -21.8380
  10   2.0000      -0.744753       -20.2658
  11   2.0000      -0.612529       -16.6678
  12   2.0000      -0.608888       -16.5687
  13   2.0000      -0.593740       -16.1565
  14   2.0000      -0.565049       -15.3758
  15   2.0000      -0.459981       -12.5167
  16   2.0000      -0.366574        -9.9750
  17   2.0000      -0.347730        -9.4622
  18   0.0000       0.024855         0.6764
  19   0.0000       0.035320         0.9611
  20   0.0000       0.040030         1.0893
  21   0.0000       0.052795         1.4366
  22   0.0000       0.084632         2.3029

MULLIKEN ATOMIC CHARGES
-----------------------
   0 C :   -0.049579
   1 C :   -0.475177
   2 C :   -0.852919
   3 N :   -0.681311
   4 N :    0.240770
   5 H :    0.452845
   6 H :    0.619558
   7 H :    0.601736
   8 H :    0.144076
Sum of atomic charges:   -0.0000000

LOEWDIN ATOMIC CHARGES
----------------------
   0 C :    0.177605
   1 C :   -0.028751
   2 C :    0.105394
   3 N :    0.287351
   4 N :    0.307599
   5 H :   -0.206399
   6 H :   -0.203402
   7 H :   -0.172836
   8 H :   -0.266561

  Mayer bond orders larger than 0.100000
B(  0-C ,  1-C ) :   0.9672 B(  0-C ,  2-C ) :   1.0647 B(  0-C ,  4-N ) :  -0.1668
B(  0-C ,  5-H ) :   0.8228 B(  1-C ,  2-C ) :   0.1723 B(  1-C ,  3-N ) :   1.5247
B(  1-C ,  6-H ) :   0.5798 B(  2-C ,  4-N ) :   1.2576 B(  2-C ,  7-H ) :   0.6009
B(  3-N ,  4-N ) :   0.4354 B(  4-N ,  8-H ) :   1.0890

MP2 TOTAL ENERGY:     -225.777300328 Eh
FINAL SINGLE POINT ENERGY      -225.777300328141

DIPOLE MOMENT
-------------
                                X             Y             Z
Electronic contribution:     -0.91541       1.01525      -0.00000
Nuclear contribution   :      1.81767      -0.73912       0.00000
                        -----------------------------------------
Total Dipole Moment    :      0.90226       0.27613      -0.00000
                        -----------------------------------------
Magnitude (a.u.)       :      0.94356
Magnitude (Debye)      :      2.39835

Rotational constants in cm-1:     0.322655     0.316485     0.159770
Rotational constants in MHz :  9672.958928  9487.967290  4789.785048

                             ****ORCA TERMINATED NORMALLY****
TOTAL RUN TIME: 0 days 0 hours 1 minutes 34 seconds 278 msec
