                         Program Version 5.0.3 -  RELEASE  -
|  1> !ri-mp2 aug-cc-pvtz aug-cc-pvtz/c tightscf
|  2> %pal nprocs 16 end
|  3>
|  4> * xyz 0 1
|  5> C    -0.237982    0.743614    0.000000
|  6> C     0.237982   -0.743614    0.000000
|  7> Cl   -2.016512    0.831072    0.000000
|  8> Cl    2.016512   -0.831072    0.000000
|  9> F     0.237982    1.361871    1.086622
| 10> F     0.237982    1.361871   -1.086622
| 11> F    -0.237982   -1.361871    1.086622
| 12> F    -0.237982   -1.361871   -1.086622
| 13> *
| 14>
| 15>                          ****END OF INPUT****

CARTESIAN COORDINATES (ANGSTROEM)
---------------------------------
  C     -0.237982    0.743614    0.000000
  C      0.237982   -0.743614    0.000000
  Cl    -2.016512    0.831072    0.000000
  Cl     2.016512   -0.831072    0.000000
  F      0.237982    1.361871    1.086622
  F      0.237982    1.361871   -1.086622
  F     -0.237982   -1.361871    1.086622
  F     -0.237982   -1.361871   -1.086622

 Total Charge           Charge          ....    0
 Multiplicity           Mult            ....    1
 Number of Electrons    NEL             ....   82
 Basis Dimension        Dim             ....  376

ORBITAL ENERGIES
----------------

  NO   OCC          E(Eh)            E(eV)
   0   2.0000    -104.885368     -2854.0760
   1   2.0000    -104.885368     -2854.0760
   2   2.0000     -26.373008      -717.6460
   3   2.0000     -26.373005      -717.6460
   4   2.0000     -26.372986      -717.6454
   5   2.0000     -26.372986      -717.6454
   6   2.0000     -11.529903      -313.7446
   7   2.0000     -11.529365      -313.7300
   8   2.0000     -10.609667      -288.7037
   9   2.0000     -10.609665      -288.7037
  10   2.0000      -8.076469      -219.7719
  11   2.0000      -8.076469      -219.7719
  12   2.0000      -8.074315      -219.7133
  13   2.0000      -8.074314      -219.7133
  14   2.0000      -8.074305      -219.7130
  15   2.0000      -8.074305      -219.7130
  16   2.0000      -1.742619       -47.4191
  17   2.0000      -1.725674       -46.9580
  18   2.0000      -1.671706       -45.4894
  19   2.0000      -1.662248       -45.2321
  20   2.0000      -1.196479       -32.5579
  21   2.0000      -1.176967       -32.0269
  22   2.0000      -1.031964       -28.0812
  23   2.0000      -0.933793       -25.4098
  24   2.0000      -0.866445       -23.5772
  25   2.0000      -0.846954       -23.0468
  26   2.0000      -0.810637       -22.0586
  27   2.0000      -0.807923       -21.9847
  28   2.0000      -0.790553       -21.5120
  29   2.0000      -0.748976       -20.3807
  30   2.0000      -0.726430       -19.7672
  31   2.0000      -0.724646       -19.7186
  32   2.0000      -0.695853       -18.9351
  33   2.0000      -0.682878       -18.5821
  34   2.0000      -0.659569       -17.9478
  35   2.0000      -0.621317       -16.9069
  36   2.0000      -0.552780       -15.0419
  37   2.0000      -0.517354       -14.0779
  38   2.0000      -0.507983       -13.8229
  39   2.0000      -0.503205       -13.6929
  40   2.0000      -0.491137       -13.3645
  41   0.0000       0.055352         1.5062
  42   0.0000       0.059138         1.6092
  43   0.0000       0.066031         1.7968
  44   0.0000       0.083619         2.2754
  45   0.0000       0.085715         2.3324

MULLIKEN ATOMIC CHARGES
-----------------------
   0 C :    0.995602
   1 C :    0.995602
   2 Cl:   -0.222841
   3 Cl:   -0.222841
   4 F :   -0.386381
   5 F :   -0.386381
   6 F :   -0.386381
   7 F :   -0.386381
Sum of atomic charges:   -0.0000000

LOEWDIN ATOMIC CHARGES
----------------------
   0 C :   -1.834284
   1 C :   -1.834284
   2 Cl:    0.936262
   3 Cl:    0.936262
   4 F :    0.449011
   5 F :    0.449011
   6 F :    0.449011
   7 F :    0.449011

  Mayer bond orders larger than 0.100000
B(  0-C ,  1-C ) :   0.9771 B(  0-C ,  2-Cl) :   0.9897 B(  0-C ,  4-F ) :   0.7567
B(  0-C ,  5-F ) :   0.7567 B(  1-C ,  3-Cl) :   0.9897 B(  1-C ,  6-F ) :   0.7567
B(  1-C ,  7-F ) :   0.7567

MP2 TOTAL ENERGY:    -1394.432201656 Eh
FINAL SINGLE POINT ENERGY     -1394.432201656294

DIPOLE MOMENT
-------------
                                X             Y             Z
Electronic contribution:      0.00000      -0.00000      -0.00000
Nuclear contribution   :      0.00000       0.00000       0.00000
                        -----------------------------------------
Total Dipole Moment    :      0.00000      -0.00000      -0.00000
                        -----------------------------------------
Magnitude (a.u.)       :      0.00000
Magnitude (Debye)      :      0.00000

Rotational constants in cm-1:     0.073323     0.037735     0.033906
Rotational constants in MHz :  2198.173524  1131.272997  1016.472918

                             ****ORCA TERMINATED NORMALLY****
TOTAL RUN TIME: 0 days 0 hours 2 minutes 37 seconds 122 msec
