                         Program Version 5.0.3 -  RELEASE  -
|  1> !ri-mp2 aug-cc-pvtz aug-cc-pvtz/c tightscf
|  2> %pal nprocs 16 end
|  3>
|  4> * xyz 0 1
|  5> C     -0.375827    1.083218   -0.143727
|  6> C     -1.730720    0.914545    0.013207
|  7> C     -0.800510   -1.127958    0.050865
|  8> C      0.213730   -0.211135   -0.126043
|  9> N     -1.984695   -0.422966    0.119352
| 10> N      2.473612    0.408232    0.261342
| 11> N      1.571203   -0.508797   -0.347613
| 12> H      0.147064    2.015954   -0.252645
| 13> H     -2.523634    1.639838    0.060015
| 14> H     -0.779966   -2.201879    0.108656
| 15> H     -2.889932   -0.832811    0.250080
| 16> H      3.335494    0.406023   -0.266084
| 17> H      2.672619    0.160352    1.227596
| 18> H      1.777472   -1.474780   -0.124995
| 19> *
| 20>
| 21>                          ****END OF INPUT****

CARTESIAN COORDINATES (ANGSTROEM)
---------------------------------
  C     -0.375827    1.083218   -0.143727
  C     -1.730720    0.914545    0.013207
  C     -0.800510   -1.127958    0.050865
  C      0.213730   -0.211135   -0.126043
  N     -1.984695   -0.422966    0.119352
  N      2.473612    0.408232    0.261342
  N      1.571203   -0.508797   -0.347613
  H      0.147064    2.015954   -0.252645
  H     -2.523634    1.639838    0.060015
  H     -0.779966   -2.201879    0.108656
  H     -2.889932   -0.832811    0.250080
  H      3.335494    0.406023   -0.266084
  H      2.672619    0.160352    1.227596
  H      1.777472   -1.474780   -0.124995

 Total Charge           Charge          ....    0
 Multiplicity           Mult            ....    1
 Number of Electrons    NEL             ....   52
 Basis Dimension        Dim             ....  483

ORBITAL ENERGIES
----------------

  NO   OCC          E(Eh)            E(eV)
   0   2.0000     -15.596042      -424.3899
   1   2.0000     -15.578938      -423.9245
   2   2.0000     -15.572270      -423.7430
   3   2.0000     -11.249034      -306.1018
   4   2.0000     -11.242696      -305.9293
   5   2.0000     -11.235753      -305.7404
   6   2.0000     -11.197421      -304.6973
   7   2.0000      -1.291453       -35.1422
   8   2.0000      -1.268510       -34.5179
   9   2.0000      -1.074918       -29.2500
  10   2.0000      -1.003179       -27.2979
  11   2.0000      -0.950056       -25.8523
  12   2.0000      -0.794825       -21.6283
  13   2.0000      -0.749319       -20.3900
  14   2.0000      -0.728326       -19.8188
  15   2.0000      -0.680481       -18.5168
  16   2.0000      -0.667498       -18.1635
  17   2.0000      -0.601218       -16.3600
  18   2.0000      -0.577568       -15.7164
  19   2.0000      -0.564796       -15.3689
  20   2.0000      -0.556615       -15.1463
  21   2.0000      -0.521796       -14.1988
  22   2.0000      -0.448765       -12.2115
  23   2.0000      -0.417080       -11.3493
  24   2.0000      -0.317152        -8.6302
  25   2.0000      -0.277131        -7.5411
  26   0.0000       0.026137         0.7112
  27   0.0000       0.031254         0.8505
  28   0.0000       0.036619         0.9965
  29   0.0000       0.049959         1.3594
  30   0.0000       0.050964         1.3868

MULLIKEN ATOMIC CHARGES
-----------------------
   0 C :   -0.634265
   1 C :   -0.913678
   2 C :   -0.896413
   3 C :    1.039751
   4 N :    0.025622
   5 N :   -0.385753
   6 N :   -0.387810
   7 H :    0.455660
   8 H :    0.654475
   9 H :    0.626753
  10 H :    0.074629
  11 H :    0.128399
  12 H :    0.150760
  13 H :    0.061869
Sum of atomic charges:    0.0000000

LOEWDIN ATOMIC CHARGES
----------------------
   0 C :    0.201470
   1 C :    0.107662
   2 C :    0.134264
   3 C :   -0.287377
   4 N :    0.480138
   5 N :    0.731436
   6 N :    0.423706
   7 H :   -0.197480
   8 H :   -0.179563
   9 H :   -0.185912
  10 H :   -0.261063
  11 H :   -0.335792
  12 H :   -0.317044
  13 H :   -0.314444

  Mayer bond orders larger than 0.100000
B(  0-C ,  1-C ) :   1.1364 B(  0-C ,  2-C ) :   0.1896 B(  0-C ,  3-C ) :   1.0724
B(  0-C ,  4-N ) :  -0.1415 B(  0-C ,  7-H ) :   0.9124 B(  1-C ,  3-C ) :  -0.1533
B(  1-C ,  4-N ) :   1.0740 B(  1-C ,  8-H ) :   0.4788 B(  2-C ,  3-C ) :   0.8100
B(  2-C ,  4-N ) :   1.0522 B(  2-C ,  9-H ) :   0.5125 B(  3-C ,  4-N ) :  -0.1549
B(  3-C ,  6-N ) :   0.8695 B(  4-N , 10-H ) :   1.1423 B(  5-N ,  6-N ) :   0.8210
B(  5-N , 11-H ) :   0.9929 B(  5-N , 12-H ) :   0.9763 B(  6-N , 13-H ) :   1.0036

MP2 TOTAL ENERGY:     -320.233211376 Eh
FINAL SINGLE POINT ENERGY      -320.233211375628

DIPOLE MOMENT
-------------
                                X             Y             Z
Electronic contribution:     -1.91549      -0.43703      -0.51930
Nuclear contribution   :      1.76092      -0.29199       1.00838
                        -----------------------------------------
Total Dipole Moment    :     -0.15457      -0.72901       0.48908
                        -----------------------------------------
Magnitude (a.u.)       :      0.89138
Magnitude (Debye)      :      2.26571

Rotational constants in cm-1:     0.246992     0.063982     0.052413
Rotational constants in MHz :  7404.629743  1918.136203  1571.309090

                             ****ORCA TERMINATED NORMALLY****
TOTAL RUN TIME: 0 days 0 hours 4 minutes 13 seconds 802 msec
