                         Program Version 5.0.3 -  RELEASE  -
|  1> !ri-mp2 aug-cc-pvtz aug-cc-pvtz/c tightscf
|  2> %pal nprocs 16 end
|  3>
|  4> * xyz 0 1
|  5> Cl    -2.331716    0.385323   -0.842661
|  6> O      0.800067    1.956894    0.684740
|  7> O      1.924475   -1.710939   -0.590900
|  8> N      0.559473   -0.319605    0.435360
|  9> N      0.933917   -1.565968    0.100956
| 10> N      2.266673    0.888042   -0.680548
| 11> C      1.219264    0.950722    0.158620
| 12> C     -0.659018   -0.298092    1.257074
| 13> C     -1.897922   -0.742235    0.503473
| 14> H      2.749788    1.749947   -0.864293
| 15> H      2.588978   -0.000540   -1.031486
| 16> H     -0.513599   -0.974263    2.100509
| 17> H     -0.765445    0.714099    1.630691
| 18> H     -2.748841   -0.765557    1.178688
| 19> H     -1.762439   -1.721470    0.055027
| 20> *
| 21>
| 22>                          ****END OF INPUT****

CARTESIAN COORDINATES (ANGSTROEM)
---------------------------------
  Cl    -2.331716    0.385323   -0.842661
  O      0.800067    1.956894    0.684740
  O      1.924475   -1.710939   -0.590900
  N      0.559473   -0.319605    0.435360
  N      0.933917   -1.565968    0.100956
  N      2.266673    0.888042   -0.680548
  C      1.219264    0.950722    0.158620
  C     -0.659018   -0.298092    1.257074
  C     -1.897922   -0.742235    0.503473
  H      2.749788    1.749947   -0.864293
  H      2.588978   -0.000540   -1.031486
  H     -0.513599   -0.974263    2.100509
  H     -0.765445    0.714099    1.630691
  H     -2.748841   -0.765557    1.178688
  H     -1.762439   -1.721470    0.055027

 Total Charge           Charge          ....    0
 Multiplicity           Mult            ....    1
 Number of Electrons    NEL             ....   78
 Basis Dimension        Dim             ....  556

ORBITAL ENERGIES
----------------

  NO   OCC          E(Eh)            E(eV)
   0   2.0000    -104.832298     -2852.6318
   1   2.0000     -20.626619      -561.2788
   2   2.0000     -20.544307      -559.0390
   3   2.0000     -15.767118      -429.0451
   4   2.0000     -15.666351      -426.3031
   5   2.0000     -15.599881      -424.4943
   6   2.0000     -11.415479      -310.6310
   7   2.0000     -11.310957      -307.7868
   8   2.0000     -11.298990      -307.4612
   9   2.0000     -10.556246      -287.2501
  10   2.0000      -8.023049      -218.3183
  11   2.0000      -8.021271      -218.2699
  12   2.0000      -8.021245      -218.2692
  13   2.0000      -1.551300       -42.2130
  14   2.0000      -1.425806       -38.7981
  15   2.0000      -1.305908       -35.5356
  16   2.0000      -1.238170       -33.6923
  17   2.0000      -1.143120       -31.1059
  18   2.0000      -1.031808       -28.0769
  19   2.0000      -0.980337       -26.6763
  20   2.0000      -0.881959       -23.9993
  21   2.0000      -0.816744       -22.2247
  22   2.0000      -0.762182       -20.7400
  23   2.0000      -0.754331       -20.5264
  24   2.0000      -0.705970       -19.2104
  25   2.0000      -0.696841       -18.9620
  26   2.0000      -0.653910       -17.7938
  27   2.0000      -0.645917       -17.5763
  28   2.0000      -0.627076       -17.0636
  29   2.0000      -0.600717       -16.3463
  30   2.0000      -0.598395       -16.2831
  31   2.0000      -0.579604       -15.7718
  32   2.0000      -0.528339       -14.3768
  33   2.0000      -0.483671       -13.1614
  34   2.0000      -0.453084       -12.3290
  35   2.0000      -0.443925       -12.0798
  36   2.0000      -0.442818       -12.0497
  37   2.0000      -0.437683       -11.9100
  38   2.0000      -0.428038       -11.6475
  39   0.0000       0.026415         0.7188
  40   0.0000       0.029514         0.8031
  41   0.0000       0.041909         1.1404
  42   0.0000       0.043932         1.1955
  43   0.0000       0.056527         1.5382

MULLIKEN ATOMIC CHARGES
-----------------------
   0 Cl:   -0.358089
   1 O :   -0.725372
   2 O :   -0.517476
   3 N :    0.685510
   4 N :   -0.225206
   5 N :   -0.357182
   6 C :    0.505674
   7 C :   -0.423294
   8 C :   -0.244848
   9 H :    0.158133
  10 H :    0.246211
  11 H :    0.301052
  12 H :    0.405707
  13 H :    0.278983
  14 H :    0.270196
Sum of atomic charges:   -0.0000000

LOEWDIN ATOMIC CHARGES
----------------------
   0 Cl:    0.898194
   1 O :    0.462938
   2 O :    0.321169
   3 N :    0.081564
   4 N :   -0.082244
   5 N :    0.856001
   6 C :   -0.768270
   7 C :    0.069953
   8 C :   -0.248703
   9 H :   -0.281188
  10 H :   -0.460021
  11 H :   -0.150226
  12 H :   -0.217018
  13 H :   -0.233570
  14 H :   -0.248578

  Mayer bond orders larger than 0.100000
B(  0-Cl,  8-C ) :   0.7385 B(  1-O ,  6-C ) :   1.5549 B(  2-O ,  3-N ) :   0.1669
B(  2-O ,  4-N ) :   1.1411 B(  3-N ,  4-N ) :   0.4857 B(  3-N ,  6-C ) :   0.8180
B(  3-N ,  7-C ) :   0.9219 B(  5-N ,  6-C ) :   1.0857 B(  5-N ,  9-H ) :   1.0351
B(  5-N , 10-H ) :   0.9775 B(  7-C ,  8-C ) :   0.9813 B(  7-C , 11-H ) :   0.8954
B(  7-C , 12-H ) :   0.8535 B(  8-C , 13-H ) :   0.9393 B(  8-C , 14-H ) :   0.9469

MP2 TOTAL ENERGY:     -891.582941992 Eh
FINAL SINGLE POINT ENERGY      -891.582941992459

DIPOLE MOMENT
-------------
                                X             Y             Z
Electronic contribution:     -2.61567       0.92485      -3.68564
Nuclear contribution   :      2.85081      -1.49921       4.13249
                        -----------------------------------------
Total Dipole Moment    :      0.23514      -0.57436       0.44685
                        -----------------------------------------
Magnitude (a.u.)       :      0.76476
Magnitude (Debye)      :      1.94385

Rotational constants in cm-1:     0.063373     0.032199     0.026736
Rotational constants in MHz :  1899.889318   965.287850   801.521441

                             ****ORCA TERMINATED NORMALLY****
TOTAL RUN TIME: 0 days 0 hours 7 minutes 50 seconds 63 msec
