                         Program Version 5.0.3 -  RELEASE  -
|  1> !ri-mp2 aug-cc-pvtz aug-cc-pvtz/c tightscf
|  2> %pal nprocs 16 end
|  3>
|  4> * xyz 0 1
|  5> C      0.170671    2.748478   -0.443046
|  6> C     -0.170671   -2.748478   -0.443046
|  7> C     -0.170671    0.735400    0.732131
|  8> C      0.170671   -0.735400    0.732131
|  9> O      0.508228    1.383432   -0.325029
| 10> O     -0.508228   -1.383432   -0.325029
| 11> H      0.742895    3.152831   -1.275405
| 12> H      0.423122    3.306090    0.467816
| 13> H     -0.898648    2.880525   -0.647014
| 14> H      0.898648   -2.880525   -0.647014
| 15> H     -0.742895   -3.152831   -1.275405
| 16> H     -0.423122   -3.306090    0.467816
| 17> H      0.125486    1.172411    1.696274
| 18> H     -1.256057    0.857539    0.624047
| 19> H     -0.125486   -1.172411    1.696274
| 20> H      1.256057   -0.857539    0.624047
| 21> *
| 22>
| 23>                          ****END OF INPUT****

CARTESIAN COORDINATES (ANGSTROEM)
---------------------------------
  C      0.170671    2.748478   -0.443046
  C     -0.170671   -2.748478   -0.443046
  C     -0.170671    0.735400    0.732131
  C      0.170671   -0.735400    0.732131
  O      0.508228    1.383432   -0.325029
  O     -0.508228   -1.383432   -0.325029
  H      0.742895    3.152831   -1.275405
  H      0.423122    3.306090    0.467816
  H     -0.898648    2.880525   -0.647014
  H      0.898648   -2.880525   -0.647014
  H     -0.742895   -3.152831   -1.275405
  H     -0.423122   -3.306090    0.467816
  H      0.125486    1.172411    1.696274
  H     -1.256057    0.857539    0.624047
  H     -0.125486   -1.172411    1.696274
  H      1.256057   -0.857539    0.624047

 Total Charge           Charge          ....    0
 Multiplicity           Mult            ....    1
 Number of Electrons    NEL             ....   50
 Basis Dimension        Dim             ....  506

ORBITAL ENERGIES
----------------

  NO   OCC          E(Eh)            E(eV)
   0   2.0000     -20.553140      -559.2794
   1   2.0000     -20.553139      -559.2793
   2   2.0000     -11.273881      -306.7779
   3   2.0000     -11.273209      -306.7596
   4   2.0000     -11.267469      -306.6034
   5   2.0000     -11.267468      -306.6034
   6   2.0000      -1.379472       -37.5373
   7   2.0000      -1.362878       -37.0858
   8   2.0000      -1.026900       -27.9434
   9   2.0000      -0.931176       -25.3386
  10   2.0000      -0.892347       -24.2820
  11   2.0000      -0.823049       -22.3963
  12   2.0000      -0.679364       -18.4864
  13   2.0000      -0.675929       -18.3930
  14   2.0000      -0.652507       -17.7556
  15   2.0000      -0.630797       -17.1649
  16   2.0000      -0.625828       -17.0296
  17   2.0000      -0.593275       -16.1438
  18   2.0000      -0.547949       -14.9104
  19   2.0000      -0.535636       -14.5754
  20   2.0000      -0.508253       -13.8303
  21   2.0000      -0.481264       -13.0959
  22   2.0000      -0.469264       -12.7693
  23   2.0000      -0.427144       -11.6232
  24   2.0000      -0.417092       -11.3496
  25   0.0000       0.030331         0.8254
  26   0.0000       0.035422         0.9639
  27   0.0000       0.039646         1.0788
  28   0.0000       0.042075         1.1449
  29   0.0000       0.053249         1.4490

MULLIKEN ATOMIC CHARGES
-----------------------
   0 C :   -0.858754
   1 C :   -0.858754
   2 C :   -0.176048
   3 C :   -0.176048
   4 O :   -0.568616
   5 O :   -0.568616
   6 H :    0.335128
   7 H :    0.336648
   8 H :    0.343579
   9 H :    0.343579
  10 H :    0.335128
  11 H :    0.336648
  12 H :    0.284762
  13 H :    0.303300
  14 H :    0.284762
  15 H :    0.303300
Sum of atomic charges:    0.0000000

LOEWDIN ATOMIC CHARGES
----------------------
   0 C :    0.311849
   1 C :    0.311849
   2 C :   -0.002311
   3 C :   -0.002311
   4 O :    0.548927
   5 O :    0.548927
   6 H :   -0.189062
   7 H :   -0.179884
   8 H :   -0.179660
   9 H :   -0.179660
  10 H :   -0.189062
  11 H :   -0.179884
  12 H :   -0.154487
  13 H :   -0.155372
  14 H :   -0.154487
  15 H :   -0.155372

  Mayer bond orders larger than 0.100000
B(  0-C ,  4-O ) :   0.9712 B(  0-C ,  6-H ) :   0.9522 B(  0-C ,  7-H ) :   0.8702
B(  0-C ,  8-H ) :   0.8681 B(  1-C ,  5-O ) :   0.9712 B(  1-C ,  9-H ) :   0.8681
B(  1-C , 10-H ) :   0.9522 B(  1-C , 11-H ) :   0.8702 B(  2-C ,  3-C ) :   0.9122
B(  2-C ,  4-O ) :   0.8825 B(  2-C , 12-H ) :   0.9479 B(  2-C , 13-H ) :   0.8894
B(  3-C ,  5-O ) :   0.8825 B(  3-C , 14-H ) :   0.9479 B(  3-C , 15-H ) :   0.8894

MP2 TOTAL ENERGY:     -308.296051193 Eh
FINAL SINGLE POINT ENERGY      -308.296051192763

DIPOLE MOMENT
-------------
                                X             Y             Z
Electronic contribution:     -0.00000       0.00000      -1.17399
Nuclear contribution   :      0.00000       0.00000       1.79341
                        -----------------------------------------
Total Dipole Moment    :     -0.00000       0.00000       0.61942
                        -----------------------------------------
Magnitude (a.u.)       :      0.61942
Magnitude (Debye)      :      1.57444

Rotational constants in cm-1:     0.375562     0.050362     0.047617
Rotational constants in MHz : 11259.058299  1509.803962  1427.525770

                             ****ORCA TERMINATED NORMALLY****
TOTAL RUN TIME: 0 days 0 hours 3 minutes 47 seconds 552 msec
