                         Program Version 5.0.3 -  RELEASE  -
|  1> !ri-mp2 aug-cc-pvtz aug-cc-pvtz/c tightscf
|  2> %pal nprocs 16 end
|  3>
|  4> * xyz 0 1
|  5> Cl    0.166446    2.029748   -0.534405
|  6> Cl   -2.226375   -0.504117    0.180096
|  7> N    -0.509875   -0.569838    0.156783
|  8> N     1.549944    0.221170    0.996445
|  9> C     0.208766    0.520260    0.714401
| 10> C     0.106052   -1.471911   -0.652182
| 11> C     1.460676   -1.542010   -0.638384
| 12> C     2.129257   -0.705879    0.304895
| 13> H    -0.325278    0.953353    1.547915
| 14> H    -0.533226   -2.118979   -1.232017
| 15> H     1.984941   -2.262604   -1.244494
| 16> H     3.183372   -0.869602    0.506885
| 17> *
| 18>
| 19>                          ****END OF INPUT****

CARTESIAN COORDINATES (ANGSTROEM)
---------------------------------
  Cl     0.166446    2.029748   -0.534405
  Cl    -2.226375   -0.504117    0.180096
  N     -0.509875   -0.569838    0.156783
  N      1.549944    0.221170    0.996445
  C      0.208766    0.520260    0.714401
  C      0.106052   -1.471911   -0.652182
  C      1.460676   -1.542010   -0.638384
  C      2.129257   -0.705879    0.304895
  H     -0.325278    0.953353    1.547915
  H     -0.533226   -2.118979   -1.232017
  H      1.984941   -2.262604   -1.244494
  H      3.183372   -0.869602    0.506885

 Total Charge           Charge          ....    0
 Multiplicity           Mult            ....    1
 Number of Electrons    NEL             ....   76
 Basis Dimension        Dim             ....  468

ORBITAL ENERGIES
----------------

  NO   OCC          E(Eh)            E(eV)
   0   2.0000    -104.906156     -2854.6416
   1   2.0000    -104.796838     -2851.6669
   2   2.0000     -15.681005      -426.7018
   3   2.0000     -15.576343      -423.8538
   4   2.0000     -11.388170      -309.8879
   5   2.0000     -11.336537      -308.4829
   6   2.0000     -11.313755      -307.8629
   7   2.0000     -11.251897      -306.1797
   8   2.0000     -10.626463      -289.1607
   9   2.0000     -10.521035      -286.2919
  10   2.0000      -8.093511      -220.2356
  11   2.0000      -8.090841      -220.1630
  12   2.0000      -8.090579      -220.1558
  13   2.0000      -7.987490      -217.3507
  14   2.0000      -7.986064      -217.3119
  15   2.0000      -7.986025      -217.3108
  16   2.0000      -1.366963       -37.1969
  17   2.0000      -1.253024       -34.0965
  18   2.0000      -1.127465       -30.6799
  19   2.0000      -1.096540       -29.8384
  20   2.0000      -1.033257       -28.1164
  21   2.0000      -0.926762       -25.2185
  22   2.0000      -0.903941       -24.5975
  23   2.0000      -0.764906       -20.8141
  24   2.0000      -0.729255       -19.8440
  25   2.0000      -0.696328       -18.9480
  26   2.0000      -0.669004       -18.2045
  27   2.0000      -0.634955       -17.2780
  28   2.0000      -0.624974       -17.0064
  29   2.0000      -0.578450       -15.7404
  30   2.0000      -0.545267       -14.8375
  31   2.0000      -0.508533       -13.8379
  32   2.0000      -0.483507       -13.1569
  33   2.0000      -0.457794       -12.4572
  34   2.0000      -0.435009       -11.8372
  35   2.0000      -0.424346       -11.5470
  36   2.0000      -0.418907       -11.3990
  37   2.0000      -0.335347        -9.1253
  38   0.0000       0.022356         0.6083
  39   0.0000       0.031897         0.8680
  40   0.0000       0.039129         1.0647
  41   0.0000       0.048530         1.3206
  42   0.0000       0.055344         1.5060

MULLIKEN ATOMIC CHARGES
-----------------------
   0 Cl:   -0.463171
   1 Cl:   -0.200432
   2 N :    0.035480
   3 N :   -0.666996
   4 C :    0.336721
   5 C :   -0.646570
   6 C :   -0.164557
   7 C :   -0.396067
   8 H :    0.429205
   9 H :    0.760382
  10 H :    0.316205
  11 H :    0.659800
Sum of atomic charges:    0.0000000

LOEWDIN ATOMIC CHARGES
----------------------
   0 Cl:    0.643397
   1 Cl:    0.910540
   2 N :   -0.388866
   3 N :    0.321426
   4 C :   -0.823302
   5 C :   -0.013443
   6 C :    0.202528
   7 C :   -0.015574
   8 H :   -0.271886
   9 H :   -0.183454
  10 H :   -0.204179
  11 H :   -0.177187

  Mayer bond orders larger than 0.100000
B(  0-Cl,  4-C ) :   0.7782 B(  1-Cl,  2-N ) :   0.9310 B(  1-Cl,  9-H ) :  -0.1068
B(  2-N ,  4-C ) :   1.0222 B(  2-N ,  5-C ) :   1.0953 B(  2-N ,  6-C ) :  -0.2062
B(  3-N ,  4-C ) :   0.7429 B(  3-N ,  5-C ) :   0.1404 B(  3-N ,  6-C ) :  -0.1496
B(  3-N ,  7-C ) :   1.5855 B(  4-C ,  8-H ) :   0.8562 B(  5-C ,  6-C ) :   1.2054
B(  5-C ,  7-C ) :   0.2245 B(  5-C ,  9-H ) :   0.3755 B(  6-C ,  7-C ) :   0.7599
B(  6-C , 10-H ) :   0.9968 B(  7-C , 11-H ) :   0.4726

MP2 TOTAL ENERGY:    -1183.188070861 Eh
FINAL SINGLE POINT ENERGY     -1183.188070861103

DIPOLE MOMENT
-------------
                                X             Y             Z
Electronic contribution:     -7.03275       4.33050      -0.23074
Nuclear contribution   :      6.86554      -6.12781       0.08692
                        -----------------------------------------
Total Dipole Moment    :     -0.16721      -1.79731      -0.14382
                        -----------------------------------------
Magnitude (a.u.)       :      1.81079
Magnitude (Debye)      :      4.60267

Rotational constants in cm-1:     0.059626     0.047061     0.030957
Rotational constants in MHz :  1787.557231  1410.867086   928.082016

                             ****ORCA TERMINATED NORMALLY****
TOTAL RUN TIME: 0 days 0 hours 5 minutes 17 seconds 717 msec
