                         Program Version 5.0.3 -  RELEASE  -
|  1> !ri-mp2 aug-cc-pvtz aug-cc-pvtz/c tightscf
|  2> %pal nprocs 16 end
|  3>
|  4> * xyz 0 1
|  5> N      0.000000    1.151590    0.730933
|  6> N      0.000000    0.000000    1.376561
|  7> N      0.000000   -1.151590    0.730933
|  8> C      0.000000   -1.164165   -0.603698
|  9> C      0.000000    0.000000   -1.346005
| 10> C      0.000000    1.164165   -0.603698
| 11> H      0.000000   -2.145712   -1.060908
| 12> H      0.000000    0.000000   -2.426768
| 13> H      0.000000    2.145712   -1.060908
| 14> *
| 15>
| 16>                          ****END OF INPUT****

CARTESIAN COORDINATES (ANGSTROEM)
---------------------------------
  N      0.000000    1.151590    0.730933
  N      0.000000    0.000000    1.376561
  N      0.000000   -1.151590    0.730933
  C      0.000000   -1.164165   -0.603698
  C      0.000000    0.000000   -1.346005
  C      0.000000    1.164165   -0.603698
  H      0.000000   -2.145712   -1.060908
  H      0.000000    0.000000   -2.426768
  H      0.000000    2.145712   -1.060908

 Total Charge           Charge          ....    0
 Multiplicity           Mult            ....    1
 Number of Electrons    NEL             ....   42
 Basis Dimension        Dim             ....  345

ORBITAL ENERGIES
----------------

  NO   OCC          E(Eh)            E(eV)
   0   2.0000     -15.668887      -426.3721
   1   2.0000     -15.625029      -425.1787
   2   2.0000     -15.624985      -425.1775
   3   2.0000     -11.312401      -307.8261
   4   2.0000     -11.312374      -307.8253
   5   2.0000     -11.282469      -307.0116
   6   2.0000      -1.414393       -38.4876
   7   2.0000      -1.223552       -33.2945
   8   2.0000      -1.141955       -31.0742
   9   2.0000      -0.949819       -25.8459
  10   2.0000      -0.929172       -25.2841
  11   2.0000      -0.747445       -20.3390
  12   2.0000      -0.743006       -20.2182
  13   2.0000      -0.668414       -18.1885
  14   2.0000      -0.616754       -16.7827
  15   2.0000      -0.616751       -16.7827
  16   2.0000      -0.576179       -15.6786
  17   2.0000      -0.438231       -11.9249
  18   2.0000      -0.437097       -11.8940
  19   2.0000      -0.433191       -11.7877
  20   2.0000      -0.420551       -11.4438
  21   0.0000       0.019011         0.5173
  22   0.0000       0.030525         0.8306
  23   0.0000       0.042327         1.1518
  24   0.0000       0.062827         1.7096
  25   0.0000       0.066615         1.8127

MULLIKEN ATOMIC CHARGES
-----------------------
   0 N :   -0.257003
   1 N :   -0.278044
   2 N :   -0.257003
   3 C :   -0.463318
   4 C :    0.122149
   5 C :   -0.463318
   6 H :    0.626050
   7 H :    0.344438
   8 H :    0.626050
Sum of atomic charges:    0.0000000

LOEWDIN ATOMIC CHARGES
----------------------
   0 N :    0.179797
   1 N :    0.018104
   2 N :    0.179797
   3 C :   -0.006837
   4 C :    0.196569
   5 C :   -0.006837
   6 H :   -0.189670
   7 H :   -0.181253
   8 H :   -0.189670

  Mayer bond orders larger than 0.100000
B(  0-N ,  1-N ) :   0.7606 B(  0-N ,  4-C ) :  -0.1293 B(  0-N ,  5-C ) :   1.2878
B(  1-N ,  2-N ) :   0.7606 B(  1-N ,  3-C ) :   0.1307 B(  1-N ,  5-C ) :   0.1307
B(  2-N ,  3-C ) :   1.2878 B(  2-N ,  4-C ) :  -0.1293 B(  3-C ,  4-C ) :   0.9360
B(  3-C ,  5-C ) :   0.2296 B(  3-C ,  6-H ) :   0.5200 B(  4-C ,  5-C ) :   0.9360
B(  4-C ,  7-H ) :   0.9388 B(  5-C ,  8-H ) :   0.5200

MP2 TOTAL ENERGY:     -279.783226469 Eh
FINAL SINGLE POINT ENERGY      -279.783226468627

DIPOLE MOMENT
-------------
                                X             Y             Z
Electronic contribution:      0.00000      -0.00000       2.38863
Nuclear contribution   :      0.00000       0.00000      -4.40901
                        -----------------------------------------
Total Dipole Moment    :      0.00000      -0.00000      -2.02038
                        -----------------------------------------
Magnitude (a.u.)       :      2.02038
Magnitude (Debye)      :      5.13539

Rotational constants in cm-1:     0.213417     0.210774     0.106044
Rotational constants in MHz :  6398.067243  6318.846995  3179.105183

                             ****ORCA TERMINATED NORMALLY****
TOTAL RUN TIME: 0 days 0 hours 2 minutes 0 seconds 34 msec
