                         Program Version 5.0.3 -  RELEASE  -
|  1> !ri-mp2 aug-cc-pvtz aug-cc-pvtz/c tightscf
|  2> %pal nprocs 16 end
|  3>
|  4> * xyz 0 1
|  5> O      1.052746   -0.884054    1.262930
|  6> S      0.899001   -0.165953    0.000000
|  7> O      1.052746   -0.884054   -1.262930
|  8> C      2.067344    1.204889    0.000000
|  9> C     -0.723417    0.647846    0.000000
| 10> C     -1.851316   -0.380647    0.000000
| 11> C     -3.225240    0.289975    0.000000
| 12> H      3.053274    0.745574    0.000000
| 13> H      1.925580    1.797049   -0.900169
| 14> H      1.925580    1.797049    0.900169
| 15> H     -0.749135    1.277504    0.890070
| 16> H     -0.749135    1.277504   -0.890070
| 17> H     -1.747958   -1.021292   -0.876349
| 18> H     -1.747958   -1.021292    0.876349
| 19> H     -3.362963    0.917670    0.882223
| 20> H     -3.362963    0.917671   -0.882223
| 21> H     -4.016488   -0.459710    0.000000
| 22> *
| 23>
| 24>                          ****END OF INPUT****

CARTESIAN COORDINATES (ANGSTROEM)
---------------------------------
  O      1.052746   -0.884054    1.262930
  S      0.899001   -0.165953    0.000000
  O      1.052746   -0.884054   -1.262930
  C      2.067344    1.204889    0.000000
  C     -0.723417    0.647846    0.000000
  C     -1.851316   -0.380647    0.000000
  C     -3.225240    0.289975    0.000000
  H      3.053274    0.745574    0.000000
  H      1.925580    1.797049   -0.900169
  H      1.925580    1.797049    0.900169
  H     -0.749135    1.277504    0.890070
  H     -0.749135    1.277504   -0.890070
  H     -1.747958   -1.021292   -0.876349
  H     -1.747958   -1.021292    0.876349
  H     -3.362963    0.917670    0.882223
  H     -3.362963    0.917671   -0.882223
  H     -4.016488   -0.459710    0.000000

 Total Charge           Charge          ....    0
 Multiplicity           Mult            ....    1
 Number of Electrons    NEL             ....   66
 Basis Dimension        Dim             ....  556

ORBITAL ENERGIES
----------------

  NO   OCC          E(Eh)            E(eV)
   0   2.0000     -92.175222     -2508.2153
   1   2.0000     -20.538147      -558.8714
   2   2.0000     -20.538127      -558.8708
   3   2.0000     -11.278696      -306.9089
   4   2.0000     -11.276860      -306.8590
   5   2.0000     -11.244341      -305.9741
   6   2.0000     -11.231112      -305.6141
   7   2.0000      -9.145173      -248.8528
   8   2.0000      -6.829684      -185.8451
   9   2.0000      -6.829210      -185.8322
  10   2.0000      -6.829170      -185.8312
  11   2.0000      -1.436852       -39.0987
  12   2.0000      -1.325294       -36.0631
  13   2.0000      -1.100919       -29.9575
  14   2.0000      -1.043391       -28.3921
  15   2.0000      -0.973579       -26.4924
  16   2.0000      -0.850840       -23.1525
  17   2.0000      -0.799209       -21.7476
  18   2.0000      -0.685185       -18.6448
  19   2.0000      -0.676244       -18.4015
  20   2.0000      -0.657452       -17.8902
  21   2.0000      -0.641894       -17.4668
  22   2.0000      -0.603232       -16.4148
  23   2.0000      -0.599543       -16.3144
  24   2.0000      -0.593633       -16.1536
  25   2.0000      -0.572748       -15.5853
  26   2.0000      -0.533206       -14.5093
  27   2.0000      -0.510145       -13.8818
  28   2.0000      -0.500547       -13.6206
  29   2.0000      -0.487163       -13.2564
  30   2.0000      -0.482924       -13.1410
  31   2.0000      -0.461557       -12.5596
  32   2.0000      -0.428631       -11.6636
  33   0.0000       0.022151         0.6028
  34   0.0000       0.030400         0.8272
  35   0.0000       0.035898         0.9768
  36   0.0000       0.039985         1.0880
  37   0.0000       0.051800         1.4095

MULLIKEN ATOMIC CHARGES
-----------------------
   0 O :   -1.051938
   1 S :    2.143903
   2 O :   -1.051938
   3 C :   -1.074213
   4 C :   -0.469168
   5 C :   -0.513285
   6 C :   -0.961583
   7 H :    0.290412
   8 H :    0.298443
   9 H :    0.298443
  10 H :    0.339600
  11 H :    0.339600
  12 H :    0.287748
  13 H :    0.287748
  14 H :    0.274471
  15 H :    0.274471
  16 H :    0.287288
Sum of atomic charges:    0.0000000

LOEWDIN ATOMIC CHARGES
----------------------
   0 O :    0.022189
   1 S :    0.258038
   2 O :    0.022189
   3 C :    0.509064
   4 C :    0.187772
   5 C :    0.224782
   6 C :    0.584453
   7 H :   -0.207610
   8 H :   -0.207673
   9 H :   -0.207673
  10 H :   -0.182023
  11 H :   -0.182023
  12 H :   -0.156616
  13 H :   -0.156616
  14 H :   -0.169824
  15 H :   -0.169823
  16 H :   -0.168604

  Mayer bond orders larger than 0.100000
B(  0-O ,  1-S ) :   1.1994 B(  1-S ,  2-O ) :   1.1994 B(  1-S ,  3-C ) :   0.8324
B(  1-S ,  4-C ) :   0.9303 B(  3-C ,  7-H ) :   0.9718 B(  3-C ,  8-H ) :   0.8952
B(  3-C ,  9-H ) :   0.8952 B(  4-C ,  5-C ) :   0.9342 B(  4-C , 10-H ) :   0.8576
B(  4-C , 11-H ) :   0.8576 B(  5-C ,  6-C ) :   0.8966 B(  5-C , 12-H ) :   0.9320
B(  5-C , 13-H ) :   0.9320 B(  6-C , 14-H ) :   0.9561 B(  6-C , 15-H ) :   0.9561
B(  6-C , 16-H ) :   0.9666

MP2 TOTAL ENERGY:     -706.044113403 Eh
FINAL SINGLE POINT ENERGY      -706.044113402946

DIPOLE MOMENT
-------------
                                X             Y             Z
Electronic contribution:      8.33421      -4.37865       0.00000
Nuclear contribution   :     -8.95464       6.29491       0.00000
                        -----------------------------------------
Total Dipole Moment    :     -0.62044       1.91626       0.00000
                        -----------------------------------------
Magnitude (a.u.)       :      2.01420
Magnitude (Debye)      :      5.11968

Rotational constants in cm-1:     0.137682     0.041603     0.040830
Rotational constants in MHz :  4127.603545  1247.212466  1224.043828

                             ****ORCA TERMINATED NORMALLY****
TOTAL RUN TIME: 0 days 0 hours 5 minutes 42 seconds 741 msec
