                         Program Version 5.0.3 -  RELEASE  -
|  1> !ri-mp2 aug-cc-pvtz aug-cc-pvtz/c tightscf
|  2> %pal nprocs 16 end
|  3>
|  4> * xyz 0 1
|  5> C      0.575831   -0.555754        0.000000
|  6> C      0.000000    0.742606        0.000000
|  7> C     -0.120645   -1.693322        0.000000
|  8> C     -0.451906    1.856856        0.000000
|  9> H      1.660286   -0.592176        0.000000
| 10> H      0.382293   -2.649906        0.000000
| 11> H     -1.201790   -1.696289        0.000000
| 12> H     -0.860469    2.836051        0.000000
| 13> *
| 14>
| 15>                          ****END OF INPUT****

CARTESIAN COORDINATES (ANGSTROEM)
---------------------------------
  C      0.575831   -0.555754    0.000000
  C      0.000000    0.742606    0.000000
  C     -0.120645   -1.693322    0.000000
  C     -0.451906    1.856856    0.000000
  H      1.660286   -0.592176    0.000000
  H      0.382293   -2.649906    0.000000
  H     -1.201790   -1.696289    0.000000
  H     -0.860469    2.836051    0.000000

 Total Charge           Charge          ....    0
 Multiplicity           Mult            ....    1
 Number of Electrons    NEL             ....   28
 Basis Dimension        Dim             ....  276

ORBITAL ENERGIES
----------------

  NO   OCC          E(Eh)            E(eV)
   0   2.0000     -11.262257      -306.4616
   1   2.0000     -11.247854      -306.0697
   2   2.0000     -11.240161      -305.8603
   3   2.0000     -11.230738      -305.6039
   4   2.0000      -1.094288       -29.7771
   5   2.0000      -1.007316       -27.4105
   6   2.0000      -0.845111       -22.9966
   7   2.0000      -0.723894       -19.6981
   8   2.0000      -0.675871       -18.3914
   9   2.0000      -0.625873       -17.0309
  10   2.0000      -0.542933       -14.7740
  11   2.0000      -0.467358       -12.7174
  12   2.0000      -0.398012       -10.8305
  13   2.0000      -0.346275        -9.4226
  14   0.0000       0.030003         0.8164
  15   0.0000       0.033471         0.9108
  16   0.0000       0.040997         1.1156
  17   0.0000       0.052993         1.4420
  18   0.0000       0.072634         1.9765

MULLIKEN ATOMIC CHARGES
-----------------------
   0 C :   -0.264400
   1 C :    1.438979
   2 C :   -1.274267
   3 C :   -1.298900
   4 H :    0.168334
   5 H :    0.469578
   6 H :    0.260134
   7 H :    0.500543
Sum of atomic charges:    0.0000000

LOEWDIN ATOMIC CHARGES
----------------------
   0 C :    0.077453
   1 C :   -0.039250
   2 C :    0.519033
   3 C :    0.393190
   4 H :   -0.211372
   5 H :   -0.221676
   6 H :   -0.215080
   7 H :   -0.302297

  Mayer bond orders larger than 0.100000
B(  0-C ,  1-C ) :   0.5827 B(  0-C ,  2-C ) :   1.6214 B(  0-C ,  4-H ) :   1.2056
B(  0-C ,  6-H ) :   0.1329 B(  1-C ,  2-C ) :  -0.1624 B(  1-C ,  3-C ) :   1.2010
B(  1-C ,  4-H ) :  -0.1089 B(  1-C ,  6-H ) :  -0.1101 B(  1-C ,  7-H ) :  -0.1254
B(  2-C ,  3-C ) :   0.1750 B(  2-C ,  5-H ) :   0.7237 B(  2-C ,  6-H ) :   1.0682
B(  3-C ,  7-H ) :   0.8921

MP2 TOTAL ENERGY:     -154.397074694 Eh
FINAL SINGLE POINT ENERGY      -154.397074694207

DIPOLE MOMENT
-------------
                                X             Y             Z
Electronic contribution:      0.03148       1.91625      -0.00000
Nuclear contribution   :     -0.01987      -2.12291       0.00000
                        -----------------------------------------
Total Dipole Moment    :      0.01160      -0.20666      -0.00000
                        -----------------------------------------
Magnitude (a.u.)       :      0.20699
Magnitude (Debye)      :      0.52612

Rotational constants in cm-1:     1.737002     0.158176     0.144974
Rotational constants in MHz : 52074.011402  4742.005242  4346.225758

                             ****ORCA TERMINATED NORMALLY****
TOTAL RUN TIME: 0 days 0 hours 1 minutes 26 seconds 511 msec
