                         Program Version 5.0.3 -  RELEASE  -
|  1> !ri-mp2 aug-cc-pvtz aug-cc-pvtz/c tightscf
|  2> %pal nprocs 16 end
|  3> %maxcore 3800
|  4>
|  5> * xyz 0 1
|  6> C      0.001554    0.695598    2.566237
|  7> C     -0.001554   -0.695598    2.566237
|  8> C      0.001554    1.377725    1.359666
|  9> C     -0.001554   -1.377725    1.359666
| 10> C     -0.000611    0.700261    0.137630
| 11> C      0.000611   -0.700261    0.137630
| 12> C     -0.033424    1.492200   -1.154152
| 13> C      0.033424   -1.492200   -1.154152
| 14> C      0.363799    0.671723   -2.381520
| 15> C     -0.363799   -0.671723   -2.381520
| 16> H      0.004381    1.242851    3.499649
| 17> H     -0.004381   -1.242851    3.499649
| 18> H      0.004118    2.461556    1.357812
| 19> H     -0.004118   -2.461556    1.357812
| 20> H     -1.048027    1.879885   -1.300277
| 21> H      0.609583    2.369836   -1.057795
| 22> H      1.048027   -1.879885   -1.300277
| 23> H     -0.609583   -2.369836   -1.057795
| 24> H      0.142317    1.233423   -3.290989
| 25> H      1.444186    0.496649   -2.375566
| 26> H     -0.142317   -1.233423   -3.290989
| 27> H     -1.444186   -0.496649   -2.375566
| 28> *
| 29>
| 30>                          ****END OF INPUT****

CARTESIAN COORDINATES (ANGSTROEM)
---------------------------------
  C      0.001554    0.695598    2.566237
  C     -0.001554   -0.695598    2.566237
  C      0.001554    1.377725    1.359666
  C     -0.001554   -1.377725    1.359666
  C     -0.000611    0.700261    0.137630
  C      0.000611   -0.700261    0.137630
  C     -0.033424    1.492200   -1.154152
  C      0.033424   -1.492200   -1.154152
  C      0.363799    0.671723   -2.381520
  C     -0.363799   -0.671723   -2.381520
  H      0.004381    1.242851    3.499649
  H     -0.004381   -1.242851    3.499649
  H      0.004118    2.461556    1.357812
  H     -0.004118   -2.461556    1.357812
  H     -1.048027    1.879885   -1.300277
  H      0.609583    2.369836   -1.057795
  H      1.048027   -1.879885   -1.300277
  H     -0.609583   -2.369836   -1.057795
  H      0.142317    1.233423   -3.290989
  H      1.444186    0.496649   -2.375566
  H     -0.142317   -1.233423   -3.290989
  H     -1.444186   -0.496649   -2.375566

 Total Charge           Charge          ....    0
 Multiplicity           Mult            ....    1
 Number of Electrons    NEL             ....   72
 Basis Dimension        Dim             ....  736

ORBITAL ENERGIES
----------------

  NO   OCC          E(Eh)            E(eV)
   0   2.0000     -11.232194      -305.6435
   1   2.0000     -11.231007      -305.6112
   2   2.0000     -11.225598      -305.4640
   3   2.0000     -11.224615      -305.4373
   4   2.0000     -11.223778      -305.4145
   5   2.0000     -11.223777      -305.4145
   6   2.0000     -11.223507      -305.4072
   7   2.0000     -11.223268      -305.4006
   8   2.0000     -11.219857      -305.3078
   9   2.0000     -11.219242      -305.2911
  10   2.0000      -1.159842       -31.5609
  11   2.0000      -1.091602       -29.7040
  12   2.0000      -1.037511       -28.2321
  13   2.0000      -1.001893       -27.2629
  14   2.0000      -0.970234       -26.4014
  15   2.0000      -0.863330       -23.4924
  16   2.0000      -0.827489       -22.5171
  17   2.0000      -0.811958       -22.0945
  18   2.0000      -0.748842       -20.3770
  19   2.0000      -0.679770       -18.4975
  20   2.0000      -0.644089       -17.5265
  21   2.0000      -0.639267       -17.3953
  22   2.0000      -0.607102       -16.5201
  23   2.0000      -0.588500       -16.0139
  24   2.0000      -0.587359       -15.9829
  25   2.0000      -0.561181       -15.2705
  26   2.0000      -0.538274       -14.6472
  27   2.0000      -0.534734       -14.5509
  28   2.0000      -0.519882       -14.1467
  29   2.0000      -0.494078       -13.4446
  30   2.0000      -0.471941       -12.8422
  31   2.0000      -0.470707       -12.8086
  32   2.0000      -0.448722       -12.2103
  33   2.0000      -0.443926       -12.0798
  34   2.0000      -0.324687        -8.8352
  35   2.0000      -0.315942        -8.5972
  36   0.0000       0.029870         0.8128
  37   0.0000       0.031837         0.8663
  38   0.0000       0.032010         0.8710
  39   0.0000       0.040086         1.0908
  40   0.0000       0.044264         1.2045

MULLIKEN ATOMIC CHARGES
-----------------------
   0 C :   -0.420015
   1 C :   -0.420019
   2 C :   -1.183046
   3 C :   -1.183041
   4 C :    1.091179
   5 C :    1.091178
   6 C :   -0.609817
   7 C :   -0.609816
   8 C :   -0.505804
   9 C :   -0.505806
  10 H :    0.531534
  11 H :    0.531535
  12 H :    0.169182
  13 H :    0.169182
  14 H :    0.190984
  15 H :    0.251225
  16 H :    0.190984
  17 H :    0.251226
  18 H :    0.290819
  19 H :    0.193759
  20 H :    0.290819
  21 H :    0.193759
Sum of atomic charges:    0.0000000

LOEWDIN ATOMIC CHARGES
----------------------
   0 C :    0.195611
   1 C :    0.195611
   2 C :    0.216291
   3 C :    0.216291
   4 C :   -0.066719
   5 C :   -0.066719
   6 C :    0.290240
   7 C :    0.290240
   8 C :    0.292239
   9 C :    0.292239
  10 H :   -0.186816
  11 H :   -0.186816
  12 H :   -0.176310
  13 H :   -0.176310
  14 H :   -0.138316
  15 H :   -0.147855
  16 H :   -0.138316
  17 H :   -0.147855
  18 H :   -0.140814
  19 H :   -0.137551
  20 H :   -0.140814
  21 H :   -0.137551

  Mayer bond orders larger than 0.100000
B(  0-C ,  1-C ) :   0.9941 B(  0-C ,  2-C ) :   1.0404 B(  0-C ,  4-C ) :   0.1112
B(  0-C , 10-H ) :   0.6709 B(  1-C ,  3-C ) :   1.0404 B(  1-C ,  5-C ) :   0.1112
B(  1-C , 11-H ) :   0.6709 B(  2-C ,  3-C ) :   0.1358 B(  2-C ,  4-C ) :   0.2992
B(  2-C ,  5-C ) :   0.1825 B(  2-C ,  6-C ) :   0.1918 B(  2-C , 12-H ) :   1.2856
B(  3-C ,  4-C ) :   0.1825 B(  3-C ,  5-C ) :   0.2992 B(  3-C ,  7-C ) :   0.1918
B(  3-C , 13-H ) :   1.2856 B(  4-C ,  5-C ) :   1.0479 B(  4-C ,  6-C ) :   0.2668
B(  5-C ,  7-C ) :   0.2668 B(  6-C ,  8-C ) :   0.9678 B(  6-C ,  9-C ) :   0.1033
B(  6-C , 14-H ) :   1.0616 B(  6-C , 15-H ) :   1.0447 B(  7-C ,  8-C ) :   0.1033
B(  7-C ,  9-C ) :   0.9678 B(  7-C , 16-H ) :   1.0616 B(  7-C , 17-H ) :   1.0447
B(  8-C ,  9-C ) :   0.9203 B(  8-C , 18-H ) :   0.9425 B(  8-C , 19-H ) :   1.0276
B(  9-C , 20-H ) :   0.9425 B(  9-C , 21-H ) :   1.0276

MP2 TOTAL ENERGY:     -387.465506916 Eh
FINAL SINGLE POINT ENERGY      -387.465506915645

DIPOLE MOMENT
-------------
                                X             Y             Z
Electronic contribution:      0.00000       0.00000       6.17081
Nuclear contribution   :      0.00000      -0.00000      -6.47880
                        -----------------------------------------
Total Dipole Moment    :      0.00000       0.00000      -0.30799
                        -----------------------------------------
Magnitude (a.u.)       :      0.30799
Magnitude (Debye)      :      0.78286

Rotational constants in cm-1:     0.093093     0.037585     0.027674
Rotational constants in MHz :  2790.870361  1126.782182   829.651414

                             ****ORCA TERMINATED NORMALLY****
TOTAL RUN TIME: 0 days 0 hours 17 minutes 1 seconds 459 msec
