                         Program Version 5.0.3 -  RELEASE  -
|  1> !ri-mp2 aug-cc-pvtz aug-cc-pvtz/c tightscf
|  2> %pal nprocs 16 end
|  3> %maxcore 3800
|  4>
|  5> * xyz 0 1
|  6> C     -3.230761   -0.667661    0.267528
|  7> C      1.613648   -1.548109   -1.362053
|  8> C      1.930118    0.028520    1.827269
|  9> C     -0.095597    2.218883   -0.923603
| 10> C     -0.975112   -0.563177   -0.371630
| 11> C      0.386263    0.049656   -0.003455
| 12> O     -1.977896   -0.047508    0.468903
| 13> O      1.332271   -0.191322   -1.040678
| 14> O      0.777361   -0.532375    1.194775
| 15> O      0.352154    1.427453    0.171175
| 16> H     -3.588767   -0.528974   -0.760344
| 17> H     -3.934183   -0.201346    0.953910
| 18> H     -3.183230   -1.742606    0.478392
| 19> H      1.786633   -2.144110   -0.464434
| 20> H      2.519368   -1.537660   -1.964779
| 21> H      0.811054   -2.004198   -1.948597
| 22> H      2.760884    0.121924    1.126655
| 23> H      2.196807   -0.665495    2.620743
| 24> H      1.704697    1.005239    2.252683
| 25> H     -1.160540    2.065114   -1.111288
| 26> H      0.478256    2.010258   -1.826711
| 27> H      0.061973    3.253034   -0.626958
| 28> H     -0.901685   -1.650429   -0.263497
| 29> H     -1.193741   -0.339419   -1.423512
| 30> *
| 31>
| 32>                          ****END OF INPUT****

CARTESIAN COORDINATES (ANGSTROEM)
---------------------------------
  C     -3.230761   -0.667661    0.267528
  C      1.613648   -1.548109   -1.362053
  C      1.930118    0.028520    1.827269
  C     -0.095597    2.218883   -0.923603
  C     -0.975112   -0.563177   -0.371630
  C      0.386263    0.049656   -0.003455
  O     -1.977896   -0.047508    0.468903
  O      1.332271   -0.191322   -1.040678
  O      0.777361   -0.532375    1.194775
  O      0.352154    1.427453    0.171175
  H     -3.588767   -0.528974   -0.760344
  H     -3.934183   -0.201346    0.953910
  H     -3.183230   -1.742606    0.478392
  H      1.786633   -2.144110   -0.464434
  H      2.519368   -1.537660   -1.964779
  H      0.811054   -2.004198   -1.948597
  H      2.760884    0.121924    1.126655
  H      2.196807   -0.665495    2.620743
  H      1.704697    1.005239    2.252683
  H     -1.160540    2.065114   -1.111288
  H      0.478256    2.010258   -1.826711
  H      0.061973    3.253034   -0.626958
  H     -0.901685   -1.650429   -0.263497
  H     -1.193741   -0.339419   -1.423512

 Total Charge           Charge          ....    0
 Multiplicity           Mult            ....    1
 Number of Electrons    NEL             ....   82
 Basis Dimension        Dim             ....  782

ORBITAL ENERGIES
----------------

  NO   OCC          E(Eh)            E(eV)
   0   2.0000     -20.560702      -559.4852
   1   2.0000     -20.558854      -559.4348
   2   2.0000     -20.557815      -559.4066
   3   2.0000     -20.557270      -559.3917
   4   2.0000     -11.388249      -309.8900
   5   2.0000     -11.278594      -306.9061
   6   2.0000     -11.273753      -306.7744
   7   2.0000     -11.272477      -306.7397
   8   2.0000     -11.265420      -306.5477
   9   2.0000     -11.260529      -306.4146
  10   2.0000      -1.452255       -39.5179
  11   2.0000      -1.376782       -37.4641
  12   2.0000      -1.345362       -36.6092
  13   2.0000      -1.344172       -36.5768
  14   2.0000      -1.021003       -27.7829
  15   2.0000      -0.959241       -26.1023
  16   2.0000      -0.930435       -25.3184
  17   2.0000      -0.924642       -25.1608
  18   2.0000      -0.887855       -24.1598
  19   2.0000      -0.779182       -21.2026
  20   2.0000      -0.712467       -19.3872
  21   2.0000      -0.706085       -19.2135
  22   2.0000      -0.697377       -18.9766
  23   2.0000      -0.662947       -18.0397
  24   2.0000      -0.649207       -17.6658
  25   2.0000      -0.621263       -16.9054
  26   2.0000      -0.615914       -16.7599
  27   2.0000      -0.603077       -16.4106
  28   2.0000      -0.596223       -16.2241
  29   2.0000      -0.583295       -15.8723
  30   2.0000      -0.576427       -15.6854
  31   2.0000      -0.554697       -15.0941
  32   2.0000      -0.540255       -14.7011
  33   2.0000      -0.517294       -14.0763
  34   2.0000      -0.499066       -13.5803
  35   2.0000      -0.485710       -13.2169
  36   2.0000      -0.474420       -12.9096
  37   2.0000      -0.445726       -12.1288
  38   2.0000      -0.440837       -11.9958
  39   2.0000      -0.427290       -11.6272
  40   2.0000      -0.425796       -11.5865
  41   0.0000       0.027114         0.7378
  42   0.0000       0.033611         0.9146
  43   0.0000       0.036777         1.0007
  44   0.0000       0.038654         1.0518
  45   0.0000       0.049415         1.3446

MULLIKEN ATOMIC CHARGES
-----------------------
   0 C :   -0.994887
   1 C :   -1.035221
   2 C :   -1.026956
   3 C :   -1.036726
   4 C :   -0.112855
   5 C :    1.966514
   6 O :   -0.718522
   7 O :   -0.682628
   8 O :   -0.673770
   9 O :   -0.681741
  10 H :    0.347772
  11 H :    0.319662
  12 H :    0.354129
  13 H :    0.390523
  14 H :    0.321134
  15 H :    0.352257
  16 H :    0.361502
  17 H :    0.341644
  18 H :    0.378450
  19 H :    0.402880
  20 H :    0.406099
  21 H :    0.332049
  22 H :    0.370580
  23 H :    0.318111
Sum of atomic charges:   -0.0000000

LOEWDIN ATOMIC CHARGES
----------------------
   0 C :    0.325344
   1 C :    0.329732
   2 C :    0.349483
   3 C :    0.349090
   4 C :   -0.016187
   5 C :   -1.117888
   6 O :    0.565116
   7 O :    0.572460
   8 O :    0.577851
   9 O :    0.583378
  10 H :   -0.175973
  11 H :   -0.185257
  12 H :   -0.176825
  13 H :   -0.182961
  14 H :   -0.182953
  15 H :   -0.182194
  16 H :   -0.181979
  17 H :   -0.187838
  18 H :   -0.186869
  19 H :   -0.185487
  20 H :   -0.186479
  21 H :   -0.181533
  22 H :   -0.165013
  23 H :   -0.157018

  Mayer bond orders larger than 0.100000
B(  0-C ,  6-O ) :   1.1005 B(  0-C , 10-H ) :   0.8800 B(  0-C , 11-H ) :   0.9814
B(  0-C , 12-H ) :   0.8688 B(  1-C ,  7-O ) :   1.0293 B(  1-C , 13-H ) :   0.8521
B(  1-C , 14-H ) :   0.9728 B(  1-C , 15-H ) :   0.8777 B(  2-C ,  8-O ) :   1.0065
B(  2-C , 16-H ) :   0.8946 B(  2-C , 17-H ) :   0.9475 B(  2-C , 18-H ) :   0.8645
B(  3-C ,  9-O ) :   1.0659 B(  3-C , 19-H ) :   0.8263 B(  3-C , 20-H ) :   0.8460
B(  3-C , 21-H ) :   0.9684 B(  4-C ,  5-C ) :   0.8113 B(  4-C ,  6-O ) :   0.7537
B(  4-C , 22-H ) :   0.8581 B(  4-C , 23-H ) :   0.9927 B(  5-C ,  7-O ) :   0.3364
B(  5-C ,  8-O ) :   0.5256 B(  5-C ,  9-O ) :   0.2903

MP2 TOTAL ENERGY:     -536.988451719 Eh
FINAL SINGLE POINT ENERGY      -536.988451718652

DIPOLE MOMENT
-------------
                                X             Y             Z
Electronic contribution:      1.47726       1.87766       2.31016
Nuclear contribution   :     -1.67652      -2.40818      -3.02029
                        -----------------------------------------
Total Dipole Moment    :     -0.19925      -0.53052      -0.71013
                        -----------------------------------------
Magnitude (a.u.)       :      0.90854
Magnitude (Debye)      :      2.30932

Rotational constants in cm-1:     0.052367     0.031507     0.030181
Rotational constants in MHz :  1569.924064   944.551972   904.798595

                             ****ORCA TERMINATED NORMALLY****
TOTAL RUN TIME: 0 days 0 hours 16 minutes 7 seconds 893 msec
