                         Program Version 5.0.3 -  RELEASE  -
|  1> !ri-mp2 aug-cc-pvtz aug-cc-pvtz/c tightscf
|  2> %pal nprocs 16 end
|  3>
|  4> * xyz 0 1
|  5> C      1.696861   -1.488658    0.000000
|  6> C      1.351488   -0.149893    0.000000
|  7> C      0.678555   -2.438597    0.000000
|  8> C     -0.937596   -0.833228    0.000000
|  9> C      0.000000    0.201553    0.000000
| 10> C     -0.380417    1.650164    0.000000
| 11> C     -1.846581    2.020736    0.000000
| 12> N     -0.617071   -2.126889    0.000000
| 13> O      0.479637    2.507928    0.000000
| 14> H      2.731891   -1.800787    0.000000
| 15> H      2.096554    0.633301    0.000000
| 16> H      0.915030   -3.496491    0.000000
| 17> H     -1.998650   -0.616441    0.000000
| 18> H     -2.350642    1.614767    0.878826
| 19> H     -2.350642    1.614767   -0.878826
| 20> H     -1.935004    3.103219    0.000000
| 21> *
| 22>
| 23>                          ****END OF INPUT****

CARTESIAN COORDINATES (ANGSTROEM)
---------------------------------
  C      1.696861   -1.488658    0.000000
  C      1.351488   -0.149893    0.000000
  C      0.678555   -2.438597    0.000000
  C     -0.937596   -0.833228    0.000000
  C      0.000000    0.201553    0.000000
  C     -0.380417    1.650164    0.000000
  C     -1.846581    2.020736    0.000000
  N     -0.617071   -2.126889    0.000000
  O      0.479637    2.507928    0.000000
  H      2.731891   -1.800787    0.000000
  H      2.096554    0.633301    0.000000
  H      0.915030   -3.496491    0.000000
  H     -1.998650   -0.616441    0.000000
  H     -2.350642    1.614767    0.878826
  H     -2.350642    1.614767   -0.878826
  H     -1.935004    3.103219    0.000000

 Total Charge           Charge          ....    0
 Multiplicity           Mult            ....    1
 Number of Electrons    NEL             ....   64
 Basis Dimension        Dim             ....  575

ORBITAL ENERGIES
----------------

  NO   OCC          E(Eh)            E(eV)
   0   2.0000     -20.551842      -559.2441
   1   2.0000     -15.577484      -423.8849
   2   2.0000     -11.344473      -308.6988
   3   2.0000     -11.294313      -307.3339
   4   2.0000     -11.292278      -307.2785
   5   2.0000     -11.270556      -306.6874
   6   2.0000     -11.256065      -306.2931
   7   2.0000     -11.251114      -306.1584
   8   2.0000     -11.241296      -305.8912
   9   2.0000      -1.395055       -37.9614
  10   2.0000      -1.275854       -34.7178
  11   2.0000      -1.109875       -30.2012
  12   2.0000      -1.065855       -29.0034
  13   2.0000      -1.009643       -27.4738
  14   2.0000      -0.892495       -24.2860
  15   2.0000      -0.872140       -23.7321
  16   2.0000      -0.777631       -21.1604
  17   2.0000      -0.729473       -19.8500
  18   2.0000      -0.687120       -18.6975
  19   2.0000      -0.669120       -18.2077
  20   2.0000      -0.631521       -17.1846
  21   2.0000      -0.615653       -16.7528
  22   2.0000      -0.614270       -16.7151
  23   2.0000      -0.584932       -15.9168
  24   2.0000      -0.563056       -15.3215
  25   2.0000      -0.557280       -15.1643
  26   2.0000      -0.542047       -14.7498
  27   2.0000      -0.510469       -13.8906
  28   2.0000      -0.440556       -11.9881
  29   2.0000      -0.420956       -11.4548
  30   2.0000      -0.394287       -10.7291
  31   2.0000      -0.362681        -9.8691
  32   0.0000       0.026424         0.7190
  33   0.0000       0.028899         0.7864
  34   0.0000       0.037927         1.0320
  35   0.0000       0.043716         1.1896
  36   0.0000       0.046143         1.2556

MULLIKEN ATOMIC CHARGES
-----------------------
   0 C :   -0.348699
   1 C :   -1.122094
   2 C :   -0.662597
   3 C :   -0.542992
   4 C :    1.652841
   5 C :    0.558410
   6 C :   -0.769622
   7 N :   -0.579766
   8 O :   -0.992863
   9 H :    0.278417
  10 H :    0.419929
  11 H :    0.678723
  12 H :    0.521134
  13 H :    0.297293
  14 H :    0.297293
  15 H :    0.314595
Sum of atomic charges:    0.0000000

LOEWDIN ATOMIC CHARGES
----------------------
   0 C :    0.218665
   1 C :    0.210535
   2 C :    0.022411
   3 C :    0.023573
   4 C :   -0.113613
   5 C :   -0.524128
   6 C :    0.579547
   7 N :    0.382427
   8 O :    0.472365
   9 H :   -0.186905
  10 H :   -0.175367
  11 H :   -0.187166
  12 H :   -0.198902
  13 H :   -0.171445
  14 H :   -0.171445
  15 H :   -0.180551

  Mayer bond orders larger than 0.100000
B(  0-C ,  1-C ) :   1.3189 B(  0-C ,  2-C ) :   0.9084 B(  0-C ,  4-C ) :  -0.2107
B(  0-C ,  7-N ) :  -0.1477 B(  0-C ,  9-H ) :   1.0903 B(  1-C ,  2-C ) :   0.4421
B(  1-C ,  3-C ) :   0.3127 B(  1-C ,  4-C ) :   0.4326 B(  1-C ,  7-N ) :   0.1256
B(  1-C , 10-H ) :   0.8251 B(  2-C ,  3-C ) :   0.2329 B(  2-C ,  4-C ) :  -0.2780
B(  2-C ,  7-N ) :   1.4189 B(  2-C , 11-H ) :   0.3621 B(  3-C ,  4-C ) :   0.5731
B(  3-C ,  5-C ) :  -0.1335 B(  3-C ,  7-N ) :   0.7501 B(  3-C , 12-H ) :   0.6053
B(  4-C ,  5-C ) :   0.6855 B(  4-C ,  7-N ) :  -0.1547 B(  4-C ,  8-O ) :  -0.1500
B(  5-C ,  6-C ) :   0.8766 B(  5-C ,  8-O ) :   1.0632 B(  6-C , 13-H ) :   0.9600
B(  6-C , 14-H ) :   0.9600 B(  6-C , 15-H ) :   0.9303

MP2 TOTAL ENERGY:     -400.162543114 Eh
FINAL SINGLE POINT ENERGY      -400.162543114184

DIPOLE MOMENT
-------------
                                X             Y             Z
Electronic contribution:      2.70251      -1.52440      -0.00000
Nuclear contribution   :     -2.86506       1.07099       0.00000
                        -----------------------------------------
Total Dipole Moment    :     -0.16255      -0.45341      -0.00000
                        -----------------------------------------
Magnitude (a.u.)       :      0.48166
Magnitude (Debye)      :      1.22429

Rotational constants in cm-1:     0.125952     0.041168     0.031206
Rotational constants in MHz :  3775.947284  1234.200357   935.529301

                             ****ORCA TERMINATED NORMALLY****
TOTAL RUN TIME: 0 days 0 hours 7 minutes 57 seconds 478 msec
