                         Program Version 5.0.3 -  RELEASE  -
|  1> !ri-mp2 aug-cc-pvtz aug-cc-pvtz/c tightscf
|  2> %pal nprocs 16 end
|  3>
|  4> * xyz 0 1
|  5> C     0.000000    1.290037   -0.095700
|  6> S     0.000000    0.000000    1.123017
|  7> C     0.000000   -1.290037   -0.095700
|  8> S     0.098380   -2.902976    0.183152
|  9> S    -0.098380    2.902976    0.183152
| 10> N     0.082142    0.693918   -1.317219
| 11> N    -0.082142   -0.693918   -1.317219
| 12> H    -0.281158    1.189103   -2.119842
| 13> H     0.281158   -1.189103   -2.119842
| 14> *
| 15>
| 16>                          ****END OF INPUT****

CARTESIAN COORDINATES (ANGSTROEM)
---------------------------------
  C      0.000000    1.290037   -0.095700
  S      0.000000    0.000000    1.123017
  C      0.000000   -1.290037   -0.095700
  S      0.098380   -2.902976    0.183152
  S     -0.098380    2.902976    0.183152
  N      0.082142    0.693918   -1.317219
  N     -0.082142   -0.693918   -1.317219
  H     -0.281158    1.189103   -2.119842
  H      0.281158   -1.189103   -2.119842

 Total Charge           Charge          ....    0
 Multiplicity           Mult            ....    1
 Number of Electrons    NEL             ....   76
 Basis Dimension        Dim             ....  380

ORBITAL ENERGIES
----------------

  NO   OCC          E(Eh)            E(eV)
   0   2.0000     -92.040833     -2504.5584
   1   2.0000     -91.939468     -2501.8001
   2   2.0000     -91.939468     -2501.8001
   3   2.0000     -15.691306      -426.9821
   4   2.0000     -15.690779      -426.9678
   5   2.0000     -11.412523      -310.5505
   6   2.0000     -11.412509      -310.5502
   7   2.0000      -9.040970      -246.0173
   8   2.0000      -8.942354      -243.3338
   9   2.0000      -8.942354      -243.3338
  10   2.0000      -6.721531      -182.9022
  11   2.0000      -6.720624      -182.8775
  12   2.0000      -6.719707      -182.8525
  13   2.0000      -6.623725      -180.2407
  14   2.0000      -6.623724      -180.2407
  15   2.0000      -6.621930      -180.1919
  16   2.0000      -6.621929      -180.1919
  17   2.0000      -6.621087      -180.1689
  18   2.0000      -6.621086      -180.1689
  19   2.0000      -1.431774       -38.9606
  20   2.0000      -1.222599       -33.2686
  21   2.0000      -1.136864       -30.9356
  22   2.0000      -1.006107       -27.3776
  23   2.0000      -0.996501       -27.1162
  24   2.0000      -0.872989       -23.7553
  25   2.0000      -0.815369       -22.1873
  26   2.0000      -0.782164       -21.2838
  27   2.0000      -0.701720       -19.0948
  28   2.0000      -0.653112       -17.7721
  29   2.0000      -0.584155       -15.8957
  30   2.0000      -0.547831       -14.9072
  31   2.0000      -0.542764       -14.7694
  32   2.0000      -0.521747       -14.1974
  33   2.0000      -0.482905       -13.1405
  34   2.0000      -0.370399       -10.0791
  35   2.0000      -0.363396        -9.8885
  36   2.0000      -0.352896        -9.6028
  37   2.0000      -0.350091        -9.5265
  38   0.0000       0.015446         0.4203
  39   0.0000       0.037828         1.0294
  40   0.0000       0.053462         1.4548
  41   0.0000       0.054089         1.4718
  42   0.0000       0.056713         1.5432

MULLIKEN ATOMIC CHARGES
-----------------------
   0 C :    0.257254
   1 S :    0.112788
   2 C :    0.257254
   3 S :   -0.415958
   4 S :   -0.415958
   5 N :   -0.019368
   6 N :   -0.019368
   7 H :    0.121677
   8 H :    0.121677
Sum of atomic charges:   -0.0000000

LOEWDIN ATOMIC CHARGES
----------------------
   0 C :   -1.382154
   1 S :    1.151565
   2 C :   -1.382154
   3 S :    0.803106
   4 S :    0.803106
   5 N :    0.292848
   6 N :    0.292848
   7 H :   -0.289582
   8 H :   -0.289582

  Mayer bond orders larger than 0.100000
B(  0-C ,  1-S ) :   0.9768 B(  0-C ,  4-S ) :   1.5734 B(  0-C ,  5-N ) :   1.3177
B(  1-S ,  2-C ) :   0.9768 B(  2-C ,  3-S ) :   1.5734 B(  2-C ,  6-N ) :   1.3177
B(  5-N ,  6-N ) :   0.4796 B(  5-N ,  7-H ) :   1.0411 B(  6-N ,  8-H ) :   1.0411

MP2 TOTAL ENERGY:    -1379.707831553 Eh
FINAL SINGLE POINT ENERGY     -1379.707831552610

DIPOLE MOMENT
-------------
                                X             Y             Z
Electronic contribution:      0.00000       0.00000       2.67331
Nuclear contribution   :      0.00000       0.00000      -4.08642
                        -----------------------------------------
Total Dipole Moment    :      0.00000       0.00000      -1.41311
                        -----------------------------------------
Magnitude (a.u.)       :      1.41311
Magnitude (Debye)      :      3.59184

Rotational constants in cm-1:     0.167223     0.028207     0.024168
Rotational constants in MHz :  5013.209785   845.621398   724.528552

                             ****ORCA TERMINATED NORMALLY****
TOTAL RUN TIME: 0 days 0 hours 3 minutes 13 seconds 753 msec
