                         Program Version 5.0.3 -  RELEASE  -
|  1> !ri-mp2 aug-cc-pvtz aug-cc-pvtz/c tightscf
|  2> %pal nprocs 16 end
|  3>
|  4> * xyz 0 1
|  5> C      0.451706    0.483657   -0.467135
|  6> C     -0.861674   -0.168523   -0.001224
|  7> H      0.454491    0.558887   -1.551837
|  8> F      0.530176    1.727520    0.073771
|  9> Cl     1.858333   -0.488147    0.023923
| 10> F     -0.920875   -0.298900    1.324534
| 11> F     -1.892087    0.597920   -0.396345
| 12> F     -1.004585   -1.376672   -0.562482
| 13> *
| 14>
| 15>                          ****END OF INPUT****

CARTESIAN COORDINATES (ANGSTROEM)
---------------------------------
  C      0.451706    0.483657   -0.467135
  C     -0.861674   -0.168523   -0.001224
  H      0.454491    0.558887   -1.551837
  F      0.530176    1.727520    0.073771
  Cl     1.858333   -0.488147    0.023923
  F     -0.920875   -0.298900    1.324534
  F     -1.892087    0.597920   -0.396345
  F     -1.004585   -1.376672   -0.562482

 Total Charge           Charge          ....    0
 Multiplicity           Mult            ....    1
 Number of Electrons    NEL             ....   66
 Basis Dimension        Dim             ....  349

ORBITAL ENERGIES
----------------

  NO   OCC          E(Eh)            E(eV)
   0   2.0000    -104.874049     -2853.7679
   1   2.0000     -26.365866      -717.4517
   2   2.0000     -26.363529      -717.3881
   3   2.0000     -26.363227      -717.3799
   4   2.0000     -26.349057      -716.9943
   5   2.0000     -11.540319      -314.0280
   6   2.0000     -11.434483      -311.1481
   7   2.0000     -10.598216      -288.3921
   8   2.0000      -8.065046      -219.4611
   9   2.0000      -8.063023      -219.4060
  10   2.0000      -8.062932      -219.4035
  11   2.0000      -1.755121       -47.7593
  12   2.0000      -1.668675       -45.4070
  13   2.0000      -1.660184       -45.1759
  14   2.0000      -1.657819       -45.1116
  15   2.0000      -1.183556       -32.2062
  16   2.0000      -1.048378       -28.5278
  17   2.0000      -0.937660       -25.5150
  18   2.0000      -0.854446       -23.2506
  19   2.0000      -0.848462       -23.0878
  20   2.0000      -0.836804       -22.7706
  21   2.0000      -0.774519       -21.0757
  22   2.0000      -0.744247       -20.2520
  23   2.0000      -0.728857       -19.8332
  24   2.0000      -0.720492       -19.6056
  25   2.0000      -0.702341       -19.1117
  26   2.0000      -0.687232       -18.7005
  27   2.0000      -0.686335       -18.6761
  28   2.0000      -0.672801       -18.3078
  29   2.0000      -0.600398       -16.3377
  30   2.0000      -0.570105       -15.5133
  31   2.0000      -0.495093       -13.4722
  32   2.0000      -0.483298       -13.1512
  33   0.0000       0.029848         0.8122
  34   0.0000       0.061269         1.6672
  35   0.0000       0.063577         1.7300
  36   0.0000       0.076427         2.0797
  37   0.0000       0.094989         2.5848

MULLIKEN ATOMIC CHARGES
-----------------------
   0 C :    0.212019
   1 C :    1.235777
   2 H :    0.325047
   3 F :   -0.430899
   4 Cl:   -0.226037
   5 F :   -0.364607
   6 F :   -0.378284
   7 F :   -0.373015
Sum of atomic charges:    0.0000000

LOEWDIN ATOMIC CHARGES
----------------------
   0 C :   -1.018646
   1 C :   -1.605706
   2 H :   -0.259457
   3 F :    0.448030
   4 Cl:    0.941613
   5 F :    0.501178
   6 F :    0.498473
   7 F :    0.494515

  Mayer bond orders larger than 0.100000
B(  0-C ,  1-C ) :   0.9709 B(  0-C ,  2-H ) :   0.8889 B(  0-C ,  3-F ) :   0.7063
B(  0-C ,  4-Cl) :   0.9477 B(  1-C ,  5-F ) :   0.8088 B(  1-C ,  6-F ) :   0.8092
B(  1-C ,  7-F ) :   0.7948

MP2 TOTAL ENERGY:     -935.322890999 Eh
FINAL SINGLE POINT ENERGY      -935.322890999398

DIPOLE MOMENT
-------------
                                X             Y             Z
Electronic contribution:     -0.73932      -0.56774       1.22295
Nuclear contribution   :      0.94678       0.55898      -1.83473
                        -----------------------------------------
Total Dipole Moment    :      0.20746      -0.00876      -0.61178
                        -----------------------------------------
Magnitude (a.u.)       :      0.64606
Magnitude (Debye)      :      1.64216

Rotational constants in cm-1:     0.104989     0.058112     0.047384
Rotational constants in MHz :  3147.505562  1742.165073  1420.548829

                             ****ORCA TERMINATED NORMALLY****
TOTAL RUN TIME: 0 days 0 hours 1 minutes 33 seconds 275 msec
