                         Program Version 5.0.3 -  RELEASE  -
|  1> !ri-mp2 aug-cc-pvtz aug-cc-pvtz/c tightscf
|  2> %pal nprocs 16 end
|  3>
|  4> * xyz 0 1
|  5> C      0.965240    1.519566    0.000000
|  6> C      0.317239    0.938668    1.261849
|  7> C      0.317239    0.938668   -1.261849
|  8> C      0.317239   -0.596952    1.207472
|  9> C      0.317239   -0.596952   -1.207472
| 10> C     -1.745453   -1.132476    0.000000
| 11> N     -0.291486   -1.154914    0.000000
| 12> H      0.900662    2.609587    0.000000
| 13> H      2.032300    1.270920    0.000000
| 14> H      0.848574    1.272756    2.156437
| 15> H     -0.708429    1.307685    1.352481
| 16> H     -0.708429    1.307685   -1.352481
| 17> H      0.848574    1.272756   -2.156437
| 18> H      1.353737   -0.949519    1.247433
| 19> H     -0.193487   -1.015270    2.076593
| 20> H     -0.193487   -1.015270   -2.076593
| 21> H      1.353737   -0.949519   -1.247433
| 22> H     -2.112988   -1.660457   -0.881168
| 23> H     -2.199834   -0.129627    0.000000
| 24> H     -2.112988   -1.660457    0.881168
| 25> *
| 26>
| 27>                          ****END OF INPUT****

CARTESIAN COORDINATES (ANGSTROEM)
---------------------------------
  C      0.965240    1.519566    0.000000
  C      0.317239    0.938668    1.261849
  C      0.317239    0.938668   -1.261849
  C      0.317239   -0.596952    1.207472
  C      0.317239   -0.596952   -1.207472
  C     -1.745453   -1.132476    0.000000
  N     -0.291486   -1.154914    0.000000
  H      0.900662    2.609587    0.000000
  H      2.032300    1.270920    0.000000
  H      0.848574    1.272756    2.156437
  H     -0.708429    1.307685    1.352481
  H     -0.708429    1.307685   -1.352481
  H      0.848574    1.272756   -2.156437
  H      1.353737   -0.949519    1.247433
  H     -0.193487   -1.015270    2.076593
  H     -0.193487   -1.015270   -2.076593
  H      1.353737   -0.949519   -1.247433
  H     -2.112988   -1.660457   -0.881168
  H     -2.199834   -0.129627    0.000000
  H     -2.112988   -1.660457    0.881168

 Total Charge           Charge          ....    0
 Multiplicity           Mult            ....    1
 Number of Electrons    NEL             ....   56
 Basis Dimension        Dim             ....  621

ORBITAL ENERGIES
----------------

  NO   OCC          E(Eh)            E(eV)
   0   2.0000     -15.535822      -422.7512
   1   2.0000     -11.239816      -305.8509
   2   2.0000     -11.239801      -305.8505
   3   2.0000     -11.236551      -305.7621
   4   2.0000     -11.215812      -305.1978
   5   2.0000     -11.213106      -305.1241
   6   2.0000     -11.213030      -305.1221
   7   2.0000      -1.222487       -33.2656
   8   2.0000      -1.062297       -28.9066
   9   2.0000      -1.008971       -27.4555
  10   2.0000      -0.937837       -25.5198
  11   2.0000      -0.844764       -22.9872
  12   2.0000      -0.833253       -22.6740
  13   2.0000      -0.746690       -20.3185
  14   2.0000      -0.657066       -17.8797
  15   2.0000      -0.630442       -17.1552
  16   2.0000      -0.613213       -16.6864
  17   2.0000      -0.602040       -16.3823
  18   2.0000      -0.568846       -15.4791
  19   2.0000      -0.562715       -15.3123
  20   2.0000      -0.528448       -14.3798
  21   2.0000      -0.510775       -13.8989
  22   2.0000      -0.502659       -13.6781
  23   2.0000      -0.483146       -13.1471
  24   2.0000      -0.481183       -13.0937
  25   2.0000      -0.452955       -12.3255
  26   2.0000      -0.443649       -12.0723
  27   2.0000      -0.333995        -9.0885
  28   0.0000       0.029685         0.8078
  29   0.0000       0.035565         0.9678
  30   0.0000       0.037295         1.0149
  31   0.0000       0.038843         1.0570
  32   0.0000       0.051273         1.3952

MULLIKEN ATOMIC CHARGES
-----------------------
   0 C :   -0.526564
   1 C :   -0.371791
   2 C :   -0.371791
   3 C :   -0.531903
   4 C :   -0.531903
   5 C :   -1.008861
   6 N :   -0.146917
   7 H :    0.304150
   8 H :    0.146069
   9 H :    0.344496
  10 H :    0.145023
  11 H :    0.145023
  12 H :    0.344496
  13 H :    0.241939
  14 H :    0.320743
  15 H :    0.320743
  16 H :    0.241939
  17 H :    0.315848
  18 H :    0.303412
  19 H :    0.315848
Sum of atomic charges:    0.0000000

LOEWDIN ATOMIC CHARGES
----------------------
   0 C :    0.288456
   1 C :    0.298050
   2 C :    0.298050
   3 C :    0.172217
   4 C :    0.172217
   5 C :    0.447379
   6 N :    0.270277
   7 H :   -0.144233
   8 H :   -0.143630
   9 H :   -0.143763
  10 H :   -0.149099
  11 H :   -0.149099
  12 H :   -0.143763
  13 H :   -0.141045
  14 H :   -0.147018
  15 H :   -0.147018
  16 H :   -0.141045
  17 H :   -0.167603
  18 H :   -0.161728
  19 H :   -0.167603

  Mayer bond orders larger than 0.100000
B(  0-C ,  1-C ) :   0.8789 B(  0-C ,  2-C ) :   0.8789 B(  0-C ,  7-H ) :   0.9248
B(  0-C ,  8-H ) :   1.0451 B(  1-C ,  3-C ) :   0.8611 B(  1-C ,  9-H ) :   0.8518
B(  1-C , 10-H ) :   1.0608 B(  2-C ,  4-C ) :   0.8611 B(  2-C , 11-H ) :   1.0608
B(  2-C , 12-H ) :   0.8518 B(  3-C ,  6-N ) :   0.9189 B(  3-C , 13-H ) :   1.0050
B(  3-C , 14-H ) :   0.9134 B(  4-C ,  6-N ) :   0.9189 B(  4-C , 15-H ) :   0.9134
B(  4-C , 16-H ) :   1.0050 B(  5-C ,  6-N ) :   0.8838 B(  5-C , 17-H ) :   0.9407
B(  5-C , 18-H ) :   0.9317 B(  5-C , 19-H ) :   0.9407

MP2 TOTAL ENERGY:     -290.586817753 Eh
FINAL SINGLE POINT ENERGY      -290.586817752688

DIPOLE MOMENT
-------------
                                X             Y             Z
Electronic contribution:      0.88626      -1.40482      -0.00000
Nuclear contribution   :     -0.94780       1.75450       0.00000
                        -----------------------------------------
Total Dipole Moment    :     -0.06154       0.34969      -0.00000
                        -----------------------------------------
Magnitude (a.u.)       :      0.35506
Magnitude (Debye)      :      0.90249

Rotational constants in cm-1:     0.124627     0.086409     0.065015
Rotational constants in MHz :  3736.228708  2590.484516  1949.095637

                             ****ORCA TERMINATED NORMALLY****
TOTAL RUN TIME: 0 days 0 hours 9 minutes 9 seconds 623 msec
