                         Program Version 5.0.3 -  RELEASE  -
|  1> !ri-mp2 aug-cc-pvtz aug-cc-pvtz/c tightscf
|  2> %pal nprocs 16 end
|  3> %maxcore 3800
|  4>
|  5> * xyz 0 1
|  6> O     -1.061346   -2.675415    0.000027
|  7> C     -1.022143   -1.457090    0.000009
|  8> C      0.261151   -0.701650   -0.000016
|  9> C      0.261151    0.701650    0.000016
| 10> C     -1.022143    1.457090   -0.000009
| 11> O     -1.061346    2.675415   -0.000027
| 12> C     -2.274483    0.667940   -0.000007
| 13> C     -2.274483   -0.667940    0.000007
| 14> C      1.470163    1.394082    0.000035
| 15> C      2.669385    0.696780    0.000020
| 16> C      2.669385   -0.696780   -0.000020
| 17> C      1.470163   -1.394082   -0.000035
| 18> H     -3.189344    1.246182    0.000000
| 19> H     -3.189344   -1.246182   -0.000001
| 20> H      1.449164    2.474559    0.000078
| 21> H      3.606515    1.236642    0.000045
| 22> H      3.606515   -1.236642   -0.000045
| 23> H      1.449163   -2.474559   -0.000077
| 24> *
| 25>
| 26>                          ****END OF INPUT****

CARTESIAN COORDINATES (ANGSTROEM)
---------------------------------
  O     -1.061346   -2.675415    0.000027
  C     -1.022143   -1.457090    0.000009
  C      0.261151   -0.701650   -0.000016
  C      0.261151    0.701650    0.000016
  C     -1.022143    1.457090   -0.000009
  O     -1.061346    2.675415   -0.000027
  C     -2.274483    0.667940   -0.000007
  C     -2.274483   -0.667940    0.000007
  C      1.470163    1.394082    0.000035
  C      2.669385    0.696780    0.000020
  C      2.669385   -0.696780   -0.000020
  C      1.470163   -1.394082   -0.000035
  H     -3.189344    1.246182    0.000000
  H     -3.189344   -1.246182   -0.000001
  H      1.449164    2.474559    0.000078
  H      3.606515    1.236642    0.000045
  H      3.606515   -1.236642   -0.000045
  H      1.449163   -2.474559   -0.000077

 Total Charge           Charge          ....    0
 Multiplicity           Mult            ....    1
 Number of Electrons    NEL             ....   82
 Basis Dimension        Dim             ....  690

ORBITAL ENERGIES
----------------

  NO   OCC          E(Eh)            E(eV)
   0   2.0000     -20.569374      -559.7211
   1   2.0000     -20.569373      -559.7211
   2   2.0000     -11.356575      -309.0281
   3   2.0000     -11.356567      -309.0279
   4   2.0000     -11.278965      -306.9162
   5   2.0000     -11.277257      -306.8698
   6   2.0000     -11.272388      -306.7373
   7   2.0000     -11.271220      -306.7055
   8   2.0000     -11.264215      -306.5149
   9   2.0000     -11.263096      -306.4844
  10   2.0000     -11.261317      -306.4360
  11   2.0000     -11.261225      -306.4335
  12   2.0000      -1.408352       -38.3232
  13   2.0000      -1.405920       -38.2570
  14   2.0000      -1.193329       -32.4721
  15   2.0000      -1.129802       -30.7435
  16   2.0000      -1.053375       -28.6638
  17   2.0000      -1.051732       -28.6191
  18   2.0000      -0.950484       -25.8640
  19   2.0000      -0.882755       -24.0210
  20   2.0000      -0.872009       -23.7286
  21   2.0000      -0.804996       -21.9051
  22   2.0000      -0.738930       -20.1073
  23   2.0000      -0.738263       -20.0892
  24   2.0000      -0.699747       -19.0411
  25   2.0000      -0.669955       -18.2304
  26   2.0000      -0.655316       -17.8320
  27   2.0000      -0.629107       -17.1189
  28   2.0000      -0.625890       -17.0313
  29   2.0000      -0.605762       -16.4836
  30   2.0000      -0.601986       -16.3809
  31   2.0000      -0.599826       -16.3221
  32   2.0000      -0.553717       -15.0674
  33   2.0000      -0.548767       -14.9327
  34   2.0000      -0.525056       -14.2875
  35   2.0000      -0.513910       -13.9842
  36   2.0000      -0.457302       -12.4438
  37   2.0000      -0.436225       -11.8703
  38   2.0000      -0.411581       -11.1997
  39   2.0000      -0.366765        -9.9802
  40   2.0000      -0.361651        -9.8410
  41   0.0000       0.008755         0.2382
  42   0.0000       0.024711         0.6724
  43   0.0000       0.029013         0.7895
  44   0.0000       0.034914         0.9501
  45   0.0000       0.044854         1.2205

MULLIKEN ATOMIC CHARGES
-----------------------
   0 O :   -1.159883
   1 C :    0.958361
   2 C :    1.365488
   3 C :    1.365563
   4 C :    0.958355
   5 O :   -1.159877
   6 C :   -0.784995
   7 C :   -0.785038
   8 C :   -1.324138
   9 C :   -0.272254
  10 C :   -0.272275
  11 C :   -1.324087
  12 H :    0.566782
  13 H :    0.566785
  14 H :    0.055416
  15 H :    0.595194
  16 H :    0.595209
  17 H :    0.055393
Sum of atomic charges:    0.0000000

LOEWDIN ATOMIC CHARGES
----------------------
   0 O :    0.481858
   1 C :   -0.530823
   2 C :   -0.109769
   3 C :   -0.109769
   4 C :   -0.530823
   5 O :    0.481858
   6 C :    0.238767
   7 C :    0.238767
   8 C :    0.228936
   9 C :    0.227749
  10 C :    0.227749
  11 C :    0.228936
  12 H :   -0.179561
  13 H :   -0.179561
  14 H :   -0.180427
  15 H :   -0.176729
  16 H :   -0.176729
  17 H :   -0.180427

  Mayer bond orders larger than 0.100000
B(  0-O ,  1-C ) :   0.4429 B(  0-O ,  7-C ) :   0.1157 B(  0-O , 17-H ) :   0.2326
B(  1-C ,  2-C ) :   0.5781 B(  1-C ,  4-C ) :   0.2442 B(  1-C ,  7-C ) :   0.8252
B(  1-C ,  8-C ) :  -0.1176 B(  1-C , 11-C ) :   0.5403 B(  1-C , 13-H ) :  -0.1142
B(  1-C , 16-H ) :   0.1450 B(  2-C ,  3-C ) :   0.7058 B(  2-C ,  6-C ) :  -0.2532
B(  2-C ,  7-C ) :   0.3343 B(  2-C ,  8-C ) :  -0.3044 B(  2-C , 11-C ) :   0.2243
B(  3-C ,  4-C ) :   0.5781 B(  3-C ,  6-C ) :   0.3343 B(  3-C ,  7-C ) :  -0.2532
B(  3-C ,  8-C ) :   0.2243 B(  3-C , 11-C ) :  -0.3044 B(  4-C ,  5-O ) :   0.4430
B(  4-C ,  6-C ) :   0.8252 B(  4-C ,  8-C ) :   0.5403 B(  4-C , 11-C ) :  -0.1177
B(  4-C , 12-H ) :  -0.1142 B(  4-C , 15-H ) :   0.1450 B(  5-O ,  6-C ) :   0.1156
B(  5-O , 14-H ) :   0.2326 B(  6-C ,  7-C ) :   1.7146 B(  6-C , 12-H ) :   0.4551
B(  7-C , 13-H ) :   0.4551 B(  8-C ,  9-C ) :   1.0953 B(  8-C , 11-C ) :   0.2423
B(  8-C , 14-H ) :   1.4433 B(  8-C , 15-H ) :  -0.2418 B(  9-C , 10-C ) :   1.0759
B(  9-C , 14-H ) :  -0.1019 B(  9-C , 15-H ) :   0.6076 B( 10-C , 11-C ) :   1.0953
B( 10-C , 16-H ) :   0.6076 B( 10-C , 17-H ) :  -0.1019 B( 11-C , 16-H ) :  -0.2418
B( 11-C , 17-H ) :   1.4434

MP2 TOTAL ENERGY:     -534.111645136 Eh
FINAL SINGLE POINT ENERGY      -534.111645135574

DIPOLE MOMENT
-------------
                                X             Y             Z
Electronic contribution:     -3.03542       0.00000       0.00000
Nuclear contribution   :      3.60205      -0.00000      -0.00000
                        -----------------------------------------
Total Dipole Moment    :      0.56663       0.00000       0.00000
                        -----------------------------------------
Magnitude (a.u.)       :      0.56663
Magnitude (Debye)      :      1.44025

Rotational constants in cm-1:     0.044422     0.036566     0.020056
Rotational constants in MHz :  1331.736669  1096.216287   601.276653

                             ****ORCA TERMINATED NORMALLY****
TOTAL RUN TIME: 0 days 0 hours 16 minutes 7 seconds 607 msec
