                         Program Version 5.0.3 -  RELEASE  -
|  1> !ri-mp2 aug-cc-pvtz aug-cc-pvtz/c tightscf
|  2> %pal nprocs 16 end
|  3>
|  4> * xyz 0 1
|  5> S      2.234917   -0.046861   -0.380987
|  6> O      1.029141    0.354103    0.770290
|  7> N     -0.255522    0.153491    0.329665
|  8> N     -0.759156   -1.072879    0.283649
|  9> C     -1.110151    1.132332   -0.046094
| 10> C     -2.009920   -0.883942   -0.135575
| 11> C     -2.285470    0.479908   -0.353541
| 12> H      2.229010   -1.378082   -0.153039
| 13> H     -0.817337    2.166144   -0.049950
| 14> H     -2.661697   -1.731812   -0.260982
| 15> H     -3.205769    0.926620   -0.684484
| 16> *
| 17>
| 18>                          ****END OF INPUT****

CARTESIAN COORDINATES (ANGSTROEM)
---------------------------------
  S      2.234917   -0.046861   -0.380987
  O      1.029141    0.354103    0.770290
  N     -0.255522    0.153491    0.329665
  N     -0.759156   -1.072879    0.283649
  C     -1.110151    1.132332   -0.046094
  C     -2.009920   -0.883942   -0.135575
  C     -2.285470    0.479908   -0.353541
  H      2.229010   -1.378082   -0.153039
  H     -0.817337    2.166144   -0.049950
  H     -2.661697   -1.731812   -0.260982
  H     -3.205769    0.926620   -0.684484

 Total Charge           Charge          ....    0
 Multiplicity           Mult            ....    1
 Number of Electrons    NEL             ....   60
 Basis Dimension        Dim             ....  418

ORBITAL ENERGIES
----------------

  NO   OCC          E(Eh)            E(eV)
   0   2.0000     -92.027945     -2504.2077
   1   2.0000     -20.663138      -562.2726
   2   2.0000     -15.706213      -427.3878
   3   2.0000     -15.599687      -424.4891
   4   2.0000     -11.288723      -307.1818
   5   2.0000     -11.263567      -306.4972
   6   2.0000     -11.232132      -305.6419
   7   2.0000      -9.023506      -245.5421
   8   2.0000      -6.704561      -182.4404
   9   2.0000      -6.703031      -182.3987
  10   2.0000      -6.701787      -182.3649
  11   2.0000      -1.498371       -40.7727
  12   2.0000      -1.338719       -36.4284
  13   2.0000      -1.099598       -29.9216
  14   2.0000      -1.056149       -28.7393
  15   2.0000      -0.959747       -26.1161
  16   2.0000      -0.834248       -22.7010
  17   2.0000      -0.796955       -21.6862
  18   2.0000      -0.750117       -20.4117
  19   2.0000      -0.696031       -18.9400
  20   2.0000      -0.643150       -17.5010
  21   2.0000      -0.634113       -17.2551
  22   2.0000      -0.590394       -16.0654
  23   2.0000      -0.577415       -15.7123
  24   2.0000      -0.557747       -15.1771
  25   2.0000      -0.496984       -13.5236
  26   2.0000      -0.475303       -12.9337
  27   2.0000      -0.399746       -10.8776
  28   2.0000      -0.363667        -9.8959
  29   2.0000      -0.357300        -9.7226
  30   0.0000       0.028699         0.7809
  31   0.0000       0.035512         0.9663
  32   0.0000       0.036862         1.0031
  33   0.0000       0.047829         1.3015
  34   0.0000       0.064498         1.7551

MULLIKEN ATOMIC CHARGES
-----------------------
   0 S :    0.059837
   1 O :   -0.724815
   2 N :    1.161123
   3 N :   -0.946004
   4 C :   -0.887206
   5 C :   -0.371134
   6 C :   -0.236788
   7 H :    0.212121
   8 H :    0.620785
   9 H :    0.671844
  10 H :    0.440237
Sum of atomic charges:    0.0000000

LOEWDIN ATOMIC CHARGES
----------------------
   0 S :    1.026657
   1 O :    0.042587
   2 N :   -0.406009
   3 N :    0.264194
   4 C :    0.090740
   5 C :   -0.024855
   6 C :    0.177112
   7 H :   -0.593645
   8 H :   -0.170545
   9 H :   -0.202259
  10 H :   -0.203975

  Mayer bond orders larger than 0.100000
B(  0-S ,  1-O ) :   0.8930 B(  0-S ,  2-N ) :  -0.1267 B(  0-S ,  7-H ) :   0.9723
B(  1-O ,  2-N ) :   0.3534 B(  2-N ,  3-N ) :   0.1594 B(  2-N ,  4-C ) :   1.3908
B(  2-N ,  6-C ) :  -0.2914 B(  3-N ,  5-C ) :   1.4618 B(  4-C ,  6-C ) :   1.2257
B(  4-C ,  8-H ) :   0.5793 B(  5-C ,  6-C ) :   1.1367 B(  5-C ,  9-H ) :   0.5154
B(  6-C , 10-H ) :   0.8520

MP2 TOTAL ENERGY:     -698.532719496 Eh
FINAL SINGLE POINT ENERGY      -698.532719495866

DIPOLE MOMENT
-------------
                                X             Y             Z
Electronic contribution:      4.24450       0.36305       0.60451
Nuclear contribution   :     -4.38024      -0.01504      -1.08762
                        -----------------------------------------
Total Dipole Moment    :     -0.13574       0.34801      -0.48311
                        -----------------------------------------
Magnitude (a.u.)       :      0.61068
Magnitude (Debye)      :      1.55223

Rotational constants in cm-1:     0.222823     0.047584     0.043029
Rotational constants in MHz :  6680.065771  1426.522572  1289.975724

                             ****ORCA TERMINATED NORMALLY****
TOTAL RUN TIME: 0 days 0 hours 3 minutes 10 seconds 493 msec
