                         Program Version 5.0.3 -  RELEASE  -
|  1> !ri-mp2 aug-cc-pvtz aug-cc-pvtz/c tightscf
|  2> %pal nprocs 16 end
|  3> %maxcore 3800
|  4>
|  5> * xyz 0 1
|  6> C      3.765859    0.209204   -0.140016
|  7> C      2.871247    1.268614   -0.080295
|  8> C      3.285014   -1.096397   -0.096293
|  9> C      1.501209    1.040638    0.021750
| 10> C      1.922891   -1.340443   -0.004248
| 11> C      1.037573   -0.269346    0.047854
| 12> C     -1.259747    0.330131   -0.172330
| 13> C     -2.570202   -0.417612   -0.421522
| 14> O     -0.303784   -0.607745    0.144654
| 15> F     -1.447135    1.227529    0.863041
| 16> F     -3.502465    0.470307   -0.869796
| 17> F     -3.033392   -0.973051    0.723910
| 18> H      4.827889    0.396517   -0.213025
| 19> H      3.234180    2.287210   -0.099256
| 20> H      3.972559   -1.930152   -0.137897
| 21> H      0.820685    1.874043    0.108414
| 22> H      1.531930   -2.347555    0.026613
| 23> H     -0.988788    0.912792   -1.057218
| 24> H     -2.444324   -1.202689   -1.168659
| 25> *
| 26>
| 27>                          ****END OF INPUT****

CARTESIAN COORDINATES (ANGSTROEM)
---------------------------------
  C      3.765859    0.209204   -0.140016
  C      2.871247    1.268614   -0.080295
  C      3.285014   -1.096397   -0.096293
  C      1.501209    1.040638    0.021750
  C      1.922891   -1.340443   -0.004248
  C      1.037573   -0.269346    0.047854
  C     -1.259747    0.330131   -0.172330
  C     -2.570202   -0.417612   -0.421522
  O     -0.303784   -0.607745    0.144654
  F     -1.447135    1.227529    0.863041
  F     -3.502465    0.470307   -0.869796
  F     -3.033392   -0.973051    0.723910
  H      4.827889    0.396517   -0.213025
  H      3.234180    2.287210   -0.099256
  H      3.972559   -1.930152   -0.137897
  H      0.820685    1.874043    0.108414
  H      1.531930   -2.347555    0.026613
  H     -0.988788    0.912792   -1.057218
  H     -2.444324   -1.202689   -1.168659

 Total Charge           Charge          ....    0
 Multiplicity           Mult            ....    1
 Number of Electrons    NEL             ....   90
 Basis Dimension        Dim             ....  713

ORBITAL ENERGIES
----------------

  NO   OCC          E(Eh)            E(eV)
   0   2.0000     -26.324195      -716.3178
   1   2.0000     -26.321804      -716.2527
   2   2.0000     -26.310418      -715.9429
   3   2.0000     -20.622026      -561.1539
   4   2.0000     -11.426144      -310.9212
   5   2.0000     -11.405221      -310.3518
   6   2.0000     -11.320380      -308.0432
   7   2.0000     -11.252691      -306.2013
   8   2.0000     -11.251985      -306.1821
   9   2.0000     -11.248304      -306.0819
  10   2.0000     -11.245337      -306.0012
  11   2.0000     -11.241838      -305.9060
  12   2.0000      -1.674160       -45.5562
  13   2.0000      -1.626969       -44.2721
  14   2.0000      -1.611304       -43.8458
  15   2.0000      -1.449829       -39.4519
  16   2.0000      -1.169743       -31.8303
  17   2.0000      -1.070086       -29.1185
  18   2.0000      -1.036073       -28.1930
  19   2.0000      -1.009824       -27.4787
  20   2.0000      -0.914751       -24.8917
  21   2.0000      -0.853897       -23.2357
  22   2.0000      -0.843531       -22.9537
  23   2.0000      -0.800838       -21.7919
  24   2.0000      -0.785928       -21.3862
  25   2.0000      -0.776476       -21.1290
  26   2.0000      -0.750047       -20.4098
  27   2.0000      -0.737146       -20.0588
  28   2.0000      -0.703415       -19.1409
  29   2.0000      -0.682106       -18.5611
  30   2.0000      -0.673931       -18.3386
  31   2.0000      -0.669046       -18.2057
  32   2.0000      -0.645477       -17.5643
  33   2.0000      -0.641248       -17.4492
  34   2.0000      -0.624252       -16.9868
  35   2.0000      -0.617036       -16.7904
  36   2.0000      -0.604746       -16.4560
  37   2.0000      -0.581725       -15.8296
  38   2.0000      -0.569525       -15.4976
  39   2.0000      -0.536639       -14.6027
  40   2.0000      -0.517581       -14.0841
  41   2.0000      -0.506960       -13.7951
  42   2.0000      -0.500953       -13.6316
  43   2.0000      -0.355841        -9.6829
  44   2.0000      -0.338355        -9.2071
  45   0.0000       0.024860         0.6765
  46   0.0000       0.029561         0.8044
  47   0.0000       0.031936         0.8690
  48   0.0000       0.043043         1.1713
  49   0.0000       0.045541         1.2392

MULLIKEN ATOMIC CHARGES
-----------------------
   0 C :   -0.596287
   1 C :   -0.508471
   2 C :   -0.351147
   3 C :   -0.572371
   4 C :   -0.914165
   5 C :    1.126624
   6 C :    0.408654
   7 C :    0.411820
   8 O :   -0.675200
   9 F :   -0.528151
  10 F :   -0.453815
  11 F :   -0.450587
  12 H :    0.494192
  13 H :    0.359388
  14 H :    0.369358
  15 H :    0.558952
  16 H :    0.564284
  17 H :    0.396862
  18 H :    0.360062
Sum of atomic charges:   -0.0000000

LOEWDIN ATOMIC CHARGES
----------------------
   0 C :    0.195174
   1 C :    0.197812
   2 C :    0.193506
   3 C :    0.210530
   4 C :    0.212322
   5 C :   -0.358902
   6 C :   -0.665417
   7 C :   -0.765868
   8 O :    0.587635
   9 F :    0.491620
  10 F :    0.481968
  11 F :    0.493752
  12 H :   -0.187916
  13 H :   -0.179806
  14 H :   -0.180614
  15 H :   -0.203731
  16 H :   -0.179911
  17 H :   -0.167021
  18 H :   -0.175132

  Mayer bond orders larger than 0.100000
B(  0-C ,  1-C ) :   1.2031 B(  0-C ,  2-C ) :   1.1436 B(  0-C ,  3-C ) :   0.2033
B(  0-C ,  4-C ) :   0.3343 B(  0-C , 12-H ) :   0.7326 B(  0-C , 14-H ) :  -0.1136
B(  1-C ,  2-C ) :  -0.1481 B(  1-C ,  3-C ) :   1.0515 B(  1-C ,  5-C ) :  -0.2873
B(  1-C , 13-H ) :   0.9752 B(  2-C ,  4-C ) :   1.1643 B(  2-C ,  5-C ) :  -0.2523
B(  2-C , 14-H ) :   0.9618 B(  3-C ,  4-C ) :   0.5051 B(  3-C ,  5-C ) :   0.8300
B(  3-C ,  8-O ) :  -0.2770 B(  3-C , 15-H ) :   0.5479 B(  4-C ,  5-C ) :   0.6211
B(  4-C , 15-H ) :  -0.1240 B(  4-C , 16-H ) :   0.5302 B(  5-C ,  8-O ) :   0.6305
B(  6-C ,  7-C ) :   0.9603 B(  6-C ,  8-O ) :   1.0654 B(  6-C ,  9-F ) :   0.4186
B(  6-C , 17-H ) :   0.8973 B(  7-C ,  9-F ) :   0.1451 B(  7-C , 10-F ) :   0.8011
B(  7-C , 11-F ) :   0.7757 B(  7-C , 18-H ) :   0.9566

MP2 TOTAL ENERGY:     -682.737534147 Eh
FINAL SINGLE POINT ENERGY      -682.737534146563

DIPOLE MOMENT
-------------
                                X             Y             Z
Electronic contribution:    -16.94114       0.50326       2.14242
Nuclear contribution   :     18.07299      -0.70553      -3.11593
                        -----------------------------------------
Total Dipole Moment    :      1.13185      -0.20226      -0.97351
                        -----------------------------------------
Magnitude (a.u.)       :      1.50655
Magnitude (Debye)      :      3.82935

Rotational constants in cm-1:     0.086562     0.014876     0.013602
Rotational constants in MHz :  2595.071317   445.969914   407.765366

                             ****ORCA TERMINATED NORMALLY****
TOTAL RUN TIME: 0 days 0 hours 12 minutes 16 seconds 845 msec
