                         Program Version 5.0.3 -  RELEASE  -
|  1> !ri-mp2 aug-cc-pvtz aug-cc-pvtz/c tightscf
|  2> %pal nprocs 16 end
|  3>
|  4> * xyz 0 1
|  5> C     -0.695065   -2.506553    0.000000
|  6> C      0.640810   -2.129667    0.000000
|  7> C     -1.686417   -1.527721    0.000000
|  8> C      0.985096   -0.782121    0.000000
|  9> C     -1.343694   -0.185795    0.000000
| 10> C      0.000000    0.209408    0.000000
| 11> C      0.343826    1.660851    0.000000
| 12> C      1.805185    2.046442    0.000000
| 13> N     -0.606615    2.511330    0.000000
| 14> H     -0.964675   -3.554227    0.000000
| 15> H      1.418044   -2.881961    0.000000
| 16> H     -2.729354   -1.815347    0.000000
| 17> H      2.031257   -0.512617    0.000000
| 18> H     -2.104187    0.580888    0.000000
| 19> H      2.317686    1.650451    0.878477
| 20> H      1.909909    3.129766    0.000000
| 21> H      2.317686    1.650451   -0.878477
| 22> H     -0.248508    3.464218    0.000000
| 23> *
| 24>
| 25>                          ****END OF INPUT****

CARTESIAN COORDINATES (ANGSTROEM)
---------------------------------
  C     -0.695065   -2.506553    0.000000
  C      0.640810   -2.129667    0.000000
  C     -1.686417   -1.527721    0.000000
  C      0.985096   -0.782121    0.000000
  C     -1.343694   -0.185795    0.000000
  C      0.000000    0.209408    0.000000
  C      0.343826    1.660851    0.000000
  C      1.805185    2.046442    0.000000
  N     -0.606615    2.511330    0.000000
  H     -0.964675   -3.554227    0.000000
  H      1.418044   -2.881961    0.000000
  H     -2.729354   -1.815347    0.000000
  H      2.031257   -0.512617    0.000000
  H     -2.104187    0.580888    0.000000
  H      2.317686    1.650451    0.878477
  H      1.909909    3.129766    0.000000
  H      2.317686    1.650451   -0.878477
  H     -0.248508    3.464218    0.000000

 Total Charge           Charge          ....    0
 Multiplicity           Mult            ....    1
 Number of Electrons    NEL             ....   64
 Basis Dimension        Dim             ....  621

ORBITAL ENERGIES
----------------

  NO   OCC          E(Eh)            E(eV)
   0   2.0000     -15.542261      -422.9264
   1   2.0000     -11.292283      -307.2787
   2   2.0000     -11.242998      -305.9375
   3   2.0000     -11.241500      -305.8968
   4   2.0000     -11.239784      -305.8501
   5   2.0000     -11.236904      -305.7717
   6   2.0000     -11.236143      -305.7510
   7   2.0000     -11.234066      -305.6945
   8   2.0000     -11.232470      -305.6510
   9   2.0000      -1.219872       -33.1944
  10   2.0000      -1.152365       -31.3574
  11   2.0000      -1.034199       -28.1420
  12   2.0000      -1.018825       -27.7236
  13   2.0000      -0.985564       -26.8186
  14   2.0000      -0.858609       -23.3639
  15   2.0000      -0.827973       -22.5303
  16   2.0000      -0.762904       -20.7597
  17   2.0000      -0.697285       -18.9741
  18   2.0000      -0.658003       -17.9052
  19   2.0000      -0.630614       -17.1599
  20   2.0000      -0.614645       -16.7253
  21   2.0000      -0.600251       -16.3336
  22   2.0000      -0.595083       -16.1930
  23   2.0000      -0.589277       -16.0350
  24   2.0000      -0.548356       -14.9215
  25   2.0000      -0.512291       -13.9402
  26   2.0000      -0.502714       -13.6795
  27   2.0000      -0.494428       -13.4541
  28   2.0000      -0.438197       -11.9239
  29   2.0000      -0.417392       -11.3578
  30   2.0000      -0.340436        -9.2637
  31   2.0000      -0.328119        -8.9286
  32   0.0000       0.026563         0.7228
  33   0.0000       0.029912         0.8140
  34   0.0000       0.035488         0.9657
  35   0.0000       0.044674         1.2157
  36   0.0000       0.045437         1.2364

MULLIKEN ATOMIC CHARGES
-----------------------
   0 C :   -0.163509
   1 C :   -0.863300
   2 C :   -0.711128
   3 C :   -0.776102
   4 C :   -0.881598
   5 C :    1.956870
   6 C :    0.702814
   7 C :   -0.774983
   8 N :   -1.001897
   9 H :    0.447910
  10 H :    0.506243
  11 H :    0.468673
  12 H :    0.008886
  13 H :    0.158442
  14 H :    0.275611
  15 H :    0.292325
  16 H :    0.275611
  17 H :    0.079130
Sum of atomic charges:   -0.0000000

LOEWDIN ATOMIC CHARGES
----------------------
   0 C :    0.199292
   1 C :    0.204199
   2 C :    0.206666
   3 C :    0.206360
   4 C :    0.211578
   5 C :   -0.112142
   6 C :   -0.290421
   7 C :    0.584491
   8 N :    0.678338
   9 H :   -0.183273
  10 H :   -0.185638
  11 H :   -0.184464
  12 H :   -0.199485
  13 H :   -0.199360
  14 H :   -0.165236
  15 H :   -0.179281
  16 H :   -0.165236
  17 H :   -0.426387

  Mayer bond orders larger than 0.100000
B(  0-C ,  1-C ) :   1.1034 B(  0-C ,  2-C ) :   1.1070 B(  0-C ,  3-C ) :  -0.1393
B(  0-C ,  4-C ) :  -0.1293 B(  0-C ,  9-H ) :   0.8291 B(  1-C ,  2-C ) :   0.1653
B(  1-C ,  3-C ) :   1.1235 B(  1-C ,  9-H ) :  -0.1657 B(  1-C , 10-H ) :   0.6840
B(  1-C , 12-H ) :  -0.1223 B(  2-C ,  4-C ) :   1.1831 B(  2-C ,  9-H ) :  -0.1604
B(  2-C , 11-H ) :   0.7988 B(  2-C , 13-H ) :  -0.1148 B(  3-C ,  4-C ) :  -0.3263
B(  3-C ,  5-C ) :   0.3002 B(  3-C ,  6-C ) :   0.2383 B(  3-C ,  8-N ) :   0.1155
B(  3-C , 10-H ) :  -0.1365 B(  3-C , 12-H ) :   1.7392 B(  3-C , 13-H ) :   0.1914
B(  4-C ,  5-C ) :   0.3384 B(  4-C ,  6-C ) :   0.2797 B(  4-C ,  9-H ) :   0.1467
B(  4-C , 11-H ) :  -0.1169 B(  4-C , 12-H ) :   0.1088 B(  4-C , 13-H ) :   1.3724
B(  5-C ,  6-C ) :   0.5227 B(  5-C ,  8-N ) :  -0.2208 B(  5-C , 12-H ) :  -0.2768
B(  5-C , 13-H ) :  -0.2096 B(  6-C ,  7-C ) :   0.7844 B(  6-C ,  8-N ) :   0.8749
B(  6-C , 10-H ) :   0.1521 B(  6-C , 11-H ) :   0.1482 B(  6-C , 12-H ) :  -0.1230
B(  6-C , 13-H ) :  -0.1469 B(  7-C , 14-H ) :   1.0016 B(  7-C , 15-H ) :   0.9334
B(  7-C , 16-H ) :   1.0016 B(  8-N , 13-H ) :   0.1316 B(  8-N , 17-H ) :   1.0444

MP2 TOTAL ENERGY:     -364.256251479 Eh
FINAL SINGLE POINT ENERGY      -364.256251478856

DIPOLE MOMENT
-------------
                                X             Y             Z
Electronic contribution:     -3.10739      -1.93862      -0.00000
Nuclear contribution   :      3.97838       1.74128       0.00000
                        -----------------------------------------
Total Dipole Moment    :      0.87099      -0.19734      -0.00000
                        -----------------------------------------
Magnitude (a.u.)       :      0.89306
Magnitude (Debye)      :      2.26998

Rotational constants in cm-1:     0.122566     0.040762     0.030763
Rotational constants in MHz :  3674.430451  1222.023841   922.246556

                             ****ORCA TERMINATED NORMALLY****
TOTAL RUN TIME: 0 days 0 hours 9 minutes 59 seconds 295 msec
