                         Program Version 5.0.3 -  RELEASE  -
|  1> !ri-mp2 aug-cc-pvtz aug-cc-pvtz/c tightscf
|  2> %pal nprocs 16 end
|  3>
|  4> * xyz 0 1
|  5> C      0.000000    0.000000    1.770041
|  6> C      0.000000    0.000000    0.257391
|  7> Cl     0.000000    1.689350   -0.363984
|  8> Cl     1.463020   -0.844675   -0.363984
|  9> Cl    -1.463020   -0.844675   -0.363984
| 10> H      0.000000   -1.025689    2.132856
| 11> H      0.888273    0.512844    2.132856
| 12> H     -0.888273    0.512844    2.132856
| 13> *
| 14>
| 15>                          ****END OF INPUT****

CARTESIAN COORDINATES (ANGSTROEM)
---------------------------------
  C      0.000000    0.000000    1.770041
  C      0.000000    0.000000    0.257391
  Cl     0.000000    1.689350   -0.363984
  Cl     1.463020   -0.844675   -0.363984
  Cl    -1.463020   -0.844675   -0.363984
  H      0.000000   -1.025689    2.132856
  H      0.888273    0.512844    2.132856
  H     -0.888273    0.512844    2.132856

 Total Charge           Charge          ....    0
 Multiplicity           Mult            ....    1
 Number of Electrons    NEL             ....   66
 Basis Dimension        Dim             ....  311

ORBITAL ENERGIES
----------------

  NO   OCC          E(Eh)            E(eV)
   0   2.0000    -104.859954     -2853.3844
   1   2.0000    -104.859954     -2853.3844
   2   2.0000    -104.859954     -2853.3844
   3   2.0000     -11.443204      -311.3854
   4   2.0000     -11.262705      -306.4738
   5   2.0000     -10.584071      -288.0072
   6   2.0000     -10.584071      -288.0072
   7   2.0000     -10.584058      -288.0069
   8   2.0000      -8.050788      -219.0731
   9   2.0000      -8.050787      -219.0731
  10   2.0000      -8.050787      -219.0731
  11   2.0000      -8.048762      -219.0180
  12   2.0000      -8.048762      -219.0180
  13   2.0000      -8.048762      -219.0180
  14   2.0000      -8.048732      -219.0171
  15   2.0000      -8.048732      -219.0171
  16   2.0000      -8.048730      -219.0171
  17   2.0000      -1.237178       -33.6653
  18   2.0000      -1.105060       -30.0702
  19   2.0000      -1.105060       -30.0702
  20   2.0000      -1.018830       -27.7238
  21   2.0000      -0.803665       -21.8688
  22   2.0000      -0.653202       -17.7745
  23   2.0000      -0.653202       -17.7745
  24   2.0000      -0.628887       -17.1129
  25   2.0000      -0.561213       -15.2714
  26   2.0000      -0.561213       -15.2714
  27   2.0000      -0.494741       -13.4626
  28   2.0000      -0.494741       -13.4626
  29   2.0000      -0.467156       -12.7120
  30   2.0000      -0.457345       -12.4450
  31   2.0000      -0.457345       -12.4450
  32   2.0000      -0.445917       -12.1340
  33   0.0000       0.030800         0.8381
  34   0.0000       0.047374         1.2891
  35   0.0000       0.047374         1.2891
  36   0.0000       0.062905         1.7117
  37   0.0000       0.079822         2.1721

MULLIKEN ATOMIC CHARGES
-----------------------
   0 C :   -0.860826
   1 C :    0.712420
   2 Cl:   -0.302837
   3 Cl:   -0.302837
   4 Cl:   -0.302837
   5 H :    0.352305
   6 H :    0.352305
   7 H :    0.352305
Sum of atomic charges:    0.0000000

LOEWDIN ATOMIC CHARGES
----------------------
   0 C :    0.281422
   1 C :   -2.101118
   2 Cl:    0.814799
   3 Cl:    0.814799
   4 Cl:    0.814799
   5 H :   -0.208234
   6 H :   -0.208234
   7 H :   -0.208234

  Mayer bond orders larger than 0.100000
B(  0-C ,  1-C ) :   0.9005 B(  0-C ,  5-H ) :   0.8958 B(  0-C ,  6-H ) :   0.8958
B(  0-C ,  7-H ) :   0.8958 B(  1-C ,  2-Cl) :   0.8244 B(  1-C ,  3-Cl) :   0.8244
B(  1-C ,  4-Cl) :   0.8244

MP2 TOTAL ENERGY:    -1456.992941920 Eh
FINAL SINGLE POINT ENERGY     -1456.992941919555

DIPOLE MOMENT
-------------
                                X             Y             Z
Electronic contribution:      0.00000       0.00000      -6.60941
Nuclear contribution   :      0.00000      -0.00000       7.39673
                        -----------------------------------------
Total Dipole Moment    :      0.00000      -0.00000       0.78732
                        -----------------------------------------
Magnitude (a.u.)       :      0.78732
Magnitude (Debye)      :      2.00121

Rotational constants in cm-1:     0.076918     0.076918     0.054961
Rotational constants in MHz :  2305.935061  2305.935047  1647.691764

                             ****ORCA TERMINATED NORMALLY****
TOTAL RUN TIME: 0 days 0 hours 1 minutes 29 seconds 141 msec
