                         Program Version 5.0.3 -  RELEASE  -
|  1> !ri-mp2 aug-cc-pvtz aug-cc-pvtz/c tightscf
|  2> %pal nprocs 16 end
|  3>
|  4> * xyz 0 1
|  5> F      2.330214   -0.536042    0.000001
|  6> F     -2.393334   -0.522974   -0.000003
|  7> N      1.036400   -0.102187    0.000000
|  8> C     -1.116301   -0.113298    0.000000
|  9> C     -0.028009   -0.957326   -0.000003
| 10> C      0.691209    1.205519    0.000003
| 11> C     -0.693561    1.228172    0.000003
| 12> H      0.078795   -2.024555   -0.000006
| 13> H      1.428370    1.986186    0.000006
| 14> H     -1.313902    2.106420    0.000004
| 15> *
| 16>
| 17>                          ****END OF INPUT****

CARTESIAN COORDINATES (ANGSTROEM)
---------------------------------
  F      2.330214   -0.536042    0.000001
  F     -2.393334   -0.522974   -0.000003
  N      1.036400   -0.102187    0.000000
  C     -1.116301   -0.113298    0.000000
  C     -0.028009   -0.957326   -0.000003
  C      0.691209    1.205519    0.000003
  C     -0.693561    1.228172    0.000003
  H      0.078795   -2.024555   -0.000006
  H      1.428370    1.986186    0.000006
  H     -1.313902    2.106420    0.000004

 Total Charge           Charge          ....    0
 Multiplicity           Mult            ....    1
 Number of Electrons    NEL             ....   52
 Basis Dimension        Dim             ....  391

ORBITAL ENERGIES
----------------

  NO   OCC          E(Eh)            E(eV)
   0   2.0000     -26.370890      -717.5884
   1   2.0000     -26.313629      -716.0303
   2   2.0000     -15.717933      -427.7067
   3   2.0000     -11.323813      -308.1366
   4   2.0000     -11.292427      -307.2826
   5   2.0000     -11.282075      -307.0009
   6   2.0000     -11.241065      -305.8849
   7   2.0000      -1.678394       -45.6714
   8   2.0000      -1.628302       -44.3083
   9   2.0000      -1.314622       -35.7727
  10   2.0000      -1.053211       -28.6593
  11   2.0000      -1.030572       -28.0433
  12   2.0000      -0.840821       -22.8799
  13   2.0000      -0.835125       -22.7249
  14   2.0000      -0.778781       -21.1917
  15   2.0000      -0.756897       -20.5962
  16   2.0000      -0.728288       -19.8177
  17   2.0000      -0.700796       -19.0696
  18   2.0000      -0.697299       -18.9745
  19   2.0000      -0.667350       -18.1595
  20   2.0000      -0.625180       -17.0120
  21   2.0000      -0.604755       -16.4562
  22   2.0000      -0.582317       -15.8456
  23   2.0000      -0.554454       -15.0874
  24   2.0000      -0.368050       -10.0151
  25   2.0000      -0.330769        -9.0007
  26   0.0000       0.028594         0.7781
  27   0.0000       0.034864         0.9487
  28   0.0000       0.039654         1.0790
  29   0.0000       0.069973         1.9040
  30   0.0000       0.073373         1.9966

MULLIKEN ATOMIC CHARGES
-----------------------
   0 F :   -0.408813
   1 F :   -0.389820
   2 N :    0.547058
   3 C :    0.559016
   4 C :   -0.689253
   5 C :   -0.761854
   6 C :   -0.614135
   7 H :    0.636308
   8 H :    0.665134
   9 H :    0.456359
Sum of atomic charges:    0.0000000

LOEWDIN ATOMIC CHARGES
----------------------
   0 F :    0.440399
   1 F :    0.482395
   2 N :   -0.213541
   3 C :   -0.556619
   4 C :    0.116383
   5 C :    0.098379
   6 C :    0.180243
   7 H :   -0.178942
   8 H :   -0.173310
   9 H :   -0.195387

  Mayer bond orders larger than 0.100000
B(  0-F ,  2-N ) :   0.5174 B(  1-F ,  3-C ) :   0.6251 B(  1-F ,  6-C ) :   0.1154
B(  2-N ,  3-C ) :  -0.1766 B(  2-N ,  4-C ) :   1.1121 B(  2-N ,  5-C ) :   1.1596
B(  2-N ,  6-C ) :  -0.1873 B(  3-C ,  4-C ) :   1.3267 B(  3-C ,  6-C ) :   1.3907
B(  4-C ,  7-H ) :   0.5300 B(  5-C ,  6-C ) :   1.2539 B(  5-C ,  8-H ) :   0.4730
B(  6-C ,  9-H ) :   0.8533

MP2 TOTAL ENERGY:     -407.922188494 Eh
FINAL SINGLE POINT ENERGY      -407.922188493869

DIPOLE MOMENT
-------------
                                X             Y             Z
Electronic contribution:      0.26436      -2.64043      -0.00001
Nuclear contribution   :      0.24794       2.94988       0.00001
                        -----------------------------------------
Total Dipole Moment    :      0.51230       0.30945       0.00000
                        -----------------------------------------
Magnitude (a.u.)       :      0.59851
Magnitude (Debye)      :      1.52129

Rotational constants in cm-1:     0.240743     0.065513     0.051498
Rotational constants in MHz :  7217.278969  1964.019050  1543.885555

                             ****ORCA TERMINATED NORMALLY****
TOTAL RUN TIME: 0 days 0 hours 2 minutes 38 seconds 719 msec
