                         Program Version 5.0.3 -  RELEASE  -
|  1> !ri-mp2 aug-cc-pvtz aug-cc-pvtz/c tightscf
|  2> %pal nprocs 16 end
|  3>
|  4> * xyz 0 1
|  5> F      2.238616   -0.469672   -1.083891
|  6> O     -0.514809   -2.003549    0.451487
|  7> O     -1.632764    1.813980   -0.275594
|  8> N     -0.198773    0.275717    0.380007
|  9> N     -0.548484    1.562718    0.217650
| 10> N     -2.134520   -0.747839   -0.527734
| 11> C     -0.963461   -0.934369    0.104720
| 12> C      1.144957    0.122000    0.957118
| 13> C      2.245900    0.443632   -0.031865
| 14> H     -2.462917    0.183522   -0.731508
| 15> H     -2.687718   -1.568038   -0.704569
| 16> H      1.225249   -0.904699    1.298472
| 17> H      1.231055    0.793777    1.810409
| 18> H      2.119544    1.439137   -0.458411
| 19> H      3.215888    0.378152    0.464183
| 20> *
| 21>
| 22>                          ****END OF INPUT****

CARTESIAN COORDINATES (ANGSTROEM)
---------------------------------
  F      2.238616   -0.469672   -1.083891
  O     -0.514809   -2.003549    0.451487
  O     -1.632764    1.813980   -0.275594
  N     -0.198773    0.275717    0.380007
  N     -0.548484    1.562718    0.217650
  N     -2.134520   -0.747839   -0.527734
  C     -0.963461   -0.934369    0.104720
  C      1.144957    0.122000    0.957118
  C      2.245900    0.443632   -0.031865
  H     -2.462917    0.183522   -0.731508
  H     -2.687718   -1.568038   -0.704569
  H      1.225249   -0.904699    1.298472
  H      1.231055    0.793777    1.810409
  H      2.119544    1.439137   -0.458411
  H      3.215888    0.378152    0.464183

 Total Charge           Charge          ....    0
 Multiplicity           Mult            ....    1
 Number of Electrons    NEL             ....   70
 Basis Dimension        Dim             ....  552

ORBITAL ENERGIES
----------------

  NO   OCC          E(Eh)            E(eV)
   0   2.0000     -26.287548      -715.3205
   1   2.0000     -20.625257      -561.2418
   2   2.0000     -20.543218      -559.0094
   3   2.0000     -15.766220      -429.0207
   4   2.0000     -15.665400      -426.2772
   5   2.0000     -15.598984      -424.4699
   6   2.0000     -11.414329      -310.5997
   7   2.0000     -11.326100      -308.1989
   8   2.0000     -11.293363      -307.3080
   9   2.0000      -1.595743       -43.4224
  10   2.0000      -1.549842       -42.1733
  11   2.0000      -1.424573       -38.7646
  12   2.0000      -1.303651       -35.4741
  13   2.0000      -1.236906       -33.6579
  14   2.0000      -1.060852       -28.8673
  15   2.0000      -0.984020       -26.7765
  16   2.0000      -0.899890       -24.4872
  17   2.0000      -0.817917       -22.2566
  18   2.0000      -0.762086       -20.7374
  19   2.0000      -0.759555       -20.6685
  20   2.0000      -0.722987       -19.6735
  21   2.0000      -0.714575       -19.4446
  22   2.0000      -0.690588       -18.7918
  23   2.0000      -0.683176       -18.5902
  24   2.0000      -0.660903       -17.9841
  25   2.0000      -0.648091       -17.6354
  26   2.0000      -0.613614       -16.6973
  27   2.0000      -0.597912       -16.2700
  28   2.0000      -0.585089       -15.9211
  29   2.0000      -0.548262       -14.9190
  30   2.0000      -0.536916       -14.6102
  31   2.0000      -0.480145       -13.0654
  32   2.0000      -0.442089       -12.0299
  33   2.0000      -0.438008       -11.9188
  34   2.0000      -0.430955       -11.7269
  35   0.0000       0.026801         0.7293
  36   0.0000       0.029855         0.8124
  37   0.0000       0.040872         1.1122
  38   0.0000       0.043748         1.1904
  39   0.0000       0.056761         1.5445

MULLIKEN ATOMIC CHARGES
-----------------------
   0 F :   -0.522149
   1 O :   -0.712853
   2 O :   -0.513628
   3 N :    0.681187
   4 N :   -0.227373
   5 N :   -0.352933
   6 C :    0.469628
   7 C :   -0.481894
   8 C :   -0.107139
   9 H :    0.247630
  10 H :    0.160305
  11 H :    0.399449
  12 H :    0.320507
  13 H :    0.299417
  14 H :    0.339847
Sum of atomic charges:   -0.0000000

LOEWDIN ATOMIC CHARGES
----------------------
   0 F :    0.451324
   1 O :    0.465487
   2 O :    0.318664
   3 N :    0.094795
   4 N :   -0.081631
   5 N :    0.856185
   6 C :   -0.756515
   7 C :    0.148974
   8 C :   -0.058060
   9 H :   -0.461100
  10 H :   -0.281433
  11 H :   -0.202412
  12 H :   -0.151373
  13 H :   -0.177283
  14 H :   -0.165623

  Mayer bond orders larger than 0.100000
B(  0-F ,  8-C ) :   0.6295 B(  1-O ,  6-C ) :   1.5626 B(  2-O ,  3-N ) :   0.1646
B(  2-O ,  4-N ) :   1.1412 B(  3-N ,  4-N ) :   0.4367 B(  3-N ,  6-C ) :   0.8134
B(  3-N ,  7-C ) :   0.9039 B(  5-N ,  6-C ) :   1.0963 B(  5-N ,  9-H ) :   0.9759
B(  5-N , 10-H ) :   1.0316 B(  7-C ,  8-C ) :   0.9186 B(  7-C , 11-H ) :   0.8660
B(  7-C , 12-H ) :   0.8743 B(  8-C , 13-H ) :   0.9525 B(  8-C , 14-H ) :   0.9291

MP2 TOTAL ENERGY:     -531.595879453 Eh
FINAL SINGLE POINT ENERGY      -531.595879452691

DIPOLE MOMENT
-------------
                                X             Y             Z
Electronic contribution:     -0.41382      -0.16967      -2.21733
Nuclear contribution   :      0.36929       0.76789       2.67819
                        -----------------------------------------
Total Dipole Moment    :     -0.04453       0.59822       0.46086
                        -----------------------------------------
Magnitude (a.u.)       :      0.75646
Magnitude (Debye)      :      1.92278

Rotational constants in cm-1:     0.072220     0.044243     0.032840
Rotational constants in MHz :  2165.099252  1326.357831   984.504128

                             ****ORCA TERMINATED NORMALLY****
TOTAL RUN TIME: 0 days 0 hours 7 minutes 29 seconds 849 msec
