                         Program Version 5.0.3 -  RELEASE  -
|  1> !ri-mp2 aug-cc-pvtz aug-cc-pvtz/c tightscf
|  2> %pal nprocs 16 end
|  3>
|  4> * xyz 0 1
|  5> C      2.514552   -0.302534   -0.010159
|  6> C      1.228558    0.521535    0.028293
|  7> C     -0.036512   -0.336644   -0.027812
|  8> C     -1.316665    0.487981    0.016814
|  9> O     -2.500646   -0.301127   -0.092060
| 10> H      2.565348   -0.993371    0.833797
| 11> H      2.575280   -0.895054   -0.925011
| 12> H      3.397647    0.336304    0.030805
| 13> H      1.214362    1.130960    0.936793
| 14> H      1.223025    1.225237   -0.809202
| 15> H     -0.039872   -0.939383   -0.939874
| 16> H     -0.034575   -1.041035    0.812011
| 17> H     -1.343796    1.095071    0.929885
| 18> H     -1.352146    1.175054   -0.829661
| 19> H     -2.539703   -0.906796    0.654122
| 20> *
| 21>
| 22>                          ****END OF INPUT****

CARTESIAN COORDINATES (ANGSTROEM)
---------------------------------
  C      2.514552   -0.302534   -0.010159
  C      1.228558    0.521535    0.028293
  C     -0.036512   -0.336644   -0.027812
  C     -1.316665    0.487981    0.016814
  O     -2.500646   -0.301127   -0.092060
  H      2.565348   -0.993371    0.833797
  H      2.575280   -0.895054   -0.925011
  H      3.397647    0.336304    0.030805
  H      1.214362    1.130960    0.936793
  H      1.223025    1.225237   -0.809202
  H     -0.039872   -0.939383   -0.939874
  H     -0.034575   -1.041035    0.812011
  H     -1.343796    1.095071    0.929885
  H     -1.352146    1.175054   -0.829661
  H     -2.539703   -0.906796    0.654122

 Total Charge           Charge          ....    0
 Multiplicity           Mult            ....    1
 Number of Electrons    NEL             ....   42
 Basis Dimension        Dim             ....  460

ORBITAL ENERGIES
----------------

  NO   OCC          E(Eh)            E(eV)
   0   2.0000     -20.554036      -559.3037
   1   2.0000     -11.271831      -306.7221
   2   2.0000     -11.224490      -305.4339
   3   2.0000     -11.220592      -305.3278
   4   2.0000     -11.215531      -305.1901
   5   2.0000      -1.353498       -36.8306
   6   2.0000      -1.073551       -29.2128
   7   2.0000      -0.975430       -26.5428
   8   2.0000      -0.861267       -23.4363
   9   2.0000      -0.802445       -21.8356
  10   2.0000      -0.689018       -18.7491
  11   2.0000      -0.639704       -17.4072
  12   2.0000      -0.610527       -16.6133
  13   2.0000      -0.597651       -16.2629
  14   2.0000      -0.553299       -15.0560
  15   2.0000      -0.542075       -14.7506
  16   2.0000      -0.516197       -14.0464
  17   2.0000      -0.482281       -13.1235
  18   2.0000      -0.477532       -12.9943
  19   2.0000      -0.467720       -12.7273
  20   2.0000      -0.434357       -11.8195
  21   0.0000       0.029204         0.7947
  22   0.0000       0.034849         0.9483
  23   0.0000       0.037676         1.0252
  24   0.0000       0.041439         1.1276
  25   0.0000       0.054120         1.4727

MULLIKEN ATOMIC CHARGES
-----------------------
   0 C :   -0.963729
   1 C :   -0.432425
   2 C :   -0.394344
   3 C :   -0.201551
   4 O :   -0.644428
   5 H :    0.274902
   6 H :    0.266768
   7 H :    0.274914
   8 H :    0.266463
   9 H :    0.267702
  10 H :    0.269309
  11 H :    0.267614
  12 H :    0.255819
  13 H :    0.323713
  14 H :    0.169274
Sum of atomic charges:   -0.0000000

LOEWDIN ATOMIC CHARGES
----------------------
   0 C :    0.578518
   1 C :    0.248945
   2 C :    0.261279
   3 C :    0.034140
   4 O :    0.804803
   5 H :   -0.171532
   6 H :   -0.170856
   7 H :   -0.173328
   8 H :   -0.149334
   9 H :   -0.148520
  10 H :   -0.146147
  11 H :   -0.149392
  12 H :   -0.154338
  13 H :   -0.163342
  14 H :   -0.500896

  Mayer bond orders larger than 0.100000
B(  0-C ,  1-C ) :   0.8914 B(  0-C ,  5-H ) :   0.9546 B(  0-C ,  6-H ) :   0.9554
B(  0-C ,  7-H ) :   0.9775 B(  1-C ,  2-C ) :   0.8550 B(  1-C ,  8-H ) :   0.9355
B(  1-C ,  9-H ) :   0.9431 B(  2-C ,  3-C ) :   0.9456 B(  2-C , 10-H ) :   0.9217
B(  2-C , 11-H ) :   0.9279 B(  3-C ,  4-O ) :   0.7252 B(  3-C , 12-H ) :   0.9837
B(  3-C , 13-H ) :   0.9169 B(  4-O , 14-H ) :   1.0003

MP2 TOTAL ENERGY:     -233.207322354 Eh
FINAL SINGLE POINT ENERGY      -233.207322354161

DIPOLE MOMENT
-------------
                                X             Y             Z
Electronic contribution:     -5.41182      -0.22256      -0.26342
Nuclear contribution   :      5.98715       0.19393       0.73663
                        -----------------------------------------
Total Dipole Moment    :      0.57533      -0.02862       0.47321
                        -----------------------------------------
Magnitude (a.u.)       :      0.74549
Magnitude (Debye)      :      1.89487

Rotational constants in cm-1:     0.625282     0.064971     0.061784
Rotational constants in MHz : 18745.468122  1947.790401  1852.251282

                             ****ORCA TERMINATED NORMALLY****
TOTAL RUN TIME: 0 days 0 hours 3 minutes 37 seconds 942 msec
