                         Program Version 5.0.3 -  RELEASE  -
|  1> !ri-mp2 aug-cc-pvtz aug-cc-pvtz/c tightscf
|  2> %pal nprocs 16 end
|  3> %maxcore 3800
|  4>
|  5> * xyz 0 1
|  6> C      1.600593    1.193755    0.000030
|  7> C      1.362015   -1.179084   -0.000623
|  8> C      0.214960    1.329237    0.000273
|  9> C     -0.018274   -1.043342   -0.000385
| 10> C      2.201025   -0.061784   -0.000327
| 11> C     -0.622831    0.217224    0.000106
| 12> C      3.699139   -0.219727    0.000340
| 13> C     -2.774529   -0.208537    1.265773
| 14> C     -2.774681   -0.207345   -1.265700
| 15> C     -2.132337    0.379225    0.000275
| 16> H      2.220883    2.081689    0.000055
| 17> H      1.797012   -2.171508   -0.001121
| 18> H     -0.219605    2.321673    0.000499
| 19> H     -0.631041   -1.935901   -0.000690
| 20> H      4.039551   -0.780061   -0.872912
| 21> H      4.199664    0.747760   -0.008810
| 22> H      4.040365   -0.763522    0.883764
| 23> H     -2.623372   -1.288055    1.321226
| 24> H     -3.850322   -0.023817    1.272330
| 25> H     -2.347796    0.233736    2.166427
| 26> H     -2.348059    0.235781   -2.165987
| 27> H     -3.850477   -0.022626   -1.271955
| 28> H     -2.623518   -1.286809   -1.322188
| 29> H     -2.333765    1.453939    0.000792
| 30> *
| 31>
| 32>                          ****END OF INPUT****

CARTESIAN COORDINATES (ANGSTROEM)
---------------------------------
  C      1.600593    1.193755    0.000030
  C      1.362015   -1.179084   -0.000623
  C      0.214960    1.329237    0.000273
  C     -0.018274   -1.043342   -0.000385
  C      2.201025   -0.061784   -0.000327
  C     -0.622831    0.217224    0.000106
  C      3.699139   -0.219727    0.000340
  C     -2.774529   -0.208537    1.265773
  C     -2.774681   -0.207345   -1.265700
  C     -2.132337    0.379225    0.000275
  H      2.220883    2.081689    0.000055
  H      1.797012   -2.171508   -0.001121
  H     -0.219605    2.321673    0.000499
  H     -0.631041   -1.935901   -0.000690
  H      4.039551   -0.780061   -0.872912
  H      4.199664    0.747760   -0.008810
  H      4.040365   -0.763522    0.883764
  H     -2.623372   -1.288055    1.321226
  H     -3.850322   -0.023817    1.272330
  H     -2.347796    0.233736    2.166427
  H     -2.348059    0.235781   -2.165987
  H     -3.850477   -0.022626   -1.271955
  H     -2.623518   -1.286809   -1.322188
  H     -2.333765    1.453939    0.000792

 Total Charge           Charge          ....    0
 Multiplicity           Mult            ....    1
 Number of Electrons    NEL             ....   74
 Basis Dimension        Dim             ....  782

ORBITAL ENERGIES
----------------

  NO   OCC          E(Eh)            E(eV)
   0   2.0000     -11.233910      -305.6902
   1   2.0000     -11.231697      -305.6300
   2   2.0000     -11.229501      -305.5703
   3   2.0000     -11.225731      -305.4677
   4   2.0000     -11.224900      -305.4451
   5   2.0000     -11.224421      -305.4320
   6   2.0000     -11.223677      -305.4118
   7   2.0000     -11.220268      -305.3190
   8   2.0000     -11.211579      -305.0826
   9   2.0000     -11.211561      -305.0821
  10   2.0000      -1.155525       -31.4434
  11   2.0000      -1.085365       -29.5343
  12   2.0000      -1.019534       -27.7429
  13   2.0000      -1.007672       -27.4202
  14   2.0000      -0.928846       -25.2752
  15   2.0000      -0.927775       -25.2460
  16   2.0000      -0.831496       -22.6261
  17   2.0000      -0.815946       -22.2030
  18   2.0000      -0.764392       -20.8002
  19   2.0000      -0.672019       -18.2866
  20   2.0000      -0.644261       -17.5312
  21   2.0000      -0.624965       -17.0062
  22   2.0000      -0.595114       -16.1939
  23   2.0000      -0.588401       -16.0112
  24   2.0000      -0.575939       -15.6721
  25   2.0000      -0.574277       -15.6269
  26   2.0000      -0.563346       -15.3294
  27   2.0000      -0.536938       -14.6108
  28   2.0000      -0.536194       -14.5906
  29   2.0000      -0.516444       -14.0531
  30   2.0000      -0.491673       -13.3791
  31   2.0000      -0.487850       -13.2751
  32   2.0000      -0.466356       -12.6902
  33   2.0000      -0.462752       -12.5921
  34   2.0000      -0.458800       -12.4846
  35   2.0000      -0.331544        -9.0218
  36   2.0000      -0.312515        -8.5040
  37   0.0000       0.028107         0.7648
  38   0.0000       0.030916         0.8413
  39   0.0000       0.034238         0.9317
  40   0.0000       0.039932         1.0866
  41   0.0000       0.043224         1.1762

MULLIKEN ATOMIC CHARGES
-----------------------
   0 C :   -0.506923
   1 C :   -1.251478
   2 C :   -1.049176
   3 C :   -1.117860
   4 C :    1.618348
   5 C :    2.010424
   6 C :   -0.903330
   7 C :   -1.030471
   8 C :   -1.030638
   9 C :    0.252710
  10 H :    0.129014
  11 H :    0.176392
  12 H :   -0.038628
  13 H :    0.000695
  14 H :    0.281534
  15 H :    0.238735
  16 H :    0.283104
  17 H :    0.307367
  18 H :    0.213572
  19 H :    0.312508
  20 H :    0.312502
  21 H :    0.213629
  22 H :    0.307333
  23 H :    0.270638
Sum of atomic charges:    0.0000000

LOEWDIN ATOMIC CHARGES
----------------------
   0 C :    0.221143
   1 C :    0.222291
   2 C :    0.228528
   3 C :    0.219922
   4 C :   -0.123362
   5 C :   -0.100519
   6 C :    0.576069
   7 C :    0.591747
   8 C :    0.591752
   9 C :   -0.054194
  10 H :   -0.181959
  11 H :   -0.174829
  12 H :   -0.177464
  13 H :   -0.179168
  14 H :   -0.168591
  15 H :   -0.181695
  16 H :   -0.168337
  17 H :   -0.168689
  18 H :   -0.164679
  19 H :   -0.159965
  20 H :   -0.159965
  21 H :   -0.164678
  22 H :   -0.168681
  23 H :   -0.154678

  Mayer bond orders larger than 0.100000
B(  0-C ,  1-C ) :  -0.1348 B(  0-C ,  2-C ) :   1.2272 B(  0-C ,  4-C ) :   0.8185
B(  0-C ,  5-C ) :   0.1068 B(  0-C , 10-H ) :   1.3710 B(  0-C , 12-H ) :  -0.1393
B(  1-C ,  3-C ) :   1.7280 B(  1-C ,  4-C ) :   0.7093 B(  1-C ,  9-C ) :  -0.1467
B(  1-C , 11-H ) :   1.3355 B(  1-C , 13-H ) :  -0.1582 B(  2-C ,  3-C ) :  -0.2541
B(  2-C ,  4-C ) :  -0.1021 B(  2-C ,  5-C ) :  -0.2516 B(  2-C ,  9-C ) :   0.1664
B(  2-C , 10-H ) :  -0.1603 B(  2-C , 12-H ) :   1.8763 B(  2-C , 13-H ) :   0.1484
B(  3-C ,  4-C ) :  -0.1196 B(  3-C ,  5-C ) :  -0.1660 B(  3-C ,  6-C ) :  -0.1291
B(  3-C ,  9-C ) :   0.3971 B(  3-C , 12-H ) :   0.1725 B(  3-C , 13-H ) :   1.5282
B(  4-C ,  5-C ) :   0.1249 B(  4-C ,  6-C ) :   0.2964 B(  4-C ,  9-C ) :   0.1351
B(  4-C , 10-H ) :  -0.1493 B(  4-C , 14-H ) :  -0.1275 B(  4-C , 16-H ) :  -0.1266
B(  5-C ,  6-C ) :   0.1062 B(  5-C ,  7-C ) :   0.1437 B(  5-C ,  8-C ) :   0.1435
B(  5-C ,  9-C ) :   0.9494 B(  5-C , 12-H ) :  -0.3846 B(  5-C , 13-H ) :  -0.3037
B(  6-C , 14-H ) :   1.0300 B(  6-C , 15-H ) :   1.0326 B(  6-C , 16-H ) :   1.0277
B(  7-C ,  8-C ) :   0.1540 B(  7-C ,  9-C ) :   0.6672 B(  7-C , 17-H ) :   0.9443
B(  7-C , 18-H ) :   1.0520 B(  7-C , 19-H ) :   0.9630 B(  8-C ,  9-C ) :   0.6674
B(  8-C , 20-H ) :   0.9630 B(  8-C , 21-H ) :   1.0520 B(  8-C , 22-H ) :   0.9442
B(  9-C , 23-H ) :   0.9404 B( 12-H , 13-H ) :   0.1035

MP2 TOTAL ENERGY:     -388.657346136 Eh
FINAL SINGLE POINT ENERGY      -388.657346136395

DIPOLE MOMENT
-------------
                                X             Y             Z
Electronic contribution:      4.69055       1.23799      -0.00112
Nuclear contribution   :     -4.69099      -1.24016       0.00148
                        -----------------------------------------
Total Dipole Moment    :     -0.00045      -0.00217       0.00036
                        -----------------------------------------
Magnitude (a.u.)       :      0.00225
Magnitude (Debye)      :      0.00571

Rotational constants in cm-1:     0.109448     0.024213     0.022853
Rotational constants in MHz :  3281.165643   725.892989   685.100869

                             ****ORCA TERMINATED NORMALLY****
TOTAL RUN TIME: 0 days 0 hours 18 minutes 33 seconds 507 msec
