                         Program Version 5.0.3 -  RELEASE  -
|  1> !ri-mp2 aug-cc-pvtz aug-cc-pvtz/c tightscf
|  2> %pal nprocs 16 end
|  3>
|  4> * xyz 0 1
|  5> Cl     1.206649    1.711643   -0.227494
|  6> S     -3.019563   -0.139639   -0.082460
|  7> N     -0.291654   -0.495146    0.196818
|  8> C      0.951475    0.047369    0.568780
|  9> C      2.117266   -0.819228    0.224719
| 10> C      2.032356   -1.986494   -0.395802
| 11> C     -1.463636   -0.293893    0.095615
| 12> H      0.943371    0.294738    1.629473
| 13> H      3.072452   -0.416382    0.534896
| 14> H      2.918954   -2.568416   -0.603567
| 15> H      1.082018   -2.394155   -0.711641
| 16> *
| 17>
| 18>                          ****END OF INPUT****

CARTESIAN COORDINATES (ANGSTROEM)
---------------------------------
  Cl     1.206649    1.711643   -0.227494
  S     -3.019563   -0.139639   -0.082460
  N     -0.291654   -0.495146    0.196818
  C      0.951475    0.047369    0.568780
  C      2.117266   -0.819228    0.224719
  C      2.032356   -1.986494   -0.395802
  C     -1.463636   -0.293893    0.095615
  H      0.943371    0.294738    1.629473
  H      3.072452   -0.416382    0.534896
  H      2.918954   -2.568416   -0.603567
  H      1.082018   -2.394155   -0.711641

 Total Charge           Charge          ....    0
 Multiplicity           Mult            ....    1
 Number of Electrons    NEL             ....   68
 Basis Dimension        Dim             ....  422

ORBITAL ENERGIES
----------------

  NO   OCC          E(Eh)            E(eV)
   0   2.0000    -104.840825     -2852.8639
   1   2.0000     -91.965230     -2502.5011
   2   2.0000     -15.621830      -425.0916
   3   2.0000     -11.394600      -310.0628
   4   2.0000     -11.385801      -309.8234
   5   2.0000     -11.265273      -306.5437
   6   2.0000     -11.253877      -306.2335
   7   2.0000     -10.564652      -287.4788
   8   2.0000      -8.968500      -244.0453
   9   2.0000      -8.031283      -218.5423
  10   2.0000      -8.029512      -218.4941
  11   2.0000      -8.029443      -218.4922
  12   2.0000      -6.650073      -180.9577
  13   2.0000      -6.647563      -180.8894
  14   2.0000      -6.647340      -180.8833
  15   2.0000      -1.321937       -35.9717
  16   2.0000      -1.154701       -31.4210
  17   2.0000      -1.073679       -29.2163
  18   2.0000      -1.051513       -28.6131
  19   2.0000      -0.963803       -26.2264
  20   2.0000      -0.835069       -22.7234
  21   2.0000      -0.741901       -20.1882
  22   2.0000      -0.687046       -18.6955
  23   2.0000      -0.643875       -17.5207
  24   2.0000      -0.623507       -16.9665
  25   2.0000      -0.606504       -16.5038
  26   2.0000      -0.562345       -15.3022
  27   2.0000      -0.546401       -14.8683
  28   2.0000      -0.526136       -14.3169
  29   2.0000      -0.466406       -12.6915
  30   2.0000      -0.455735       -12.4012
  31   2.0000      -0.396236       -10.7821
  32   2.0000      -0.381327       -10.3764
  33   2.0000      -0.371840       -10.1183
  34   0.0000       0.025373         0.6904
  35   0.0000       0.034402         0.9361
  36   0.0000       0.038755         1.0546
  37   0.0000       0.053623         1.4592
  38   0.0000       0.060333         1.6418

MULLIKEN ATOMIC CHARGES
-----------------------
   0 Cl:   -0.360555
   1 S :   -0.324615
   2 N :    0.065454
   3 C :    0.746811
   4 C :   -0.265220
   5 C :   -1.094088
   6 C :   -0.347538
   7 H :    0.300434
   8 H :    0.412858
   9 H :    0.499789
  10 H :    0.366670
Sum of atomic charges:    0.0000000

LOEWDIN ATOMIC CHARGES
----------------------
   0 Cl:    0.855865
   1 S :    0.861496
   2 N :    0.143135
   3 C :   -0.717655
   4 C :    0.087099
   5 C :    0.529337
   6 C :   -0.877712
   7 H :   -0.234903
   8 H :   -0.205522
   9 H :   -0.214956
  10 H :   -0.226185

  Mayer bond orders larger than 0.100000
B(  0-Cl,  3-C ) :   0.8394 B(  0-Cl,  7-H ) :   0.1078 B(  1-S ,  6-C ) :   1.8744
B(  2-N ,  3-C ) :   0.6801 B(  2-N ,  5-C ) :  -0.1209 B(  2-N ,  6-C ) :   1.9180
B(  3-C ,  4-C ) :   0.8331 B(  3-C ,  6-C ) :  -0.3414 B(  3-C ,  7-H ) :   0.9224
B(  4-C ,  5-C ) :   1.4275 B(  4-C ,  8-H ) :   0.8658 B(  5-C ,  9-H ) :   0.7043
B(  5-C , 10-H ) :   0.9594

MP2 TOTAL ENERGY:    -1066.560683722 Eh
FINAL SINGLE POINT ENERGY     -1066.560683721802

DIPOLE MOMENT
-------------
                                X             Y             Z
Electronic contribution:     -5.27777       6.58237      -0.66183
Nuclear contribution   :      6.10073      -7.19970       1.12640
                        -----------------------------------------
Total Dipole Moment    :      0.82296      -0.61733       0.46458
                        -----------------------------------------
Magnitude (a.u.)       :      1.12880
Magnitude (Debye)      :      2.86919

Rotational constants in cm-1:     0.089192     0.032512     0.024722
Rotational constants in MHz :  2673.908245   974.685251   741.153979

                             ****ORCA TERMINATED NORMALLY****
TOTAL RUN TIME: 0 days 0 hours 3 minutes 35 seconds 59 msec
