                         Program Version 5.0.3 -  RELEASE  -
|  1> !ri-mp2 aug-cc-pvtz aug-cc-pvtz/c tightscf
|  2> %pal nprocs 16 end
|  3>
|  4> * xyz 0 1
|  5> N      0.687175   -0.997210        0.000000
|  6> C     -0.670085   -0.896250        0.000000
|  7> H     -1.325913   -1.750118        0.000000
|  8> N     -1.137377    0.337628        0.000000
|  9> N      0.000000    1.069665        0.000000
| 10> H     -0.046582    2.073946        0.000000
| 11> C      1.075604    0.260484        0.000000
| 12> H      2.090800    0.620191        0.000000
| 13> *
| 14>
| 15>                          ****END OF INPUT****

CARTESIAN COORDINATES (ANGSTROEM)
---------------------------------
  N      0.687175   -0.997210    0.000000
  C     -0.670085   -0.896250    0.000000
  H     -1.325913   -1.750118    0.000000
  N     -1.137377    0.337628    0.000000
  N      0.000000    1.069665    0.000000
  H     -0.046582    2.073946    0.000000
  C      1.075604    0.260484    0.000000
  H      2.090800    0.620191    0.000000

 Total Charge           Charge          ....    0
 Multiplicity           Mult            ....    1
 Number of Electrons    NEL             ....   36
 Basis Dimension        Dim             ....  299

ORBITAL ENERGIES
----------------

  NO   OCC          E(Eh)            E(eV)
   0   2.0000     -15.658316      -426.0844
   1   2.0000     -15.600649      -424.5153
   2   2.0000     -15.562546      -423.4784
   3   2.0000     -11.323723      -308.1342
   4   2.0000     -11.290818      -307.2388
   5   2.0000      -1.419966       -38.6392
   6   2.0000      -1.202748       -32.7284
   7   2.0000      -1.119877       -30.4734
   8   2.0000      -0.870228       -23.6801
   9   2.0000      -0.836314       -22.7573
  10   2.0000      -0.774587       -21.0776
  11   2.0000      -0.642944       -17.4954
  12   2.0000      -0.640841       -17.4382
  13   2.0000      -0.597893       -16.2695
  14   2.0000      -0.510042       -13.8789
  15   2.0000      -0.453577       -12.3424
  16   2.0000      -0.422336       -11.4923
  17   2.0000      -0.379260       -10.3202
  18   0.0000       0.021712         0.5908
  19   0.0000       0.039480         1.0743
  20   0.0000       0.041564         1.1310
  21   0.0000       0.070335         1.9139
  22   0.0000       0.081962         2.2303

MULLIKEN ATOMIC CHARGES
-----------------------
   0 N :   -0.309157
   1 C :   -0.236524
   2 H :    0.607564
   3 N :   -0.599344
   4 N :    0.224077
   5 H :    0.160757
   6 C :   -0.450921
   7 H :    0.603548
Sum of atomic charges:   -0.0000000

LOEWDIN ATOMIC CHARGES
----------------------
   0 N :    0.340699
   1 C :   -0.212437
   2 H :   -0.207743
   3 N :    0.286677
   4 N :    0.317714
   5 H :   -0.262523
   6 C :   -0.089557
   7 H :   -0.172830

  Mayer bond orders larger than 0.100000
B(  0-N ,  1-C ) :   1.1069 B(  0-N ,  6-C ) :   1.3521 B(  1-C ,  2-H ) :   0.6047
B(  1-C ,  3-N ) :   1.5469 B(  1-C ,  6-C ) :  -0.2313 B(  3-N ,  4-N ) :   0.4688
B(  4-N ,  5-H ) :   1.0601 B(  4-N ,  6-C ) :   1.3337 B(  6-C ,  7-H ) :   0.5867

MP2 TOTAL ENERGY:     -241.825052476 Eh
FINAL SINGLE POINT ENERGY      -241.825052475712

DIPOLE MOMENT
-------------
                                X             Y             Z
Electronic contribution:     -0.19866       0.09863      -0.00000
Nuclear contribution   :      0.70057       0.92647       0.00000
                        -----------------------------------------
Total Dipole Moment    :      0.50191       1.02510      -0.00000
                        -----------------------------------------
Magnitude (a.u.)       :      1.14137
Magnitude (Debye)      :      2.90114

Rotational constants in cm-1:     0.343164     0.331286     0.168560
Rotational constants in MHz : 10287.812414  9931.708280  5053.312256

                             ****ORCA TERMINATED NORMALLY****
TOTAL RUN TIME: 0 days 0 hours 1 minutes 33 seconds 193 msec
