                         Program Version 5.0.3 -  RELEASE  -
|  1> !ri-mp2 aug-cc-pvtz aug-cc-pvtz/c tightscf
|  2> %pal nprocs 16 end
|  3>
|  4> * xyz 0 1
|  5> C     0.000000     0.000000    0.156756
|  6> C     0.000000     1.260347   -0.704215
|  7> C     0.000000    -1.260347   -0.704215
|  8> H     0.877590     0.000000    0.806673
|  9> H    -0.877590     0.000000    0.806673
| 10> S     0.000000     2.743925    0.388305
| 11> S     0.000000    -2.743925    0.388305
| 12> H     0.000000     3.667139   -0.589694
| 13> H     0.000000    -3.667139   -0.589694
| 14> H     0.885217     1.290973   -1.337416
| 15> H    -0.885217     1.290973   -1.337416
| 16> H    -0.885217    -1.290973   -1.337416
| 17> H     0.885217    -1.290973   -1.337416
| 18> *
| 19>
| 20>                          ****END OF INPUT****

CARTESIAN COORDINATES (ANGSTROEM)
---------------------------------
  C      0.000000    0.000000    0.156756
  C      0.000000    1.260347   -0.704215
  C      0.000000   -1.260347   -0.704215
  H      0.877590    0.000000    0.806673
  H     -0.877590    0.000000    0.806673
  S      0.000000    2.743925    0.388305
  S      0.000000   -2.743925    0.388305
  H      0.000000    3.667139   -0.589694
  H      0.000000   -3.667139   -0.589694
  H      0.885217    1.290973   -1.337416
  H     -0.885217    1.290973   -1.337416
  H     -0.885217   -1.290973   -1.337416
  H      0.885217   -1.290973   -1.337416

 Total Charge           Charge          ....    0
 Multiplicity           Mult            ....    1
 Number of Electrons    NEL             ....   58
 Basis Dimension        Dim             ....  422

ORBITAL ENERGIES
----------------

  NO   OCC          E(Eh)            E(eV)
   0   2.0000     -91.956321     -2502.2587
   1   2.0000     -91.956321     -2502.2587
   2   2.0000     -11.270760      -306.6930
   3   2.0000     -11.270760      -306.6930
   4   2.0000     -11.245878      -306.0159
   5   2.0000      -8.957157      -243.7366
   6   2.0000      -8.957156      -243.7366
   7   2.0000      -6.638468      -180.6419
   8   2.0000      -6.638467      -180.6419
   9   2.0000      -6.637496      -180.6154
  10   2.0000      -6.637495      -180.6154
  11   2.0000      -6.636451      -180.5870
  12   2.0000      -6.636451      -180.5870
  13   2.0000      -1.108214       -30.1560
  14   2.0000      -1.032478       -28.0952
  15   2.0000      -0.944820       -25.7099
  16   2.0000      -0.851581       -23.1727
  17   2.0000      -0.813246       -22.1295
  18   2.0000      -0.669204       -18.2100
  19   2.0000      -0.614457       -16.7202
  20   2.0000      -0.588286       -16.0081
  21   2.0000      -0.579095       -15.7580
  22   2.0000      -0.538561       -14.6550
  23   2.0000      -0.506442       -13.7810
  24   2.0000      -0.488297       -13.2872
  25   2.0000      -0.457483       -12.4487
  26   2.0000      -0.449971       -12.2443
  27   2.0000      -0.363797        -9.8994
  28   2.0000      -0.358688        -9.7604
  29   0.0000       0.026566         0.7229
  30   0.0000       0.032962         0.8970
  31   0.0000       0.039715         1.0807
  32   0.0000       0.043613         1.1868
  33   0.0000       0.051343         1.3971

MULLIKEN ATOMIC CHARGES
-----------------------
   0 C :   -0.440895
   1 C :   -0.388877
   2 C :   -0.388877
   3 H :    0.319428
   4 H :    0.319428
   5 S :   -0.326286
   6 S :   -0.326286
   7 H :    0.060166
   8 H :    0.060166
   9 H :    0.278008
  10 H :    0.278008
  11 H :    0.278008
  12 H :    0.278008
Sum of atomic charges:   -0.0000000

LOEWDIN ATOMIC CHARGES
----------------------
   0 C :    0.080303
   1 C :   -0.106895
   2 C :   -0.106895
   3 H :   -0.178259
   4 H :   -0.178259
   5 S :    1.272190
   6 S :    1.272190
   7 H :   -0.586731
   8 H :   -0.586731
   9 H :   -0.220228
  10 H :   -0.220228
  11 H :   -0.220228
  12 H :   -0.220228

  Mayer bond orders larger than 0.100000
B(  0-C ,  1-C ) :   0.9676 B(  0-C ,  2-C ) :   0.9676 B(  0-C ,  3-H ) :   0.9115
B(  0-C ,  4-H ) :   0.9115 B(  1-C ,  5-S ) :   0.9907 B(  1-C ,  9-H ) :   0.9193
B(  1-C , 10-H ) :   0.9193 B(  2-C ,  6-S ) :   0.9907 B(  2-C , 11-H ) :   0.9193
B(  2-C , 12-H ) :   0.9193 B(  5-S ,  7-H ) :   1.1050 B(  6-S ,  8-H ) :   1.1050

MP2 TOTAL ENERGY:     -914.297527607 Eh
FINAL SINGLE POINT ENERGY      -914.297527606930

DIPOLE MOMENT
-------------
                                X             Y             Z
Electronic contribution:     -0.00000       0.00000       3.82854
Nuclear contribution   :      0.00000       0.00000      -4.97214
                        -----------------------------------------
Total Dipole Moment    :     -0.00000       0.00000      -1.14359
                        -----------------------------------------
Magnitude (a.u.)       :      1.14359
Magnitude (Debye)      :      2.90678

Rotational constants in cm-1:     0.473656     0.030132     0.028785
Rotational constants in MHz : 14199.849654   903.320356   862.960020

                             ****ORCA TERMINATED NORMALLY****
TOTAL RUN TIME: 0 days 0 hours 2 minutes 56 seconds 911 msec
