                         Program Version 5.0.3 -  RELEASE  -
|  1> !ri-mp2 aug-cc-pvtz aug-cc-pvtz/c tightscf
|  2> %pal nprocs 16 end
|  3>
|  4> * xyz 0 1
|  5> C      2.533757   -0.306220   -0.014186
|  6> C      1.251222    0.522342    0.039823
|  7> C     -0.016716   -0.327791   -0.039403
|  8> C     -1.300133    0.493422    0.015850
|  9> N     -2.480785   -0.370083   -0.090337
| 10> H      3.420315    0.326593    0.045198
| 11> H      2.578190   -1.017755    0.812928
| 12> H      2.594900   -0.877280   -0.942685
| 13> H      1.237543    1.111057    0.961985
| 14> H      1.251521    1.245452   -0.781337
| 15> H     -0.017096   -0.915524   -0.961024
| 16> H     -0.018900   -1.049862    0.785140
| 17> H     -1.293033    1.109193    0.926922
| 18> H     -1.321845    1.185998   -0.829220
| 19> H     -3.332664    0.176428   -0.103509
| 20> H     -2.542214   -0.994236    0.705456
| 21> *
| 22>
| 23>                          ****END OF INPUT****

CARTESIAN COORDINATES (ANGSTROEM)
---------------------------------
  C      2.533757   -0.306220   -0.014186
  C      1.251222    0.522342    0.039823
  C     -0.016716   -0.327791   -0.039403
  C     -1.300133    0.493422    0.015850
  N     -2.480785   -0.370083   -0.090337
  H      3.420315    0.326593    0.045198
  H      2.578190   -1.017755    0.812928
  H      2.594900   -0.877280   -0.942685
  H      1.237543    1.111057    0.961985
  H      1.251521    1.245452   -0.781337
  H     -0.017096   -0.915524   -0.961024
  H     -0.018900   -1.049862    0.785140
  H     -1.293033    1.109193    0.926922
  H     -1.321845    1.185998   -0.829220
  H     -3.332664    0.176428   -0.103509
  H     -2.542214   -0.994236    0.705456

 Total Charge           Charge          ....    0
 Multiplicity           Mult            ....    1
 Number of Electrons    NEL             ....   42
 Basis Dimension        Dim             ....  483

ORBITAL ENERGIES
----------------

  NO   OCC          E(Eh)            E(eV)
   0   2.0000     -15.536270      -422.7634
   1   2.0000     -11.243735      -305.9576
   2   2.0000     -11.216768      -305.2238
   3   2.0000     -11.212185      -305.0991
   4   2.0000     -11.209782      -305.0337
   5   2.0000      -1.173851       -31.9421
   6   2.0000      -1.059266       -28.8241
   7   2.0000      -0.958419       -26.0799
   8   2.0000      -0.842730       -22.9319
   9   2.0000      -0.790402       -21.5079
  10   2.0000      -0.662100       -18.0166
  11   2.0000      -0.636284       -17.3142
  12   2.0000      -0.604734       -16.4557
  13   2.0000      -0.575466       -15.6592
  14   2.0000      -0.563935       -15.3454
  15   2.0000      -0.524935       -14.2842
  16   2.0000      -0.499659       -13.5964
  17   2.0000      -0.470211       -12.7951
  18   2.0000      -0.465369       -12.6633
  19   2.0000      -0.462890       -12.5959
  20   2.0000      -0.386446       -10.5157
  21   0.0000       0.029673         0.8075
  22   0.0000       0.034761         0.9459
  23   0.0000       0.037904         1.0314
  24   0.0000       0.041786         1.1370
  25   0.0000       0.053692         1.4610

MULLIKEN ATOMIC CHARGES
-----------------------
   0 C :   -0.959758
   1 C :   -0.439989
   2 C :   -0.334280
   3 C :   -0.197473
   4 N :   -0.611451
   5 H :    0.273114
   6 H :    0.271509
   7 H :    0.264328
   8 H :    0.256145
   9 H :    0.257857
  10 H :    0.258434
  11 H :    0.252049
  12 H :    0.242182
  13 H :    0.277861
  14 H :    0.085731
  15 H :    0.103743
Sum of atomic charges:   -0.0000000

LOEWDIN ATOMIC CHARGES
----------------------
   0 C :    0.577216
   1 C :    0.250470
   2 C :    0.259198
   3 C :    0.142065
   4 N :    0.837104
   5 H :   -0.174350
   6 H :   -0.171906
   7 H :   -0.171323
   8 H :   -0.150004
   9 H :   -0.148639
  10 H :   -0.144715
  11 H :   -0.145674
  12 H :   -0.146175
  13 H :   -0.152049
  14 H :   -0.330825
  15 H :   -0.330393

  Mayer bond orders larger than 0.100000
B(  0-C ,  1-C ) :   0.8981 B(  0-C ,  5-H ) :   0.9790 B(  0-C ,  6-H ) :   0.9573
B(  0-C ,  7-H ) :   0.9606 B(  1-C ,  2-C ) :   0.8602 B(  1-C ,  8-H ) :   0.9446
B(  1-C ,  9-H ) :   0.9516 B(  2-C ,  3-C ) :   0.9558 B(  2-C , 10-H ) :   0.9350
B(  2-C , 11-H ) :   0.9380 B(  3-C ,  4-N ) :   0.7404 B(  3-C , 12-H ) :   0.9644
B(  3-C , 13-H ) :   0.9349 B(  4-N , 14-H ) :   1.0167 B(  4-N , 15-H ) :   0.9882

MP2 TOTAL ENERGY:     -213.344244981 Eh
FINAL SINGLE POINT ENERGY      -213.344244981272

DIPOLE MOMENT
-------------
                                X             Y             Z
Electronic contribution:     -2.77511      -0.03599      -0.24478
Nuclear contribution   :      2.74167       0.32127       0.66793
                        -----------------------------------------
Total Dipole Moment    :     -0.03344       0.28528       0.42315
                        -----------------------------------------
Magnitude (a.u.)       :      0.51143
Magnitude (Debye)      :      1.29994

Rotational constants in cm-1:     0.606899     0.065142     0.061787
Rotational constants in MHz : 18194.362300  1952.921737  1852.332494

                             ****ORCA TERMINATED NORMALLY****
TOTAL RUN TIME: 0 days 0 hours 3 minutes 51 seconds 434 msec
