                         Program Version 5.0.3 -  RELEASE  -
|  1> !ri-mp2 aug-cc-pvtz aug-cc-pvtz/c tightscf
|  2> %pal nprocs 16 end
|  3>
|  4> * xyz 0 1
|  5> C     -1.004320   -0.762666    0.000000
|  6> C      1.322736   -0.237243    0.000000
|  7> C     -0.645498   -2.106337    0.000000
|  8> C      1.576680   -1.600517    0.000000
|  9> C      0.000000    0.203071    0.000000
| 10> C     -0.278823    1.682041    0.000000
| 11> C     -1.715873    2.149965    0.000000
| 12> N      0.617007   -2.529678    0.000000
| 13> O      0.639000    2.474708    0.000000
| 14> H     -2.050239   -0.492383    0.000000
| 15> H      2.126827    0.484057    0.000000
| 16> H     -1.409956   -2.874662    0.000000
| 17> H      2.596289   -1.967379    0.000000
| 18> H     -2.245005    1.777376    0.878947
| 19> H     -2.245005    1.777376   -0.878947
| 20> H     -1.733368    3.235824    0.000000
| 21> *
| 22>
| 23>                          ****END OF INPUT****

CARTESIAN COORDINATES (ANGSTROEM)
---------------------------------
  C     -1.004320   -0.762666    0.000000
  C      1.322736   -0.237243    0.000000
  C     -0.645498   -2.106337    0.000000
  C      1.576680   -1.600517    0.000000
  C      0.000000    0.203071    0.000000
  C     -0.278823    1.682041    0.000000
  C     -1.715873    2.149965    0.000000
  N      0.617007   -2.529678    0.000000
  O      0.639000    2.474708    0.000000
  H     -2.050239   -0.492383    0.000000
  H      2.126827    0.484057    0.000000
  H     -1.409956   -2.874662    0.000000
  H      2.596289   -1.967379    0.000000
  H     -2.245005    1.777376    0.878947
  H     -2.245005    1.777376   -0.878947
  H     -1.733368    3.235824    0.000000

 Total Charge           Charge          ....    0
 Multiplicity           Mult            ....    1
 Number of Electrons    NEL             ....   64
 Basis Dimension        Dim             ....  575

ORBITAL ENERGIES
----------------

  NO   OCC          E(Eh)            E(eV)
   0   2.0000     -20.561326      -559.5021
   1   2.0000     -15.580302      -423.9616
   2   2.0000     -11.350121      -308.8525
   3   2.0000     -11.285227      -307.0866
   4   2.0000     -11.282286      -307.0066
   5   2.0000     -11.273615      -306.7707
   6   2.0000     -11.260040      -306.4013
   7   2.0000     -11.251697      -306.1742
   8   2.0000     -11.246100      -306.0219
   9   2.0000      -1.403474       -38.1905
  10   2.0000      -1.272875       -34.6367
  11   2.0000      -1.117441       -30.4071
  12   2.0000      -1.048692       -28.5364
  13   2.0000      -1.021195       -27.7881
  14   2.0000      -0.898449       -24.4480
  15   2.0000      -0.869795       -23.6683
  16   2.0000      -0.782595       -21.2955
  17   2.0000      -0.715615       -19.4729
  18   2.0000      -0.686562       -18.6823
  19   2.0000      -0.661473       -17.9996
  20   2.0000      -0.635594       -17.2954
  21   2.0000      -0.621207       -16.9039
  22   2.0000      -0.618481       -16.8297
  23   2.0000      -0.611062       -16.6278
  24   2.0000      -0.560909       -15.2631
  25   2.0000      -0.556119       -15.1328
  26   2.0000      -0.528745       -14.3879
  27   2.0000      -0.515421       -14.0253
  28   2.0000      -0.445321       -12.1178
  29   2.0000      -0.424336       -11.5468
  30   2.0000      -0.394160       -10.7256
  31   2.0000      -0.358548        -9.7566
  32   0.0000       0.023233         0.6322
  33   0.0000       0.032396         0.8815
  34   0.0000       0.035035         0.9533
  35   0.0000       0.038210         1.0397
  36   0.0000       0.049450         1.3456

MULLIKEN ATOMIC CHARGES
-----------------------
   0 C :   -0.494129
   1 C :   -0.884129
   2 C :   -0.610166
   3 C :   -0.397322
   4 C :    1.621072
   5 C :    0.474694
   6 C :   -0.766812
   7 N :   -0.588669
   8 O :   -0.946590
   9 H :    0.057891
  10 H :    0.202080
  11 H :    0.679236
  12 H :    0.720947
  13 H :    0.305327
  14 H :    0.305327
  15 H :    0.321244
Sum of atomic charges:   -0.0000000

LOEWDIN ATOMIC CHARGES
----------------------
   0 C :    0.208740
   1 C :    0.213156
   2 C :    0.024416
   3 C :    0.028326
   4 C :   -0.121902
   5 C :   -0.506795
   6 C :    0.582165
   7 N :    0.377250
   8 O :    0.482148
   9 H :   -0.195091
  10 H :   -0.189691
  11 H :   -0.191199
  12 H :   -0.190671
  13 H :   -0.170641
  14 H :   -0.170641
  15 H :   -0.179571

  Mayer bond orders larger than 0.100000
B(  0-C ,  2-C ) :   0.7616 B(  0-C ,  3-C ) :  -0.1152 B(  0-C ,  4-C ) :   0.6353
B(  0-C ,  5-C ) :   0.1401 B(  0-C ,  6-C ) :  -0.1082 B(  0-C ,  9-H ) :   1.5164
B(  1-C ,  3-C ) :   1.1242 B(  1-C ,  4-C ) :   0.6575 B(  1-C , 10-H ) :   1.2420
B(  2-C ,  3-C ) :   0.1037 B(  2-C ,  7-N ) :   1.1059 B(  2-C ,  9-H ) :  -0.1108
B(  2-C , 11-H ) :   0.3965 B(  3-C ,  7-N ) :   1.0617 B(  3-C , 10-H ) :  -0.1019
B(  3-C , 12-H ) :   0.3492 B(  4-C ,  5-C ) :   0.5036 B(  4-C ,  8-O ) :  -0.1199
B(  4-C ,  9-H ) :  -0.2248 B(  4-C , 10-H ) :  -0.1999 B(  5-C ,  6-C ) :   0.8788
B(  5-C ,  8-O ) :   1.0778 B(  6-C , 13-H ) :   0.9622 B(  6-C , 14-H ) :   0.9622
B(  6-C , 15-H ) :   0.9193 B(  7-N , 11-H ) :  -0.1092 B(  7-N , 12-H ) :  -0.1315

MP2 TOTAL ENERGY:     -400.162176874 Eh
FINAL SINGLE POINT ENERGY      -400.162176873867

DIPOLE MOMENT
-------------
                                X             Y             Z
Electronic contribution:      3.83130      -1.97312      -0.00000
Nuclear contribution   :     -4.90828       1.94909       0.00000
                        -----------------------------------------
Total Dipole Moment    :     -1.07698      -0.02403      -0.00000
                        -----------------------------------------
Magnitude (a.u.)       :      1.07725
Magnitude (Debye)      :      2.73815

Rotational constants in cm-1:     0.128408     0.040377     0.030893
Rotational constants in MHz :  3849.566100  1210.469712   926.156085

                             ****ORCA TERMINATED NORMALLY****
TOTAL RUN TIME: 0 days 0 hours 8 minutes 28 seconds 81 msec
