                         Program Version 5.0.3 -  RELEASE  -
|  1> !ri-mp2 aug-cc-pvtz aug-cc-pvtz/c tightscf
|  2> %pal nprocs 16 end
|  3>
|  4> * xyz 0 1
|  5> S      1.790737   -0.475898   -0.000002
|  6> N      1.364374    1.134172   -0.000002
|  7> N     -3.240588   -0.146020   -0.000007
|  8> C     -0.672756    0.008613    0.000004
|  9> C      0.191251   -1.060988    0.000003
| 10> C      0.060358    1.235299    0.000002
| 11> C     -2.089661   -0.084352    0.000005
| 12> H     -0.056134   -2.109489    0.000004
| 13> H     -0.397308    2.215358    0.000003
| 14> *
| 15>
| 16>                          ****END OF INPUT****

CARTESIAN COORDINATES (ANGSTROEM)
---------------------------------
  S      1.790737   -0.475898   -0.000002
  N      1.364374    1.134172   -0.000002
  N     -3.240588   -0.146020   -0.000007
  C     -0.672756    0.008613    0.000004
  C      0.191251   -1.060988    0.000003
  C      0.060358    1.235299    0.000002
  C     -2.089661   -0.084352    0.000005
  H     -0.056134   -2.109489    0.000004
  H     -0.397308    2.215358    0.000003

 Total Charge           Charge          ....    0
 Multiplicity           Mult            ....    1
 Number of Electrons    NEL             ....   56
 Basis Dimension        Dim             ....  372

ORBITAL ENERGIES
----------------

  NO   OCC          E(Eh)            E(eV)
   0   2.0000     -92.046876     -2504.7228
   1   2.0000     -15.621353      -425.0786
   2   2.0000     -15.587819      -424.1661
   3   2.0000     -11.328790      -308.2720
   4   2.0000     -11.320297      -308.0410
   5   2.0000     -11.305644      -307.6422
   6   2.0000     -11.292762      -307.2917
   7   2.0000      -9.044250      -246.1066
   8   2.0000      -6.725074      -182.9986
   9   2.0000      -6.724127      -182.9728
  10   2.0000      -6.723587      -182.9581
  11   2.0000      -1.312012       -35.7017
  12   2.0000      -1.237335       -33.6696
  13   2.0000      -1.115153       -30.3448
  14   2.0000      -1.051067       -28.6010
  15   2.0000      -0.866153       -23.5692
  16   2.0000      -0.831476       -22.6256
  17   2.0000      -0.774432       -21.0734
  18   2.0000      -0.648737       -17.6530
  19   2.0000      -0.630331       -17.1522
  20   2.0000      -0.606365       -16.5000
  21   2.0000      -0.574808       -15.6413
  22   2.0000      -0.532399       -14.4873
  23   2.0000      -0.514805       -14.0085
  24   2.0000      -0.499365       -13.5884
  25   2.0000      -0.468714       -12.7544
  26   2.0000      -0.408000       -11.1022
  27   2.0000      -0.380405       -10.3513
  28   0.0000       0.023974         0.6524
  29   0.0000       0.034067         0.9270
  30   0.0000       0.047485         1.2921
  31   0.0000       0.054386         1.4799
  32   0.0000       0.062697         1.7061

MULLIKEN ATOMIC CHARGES
-----------------------
   0 S :    0.124182
   1 N :   -0.556170
   2 N :   -0.713212
   3 C :    1.452953
   4 C :   -0.912417
   5 C :   -0.647602
   6 C :    0.251349
   7 H :    0.437407
   8 H :    0.563510
Sum of atomic charges:    0.0000000

LOEWDIN ATOMIC CHARGES
----------------------
   0 S :    1.113878
   1 N :   -0.045692
   2 N :    0.265275
   3 C :   -0.335960
   4 C :   -0.173512
   5 C :   -0.152979
   6 C :   -0.253835
   7 H :   -0.231109
   8 H :   -0.186066

  Mayer bond orders larger than 0.100000
B(  0-S ,  1-N ) :   1.0021 B(  0-S ,  3-C ) :  -0.1477 B(  0-S ,  4-C ) :   1.3382
B(  0-S ,  5-C ) :   0.2098 B(  1-N ,  5-C ) :   1.1667 B(  2-N ,  3-C ) :  -0.1414
B(  2-N ,  6-C ) :   2.0631 B(  3-C ,  4-C ) :   0.8961 B(  3-C ,  5-C ) :   0.5376
B(  3-C ,  6-C ) :   0.7556 B(  4-C ,  5-C ) :   0.1495 B(  4-C ,  7-H ) :   0.8767
B(  5-C ,  8-H ) :   0.6785

MP2 TOTAL ENERGY:     -660.331468912 Eh
FINAL SINGLE POINT ENERGY      -660.331468911708

DIPOLE MOMENT
-------------
                                X             Y             Z
Electronic contribution:      1.47838      -0.65627       0.00000
Nuclear contribution   :     -0.49630       0.12066       0.00001
                        -----------------------------------------
Total Dipole Moment    :      0.98208      -0.53560       0.00001
                        -----------------------------------------
Magnitude (a.u.)       :      1.11864
Magnitude (Debye)      :      2.84336

Rotational constants in cm-1:     0.251819     0.050396     0.041992
Rotational constants in MHz :  7549.356261  1510.828435  1258.890684

                             ****ORCA TERMINATED NORMALLY****
TOTAL RUN TIME: 0 days 0 hours 2 minutes 57 seconds 307 msec
