                         Program Version 5.0.3 -  RELEASE  -
|  1> !ri-mp2 aug-cc-pvtz aug-cc-pvtz/c tightscf
|  2> %pal nprocs 16 end
|  3>
|  4> * xyz 0 1
|  5> C     4.257269   -0.037794    0.000030
|  6> C    -3.949908   -0.598011    0.000036
|  7> C     2.887553    0.627975    0.000013
|  8> C    -1.167307   -0.413074   -0.000018
|  9> C     0.091194    0.440608   -0.000020
| 10> S    -2.645575    0.670998   -0.000005
| 11> S     1.568672   -0.643862   -0.000022
| 12> H     4.392436   -0.663324    0.882566
| 13> H     4.392468   -0.663306   -0.882513
| 14> H     5.042030    0.719953    0.000052
| 15> H    -3.889650   -1.219817   -0.891752
| 16> H    -4.901476   -0.070840    0.000059
| 17> H    -3.889600   -1.219808    0.891826
| 18> H     2.763247    1.254670   -0.883576
| 19> H     2.763215    1.254650    0.883612
| 20> H    -1.197075   -1.048863    0.885008
| 21> H    -1.197083   -1.048856   -0.885049
| 22> H     0.119565    1.076575   -0.884964
| 23> H     0.119567    1.076572    0.884926
| 24> *
| 25>
| 26>                          ****END OF INPUT****

CARTESIAN COORDINATES (ANGSTROEM)
---------------------------------
  C      4.257269   -0.037794    0.000030
  C     -3.949908   -0.598011    0.000036
  C      2.887553    0.627975    0.000013
  C     -1.167307   -0.413074   -0.000018
  C      0.091194    0.440608   -0.000020
  S     -2.645575    0.670998   -0.000005
  S      1.568672   -0.643862   -0.000022
  H      4.392436   -0.663324    0.882566
  H      4.392468   -0.663306   -0.882513
  H      5.042030    0.719953    0.000052
  H     -3.889650   -1.219817   -0.891752
  H     -4.901476   -0.070840    0.000059
  H     -3.889600   -1.219808    0.891826
  H      2.763247    1.254670   -0.883576
  H      2.763215    1.254650    0.883612
  H     -1.197075   -1.048863    0.885008
  H     -1.197083   -1.048856   -0.885049
  H      0.119565    1.076575   -0.884964
  H      0.119567    1.076572    0.884926

 Total Charge           Charge          ....    0
 Multiplicity           Mult            ....    1
 Number of Electrons    NEL             ....   74
 Basis Dimension        Dim             ....  606

ORBITAL ENERGIES
----------------

  NO   OCC          E(Eh)            E(eV)
   0   2.0000     -91.947117     -2502.0083
   1   2.0000     -91.943521     -2501.9104
   2   2.0000     -11.262567      -306.4700
   3   2.0000     -11.261860      -306.4508
   4   2.0000     -11.258871      -306.3694
   5   2.0000     -11.253609      -306.2263
   6   2.0000     -11.225022      -305.4484
   7   2.0000      -8.947147      -243.4642
   8   2.0000      -8.943813      -243.3735
   9   2.0000      -6.628421      -180.3685
  10   2.0000      -6.627502      -180.3435
  11   2.0000      -6.626508      -180.3165
  12   2.0000      -6.625028      -180.2762
  13   2.0000      -6.624163      -180.2527
  14   2.0000      -6.623170      -180.2256
  15   2.0000      -1.100314       -29.9411
  16   2.0000      -1.061513       -28.8852
  17   2.0000      -1.012618       -27.5547
  18   2.0000      -0.934942       -25.4411
  19   2.0000      -0.859229       -23.3808
  20   2.0000      -0.800161       -21.7735
  21   2.0000      -0.791272       -21.5316
  22   2.0000      -0.651356       -17.7243
  23   2.0000      -0.625481       -17.0202
  24   2.0000      -0.605399       -16.4737
  25   2.0000      -0.593019       -16.1369
  26   2.0000      -0.587339       -15.9823
  27   2.0000      -0.561538       -15.2802
  28   2.0000      -0.530389       -14.4326
  29   2.0000      -0.530184       -14.4271
  30   2.0000      -0.525695       -14.3049
  31   2.0000      -0.506295       -13.7770
  32   2.0000      -0.454239       -12.3605
  33   2.0000      -0.431492       -11.7415
  34   2.0000      -0.425197       -11.5702
  35   2.0000      -0.345069        -9.3898
  36   2.0000      -0.333038        -9.0624
  37   0.0000       0.030171         0.8210
  38   0.0000       0.031272         0.8510
  39   0.0000       0.040146         1.0924
  40   0.0000       0.040163         1.0929
  41   0.0000       0.045138         1.2283

MULLIKEN ATOMIC CHARGES
-----------------------
   0 C :   -0.952961
   1 C :   -0.841799
   2 C :   -0.352944
   3 C :   -0.295535
   4 C :   -0.362490
   5 S :   -0.241498
   6 S :   -0.218665
   7 H :    0.291269
   8 H :    0.291271
   9 H :    0.290473
  10 H :    0.262775
  11 H :    0.274892
  12 H :    0.262776
  13 H :    0.245092
  14 H :    0.245092
  15 H :    0.274016
  16 H :    0.274014
  17 H :    0.277109
  18 H :    0.277111
Sum of atomic charges:    0.0000000

LOEWDIN ATOMIC CHARGES
----------------------
   0 C :    0.490887
   1 C :    0.220174
   2 C :   -0.085260
   3 C :   -0.168100
   4 C :   -0.161704
   5 S :    1.162581
   6 S :    1.207644
   7 H :   -0.186904
   8 H :   -0.186905
   9 H :   -0.178252
  10 H :   -0.245331
  11 H :   -0.260698
  12 H :   -0.245332
  13 H :   -0.220631
  14 H :   -0.220632
  15 H :   -0.230910
  16 H :   -0.230909
  17 H :   -0.229859
  18 H :   -0.229861

  Mayer bond orders larger than 0.100000
B(  0-C ,  2-C ) :   0.9019 B(  0-C ,  7-H ) :   0.9442 B(  0-C ,  8-H ) :   0.9442
B(  0-C ,  9-H ) :   0.9596 B(  1-C ,  5-S ) :   1.0165 B(  1-C , 10-H ) :   0.9295
B(  1-C , 11-H ) :   0.9702 B(  1-C , 12-H ) :   0.9295 B(  2-C ,  6-S ) :   0.9681
B(  2-C , 13-H ) :   0.9363 B(  2-C , 14-H ) :   0.9363 B(  3-C ,  4-C ) :   1.0601
B(  3-C ,  5-S ) :   0.8639 B(  3-C , 15-H ) :   0.9244 B(  3-C , 16-H ) :   0.9244
B(  4-C ,  5-S ) :   0.1047 B(  4-C ,  6-S ) :   0.8772 B(  4-C , 17-H ) :   0.9141
B(  4-C , 18-H ) :   0.9141

MP2 TOTAL ENERGY:     -992.747021781 Eh
FINAL SINGLE POINT ENERGY      -992.747021781494

DIPOLE MOMENT
-------------
                                X             Y             Z
Electronic contribution:     -4.55554       0.57493      -0.00018
Nuclear contribution   :      4.64126      -0.56422       0.00020
                        -----------------------------------------
Total Dipole Moment    :      0.08571       0.01071       0.00002
                        -----------------------------------------
Magnitude (a.u.)       :      0.08638
Magnitude (Debye)      :      0.21955

Rotational constants in cm-1:     0.276937     0.017368     0.016598
Rotational constants in MHz :  8302.365049   520.680924   497.580564

                             ****ORCA TERMINATED NORMALLY****
TOTAL RUN TIME: 0 days 0 hours 6 minutes 0 seconds 28 msec
