                         Program Version 5.0.3 -  RELEASE  -
|  1> !ri-mp2 aug-cc-pvtz aug-cc-pvtz/c tightscf
|  2> %pal nprocs 16 end
|  3>
|  4> * xyz 0 1
|  5> C     -1.396817    0.429335    0.000000
|  6> C     -1.472698   -1.093148    0.000000
|  7> C      0.000000    1.004651    0.000000
|  8> C      1.112304    0.327742    0.000000
|  9> C      2.229478   -0.340821    0.000000
| 10> H     -1.928062    0.827718    0.870383
| 11> H     -1.928062    0.827718   -0.870383
| 12> H     -0.983848   -1.513104   -0.879616
| 13> H     -2.511270   -1.424852    0.000000
| 14> H     -0.983848   -1.513104    0.879616
| 15> H      0.069668    2.089604    0.000000
| 16> H      2.715910   -0.630267   -0.924292
| 17> H      2.715910   -0.630267    0.924292
| 18> *
| 19>
| 20>                          ****END OF INPUT****

CARTESIAN COORDINATES (ANGSTROEM)
---------------------------------
  C     -1.396817    0.429335    0.000000
  C     -1.472698   -1.093148    0.000000
  C      0.000000    1.004651    0.000000
  C      1.112304    0.327742    0.000000
  C      2.229478   -0.340821    0.000000
  H     -1.928062    0.827718    0.870383
  H     -1.928062    0.827718   -0.870383
  H     -0.983848   -1.513104   -0.879616
  H     -2.511270   -1.424852    0.000000
  H     -0.983848   -1.513104    0.879616
  H      0.069668    2.089604    0.000000
  H      2.715910   -0.630267   -0.924292
  H      2.715910   -0.630267    0.924292

 Total Charge           Charge          ....    0
 Multiplicity           Mult            ....    1
 Number of Electrons    NEL             ....   38
 Basis Dimension        Dim             ....  414

ORBITAL ENERGIES
----------------

  NO   OCC          E(Eh)            E(eV)
   0   2.0000     -11.246860      -306.0426
   1   2.0000     -11.236627      -305.7642
   2   2.0000     -11.233371      -305.6756
   3   2.0000     -11.229321      -305.5654
   4   2.0000     -11.212593      -305.1102
   5   2.0000      -1.095116       -29.7996
   6   2.0000      -1.024140       -27.8683
   7   2.0000      -0.942437       -25.6450
   8   2.0000      -0.842516       -22.9260
   9   2.0000      -0.690062       -18.7775
  10   2.0000      -0.632594       -17.2138
  11   2.0000      -0.617513       -16.8034
  12   2.0000      -0.604993       -16.4627
  13   2.0000      -0.596168       -16.2226
  14   2.0000      -0.507314       -13.8047
  15   2.0000      -0.501432       -13.6447
  16   2.0000      -0.499022       -13.5791
  17   2.0000      -0.370647       -10.0858
  18   2.0000      -0.359142        -9.7728
  19   0.0000       0.030227         0.8225
  20   0.0000       0.035028         0.9532
  21   0.0000       0.038911         1.0588
  22   0.0000       0.040844         1.1114
  23   0.0000       0.055025         1.4973

MULLIKEN ATOMIC CHARGES
-----------------------
   0 C :   -0.320607
   1 C :   -0.984052
   2 C :   -0.735997
   3 C :    1.019609
   4 C :   -1.287719
   5 H :    0.259614
   6 H :    0.259614
   7 H :    0.300868
   8 H :    0.229390
   9 H :    0.300868
  10 H :    0.286344
  11 H :    0.336034
  12 H :    0.336034
Sum of atomic charges:   -0.0000000

LOEWDIN ATOMIC CHARGES
----------------------
   0 C :    0.220018
   1 C :    0.562736
   2 C :    0.167506
   3 C :    0.103007
   4 C :    0.469686
   5 H :   -0.158850
   6 H :   -0.158850
   7 H :   -0.170924
   8 H :   -0.172524
   9 H :   -0.170924
  10 H :   -0.202654
  11 H :   -0.244113
  12 H :   -0.244113

  Mayer bond orders larger than 0.100000
B(  0-C ,  1-C ) :   0.8520 B(  0-C ,  2-C ) :   1.0512 B(  0-C ,  5-H ) :   0.9473
B(  0-C ,  6-H ) :   0.9473 B(  1-C ,  2-C ) :   0.1675 B(  1-C ,  7-H ) :   0.9122
B(  1-C ,  8-H ) :   1.0335 B(  1-C ,  9-H ) :   0.9122 B(  2-C ,  3-C ) :   1.2225
B(  2-C ,  4-C ) :  -0.3291 B(  2-C , 10-H ) :   0.9930 B(  3-C ,  4-C ) :   1.3124
B(  4-C , 11-H ) :   1.0039 B(  4-C , 12-H ) :   1.0039

MP2 TOTAL ENERGY:     -194.843940709 Eh
FINAL SINGLE POINT ENERGY      -194.843940708507

DIPOLE MOMENT
-------------
                                X             Y             Z
Electronic contribution:      2.76487       2.06990       0.00000
Nuclear contribution   :     -2.96870      -2.06032       0.00000
                        -----------------------------------------
Total Dipole Moment    :     -0.20383       0.00959       0.00000
                        -----------------------------------------
Magnitude (a.u.)       :      0.20406
Magnitude (Debye)      :      0.51867

Rotational constants in cm-1:     0.344880     0.105419     0.084638
Rotational constants in MHz : 10339.253368  3160.371797  2537.398132

                             ****ORCA TERMINATED NORMALLY****
TOTAL RUN TIME: 0 days 0 hours 2 minutes 41 seconds 622 msec
