                         Program Version 5.0.3 -  RELEASE  -
|  1> !ri-mp2 aug-cc-pvtz aug-cc-pvtz/c tightscf
|  2> %pal nprocs 16 end
|  3> %maxcore 3800
|  4>
|  5> * xyz 0 1
|  6> C     -0.185454    3.476467    1.177678
|  7> C      0.185454   -3.476467    1.177678
|  8> C      0.448568    2.723875    0.026404
|  9> C     -0.448568   -2.723875    0.026404
| 10> C      0.330721    0.678899   -1.157349
| 11> C     -0.330721   -0.678899   -1.157349
| 12> O     -0.185454    1.462479   -0.100569
| 13> O      0.185454   -1.462479   -0.100569
| 14> H      0.289479    4.450910    1.299148
| 15> H     -1.249152    3.631512    0.997075
| 16> H     -0.073398    2.919207    2.107537
| 17> H     -0.289479   -4.450910    1.299148
| 18> H      1.249152   -3.631512    0.997075
| 19> H      0.073398   -2.919207    2.107537
| 20> H      1.523271    2.581941    0.202423
| 21> H      0.343221    3.289948   -0.909829
| 22> H     -1.523271   -2.581941    0.202423
| 23> H     -0.343221   -3.289948   -0.909829
| 24> H      0.140113    1.170529   -2.121857
| 25> H      1.415919    0.554537   -1.050343
| 26> H     -0.140113   -1.170529   -2.121857
| 27> H     -1.415919   -0.554537   -1.050343
| 28> *
| 29>
| 30>                          ****END OF INPUT****

CARTESIAN COORDINATES (ANGSTROEM)
---------------------------------
  C     -0.185454    3.476467    1.177678
  C      0.185454   -3.476467    1.177678
  C      0.448568    2.723875    0.026404
  C     -0.448568   -2.723875    0.026404
  C      0.330721    0.678899   -1.157349
  C     -0.330721   -0.678899   -1.157349
  O     -0.185454    1.462479   -0.100569
  O      0.185454   -1.462479   -0.100569
  H      0.289479    4.450910    1.299148
  H     -1.249152    3.631512    0.997075
  H     -0.073398    2.919207    2.107537
  H     -0.289479   -4.450910    1.299148
  H      1.249152   -3.631512    0.997075
  H      0.073398   -2.919207    2.107537
  H      1.523271    2.581941    0.202423
  H      0.343221    3.289948   -0.909829
  H     -1.523271   -2.581941    0.202423
  H     -0.343221   -3.289948   -0.909829
  H      0.140113    1.170529   -2.121857
  H      1.415919    0.554537   -1.050343
  H     -0.140113   -1.170529   -2.121857
  H     -1.415919   -0.554537   -1.050343

 Total Charge           Charge          ....    0
 Multiplicity           Mult            ....    1
 Number of Electrons    NEL             ....   66
 Basis Dimension        Dim             ....  690

ORBITAL ENERGIES
----------------

  NO   OCC          E(Eh)            E(eV)
   0   2.0000     -20.549145      -559.1707
   1   2.0000     -20.549144      -559.1706
   2   2.0000     -11.271594      -306.7157
   3   2.0000     -11.270923      -306.6974
   4   2.0000     -11.270770      -306.6932
   5   2.0000     -11.270769      -306.6932
   6   2.0000     -11.210059      -305.0412
   7   2.0000     -11.210059      -305.0412
   8   2.0000      -1.377118       -37.4733
   9   2.0000      -1.360727       -37.0273
  10   2.0000      -1.047981       -28.5170
  11   2.0000      -1.012406       -27.5490
  12   2.0000      -0.963190       -26.2097
  13   2.0000      -0.841067       -22.8866
  14   2.0000      -0.830717       -22.6050
  15   2.0000      -0.820533       -22.3278
  16   2.0000      -0.683640       -18.6028
  17   2.0000      -0.681152       -18.5351
  18   2.0000      -0.648837       -17.6557
  19   2.0000      -0.642544       -17.4845
  20   2.0000      -0.623387       -16.9632
  21   2.0000      -0.581170       -15.8144
  22   2.0000      -0.569494       -15.4967
  23   2.0000      -0.555465       -15.1150
  24   2.0000      -0.532121       -14.4797
  25   2.0000      -0.529050       -14.3962
  26   2.0000      -0.500063       -13.6074
  27   2.0000      -0.496992       -13.5238
  28   2.0000      -0.488002       -13.2792
  29   2.0000      -0.472368       -12.8538
  30   2.0000      -0.464090       -12.6285
  31   2.0000      -0.422710       -11.5025
  32   2.0000      -0.412821       -11.2334
  33   0.0000       0.030962         0.8425
  34   0.0000       0.033331         0.9070
  35   0.0000       0.036941         1.0052
  36   0.0000       0.038768         1.0549
  37   0.0000       0.047404         1.2899

MULLIKEN ATOMIC CHARGES
-----------------------
   0 C :   -0.998491
   1 C :   -0.998491
   2 C :   -0.278433
   3 C :   -0.278433
   4 C :   -0.256397
   5 C :   -0.256397
   6 O :   -0.518491
   7 O :   -0.518491
   8 H :    0.321527
   9 H :    0.254042
  10 H :    0.252457
  11 H :    0.321527
  12 H :    0.254042
  13 H :    0.252457
  14 H :    0.308534
  15 H :    0.309154
  16 H :    0.308534
  17 H :    0.309154
  18 H :    0.302212
  19 H :    0.303887
  20 H :    0.302212
  21 H :    0.303887
Sum of atomic charges:   -0.0000000

LOEWDIN ATOMIC CHARGES
----------------------
   0 C :    0.576544
   1 C :    0.576544
   2 C :   -0.011889
   3 C :   -0.011889
   4 C :    0.006654
   5 C :    0.006654
   6 O :    0.572925
   7 O :    0.572925
   8 H :   -0.177572
   9 H :   -0.174968
  10 H :   -0.174053
  11 H :   -0.177572
  12 H :   -0.174968
  13 H :   -0.174053
  14 H :   -0.156119
  15 H :   -0.155809
  16 H :   -0.156119
  17 H :   -0.155809
  18 H :   -0.152525
  19 H :   -0.153188
  20 H :   -0.152525
  21 H :   -0.153188

  Mayer bond orders larger than 0.100000
B(  0-C ,  2-C ) :   0.9063 B(  0-C ,  8-H ) :   0.9287 B(  0-C ,  9-H ) :   0.9755
B(  0-C , 10-H ) :   0.9739 B(  1-C ,  3-C ) :   0.9063 B(  1-C , 11-H ) :   0.9287
B(  1-C , 12-H ) :   0.9755 B(  1-C , 13-H ) :   0.9739 B(  2-C ,  6-O ) :   0.9337
B(  2-C , 14-H ) :   0.8865 B(  2-C , 15-H ) :   0.8727 B(  3-C ,  7-O ) :   0.9337
B(  3-C , 16-H ) :   0.8865 B(  3-C , 17-H ) :   0.8727 B(  4-C ,  5-C ) :   0.9787
B(  4-C ,  6-O ) :   0.9784 B(  4-C ,  7-O ) :  -0.1232 B(  4-C , 18-H ) :   0.9214
B(  4-C , 19-H ) :   0.8857 B(  5-C ,  6-O ) :  -0.1232 B(  5-C ,  7-O ) :   0.9784
B(  5-C , 20-H ) :   0.9214 B(  5-C , 21-H ) :   0.8857

MP2 TOTAL ENERGY:     -386.755649065 Eh
FINAL SINGLE POINT ENERGY      -386.755649065273

DIPOLE MOMENT
-------------
                                X             Y             Z
Electronic contribution:     -0.00000      -0.00000      -1.63847
Nuclear contribution   :      0.00000      -0.00000       1.09623
                        -----------------------------------------
Total Dipole Moment    :     -0.00000      -0.00000      -0.54224
                        -----------------------------------------
Magnitude (a.u.)       :      0.54224
Magnitude (Debye)      :      1.37826

Rotational constants in cm-1:     0.147142     0.024356     0.022064
Rotational constants in MHz :  4411.211861   730.185968   661.462974

                             ****ORCA TERMINATED NORMALLY****
TOTAL RUN TIME: 0 days 0 hours 8 minutes 59 seconds 378 msec
