                         Program Version 5.0.3 -  RELEASE  -
|  1> !ri-mp2 aug-cc-pvtz aug-cc-pvtz/c tightscf
|  2> %pal nprocs 16 end
|  3>
|  4> * xyz 0 1
|  5> F      0.892126   -1.165198   -0.729105
|  6> F      1.581051   -0.215516    1.129974
|  7> O     -2.608785   -0.637675    0.169502
|  8> N     -0.853328    0.946099    0.096004
|  9> C      1.403870   -0.009908   -0.206195
| 10> C      0.452351    1.146753   -0.457655
| 11> C     -1.702891    0.095842    0.092826
| 12> H      2.382805    0.162893   -0.658127
| 13> H      0.888228    2.041357   -0.014086
| 14> H      0.393969    1.304768   -1.537510
| 15> *
| 16>
| 17>                          ****END OF INPUT****

CARTESIAN COORDINATES (ANGSTROEM)
---------------------------------
  F      0.892126   -1.165198   -0.729105
  F      1.581051   -0.215516    1.129974
  O     -2.608785   -0.637675    0.169502
  N     -0.853328    0.946099    0.096004
  C      1.403870   -0.009908   -0.206195
  C      0.452351    1.146753   -0.457655
  C     -1.702891    0.095842    0.092826
  H      2.382805    0.162893   -0.658127
  H      0.888228    2.041357   -0.014086
  H      0.393969    1.304768   -1.537510

 Total Charge           Charge          ....    0
 Multiplicity           Mult            ....    1
 Number of Electrons    NEL             ....   54
 Basis Dimension        Dim             ....  391

ORBITAL ENERGIES
----------------

  NO   OCC          E(Eh)            E(eV)
   0   2.0000     -26.327497      -716.4076
   1   2.0000     -26.324727      -716.3322
   2   2.0000     -20.612265      -560.8882
   3   2.0000     -15.597912      -424.4408
   4   2.0000     -11.429317      -311.0075
   5   2.0000     -11.407530      -310.4147
   6   2.0000     -11.323142      -308.1184
   7   2.0000      -1.674211       -45.5576
   8   2.0000      -1.613218       -43.8979
   9   2.0000      -1.465349       -39.8742
  10   2.0000      -1.288754       -35.0688
  11   2.0000      -1.076164       -29.2839
  12   2.0000      -0.934051       -25.4168
  13   2.0000      -0.800999       -21.7963
  14   2.0000      -0.782376       -21.2895
  15   2.0000      -0.775478       -21.1018
  16   2.0000      -0.735046       -20.0016
  17   2.0000      -0.704226       -19.1630
  18   2.0000      -0.692164       -18.8347
  19   2.0000      -0.663909       -18.0659
  20   2.0000      -0.653891       -17.7933
  21   2.0000      -0.644876       -17.5480
  22   2.0000      -0.615910       -16.7598
  23   2.0000      -0.604332       -16.4447
  24   2.0000      -0.564232       -15.3535
  25   2.0000      -0.454151       -12.3581
  26   2.0000      -0.435645       -11.8545
  27   0.0000       0.020768         0.5651
  28   0.0000       0.037918         1.0318
  29   0.0000       0.038291         1.0419
  30   0.0000       0.058707         1.5975
  31   0.0000       0.080220         2.1829

MULLIKEN ATOMIC CHARGES
-----------------------
   0 F :   -0.454571
   1 F :   -0.450895
   2 O :   -0.431957
   3 N :    0.009565
   4 C :    0.551846
   5 C :   -0.174645
   6 C :   -0.120483
   7 H :    0.382984
   8 H :    0.355474
   9 H :    0.332681
Sum of atomic charges:    0.0000000

LOEWDIN ATOMIC CHARGES
----------------------
   0 F :    0.481317
   1 F :    0.483223
   2 O :    0.382607
   3 N :    0.297326
   4 C :   -0.761418
   5 C :    0.085373
   6 C :   -0.472601
   7 H :   -0.171122
   8 H :   -0.166196
   9 H :   -0.158508

  Mayer bond orders larger than 0.100000
B(  0-F ,  4-C ) :   0.7177 B(  1-F ,  4-C ) :   0.7136 B(  2-O ,  3-N ) :  -0.1685
B(  2-O ,  6-C ) :   2.0237 B(  3-N ,  5-C ) :   0.5396 B(  3-N ,  6-C ) :   1.8214
B(  4-C ,  5-C ) :   0.9405 B(  4-C ,  7-H ) :   0.8766 B(  5-C ,  6-C ) :  -0.1570
B(  5-C ,  8-H ) :   0.8724 B(  5-C ,  9-H ) :   0.9148

MP2 TOTAL ENERGY:     -445.142522811 Eh
FINAL SINGLE POINT ENERGY      -445.142522810991

DIPOLE MOMENT
-------------
                                X             Y             Z
Electronic contribution:      0.01472      -3.55856       1.67525
Nuclear contribution   :      1.11438       4.61150      -2.46521
                        -----------------------------------------
Total Dipole Moment    :      1.12909       1.05294      -0.78996
                        -----------------------------------------
Magnitude (a.u.)       :      1.73423
Magnitude (Debye)      :      4.40808

Rotational constants in cm-1:     0.156034     0.058145     0.053173
Rotational constants in MHz :  4677.786871  1743.137764  1594.081230

                             ****ORCA TERMINATED NORMALLY****
TOTAL RUN TIME: 0 days 0 hours 2 minutes 40 seconds 771 msec
