                         Program Version 5.0.3 -  RELEASE  -
|  1> !ri-mp2 aug-cc-pvtz aug-cc-pvtz/c tightscf
|  2> %pal nprocs 16 end
|  3>
|  4> * xyz 0 1
|  5> C      0.361772    0.190165    0.000000
|  6> C     -1.157274    0.243325    0.000000
|  7> F      0.843210    1.450981    0.000000
|  8> F      0.843210   -0.436999    1.084078
|  9> F      0.843210   -0.436999   -1.084078
| 10> F     -1.667677   -1.036067    0.000000
| 11> H     -1.492284    0.765414    0.895748
| 12> H     -1.492284    0.765414   -0.895748
| 13> *
| 14>
| 15>                          ****END OF INPUT****

CARTESIAN COORDINATES (ANGSTROEM)
---------------------------------
  C      0.361772    0.190165    0.000000
  C     -1.157274    0.243325    0.000000
  F      0.843210    1.450981    0.000000
  F      0.843210   -0.436999    1.084078
  F      0.843210   -0.436999   -1.084078
  F     -1.667677   -1.036067    0.000000
  H     -1.492284    0.765414    0.895748
  H     -1.492284    0.765414   -0.895748

 Total Charge           Charge          ....    0
 Multiplicity           Mult            ....    1
 Number of Electrons    NEL             ....   50
 Basis Dimension        Dim             ....  322

ORBITAL ENERGIES
----------------

  NO   OCC          E(Eh)            E(eV)
   0   2.0000     -26.354337      -717.1380
   1   2.0000     -26.350503      -717.0336
   2   2.0000     -26.350481      -717.0330
   3   2.0000     -26.319682      -716.1950
   4   2.0000     -11.522582      -313.5454
   5   2.0000     -11.358941      -309.0925
   6   2.0000      -1.739955       -47.3466
   7   2.0000      -1.647540       -44.8319
   8   2.0000      -1.645055       -44.7642
   9   2.0000      -1.629474       -44.3402
  10   2.0000      -1.076358       -29.2892
  11   2.0000      -0.937751       -25.5175
  12   2.0000      -0.837554       -22.7910
  13   2.0000      -0.836812       -22.7708
  14   2.0000      -0.816447       -22.2167
  15   2.0000      -0.746117       -20.3029
  16   2.0000      -0.734692       -19.9920
  17   2.0000      -0.711394       -19.3580
  18   2.0000      -0.710095       -19.3227
  19   2.0000      -0.679739       -18.4966
  20   2.0000      -0.673808       -18.3353
  21   2.0000      -0.673132       -18.3168
  22   2.0000      -0.660850       -17.9826
  23   2.0000      -0.573916       -15.6170
  24   2.0000      -0.560368       -15.2484
  25   0.0000       0.027550         0.7497
  26   0.0000       0.041449         1.1279
  27   0.0000       0.062953         1.7130
  28   0.0000       0.073375         1.9966
  29   0.0000       0.097017         2.6400

MULLIKEN ATOMIC CHARGES
-----------------------
   0 C :    1.232351
   1 C :   -0.291381
   2 F :   -0.387859
   3 F :   -0.376581
   4 F :   -0.376581
   5 F :   -0.456115
   6 H :    0.328083
   7 H :    0.328083
Sum of atomic charges:   -0.0000000

LOEWDIN ATOMIC CHARGES
----------------------
   0 C :   -1.502213
   1 C :   -0.099976
   2 F :    0.492936
   3 F :    0.499029
   4 F :    0.499029
   5 F :    0.465611
   6 H :   -0.177208
   7 H :   -0.177208

  Mayer bond orders larger than 0.100000
B(  0-C ,  1-C ) :   0.9434 B(  0-C ,  2-F ) :   0.7829 B(  0-C ,  3-F ) :   0.7906
B(  0-C ,  4-F ) :   0.7906 B(  1-C ,  5-F ) :   0.6884 B(  1-C ,  6-H ) :   0.8934
B(  1-C ,  7-H ) :   0.8934

MP2 TOTAL ENERGY:     -476.206141029 Eh
FINAL SINGLE POINT ENERGY      -476.206141029233

DIPOLE MOMENT
-------------
                                X             Y             Z
Electronic contribution:      2.93460      -1.13521      -0.00000
Nuclear contribution   :     -3.53031       1.82618       0.00000
                        -----------------------------------------
Total Dipole Moment    :     -0.59571       0.69096      -0.00000
                        -----------------------------------------
Magnitude (a.u.)       :      0.91231
Magnitude (Debye)      :      2.31891

Rotational constants in cm-1:     0.176958     0.092331     0.090975
Rotational constants in MHz :  5305.074646  2768.009438  2727.369487

                             ****ORCA TERMINATED NORMALLY****
TOTAL RUN TIME: 0 days 0 hours 1 minutes 19 seconds 732 msec
