                         Program Version 5.0.3 -  RELEASE  -
|  1> !ri-mp2 aug-cc-pvtz aug-cc-pvtz/c tightscf
|  2> %pal nprocs 16 end
|  3>
|  4> * xyz 0 1
|  5> C      0.396763   -0.849410    1.557707
|  6> C     -1.307595    1.844297   -0.284042
|  7> C     -1.397054   -1.675296   -0.631754
|  8> C      2.299456    0.075180   -0.646213
|  9> C      0.083784   -0.016254    0.319117
| 10> O     -0.932476    0.864857    0.686795
| 11> O     -0.287293   -0.804780   -0.801289
| 12> O      1.175176    0.756275   -0.102867
| 13> H      1.120921   -1.627964    1.326124
| 14> H      0.801114   -0.194836    2.326325
| 15> H     -0.507613   -1.314379    1.943099
| 16> H     -0.521991    2.587274   -0.415187
| 17> H     -2.202110    2.321102    0.109521
| 18> H     -1.531943    1.383740   -1.247020
| 19> H     -1.666306   -2.024172   -1.626421
| 20> H     -2.250042   -1.156136   -0.190361
| 21> H     -1.144456   -2.540690   -0.013310
| 22> H      2.776750   -0.573021    0.093646
| 23> H      3.004868    0.850810   -0.935557
| 24> H      2.025435   -0.513636   -1.520874
| 25> *
| 26>
| 27>                          ****END OF INPUT****

CARTESIAN COORDINATES (ANGSTROEM)
---------------------------------
  C      0.396763   -0.849410    1.557707
  C     -1.307595    1.844297   -0.284042
  C     -1.397054   -1.675296   -0.631754
  C      2.299456    0.075180   -0.646213
  C      0.083784   -0.016254    0.319117
  O     -0.932476    0.864857    0.686795
  O     -0.287293   -0.804780   -0.801289
  O      1.175176    0.756275   -0.102867
  H      1.120921   -1.627964    1.326124
  H      0.801114   -0.194836    2.326325
  H     -0.507613   -1.314379    1.943099
  H     -0.521991    2.587274   -0.415187
  H     -2.202110    2.321102    0.109521
  H     -1.531943    1.383740   -1.247020
  H     -1.666306   -2.024172   -1.626421
  H     -2.250042   -1.156136   -0.190361
  H     -1.144456   -2.540690   -0.013310
  H      2.776750   -0.573021    0.093646
  H      3.004868    0.850810   -0.935557
  H      2.025435   -0.513636   -1.520874

 Total Charge           Charge          ....    0
 Multiplicity           Mult            ....    1
 Number of Electrons    NEL             ....   66
 Basis Dimension        Dim             ....  644

ORBITAL ENERGIES
----------------

  NO   OCC          E(Eh)            E(eV)
   0   2.0000     -20.560192      -559.4713
   1   2.0000     -20.557863      -559.4079
   2   2.0000     -20.557753      -559.4049
   3   2.0000     -11.387719      -309.8756
   4   2.0000     -11.272451      -306.7390
   5   2.0000     -11.267508      -306.6045
   6   2.0000     -11.260903      -306.4248
   7   2.0000     -11.216826      -305.2253
   8   2.0000      -1.448750       -39.4225
   9   2.0000      -1.344521       -36.5863
  10   2.0000      -1.343532       -36.5594
  11   2.0000      -1.023456       -27.8497
  12   2.0000      -0.950747       -25.8711
  13   2.0000      -0.928393       -25.2629
  14   2.0000      -0.917397       -24.9636
  15   2.0000      -0.778812       -21.1926
  16   2.0000      -0.706811       -19.2333
  17   2.0000      -0.702374       -19.1126
  18   2.0000      -0.677091       -18.4246
  19   2.0000      -0.638207       -17.3665
  20   2.0000      -0.621624       -16.9152
  21   2.0000      -0.598552       -16.2874
  22   2.0000      -0.584289       -15.8993
  23   2.0000      -0.577818       -15.7232
  24   2.0000      -0.561112       -15.2686
  25   2.0000      -0.550421       -14.9777
  26   2.0000      -0.535133       -14.5617
  27   2.0000      -0.516975       -14.0676
  28   2.0000      -0.489466       -13.3190
  29   2.0000      -0.475988       -12.9523
  30   2.0000      -0.446551       -12.1513
  31   2.0000      -0.440947       -11.9988
  32   2.0000      -0.428871       -11.6702
  33   0.0000       0.029542         0.8039
  34   0.0000       0.036136         0.9833
  35   0.0000       0.037705         1.0260
  36   0.0000       0.039819         1.0835
  37   0.0000       0.052633         1.4322

MULLIKEN ATOMIC CHARGES
-----------------------
   0 C :   -1.092902
   1 C :   -1.011385
   2 C :   -0.986047
   3 C :   -0.955042
   4 C :    1.895540
   5 O :   -0.679317
   6 O :   -0.574416
   7 O :   -0.669167
   8 H :    0.339627
   9 H :    0.251093
  10 H :    0.260426
  11 H :    0.364997
  12 H :    0.345367
  13 H :    0.367649
  14 H :    0.303950
  15 H :    0.405975
  16 H :    0.347881
  17 H :    0.366488
  18 H :    0.319670
  19 H :    0.399612
Sum of atomic charges:    0.0000000

LOEWDIN ATOMIC CHARGES
----------------------
   0 C :    0.580059
   1 C :    0.345210
   2 C :    0.329028
   3 C :    0.341159
   4 C :   -1.123193
   5 O :    0.571413
   6 O :    0.569308
   7 O :    0.574712
   8 H :   -0.176316
   9 H :   -0.161665
  10 H :   -0.178671
  11 H :   -0.188594
  12 H :   -0.188587
  13 H :   -0.185319
  14 H :   -0.182949
  15 H :   -0.180127
  16 H :   -0.182584
  17 H :   -0.185605
  18 H :   -0.185277
  19 H :   -0.192002

  Mayer bond orders larger than 0.100000
B(  0-C ,  4-C ) :   0.6577 B(  0-C ,  8-H ) :   0.9451 B(  0-C ,  9-H ) :   1.0183
B(  0-C , 10-H ) :   0.9829 B(  1-C ,  5-O ) :   0.9868 B(  1-C , 11-H ) :   0.8729
B(  1-C , 12-H ) :   0.9415 B(  1-C , 13-H ) :   0.8807 B(  2-C ,  6-O ) :   0.9938
B(  2-C , 14-H ) :   0.9911 B(  2-C , 15-H ) :   0.8258 B(  2-C , 16-H ) :   0.8876
B(  3-C ,  7-O ) :   1.0357 B(  3-C , 17-H ) :   0.8549 B(  3-C , 18-H ) :   0.9824
B(  3-C , 19-H ) :   0.8385 B(  4-C ,  5-O ) :   0.5821 B(  4-C ,  6-O ) :   0.3779
B(  4-C ,  7-O ) :   0.4068

MP2 TOTAL ENERGY:     -422.663131692 Eh
FINAL SINGLE POINT ENERGY      -422.663131691942

DIPOLE MOMENT
-------------
                                X             Y             Z
Electronic contribution:      0.07558       2.33466       0.03614
Nuclear contribution   :     -0.09912      -2.87736      -0.15830
                        -----------------------------------------
Total Dipole Moment    :     -0.02354      -0.54270      -0.12216
                        -----------------------------------------
Magnitude (a.u.)       :      0.55678
Magnitude (Debye)      :      1.41521

Rotational constants in cm-1:     0.075130     0.063773     0.050533
Rotational constants in MHz :  2252.332163  1911.871430  1514.956053

                             ****ORCA TERMINATED NORMALLY****
TOTAL RUN TIME: 0 days 0 hours 8 minutes 55 seconds 820 msec
