                         Program Version 5.0.3 -  RELEASE  -
|  1> !ri-mp2 aug-cc-pvtz aug-cc-pvtz/c tightscf
|  2> %pal nprocs 16 end
|  3>
|  4> * xyz 0 1
|  5> Cl   -2.228128   -1.021501   -0.416681
|  6> Cl   -1.176042    1.636902    0.087881
|  7> O     0.217710   -0.557728   -0.248136
|  8> O     2.451588   -0.549725   -0.247351
|  9> N    -0.936161   -0.161967    0.426500
| 10> C     1.373759   -0.430493    0.538916
| 11> C     1.403284   -0.296492    1.855640
| 12> C     2.597789    0.411824   -1.311164
| 13> H     0.502906   -0.317994    2.444647
| 14> H     2.358608   -0.182888    2.340675
| 15> H     3.551083    0.185303   -1.778270
| 16> H     1.794461    0.315767   -2.038707
| 17> H     2.613575    1.422361   -0.900703
| 18> *
| 19>
| 20>                          ****END OF INPUT****

CARTESIAN COORDINATES (ANGSTROEM)
---------------------------------
  Cl    -2.228128   -1.021501   -0.416681
  Cl    -1.176042    1.636902    0.087881
  O      0.217710   -0.557728   -0.248136
  O      2.451588   -0.549725   -0.247351
  N     -0.936161   -0.161967    0.426500
  C      1.373759   -0.430493    0.538916
  C      1.403284   -0.296492    1.855640
  C      2.597789    0.411824   -1.311164
  H      0.502906   -0.317994    2.444647
  H      2.358608   -0.182888    2.340675
  H      3.551083    0.185303   -1.778270
  H      1.794461    0.315767   -2.038707
  H      2.613575    1.422361   -0.900703

 Total Charge           Charge          ....    0
 Multiplicity           Mult            ....    1
 Number of Electrons    NEL             ....   80
 Basis Dimension        Dim             ....  491

ORBITAL ENERGIES
----------------

  NO   OCC          E(Eh)            E(eV)
   0   2.0000    -104.890989     -2854.2289
   1   2.0000    -104.878221     -2853.8815
   2   2.0000     -20.662513      -562.2556
   3   2.0000     -20.601379      -560.5920
   4   2.0000     -15.776293      -429.2948
   5   2.0000     -11.370600      -309.4098
   6   2.0000     -11.293955      -307.3241
   7   2.0000     -11.224249      -305.4273
   8   2.0000     -10.612163      -288.7716
   9   2.0000     -10.599364      -288.4234
  10   2.0000      -8.079003      -219.8408
  11   2.0000      -8.076325      -219.7680
  12   2.0000      -8.076201      -219.7646
  13   2.0000      -8.066041      -219.4881
  14   2.0000      -8.063618      -219.4222
  15   2.0000      -8.063504      -219.4191
  16   2.0000      -1.514196       -41.2034
  17   2.0000      -1.421228       -38.6736
  18   2.0000      -1.228368       -33.4256
  19   2.0000      -1.109105       -30.1803
  20   2.0000      -1.052331       -28.6354
  21   2.0000      -0.974805       -26.5258
  22   2.0000      -0.951975       -25.9046
  23   2.0000      -0.799669       -21.7601
  24   2.0000      -0.739554       -20.1243
  25   2.0000      -0.708098       -19.2683
  26   2.0000      -0.702937       -19.1279
  27   2.0000      -0.649514       -17.6742
  28   2.0000      -0.644861       -17.5476
  29   2.0000      -0.622763       -16.9463
  30   2.0000      -0.579995       -15.7825
  31   2.0000      -0.561485       -15.2788
  32   2.0000      -0.549422       -14.9505
  33   2.0000      -0.529719       -14.4144
  34   2.0000      -0.506629       -13.7861
  35   2.0000      -0.484119       -13.1735
  36   2.0000      -0.477072       -12.9818
  37   2.0000      -0.461622       -12.5614
  38   2.0000      -0.431547       -11.7430
  39   2.0000      -0.361262        -9.8304
  40   0.0000       0.029755         0.8097
  41   0.0000       0.038720         1.0536
  42   0.0000       0.040576         1.1041
  43   0.0000       0.046938         1.2773
  44   0.0000       0.051456         1.4002

MULLIKEN ATOMIC CHARGES
-----------------------
   0 Cl:    0.057545
   1 Cl:   -0.007412
   2 O :   -0.274590
   3 O :   -0.494165
   4 N :   -0.153825
   5 C :    0.890216
   6 C :   -1.242287
   7 C :   -0.822621
   8 H :    0.603000
   9 H :    0.330417
  10 H :    0.363390
  11 H :    0.381990
  12 H :    0.368342
Sum of atomic charges:    0.0000000

LOEWDIN ATOMIC CHARGES
----------------------
   0 Cl:    0.638900
   1 Cl:    0.563075
   2 O :    0.247900
   3 O :    0.543343
   4 N :   -1.045892
   5 C :   -0.751895
   6 C :    0.484143
   7 C :    0.372617
   8 H :   -0.262732
   9 H :   -0.236344
  10 H :   -0.184678
  11 H :   -0.191856
  12 H :   -0.176579

  Mayer bond orders larger than 0.100000
B(  0-Cl,  4-N ) :   1.0258 B(  1-Cl,  4-N ) :   0.9390 B(  2-O ,  3-O ) :  -0.1435
B(  2-O ,  4-N ) :   0.9690 B(  2-O ,  5-C ) :   0.8285 B(  2-O ,  6-C ) :  -0.1060
B(  3-O ,  5-C ) :   0.7709 B(  3-O ,  7-C ) :   0.9233 B(  5-C ,  6-C ) :   1.4923
B(  6-C ,  8-H ) :   0.6544 B(  6-C ,  9-H ) :   0.9832 B(  7-C , 10-H ) :   0.9069
B(  7-C , 11-H ) :   0.8561 B(  7-C , 12-H ) :   0.8658

MP2 TOTAL ENERGY:    -1241.238511188 Eh
FINAL SINGLE POINT ENERGY     -1241.238511187806

DIPOLE MOMENT
-------------
                                X             Y             Z
Electronic contribution:    -14.61692      -0.11221      -0.76804
Nuclear contribution   :     14.95707       0.49806       0.50664
                        -----------------------------------------
Total Dipole Moment    :      0.34016       0.38585      -0.26140
                        -----------------------------------------
Magnitude (a.u.)       :      0.57699
Magnitude (Debye)      :      1.46659

Rotational constants in cm-1:     0.068578     0.028834     0.026380
Rotational constants in MHz :  2055.929550   864.421554   790.865669

                             ****ORCA TERMINATED NORMALLY****
TOTAL RUN TIME: 0 days 0 hours 4 minutes 56 seconds 406 msec
