                         Program Version 5.0.3 -  RELEASE  -
|  1> !ri-mp2 aug-cc-pvtz aug-cc-pvtz/c tightscf
|  2> %pal nprocs 16 end
|  3>
|  4> * xyz 0 1
|  5> C      0.635171   -0.982628        0.000000
|  6> C      1.116435    0.296921        0.000000
|  7> C     -1.089077    0.282717        0.000000
|  8> N     -0.739829   -0.979874        0.000000
|  9> N      0.000000    1.101780        0.000000
| 10> H      1.196253   -1.901176        0.000000
| 11> H      2.113523    0.697918        0.000000
| 12> H     -2.097453    0.661493        0.000000
| 13> H     -0.008690    2.106362        0.000000
| 14> *
| 15>
| 16>                          ****END OF INPUT****

CARTESIAN COORDINATES (ANGSTROEM)
---------------------------------
  C      0.635171   -0.982628    0.000000
  C      1.116435    0.296921    0.000000
  C     -1.089077    0.282717    0.000000
  N     -0.739829   -0.979874    0.000000
  N      0.000000    1.101780    0.000000
  H      1.196253   -1.901176    0.000000
  H      2.113523    0.697918    0.000000
  H     -2.097453    0.661493    0.000000
  H     -0.008690    2.106362    0.000000

 Total Charge           Charge          ....    0
 Multiplicity           Mult            ....    1
 Number of Electrons    NEL             ....   36
 Basis Dimension        Dim             ....  322

ORBITAL ENERGIES
----------------

  NO   OCC          E(Eh)            E(eV)
   0   2.0000     -15.623045      -425.1247
   1   2.0000     -15.545104      -423.0038
   2   2.0000     -11.296683      -307.3984
   3   2.0000     -11.261390      -306.4380
   4   2.0000     -11.243090      -305.9400
   5   2.0000      -1.342916       -36.5426
   6   2.0000      -1.167909       -31.7804
   7   2.0000      -1.009127       -27.4597
   8   2.0000      -0.829789       -22.5797
   9   2.0000      -0.800520       -21.7832
  10   2.0000      -0.760145       -20.6846
  11   2.0000      -0.610721       -16.6186
  12   2.0000      -0.603420       -16.4199
  13   2.0000      -0.599944       -16.3253
  14   2.0000      -0.572587       -15.5809
  15   2.0000      -0.437019       -11.8919
  16   2.0000      -0.401426       -10.9234
  17   2.0000      -0.322503        -8.7758
  18   0.0000       0.021059         0.5731
  19   0.0000       0.034476         0.9381
  20   0.0000       0.041413         1.1269
  21   0.0000       0.052246         1.4217
  22   0.0000       0.071960         1.9581

MULLIKEN ATOMIC CHARGES
-----------------------
   0 C :   -0.310765
   1 C :   -0.538355
   2 C :   -0.572874
   3 N :   -0.459537
   4 N :    0.031223
   5 H :    0.563720
   6 H :    0.564906
   7 H :    0.601709
   8 H :    0.119972
Sum of atomic charges:   -0.0000000

LOEWDIN ATOMIC CHARGES
----------------------
   0 C :   -0.015286
   1 C :    0.108462
   2 C :   -0.090647
   3 N :    0.335251
   4 N :    0.492081
   5 H :   -0.208466
   6 H :   -0.186804
   7 H :   -0.181143
   8 H :   -0.253448

  Mayer bond orders larger than 0.100000
B(  0-C ,  1-C ) :   1.4980 B(  0-C ,  3-N ) :   0.8999 B(  0-C ,  4-N ) :  -0.1437
B(  0-C ,  5-H ) :   0.6966 B(  1-C ,  2-C ) :  -0.1015 B(  1-C ,  4-N ) :   1.0828
B(  1-C ,  6-H ) :   0.6873 B(  2-C ,  3-N ) :   1.4169 B(  2-C ,  4-N ) :   1.2064
B(  2-C ,  7-H ) :   0.5860 B(  4-N ,  8-H ) :   1.0765

MP2 TOTAL ENERGY:     -225.793613094 Eh
FINAL SINGLE POINT ENERGY      -225.793613094450

DIPOLE MOMENT
-------------
                                X             Y             Z
Electronic contribution:     -0.77730      -0.10716       0.00000
Nuclear contribution   :      1.19104       1.55454       0.00000
                        -----------------------------------------
Total Dipole Moment    :      0.41374       1.44739       0.00000
                        -----------------------------------------
Magnitude (a.u.)       :      1.50536
Magnitude (Debye)      :      3.82632

Rotational constants in cm-1:     0.325855     0.315477     0.160291
Rotational constants in MHz :  9768.887108  9457.776424  4805.407346

                             ****ORCA TERMINATED NORMALLY****
TOTAL RUN TIME: 0 days 0 hours 1 minutes 34 seconds 263 msec
