                         Program Version 5.0.3 -  RELEASE  -
|  1> !ri-mp2 aug-cc-pvtz aug-cc-pvtz/c tightscf
|  2> %pal nprocs 16 end
|  3>
|  4> * xyz 0 1
|  5> O     -4.169729   -0.037851   -0.000189
|  6> O      4.169729    0.037850   -0.000331
|  7> N     -1.822306    0.260406    0.000120
|  8> N      1.822306   -0.260406    0.000229
|  9> C     -0.587346   -0.486761    0.000192
| 10> C      0.587346    0.486762    0.000114
| 11> C     -3.002288    0.047253   -0.000041
| 12> C      3.002288   -0.047254   -0.000081
| 13> H     -0.530798   -1.125725   -0.882692
| 14> H     -0.530812   -1.125555    0.883200
| 15> H      0.530823    1.125555   -0.882895
| 16> H      0.530787    1.125727    0.882997
| 17> *
| 18>
| 19>                          ****END OF INPUT****

CARTESIAN COORDINATES (ANGSTROEM)
---------------------------------
  O     -4.169729   -0.037851   -0.000189
  O      4.169729    0.037850   -0.000331
  N     -1.822306    0.260406    0.000120
  N      1.822306   -0.260406    0.000229
  C     -0.587346   -0.486761    0.000192
  C      0.587346    0.486762    0.000114
  C     -3.002288    0.047253   -0.000041
  C      3.002288   -0.047254   -0.000081
  H     -0.530798   -1.125725   -0.882692
  H     -0.530812   -1.125555    0.883200
  H      0.530823    1.125555   -0.882895
  H      0.530787    1.125727    0.882997

 Total Charge           Charge          ....    0
 Multiplicity           Mult            ....    1
 Number of Electrons    NEL             ....   58
 Basis Dimension        Dim             ....  460

ORBITAL ENERGIES
----------------

  NO   OCC          E(Eh)            E(eV)
   0   2.0000     -20.614469      -560.9482
   1   2.0000     -20.614469      -560.9482
   2   2.0000     -15.599216      -424.4762
   3   2.0000     -15.599214      -424.4762
   4   2.0000     -11.408104      -310.4303
   5   2.0000     -11.408104      -310.4303
   6   2.0000     -11.312965      -307.8414
   7   2.0000     -11.312341      -307.8245
   8   2.0000      -1.466715       -39.9113
   9   2.0000      -1.466656       -39.9097
  10   2.0000      -1.294174       -35.2163
  11   2.0000      -1.280255       -34.8375
  12   2.0000      -1.080714       -29.4077
  13   2.0000      -0.934595       -25.4316
  14   2.0000      -0.774158       -21.0659
  15   2.0000      -0.744108       -20.2482
  16   2.0000      -0.724830       -19.7236
  17   2.0000      -0.706477       -19.2242
  18   2.0000      -0.687260       -18.7013
  19   2.0000      -0.667174       -18.1547
  20   2.0000      -0.664392       -18.0790
  21   2.0000      -0.644455       -17.5365
  22   2.0000      -0.634548       -17.2669
  23   2.0000      -0.583676       -15.8826
  24   2.0000      -0.570410       -15.5216
  25   2.0000      -0.464868       -12.6497
  26   2.0000      -0.449009       -12.2181
  27   2.0000      -0.434298       -11.8178
  28   2.0000      -0.433864       -11.8060
  29   0.0000       0.023081         0.6281
  30   0.0000       0.033620         0.9149
  31   0.0000       0.035430         0.9641
  32   0.0000       0.047385         1.2894
  33   0.0000       0.055554         1.5117

MULLIKEN ATOMIC CHARGES
-----------------------
   0 O :   -0.506709
   1 O :   -0.506709
   2 N :    0.052063
   3 N :    0.052064
   4 C :    0.029974
   5 C :    0.029973
   6 C :   -0.203690
   7 C :   -0.203690
   8 H :    0.314178
   9 H :    0.314184
  10 H :    0.314183
  11 H :    0.314179
Sum of atomic charges:    0.0000000

LOEWDIN ATOMIC CHARGES
----------------------
   0 O :    0.370326
   1 O :    0.370326
   2 N :    0.300270
   3 N :    0.300270
   4 C :    0.098399
   5 C :    0.098400
   6 C :   -0.464080
   7 C :   -0.464081
   8 H :   -0.152457
   9 H :   -0.152458
  10 H :   -0.152457
  11 H :   -0.152458

  Mayer bond orders larger than 0.100000
B(  0-O ,  2-N ) :  -0.2647 B(  0-O ,  6-C ) :   2.0845 B(  1-O ,  3-N ) :  -0.2647
B(  1-O ,  7-C ) :   2.0845 B(  2-N ,  4-C ) :   0.5654 B(  2-N ,  6-C ) :   1.7511
B(  3-N ,  5-C ) :   0.5654 B(  3-N ,  7-C ) :   1.7511 B(  4-C ,  5-C ) :   0.9399
B(  4-C ,  6-C ) :  -0.1786 B(  4-C ,  8-H ) :   0.9106 B(  4-C ,  9-H ) :   0.9106
B(  5-C ,  7-C ) :  -0.1786 B(  5-C , 10-H ) :   0.9106 B(  5-C , 11-H ) :   0.9106

MP2 TOTAL ENERGY:     -414.084664191 Eh
FINAL SINGLE POINT ENERGY      -414.084664190569

DIPOLE MOMENT
-------------
                                X             Y             Z
Electronic contribution:     -0.00000      -0.00000      -0.00050
Nuclear contribution   :      0.00000       0.00000       0.00059
                        -----------------------------------------
Total Dipole Moment    :     -0.00000       0.00000       0.00009
                        -----------------------------------------
Magnitude (a.u.)       :      0.00009
Magnitude (Debye)      :      0.00023

Rotational constants in cm-1:     1.057805     0.019190     0.018981
Rotational constants in MHz : 31712.192139   575.296818   569.045961

                             ****ORCA TERMINATED NORMALLY****
TOTAL RUN TIME: 0 days 0 hours 3 minutes 30 seconds 256 msec
