                         Program Version 5.0.3 -  RELEASE  -
|  1> !ri-mp2 aug-cc-pvtz aug-cc-pvtz/c tightscf
|  2> %pal nprocs 16 end
|  3> %maxcore 3800
|  4>
|  5> * xyz 0 1
|  6> C      5.089909   -0.352288   -0.006234
|  7> C      3.812557    0.485486    0.017342
|  8> C      2.536468   -0.356683   -0.009704
|  9> C      1.252161    0.472558    0.012261
| 10> C     -0.022805   -0.371121   -0.013333
| 11> C     -1.306858    0.459456    0.007688
| 12> C     -2.580564   -0.387028   -0.021920
| 13> C     -3.851423    0.452738    0.005891
| 14> O     -5.044544   -0.325727   -0.078454
| 15> H      5.140854   -0.967918   -0.906694
| 16> H      5.136911   -1.023546    0.853797
| 17> H      5.980865    0.276784    0.015618
| 18> H      3.809761    1.169734   -0.836459
| 19> H      3.807307    1.117177    0.910784
| 20> H      2.542544   -0.990137   -0.903143
| 21> H      2.539557   -1.041269    0.845242
| 22> H      1.249543    1.155909   -0.843424
| 23> H      1.247470    1.106707    0.905111
| 24> H     -0.018787   -1.005273   -0.905757
| 25> H     -0.021131   -1.053901    0.842702
| 26> H     -1.307512    1.142029   -0.848333
| 27> H     -1.310614    1.093278    0.900561
| 28> H     -2.584132   -1.069525    0.835632
| 29> H     -2.594832   -1.012605   -0.918195
| 30> H     -3.868468    1.083342    0.903101
| 31> H     -3.882554    1.118124   -0.857873
| 32> H     -5.087108   -0.911803    0.683019
| 33> *
| 34>
| 35>                          ****END OF INPUT****

CARTESIAN COORDINATES (ANGSTROEM)
---------------------------------
  C      5.089909   -0.352288   -0.006234
  C      3.812557    0.485486    0.017342
  C      2.536468   -0.356683   -0.009704
  C      1.252161    0.472558    0.012261
  C     -0.022805   -0.371121   -0.013333
  C     -1.306858    0.459456    0.007688
  C     -2.580564   -0.387028   -0.021920
  C     -3.851423    0.452738    0.005891
  O     -5.044544   -0.325727   -0.078454
  H      5.140854   -0.967918   -0.906694
  H      5.136911   -1.023546    0.853797
  H      5.980865    0.276784    0.015618
  H      3.809761    1.169734   -0.836459
  H      3.807307    1.117177    0.910784
  H      2.542544   -0.990137   -0.903143
  H      2.539557   -1.041269    0.845242
  H      1.249543    1.155909   -0.843424
  H      1.247470    1.106707    0.905111
  H     -0.018787   -1.005273   -0.905757
  H     -0.021131   -1.053901    0.842702
  H     -1.307512    1.142029   -0.848333
  H     -1.310614    1.093278    0.900561
  H     -2.584132   -1.069525    0.835632
  H     -2.594832   -1.012605   -0.918195
  H     -3.868468    1.083342    0.903101
  H     -3.882554    1.118124   -0.857873
  H     -5.087108   -0.911803    0.683019

 Total Charge           Charge          ....    0
 Multiplicity           Mult            ....    1
 Number of Electrons    NEL             ....   74
 Basis Dimension        Dim             ....  828

ORBITAL ENERGIES
----------------

  NO   OCC          E(Eh)            E(eV)
   0   2.0000     -20.553488      -559.2888
   1   2.0000     -11.271231      -306.7058
   2   2.0000     -11.221443      -305.3510
   3   2.0000     -11.219852      -305.3077
   4   2.0000     -11.218155      -305.2615
   5   2.0000     -11.216769      -305.2238
   6   2.0000     -11.216210      -305.2086
   7   2.0000     -11.215001      -305.1757
   8   2.0000     -11.210441      -305.0516
   9   2.0000      -1.352930       -36.8151
  10   2.0000      -1.094770       -29.7902
  11   2.0000      -1.063162       -28.9301
  12   2.0000      -1.012054       -27.5394
  13   2.0000      -0.946697       -25.7609
  14   2.0000      -0.877001       -23.8644
  15   2.0000      -0.821596       -22.3568
  16   2.0000      -0.793665       -21.5967
  17   2.0000      -0.787679       -21.4338
  18   2.0000      -0.688440       -18.7334
  19   2.0000      -0.657404       -17.8889
  20   2.0000      -0.632641       -17.2150
  21   2.0000      -0.606652       -16.5078
  22   2.0000      -0.603267       -16.4157
  23   2.0000      -0.587324       -15.9819
  24   2.0000      -0.570153       -15.5146
  25   2.0000      -0.555966       -15.1286
  26   2.0000      -0.537904       -14.6371
  27   2.0000      -0.522440       -14.2163
  28   2.0000      -0.508854       -13.8466
  29   2.0000      -0.493733       -13.4352
  30   2.0000      -0.478082       -13.0093
  31   2.0000      -0.475344       -12.9348
  32   2.0000      -0.466360       -12.6903
  33   2.0000      -0.461167       -12.5490
  34   2.0000      -0.460713       -12.5366
  35   2.0000      -0.453483       -12.3399
  36   2.0000      -0.424608       -11.5542
  37   0.0000       0.029361         0.7990
  38   0.0000       0.030284         0.8241
  39   0.0000       0.033414         0.9093
  40   0.0000       0.036400         0.9905
  41   0.0000       0.042619         1.1597

MULLIKEN ATOMIC CHARGES
-----------------------
   0 C :   -1.008212
   1 C :   -0.516598
   2 C :   -0.304612
   3 C :   -0.341849
   4 C :   -0.339261
   5 C :   -0.340670
   6 C :   -0.485521
   7 C :   -0.243121
   8 O :   -0.661066
   9 H :    0.260154
  10 H :    0.259893
  11 H :    0.274426
  12 H :    0.224415
  13 H :    0.221885
  14 H :    0.234339
  15 H :    0.232770
  16 H :    0.226972
  17 H :    0.229794
  18 H :    0.224403
  19 H :    0.225576
  20 H :    0.230922
  21 H :    0.237964
  22 H :    0.224507
  23 H :    0.213925
  24 H :    0.239406
  25 H :    0.309945
  26 H :    0.169615
Sum of atomic charges:   -0.0000000

LOEWDIN ATOMIC CHARGES
----------------------
   0 C :    0.577906
   1 C :    0.256609
   2 C :    0.269617
   3 C :    0.277955
   4 C :    0.279155
   5 C :    0.272151
   6 C :    0.271968
   7 C :    0.036616
   8 O :    0.804919
   9 H :   -0.171716
  10 H :   -0.171805
  11 H :   -0.174270
  12 H :   -0.148133
  13 H :   -0.148185
  14 H :   -0.141377
  15 H :   -0.141580
  16 H :   -0.139877
  17 H :   -0.140007
  18 H :   -0.139314
  19 H :   -0.139957
  20 H :   -0.140233
  21 H :   -0.141009
  22 H :   -0.147423
  23 H :   -0.144258
  24 H :   -0.153916
  25 H :   -0.162913
  26 H :   -0.500924

  Mayer bond orders larger than 0.100000
B(  0-C ,  1-C ) :   0.9379 B(  0-C ,  9-H ) :   0.9732 B(  0-C , 10-H ) :   0.9730
B(  0-C , 11-H ) :   0.9920 B(  1-C ,  2-C ) :   0.9086 B(  1-C , 12-H ) :   0.9761
B(  1-C , 13-H ) :   0.9791 B(  2-C ,  3-C ) :   0.9738 B(  2-C , 14-H ) :   0.9591
B(  2-C , 15-H ) :   0.9618 B(  3-C ,  4-C ) :   0.9709 B(  3-C , 16-H ) :   0.9546
B(  3-C , 17-H ) :   0.9527 B(  4-C ,  5-C ) :   0.9576 B(  4-C , 18-H ) :   0.9587
B(  4-C , 19-H ) :   0.9633 B(  5-C ,  6-C ) :   0.9097 B(  5-C , 20-H ) :   0.9583
B(  5-C , 21-H ) :   0.9453 B(  6-C ,  7-C ) :   0.9991 B(  6-C , 22-H ) :   0.9662
B(  6-C , 23-H ) :   0.9630 B(  7-C ,  8-O ) :   0.7339 B(  7-C , 24-H ) :   1.0168
B(  7-C , 25-H ) :   0.9370 B(  8-O , 26-H ) :   0.9978

MP2 TOTAL ENERGY:     -390.107419742 Eh
FINAL SINGLE POINT ENERGY      -390.107419741606

DIPOLE MOMENT
-------------
                                X             Y             Z
Electronic contribution:    -10.81732      -0.21591      -0.25158
Nuclear contribution   :     11.41878       0.19419       0.71975
                        -----------------------------------------
Total Dipole Moment    :      0.60146      -0.02172       0.46817
                        -----------------------------------------
Magnitude (a.u.)       :      0.76250
Magnitude (Debye)      :      1.93813

Rotational constants in cm-1:     0.329628     0.011330     0.011142
Rotational constants in MHz :  9881.988419   339.679700   334.017362

                             ****ORCA TERMINATED NORMALLY****
TOTAL RUN TIME: 0 days 0 hours 16 minutes 3 seconds 337 msec
