                         Program Version 5.0.3 -  RELEASE  -
|  1> !ri-mp2 aug-cc-pvtz aug-cc-pvtz/c tightscf
|  2> %pal nprocs 16 end
|  3>
|  4> * xyz 0 1
|  5> C     -0.175224    0.514096    2.220039
|  6> C     -0.175224    0.514096   -2.220039
|  7> C     -0.175224   -0.393919    1.253232
|  8> C     -0.175224   -0.393919   -1.253232
|  9> C      0.654344   -0.322824    0.000000
| 10> H     -0.793280    0.403263    3.100778
| 11> H      0.443638    1.401787    2.165483
| 12> H     -0.793280    0.403263   -3.100778
| 13> H      0.443638    1.401787   -2.165483
| 14> H     -0.815578   -1.266462    1.348079
| 15> H     -0.815578   -1.266462   -1.348079
| 16> H      1.352792   -1.169518    0.000000
| 17> H      1.256964    0.587167    0.000000
| 18> *
| 19>
| 20>                          ****END OF INPUT****

CARTESIAN COORDINATES (ANGSTROEM)
---------------------------------
  C     -0.175224    0.514096    2.220039
  C     -0.175224    0.514096   -2.220039
  C     -0.175224   -0.393919    1.253232
  C     -0.175224   -0.393919   -1.253232
  C      0.654344   -0.322824    0.000000
  H     -0.793280    0.403263    3.100778
  H      0.443638    1.401787    2.165483
  H     -0.793280    0.403263   -3.100778
  H      0.443638    1.401787   -2.165483
  H     -0.815578   -1.266462    1.348079
  H     -0.815578   -1.266462   -1.348079
  H      1.352792   -1.169518    0.000000
  H      1.256964    0.587167    0.000000

 Total Charge           Charge          ....    0
 Multiplicity           Mult            ....    1
 Number of Electrons    NEL             ....   38
 Basis Dimension        Dim             ....  414

ORBITAL ENERGIES
----------------

  NO   OCC          E(Eh)            E(eV)
   0   2.0000     -11.236166      -305.7516
   1   2.0000     -11.236039      -305.7482
   2   2.0000     -11.234354      -305.7023
   3   2.0000     -11.220522      -305.3259
   4   2.0000     -11.220522      -305.3259
   5   2.0000      -1.097145       -29.8548
   6   2.0000      -1.031841       -28.0778
   7   2.0000      -0.929511       -25.2933
   8   2.0000      -0.772814       -21.0293
   9   2.0000      -0.758501       -20.6398
  10   2.0000      -0.642947       -17.4955
  11   2.0000      -0.638746       -17.3812
  12   2.0000      -0.594651       -16.1813
  13   2.0000      -0.565520       -15.3886
  14   2.0000      -0.545454       -14.8425
  15   2.0000      -0.493098       -13.4179
  16   2.0000      -0.492695       -13.4069
  17   2.0000      -0.366951        -9.9852
  18   2.0000      -0.361922        -9.8484
  19   0.0000       0.031083         0.8458
  20   0.0000       0.036458         0.9921
  21   0.0000       0.036945         1.0053
  22   0.0000       0.041661         1.1337
  23   0.0000       0.054380         1.4797

MULLIKEN ATOMIC CHARGES
-----------------------
   0 C :   -1.087832
   1 C :   -1.087832
   2 C :   -0.301195
   3 C :   -0.301195
   4 C :    0.058228
   5 H :    0.478509
   6 H :    0.287262
   7 H :    0.478509
   8 H :    0.287262
   9 H :    0.358675
  10 H :    0.358675
  11 H :    0.302552
  12 H :    0.168382
Sum of atomic charges:   -0.0000000

LOEWDIN ATOMIC CHARGES
----------------------
   0 C :    0.522931
   1 C :    0.522931
   2 C :    0.173025
   3 C :    0.173025
   4 C :    0.210992
   5 H :   -0.229601
   6 H :   -0.221530
   7 H :   -0.229601
   8 H :   -0.221530
   9 H :   -0.187259
  10 H :   -0.187259
  11 H :   -0.152903
  12 H :   -0.173223

  Mayer bond orders larger than 0.100000
B(  0-C ,  2-C ) :   1.4354 B(  0-C ,  5-H ) :   0.6944 B(  0-C ,  6-H ) :   1.0476
B(  1-C ,  3-C ) :   1.4354 B(  1-C ,  7-H ) :   0.6944 B(  1-C ,  8-H ) :   1.0476
B(  2-C ,  3-C ) :   0.1029 B(  2-C ,  4-C ) :   0.8777 B(  2-C ,  9-H ) :   0.8833
B(  3-C ,  4-C ) :   0.8777 B(  3-C , 10-H ) :   0.8833 B(  4-C , 11-H ) :   0.8938
B(  4-C , 12-H ) :   1.0265

MP2 TOTAL ENERGY:     -194.856086962 Eh
FINAL SINGLE POINT ENERGY      -194.856086962167

DIPOLE MOMENT
-------------
                                X             Y             Z
Electronic contribution:     -0.23294      -0.61459      -0.00000
Nuclear contribution   :      0.29263       0.51842       0.00000
                        -----------------------------------------
Total Dipole Moment    :      0.05970      -0.09617      -0.00000
                        -----------------------------------------
Magnitude (a.u.)       :      0.11319
Magnitude (Debye)      :      0.28771

Rotational constants in cm-1:     0.501208     0.083663     0.080510
Rotational constants in MHz : 15025.829930  2508.140229  2413.627334

                             ****ORCA TERMINATED NORMALLY****
TOTAL RUN TIME: 0 days 0 hours 2 minutes 37 seconds 340 msec
