                         Program Version 5.0.3 -  RELEASE  -
|  1> !ri-mp2 aug-cc-pvtz aug-cc-pvtz/c tightscf
|  2> %pal nprocs 16 end
|  3>
|  4> * xyz 0 1
|  5> C      0.965471    1.453203    0.000000
|  6> C     -0.209585    0.507329    0.000000
|  7> Cl    -0.209585   -0.525034    1.479700
|  8> Cl    -0.209585   -0.525034   -1.479700
|  9> H      1.903270    0.901560    0.000000
| 10> H      0.925876    2.084439   -0.887319
| 11> H      0.925876    2.084439    0.887319
| 12> H     -1.164450    1.017543    0.000000
| 13> *
| 14>
| 15>                          ****END OF INPUT****

CARTESIAN COORDINATES (ANGSTROEM)
---------------------------------
  C      0.965471    1.453203    0.000000
  C     -0.209585    0.507329    0.000000
  Cl    -0.209585   -0.525034    1.479700
  Cl    -0.209585   -0.525034   -1.479700
  H      1.903270    0.901560    0.000000
  H      0.925876    2.084439   -0.887319
  H      0.925876    2.084439    0.887319
  H     -1.164450    1.017543    0.000000

 Total Charge           Charge          ....    0
 Multiplicity           Mult            ....    1
 Number of Electrons    NEL             ....   50
 Basis Dimension        Dim             ....  284

ORBITAL ENERGIES
----------------

  NO   OCC          E(Eh)            E(eV)
   0   2.0000    -104.843222     -2852.9291
   1   2.0000    -104.843222     -2852.9291
   2   2.0000     -11.373142      -309.4789
   3   2.0000     -11.251050      -306.1566
   4   2.0000     -10.567357      -287.5524
   5   2.0000     -10.567350      -287.5522
   6   2.0000      -8.034101      -218.6190
   7   2.0000      -8.034100      -218.6190
   8   2.0000      -8.032256      -218.5688
   9   2.0000      -8.032256      -218.5688
  10   2.0000      -8.032195      -218.5671
  11   2.0000      -8.032195      -218.5671
  12   2.0000      -1.191000       -32.4088
  13   2.0000      -1.087376       -29.5890
  14   2.0000      -1.010543       -27.4983
  15   2.0000      -0.836674       -22.7670
  16   2.0000      -0.664269       -18.0757
  17   2.0000      -0.627931       -17.0869
  18   2.0000      -0.597881       -16.2692
  19   2.0000      -0.550007       -14.9665
  20   2.0000      -0.533065       -14.5054
  21   2.0000      -0.466423       -12.6920
  22   2.0000      -0.464688       -12.6448
  23   2.0000      -0.444555       -12.0970
  24   2.0000      -0.440056       -11.9745
  25   0.0000       0.028822         0.7843
  26   0.0000       0.039550         1.0762
  27   0.0000       0.046171         1.2564
  28   0.0000       0.052464         1.4276
  29   0.0000       0.074940         2.0392

MULLIKEN ATOMIC CHARGES
-----------------------
   0 C :   -0.864011
   1 C :    0.219213
   2 Cl:   -0.319442
   3 Cl:   -0.319442
   4 H :    0.349016
   5 H :    0.327495
   6 H :    0.327495
   7 H :    0.279677
Sum of atomic charges:    0.0000000

LOEWDIN ATOMIC CHARGES
----------------------
   0 C :    0.393022
   1 C :   -1.174263
   2 Cl:    0.847711
   3 Cl:    0.847711
   4 H :   -0.198640
   5 H :   -0.192069
   6 H :   -0.192069
   7 H :   -0.331402

  Mayer bond orders larger than 0.100000
B(  0-C ,  1-C ) :   0.9241 B(  0-C ,  4-H ) :   0.9066 B(  0-C ,  5-H ) :   0.9040
B(  0-C ,  6-H ) :   0.9040 B(  1-C ,  2-Cl) :   0.8565 B(  1-C ,  3-Cl) :   0.8565
B(  1-C ,  7-H ) :   0.9190

MP2 TOTAL ENERGY:     -997.877670345 Eh
FINAL SINGLE POINT ENERGY      -997.877670345225

DIPOLE MOMENT
-------------
                                X             Y             Z
Electronic contribution:     -2.90979      -6.28822      -0.00000
Nuclear contribution   :      3.02725       7.20244       0.00000
                        -----------------------------------------
Total Dipole Moment    :      0.11747       0.91422      -0.00000
                        -----------------------------------------
Magnitude (a.u.)       :      0.92174
Magnitude (Debye)      :      2.34287

Rotational constants in cm-1:     0.211959     0.103087     0.073397
Rotational constants in MHz :  6354.384470  3090.463563  2200.389028

                             ****ORCA TERMINATED NORMALLY****
TOTAL RUN TIME: 0 days 0 hours 1 minutes 29 seconds 846 msec
