                         Program Version 5.0.3 -  RELEASE  -
|  1> !ri-mp2 aug-cc-pvtz aug-cc-pvtz/c tightscf
|  2> %pal nprocs 16 end
|  3>
|  4> * xyz 0 1
|  5> Cl     0.249784   -0.974350    1.469255
|  6> Cl     0.249795   -0.974958   -1.468853
|  7> O     -2.276486   -0.317705    0.000014
|  8> O     -1.578642    1.732450   -0.000305
|  9> N     -1.417338    0.529360   -0.000112
| 10> C      1.046188    1.203382   -0.000248
| 11> C      0.088165    0.027254   -0.000009
| 12> C      2.523780    0.818478   -0.000164
| 13> H      0.809962    1.806954    0.875296
| 14> H      0.809968    1.806595   -0.876042
| 15> H      3.125160    1.726672   -0.000357
| 16> H      2.787839    0.239740   -0.883469
| 17> H      2.787837    0.240117    0.883389
| 18> *
| 19>
| 20>                          ****END OF INPUT****

CARTESIAN COORDINATES (ANGSTROEM)
---------------------------------
  Cl     0.249784   -0.974350    1.469255
  Cl     0.249795   -0.974958   -1.468853
  O     -2.276486   -0.317705    0.000014
  O     -1.578642    1.732450   -0.000305
  N     -1.417338    0.529360   -0.000112
  C      1.046188    1.203382   -0.000248
  C      0.088165    0.027254   -0.000009
  C      2.523780    0.818478   -0.000164
  H      0.809962    1.806954    0.875296
  H      0.809968    1.806595   -0.876042
  H      3.125160    1.726672   -0.000357
  H      2.787839    0.239740   -0.883469
  H      2.787837    0.240117    0.883389

 Total Charge           Charge          ....    0
 Multiplicity           Mult            ....    1
 Number of Electrons    NEL             ....   80
 Basis Dimension        Dim             ....  491

ORBITAL ENERGIES
----------------

  NO   OCC          E(Eh)            E(eV)
   0   2.0000    -104.878724     -2853.8952
   1   2.0000    -104.878723     -2853.8951
   2   2.0000     -20.626583      -561.2778
   3   2.0000     -20.625230      -561.2410
   4   2.0000     -15.871982      -431.8986
   5   2.0000     -11.452872      -311.6485
   6   2.0000     -11.275550      -306.8233
   7   2.0000     -11.245089      -305.9944
   8   2.0000     -10.602654      -288.5129
   9   2.0000     -10.602645      -288.5127
  10   2.0000      -8.069417      -219.5800
  11   2.0000      -8.069417      -219.5800
  12   2.0000      -8.067323      -219.5230
  13   2.0000      -8.067323      -219.5230
  14   2.0000      -8.067252      -219.5211
  15   2.0000      -8.067251      -219.5211
  16   2.0000      -1.633930       -44.4615
  17   2.0000      -1.431094       -38.9421
  18   2.0000      -1.243332       -33.8328
  19   2.0000      -1.126628       -30.6571
  20   2.0000      -1.076571       -29.2950
  21   2.0000      -1.013565       -27.5805
  22   2.0000      -0.907632       -24.6979
  23   2.0000      -0.819073       -22.2881
  24   2.0000      -0.760977       -20.7072
  25   2.0000      -0.748472       -20.3670
  26   2.0000      -0.746282       -20.3074
  27   2.0000      -0.669661       -18.2224
  28   2.0000      -0.642025       -17.4704
  29   2.0000      -0.594920       -16.1886
  30   2.0000      -0.581938       -15.8353
  31   2.0000      -0.551316       -15.0021
  32   2.0000      -0.537572       -14.6281
  33   2.0000      -0.524933       -14.2841
  34   2.0000      -0.509465       -13.8632
  35   2.0000      -0.498166       -13.5558
  36   2.0000      -0.489420       -13.3178
  37   2.0000      -0.471529       -12.8310
  38   2.0000      -0.471245       -12.8232
  39   2.0000      -0.466868       -12.7041
  40   0.0000       0.025910         0.7051
  41   0.0000       0.038756         1.0546
  42   0.0000       0.040062         1.0901
  43   0.0000       0.048573         1.3217
  44   0.0000       0.052304         1.4233

MULLIKEN ATOMIC CHARGES
-----------------------
   0 Cl:   -0.335266
   1 Cl:   -0.335261
   2 O :   -0.699670
   3 O :   -0.648354
   4 N :    0.970599
   5 C :   -0.253391
   6 C :    0.736677
   7 C :   -0.976434
   8 H :    0.327676
   9 H :    0.327681
  10 H :    0.285165
  11 H :    0.300289
  12 H :    0.300290
Sum of atomic charges:    0.0000000

LOEWDIN ATOMIC CHARGES
----------------------
   0 Cl:    0.970863
   1 Cl:    0.970867
   2 O :    0.346657
   3 O :    0.384784
   4 N :   -0.830656
   5 C :    0.056883
   6 C :   -1.515968
   7 C :    0.540474
   8 H :   -0.181557
   9 H :   -0.181553
  10 H :   -0.166452
  11 H :   -0.197171
  12 H :   -0.197170

  Mayer bond orders larger than 0.100000
B(  0-Cl,  6-C ) :   0.6933 B(  1-Cl,  6-C ) :   0.6933 B(  2-O ,  3-O ) :   0.1475
B(  2-O ,  4-N ) :   1.0577 B(  2-O ,  6-C ) :   0.1149 B(  3-O ,  4-N ) :   1.0785
B(  3-O ,  6-C ) :   0.2226 B(  4-N ,  6-C ) :   1.0454 B(  5-C ,  6-C ) :   0.9248
B(  5-C ,  7-C ) :   0.8106 B(  5-C ,  8-H ) :   0.9037 B(  5-C ,  9-H ) :   0.9037
B(  6-C ,  7-C ) :   0.1090 B(  7-C , 10-H ) :   0.9660 B(  7-C , 11-H ) :   0.9438
B(  7-C , 12-H ) :   0.9438

MP2 TOTAL ENERGY:    -1241.327611326 Eh
FINAL SINGLE POINT ENERGY     -1241.327611326164

DIPOLE MOMENT
-------------
                                X             Y             Z
Electronic contribution:     -7.57697      -7.97761       0.00162
Nuclear contribution   :      9.06982       8.21136      -0.00168
                        -----------------------------------------
Total Dipole Moment    :      1.49285       0.23375      -0.00006
                        -----------------------------------------
Magnitude (a.u.)       :      1.51104
Magnitude (Debye)      :      3.84076

Rotational constants in cm-1:     0.054248     0.039483     0.039342
Rotational constants in MHz :  1626.321039  1183.675149  1179.433100

                             ****ORCA TERMINATED NORMALLY****
TOTAL RUN TIME: 0 days 0 hours 5 minutes 8 seconds 891 msec
