                         Program Version 5.0.3 -  RELEASE  -
|  1> !ri-mp2 aug-cc-pvtz aug-cc-pvtz/c tightscf
|  2> %pal nprocs 16 end
|  3>
|  4> * xyz 0 1
|  5> C     -0.718665   -1.555127    0.000000
|  6> C     -2.163694    0.226359    0.000000
|  7> C      0.315607   -0.659942    0.000000
|  8> C      0.000000    0.695721    0.000000
|  9> C      2.228992    0.497352    0.000000
| 10> N     -1.985417   -1.080489    0.000000
| 11> N     -1.205174    1.183491    0.000000
| 12> O      1.668909   -0.830309    0.000000
| 13> O      1.140201    1.432865    0.000000
| 14> H     -0.576224   -2.627468    0.000000
| 15> H     -3.184942    0.584348    0.000000
| 16> H      2.824495    0.637742    0.902050
| 17> H      2.824495    0.637742   -0.902050
| 18> *
| 19>
| 20>                          ****END OF INPUT****

CARTESIAN COORDINATES (ANGSTROEM)
---------------------------------
  C     -0.718665   -1.555127    0.000000
  C     -2.163694    0.226359    0.000000
  C      0.315607   -0.659942    0.000000
  C      0.000000    0.695721    0.000000
  C      2.228992    0.497352    0.000000
  N     -1.985417   -1.080489    0.000000
  N     -1.205174    1.183491    0.000000
  O      1.668909   -0.830309    0.000000
  O      1.140201    1.432865    0.000000
  H     -0.576224   -2.627468    0.000000
  H     -3.184942    0.584348    0.000000
  H      2.824495    0.637742    0.902050
  H      2.824495    0.637742   -0.902050

 Total Charge           Charge          ....    0
 Multiplicity           Mult            ....    1
 Number of Electrons    NEL             ....   64
 Basis Dimension        Dim             ....  506

ORBITAL ENERGIES
----------------

  NO   OCC          E(Eh)            E(eV)
   0   2.0000     -20.630645      -561.3884
   1   2.0000     -20.623115      -561.1835
   2   2.0000     -15.583190      -424.0402
   3   2.0000     -15.575040      -423.8184
   4   2.0000     -11.379502      -309.6520
   5   2.0000     -11.364410      -309.2413
   6   2.0000     -11.318617      -307.9952
   7   2.0000     -11.314882      -307.8936
   8   2.0000     -11.301632      -307.5330
   9   2.0000      -1.506489       -40.9936
  10   2.0000      -1.404398       -38.2156
  11   2.0000      -1.319976       -35.9184
  12   2.0000      -1.204025       -32.7632
  13   2.0000      -1.083500       -29.4835
  14   2.0000      -0.959515       -26.1097
  15   2.0000      -0.905753       -24.6468
  16   2.0000      -0.894841       -24.3498
  17   2.0000      -0.766629       -20.8610
  18   2.0000      -0.748736       -20.3742
  19   2.0000      -0.741962       -20.1898
  20   2.0000      -0.703947       -19.1554
  21   2.0000      -0.647465       -17.6184
  22   2.0000      -0.614546       -16.7226
  23   2.0000      -0.605850       -16.4860
  24   2.0000      -0.598463       -16.2850
  25   2.0000      -0.591586       -16.0979
  26   2.0000      -0.578503       -15.7419
  27   2.0000      -0.513697       -13.9784
  28   2.0000      -0.489241       -13.3129
  29   2.0000      -0.426825       -11.6145
  30   2.0000      -0.421904       -11.4806
  31   2.0000      -0.343860        -9.3569
  32   0.0000       0.025277         0.6878
  33   0.0000       0.034175         0.9300
  34   0.0000       0.039497         1.0748
  35   0.0000       0.039720         1.0808
  36   0.0000       0.063820         1.7366

MULLIKEN ATOMIC CHARGES
-----------------------
   0 C :   -0.581585
   1 C :   -0.655446
   2 C :    0.956422
   3 C :    0.507766
   4 C :   -0.098865
   5 N :   -0.389798
   6 N :   -0.434639
   7 O :   -0.789553
   8 O :   -0.455332
   9 H :    0.652127
  10 H :    0.593456
  11 H :    0.347725
  12 H :    0.347725
Sum of atomic charges:    0.0000000

LOEWDIN ATOMIC CHARGES
----------------------
   0 C :    0.047262
   1 C :   -0.174324
   2 C :   -0.398613
   3 C :   -0.610684
   4 C :   -0.095975
   5 N :    0.351316
   6 N :    0.402477
   7 O :    0.580380
   8 O :    0.600922
   9 H :   -0.180718
  10 H :   -0.206327
  11 H :   -0.157858
  12 H :   -0.157858

  Mayer bond orders larger than 0.100000
B(  0-C ,  1-C ) :  -0.1411 B(  0-C ,  2-C ) :   0.5368 B(  0-C ,  3-C ) :   0.4320
B(  0-C ,  5-N ) :   0.8462 B(  0-C ,  6-N ) :   0.1372 B(  0-C ,  9-H ) :   0.4379
B(  1-C ,  3-C ) :  -0.2392 B(  1-C ,  5-N ) :   1.5215 B(  1-C ,  6-N ) :   1.3253
B(  1-C , 10-H ) :   0.5690 B(  2-C ,  3-C ) :   1.0684 B(  2-C ,  5-N ) :  -0.1526
B(  2-C ,  6-N ) :  -0.1479 B(  2-C ,  7-O ) :   0.8321 B(  3-C ,  6-N ) :   0.9697
B(  3-C ,  8-O ) :   0.6962 B(  4-C ,  7-O ) :   0.8236 B(  4-C ,  8-O ) :   0.8632
B(  4-C , 11-H ) :   0.8846 B(  4-C , 12-H ) :   0.8846 B(  6-N ,  8-O ) :  -0.1494

MP2 TOTAL ENERGY:     -452.080894086 Eh
FINAL SINGLE POINT ENERGY      -452.080894085511

DIPOLE MOMENT
-------------
                                X             Y             Z
Electronic contribution:     -0.78156       0.48431       0.00000
Nuclear contribution   :      1.85321      -0.73371       0.00000
                        -----------------------------------------
Total Dipole Moment    :      1.07165      -0.24940       0.00000
                        -----------------------------------------
Magnitude (a.u.)       :      1.10029
Magnitude (Debye)      :      2.79672

Rotational constants in cm-1:     0.134160     0.056171     0.039901
Rotational constants in MHz :  4022.025579  1683.965400  1196.207185

                             ****ORCA TERMINATED NORMALLY****
TOTAL RUN TIME: 0 days 0 hours 5 minutes 26 seconds 110 msec
