                         Program Version 5.0.3 -  RELEASE  -
|  1> !ri-mp2 aug-cc-pvtz aug-cc-pvtz/c tightscf
|  2> %pal nprocs 16 end
|  3>
|  4> * xyz 0 1
|  5> S     3.207011    0.103485   -0.057042
|  6> F    -1.915460    1.328253   -0.160483
|  7> F    -3.079188   -0.540242   -0.097326
|  8> N     0.482209   -0.239691    0.285694
|  9> C    -1.923576    0.054593    0.324835
| 10> C    -0.750694   -0.732182   -0.236127
| 11> C     1.650101   -0.112516    0.094338
| 12> H    -1.934452    0.106448    1.414038
| 13> H    -0.774486   -0.657000   -1.325535
| 14> H    -0.881854   -1.778836    0.046326
| 15> *
| 16>
| 17>                          ****END OF INPUT****

CARTESIAN COORDINATES (ANGSTROEM)
---------------------------------
  S      3.207011    0.103485   -0.057042
  F     -1.915460    1.328253   -0.160483
  F     -3.079188   -0.540242   -0.097326
  N      0.482209   -0.239691    0.285694
  C     -1.923576    0.054593    0.324835
  C     -0.750694   -0.732182   -0.236127
  C      1.650101   -0.112516    0.094338
  H     -1.934452    0.106448    1.414038
  H     -0.774486   -0.657000   -1.325535
  H     -0.881854   -1.778836    0.046326

 Total Charge           Charge          ....    0
 Multiplicity           Mult            ....    1
 Number of Electrons    NEL             ....   62
 Basis Dimension        Dim             ....  395

ORBITAL ENERGIES
----------------

  NO   OCC          E(Eh)            E(eV)
   0   2.0000     -91.960720     -2502.3784
   1   2.0000     -26.329457      -716.4609
   2   2.0000     -26.325719      -716.3592
   3   2.0000     -15.622630      -425.1134
   4   2.0000     -11.430666      -311.0442
   5   2.0000     -11.390061      -309.9393
   6   2.0000     -11.331028      -308.3329
   7   2.0000      -8.963993      -243.9227
   8   2.0000      -6.645606      -180.8361
   9   2.0000      -6.643074      -180.7672
  10   2.0000      -6.642831      -180.7606
  11   2.0000      -1.675573       -45.5947
  12   2.0000      -1.614919       -43.9442
  13   2.0000      -1.313273       -35.7360
  14   2.0000      -1.103455       -30.0265
  15   2.0000      -1.031975       -28.0815
  16   2.0000      -0.932424       -25.3725
  17   2.0000      -0.810614       -22.0579
  18   2.0000      -0.785640       -21.3783
  19   2.0000      -0.769271       -20.9329
  20   2.0000      -0.723944       -19.6995
  21   2.0000      -0.686495       -18.6805
  22   2.0000      -0.665591       -18.1116
  23   2.0000      -0.647505       -17.6195
  24   2.0000      -0.635221       -17.2852
  25   2.0000      -0.606818       -16.5124
  26   2.0000      -0.585913       -15.9435
  27   2.0000      -0.542735       -14.7686
  28   2.0000      -0.527225       -14.3465
  29   2.0000      -0.379565       -10.3285
  30   2.0000      -0.369258       -10.0480
  31   0.0000       0.024950         0.6789
  32   0.0000       0.035262         0.9595
  33   0.0000       0.043720         1.1897
  34   0.0000       0.055513         1.5106
  35   0.0000       0.071784         1.9534

MULLIKEN ATOMIC CHARGES
-----------------------
   0 S :   -0.316299
   1 F :   -0.444346
   2 F :   -0.452469
   3 N :   -0.001527
   4 C :    0.521128
   5 C :   -0.018854
   6 C :   -0.345576
   7 H :    0.356827
   8 H :    0.321895
   9 H :    0.379221
Sum of atomic charges:    0.0000000

LOEWDIN ATOMIC CHARGES
----------------------
   0 S :    0.834675
   1 F :    0.483785
   2 F :    0.480868
   3 N :    0.217704
   4 C :   -0.762574
   5 C :    0.101828
   6 C :   -0.874024
   7 H :   -0.173375
   8 H :   -0.152348
   9 H :   -0.156538

  Mayer bond orders larger than 0.100000
B(  0-S ,  6-C ) :   1.8338 B(  1-F ,  4-C ) :   0.7541 B(  2-F ,  4-C ) :   0.6986
B(  3-N ,  5-C ) :   0.5126 B(  3-N ,  6-C ) :   1.9960 B(  4-C ,  5-C ) :   0.9480
B(  4-C ,  7-H ) :   0.9060 B(  5-C ,  6-C ) :  -0.2538 B(  5-C ,  8-H ) :   0.8961
B(  5-C ,  9-H ) :   0.8574

MP2 TOTAL ENERGY:     -767.723421484 Eh
FINAL SINGLE POINT ENERGY      -767.723421484408

DIPOLE MOMENT
-------------
                                X             Y             Z
Electronic contribution:     -1.58406       2.21776      -0.18958
Nuclear contribution   :      1.17816      -2.94338       0.37156
                        -----------------------------------------
Total Dipole Moment    :     -0.40590      -0.72561       0.18198
                        -----------------------------------------
Magnitude (a.u.)       :      0.85111
Magnitude (Debye)      :      2.16334

Rotational constants in cm-1:     0.290029     0.024805     0.023338
Rotational constants in MHz :  8694.854752   743.622048   699.665186

                             ****ORCA TERMINATED NORMALLY****
TOTAL RUN TIME: 0 days 0 hours 2 minutes 42 seconds 739 msec
