                         Program Version 5.0.3 -  RELEASE  -
|  1> !ri-mp2 aug-cc-pvtz aug-cc-pvtz/c tightscf
|  2> %pal nprocs 16 end
|  3>
|  4> * xyz 0 1
|  5> C      1.780721   -1.390068        0.000000
|  6> C      2.244479   -0.063173        0.000000
|  7> C      0.427376   -1.674703        0.000000
|  8> C      1.363098    1.004249        0.000000
|  9> C     -1.922320   -0.531592        0.000000
| 10> C     -2.246341    0.794059        0.000000
| 11> C     -0.491170   -0.616487        0.000000
| 12> C      0.000000    0.713959        0.000000
| 13> N     -1.093515    1.551035        0.000000
| 14> H      2.498544   -2.199111        0.000000
| 15> H      3.309164    0.126774        0.000000
| 16> H      0.081991   -2.700230        0.000000
| 17> H      1.723021    2.024849        0.000000
| 18> H     -2.621351   -1.350213        0.000000
| 19> H     -3.211971    1.269781        0.000000
| 20> H     -1.059845    2.553449        0.000000
| 21> *
| 22>
| 23>                          ****END OF INPUT****

CARTESIAN COORDINATES (ANGSTROEM)
---------------------------------
  C      1.780721   -1.390068    0.000000
  C      2.244479   -0.063173    0.000000
  C      0.427376   -1.674703    0.000000
  C      1.363098    1.004249    0.000000
  C     -1.922320   -0.531592    0.000000
  C     -2.246341    0.794059    0.000000
  C     -0.491170   -0.616487    0.000000
  C      0.000000    0.713959    0.000000
  N     -1.093515    1.551035    0.000000
  H      2.498544   -2.199111    0.000000
  H      3.309164    0.126774    0.000000
  H      0.081991   -2.700230    0.000000
  H      1.723021    2.024849    0.000000
  H     -2.621351   -1.350213    0.000000
  H     -3.211971    1.269781    0.000000
  H     -1.059845    2.553449    0.000000

 Total Charge           Charge          ....    0
 Multiplicity           Mult            ....    1
 Number of Electrons    NEL             ....   62
 Basis Dimension        Dim             ....  575

ORBITAL ENERGIES
----------------

  NO   OCC          E(Eh)            E(eV)
   0   2.0000     -15.603277      -424.5868
   1   2.0000     -11.270587      -306.6883
   2   2.0000     -11.265235      -306.5426
   3   2.0000     -11.230448      -305.5960
   4   2.0000     -11.228909      -305.5542
   5   2.0000     -11.227613      -305.5189
   6   2.0000     -11.225450      -305.4600
   7   2.0000     -11.219596      -305.3007
   8   2.0000     -11.216419      -305.2143
   9   2.0000      -1.297056       -35.2947
  10   2.0000      -1.131691       -30.7949
  11   2.0000      -1.057725       -28.7822
  12   2.0000      -0.998535       -27.1715
  13   2.0000      -0.976808       -26.5803
  14   2.0000      -0.844014       -22.9668
  15   2.0000      -0.807776       -21.9807
  16   2.0000      -0.790052       -21.4984
  17   2.0000      -0.729707       -19.8563
  18   2.0000      -0.662276       -18.0214
  19   2.0000      -0.649544       -17.6750
  20   2.0000      -0.603265       -16.4157
  21   2.0000      -0.596732       -16.2379
  22   2.0000      -0.584817       -15.9137
  23   2.0000      -0.577051       -15.7023
  24   2.0000      -0.550420       -14.9777
  25   2.0000      -0.508757       -13.8440
  26   2.0000      -0.482520       -13.1300
  27   2.0000      -0.466653       -12.6983
  28   2.0000      -0.386604       -10.5200
  29   2.0000      -0.302081        -8.2200
  30   2.0000      -0.284563        -7.7434
  31   0.0000       0.024163         0.6575
  32   0.0000       0.031506         0.8573
  33   0.0000       0.034168         0.9298
  34   0.0000       0.044413         1.2085
  35   0.0000       0.045436         1.2364

MULLIKEN ATOMIC CHARGES
-----------------------
   0 C :   -0.430573
   1 C :   -0.312595
   2 C :   -0.910874
   3 C :   -1.077002
   4 C :   -0.910576
   5 C :   -0.778463
   6 C :    1.803421
   7 C :   -0.019719
   8 N :   -0.091656
   9 H :    0.682179
  10 H :    0.378436
  11 H :   -0.025756
  12 H :    0.464411
  13 H :    0.514455
  14 H :    0.706193
  15 H :    0.008118
Sum of atomic charges:    0.0000000

LOEWDIN ATOMIC CHARGES
----------------------
   0 C :    0.183439
   1 C :    0.181788
   2 C :    0.221615
   3 C :    0.233622
   4 C :    0.229780
   5 C :    0.134374
   6 C :   -0.137896
   7 C :   -0.223411
   8 N :    0.542324
   9 H :   -0.195858
  10 H :   -0.191852
  11 H :   -0.179756
  12 H :   -0.183703
  13 H :   -0.191482
  14 H :   -0.171236
  15 H :   -0.251747

  Mayer bond orders larger than 0.100000
B(  0-C ,  1-C ) :   1.0633 B(  0-C ,  2-C ) :   1.1469 B(  0-C ,  3-C ) :   0.3256
B(  0-C ,  4-C ) :   0.2533 B(  0-C ,  9-H ) :   0.4114 B(  0-C , 10-H ) :  -0.2280
B(  0-C , 11-H ) :  -0.1543 B(  1-C ,  2-C ) :  -0.3629 B(  1-C ,  3-C ) :   1.4614
B(  1-C ,  6-C ) :   0.1053 B(  1-C ,  7-C ) :  -0.5125 B(  1-C , 10-H ) :   0.8763
B(  2-C ,  3-C ) :   0.1630 B(  2-C ,  4-C ) :   0.1382 B(  2-C ,  6-C ) :   0.8083
B(  2-C ,  7-C ) :  -0.7333 B(  2-C ,  8-N ) :   0.1076 B(  2-C ,  9-H ) :  -0.1493
B(  2-C , 10-H ) :   0.1130 B(  2-C , 11-H ) :   1.8353 B(  2-C , 13-H ) :   0.1279
B(  3-C ,  4-C ) :   0.1167 B(  3-C ,  5-C ) :  -0.1238 B(  3-C ,  7-C ) :   0.9519
B(  3-C ,  8-N ) :  -0.1680 B(  3-C , 10-H ) :  -0.1384 B(  3-C , 12-H ) :   0.6980
B(  4-C ,  5-C ) :   1.3273 B(  4-C ,  6-C ) :   0.5394 B(  4-C ,  7-C ) :   0.5141
B(  4-C ,  8-N ) :  -0.1938 B(  4-C , 11-H ) :  -0.1721 B(  4-C , 13-H ) :   0.7566
B(  5-C ,  6-C ) :  -0.4241 B(  5-C ,  8-N ) :   1.1996 B(  5-C ,  9-H ) :   0.1289
B(  5-C , 14-H ) :   0.3740 B(  6-C ,  7-C ) :   0.1817 B(  6-C ,  8-N ) :  -0.4332
B(  6-C , 11-H ) :  -0.2199 B(  6-C , 12-H ) :   0.1271 B(  7-C ,  8-N ) :   0.7594
B(  7-C ,  9-H ) :  -0.1925 B(  7-C , 10-H ) :   0.2537 B(  7-C , 11-H ) :   0.4463
B(  7-C , 12-H ) :  -0.1860 B(  8-N , 15-H ) :   1.2537

MP2 TOTAL ENERGY:     -363.076870267 Eh
FINAL SINGLE POINT ENERGY      -363.076870266721

DIPOLE MOMENT
-------------
                                X             Y             Z
Electronic contribution:     -1.05509       1.00280       0.00000
Nuclear contribution   :      0.70881      -0.26399       0.00000
                        -----------------------------------------
Total Dipole Moment    :     -0.34629       0.73882       0.00000
                        -----------------------------------------
Magnitude (a.u.)       :      0.81594
Magnitude (Debye)      :      2.07396

Rotational constants in cm-1:     0.130238     0.054749     0.038546
Rotational constants in MHz :  3904.431572  1641.340721  1155.565391

                             ****ORCA TERMINATED NORMALLY****
TOTAL RUN TIME: 0 days 0 hours 8 minutes 22 seconds 286 msec
