                         Program Version 5.0.3 -  RELEASE  -
|  1> !ri-mp2 aug-cc-pvtz aug-cc-pvtz/c tightscf
|  2> %pal nprocs 16 end
|  3>
|  4> * xyz 0 1
|  5> C      0.000000    1.334824    0.178381
|  6> C      1.155992   -0.667412    0.178381
|  7> C     -1.155992   -0.667412    0.178381
|  8> O      1.164984    0.672604   -0.261238
|  9> O     -1.164984    0.672604   -0.261238
| 10> O      0.000000   -1.345208   -0.261238
| 11> H      0.000000    1.389553    1.278381
| 12> H      0.000000    2.328144   -0.258762
| 13> H      2.016232   -1.164072   -0.258762
| 14> H      1.203388   -0.694777    1.278381
| 15> H     -1.203388   -0.694777    1.278381
| 16> H     -2.016232   -1.164072   -0.258762
| 17> *
| 18>
| 19>                          ****END OF INPUT****

CARTESIAN COORDINATES (ANGSTROEM)
---------------------------------
  C      0.000000    1.334824    0.178381
  C      1.155992   -0.667412    0.178381
  C     -1.155992   -0.667412    0.178381
  O      1.164984    0.672604   -0.261238
  O     -1.164984    0.672604   -0.261238
  O      0.000000   -1.345208   -0.261238
  H      0.000000    1.389553    1.278381
  H      0.000000    2.328144   -0.258762
  H      2.016232   -1.164072   -0.258762
  H      1.203388   -0.694777    1.278381
  H     -1.203388   -0.694777    1.278381
  H     -2.016232   -1.164072   -0.258762

 Total Charge           Charge          ....    0
 Multiplicity           Mult            ....    1
 Number of Electrons    NEL             ....   48
 Basis Dimension        Dim             ....  414

ORBITAL ENERGIES
----------------

  NO   OCC          E(Eh)            E(eV)
   0   2.0000     -20.579628      -560.0002
   1   2.0000     -20.579628      -560.0002
   2   2.0000     -20.579600      -559.9994
   3   2.0000     -11.342752      -308.6520
   4   2.0000     -11.342752      -308.6520
   5   2.0000     -11.342727      -308.6513
   6   2.0000      -1.471846       -40.0510
   7   2.0000      -1.367159       -37.2023
   8   2.0000      -1.367159       -37.2023
   9   2.0000      -0.965528       -26.2734
  10   2.0000      -0.965528       -26.2734
  11   2.0000      -0.837918       -22.8009
  12   2.0000      -0.738381       -20.0924
  13   2.0000      -0.704747       -19.1771
  14   2.0000      -0.676318       -18.4035
  15   2.0000      -0.676318       -18.4035
  16   2.0000      -0.658253       -17.9120
  17   2.0000      -0.605031       -16.4637
  18   2.0000      -0.605031       -16.4637
  19   2.0000      -0.502494       -13.6736
  20   2.0000      -0.502494       -13.6736
  21   2.0000      -0.475659       -12.9433
  22   2.0000      -0.475659       -12.9433
  23   2.0000      -0.444688       -12.1006
  24   0.0000       0.028914         0.7868
  25   0.0000       0.039925         1.0864
  26   0.0000       0.039925         1.0864
  27   0.0000       0.040845         1.1115
  28   0.0000       0.058912         1.6031

MULLIKEN ATOMIC CHARGES
-----------------------
   0 C :   -0.184791
   1 C :   -0.184792
   2 C :   -0.184791
   3 O :   -0.650187
   4 O :   -0.650187
   5 O :   -0.650187
   6 H :    0.322825
   7 H :    0.512153
   8 H :    0.512154
   9 H :    0.322825
  10 H :    0.322825
  11 H :    0.512154
Sum of atomic charges:    0.0000000

LOEWDIN ATOMIC CHARGES
----------------------
   0 C :   -0.222056
   1 C :   -0.222055
   2 C :   -0.222055
   3 O :    0.556856
   4 O :    0.556856
   5 O :    0.556856
   6 H :   -0.164488
   7 H :   -0.170312
   8 H :   -0.170313
   9 H :   -0.164488
  10 H :   -0.164488
  11 H :   -0.170313

  Mayer bond orders larger than 0.100000
B(  0-C ,  3-O ) :   0.8604 B(  0-C ,  4-O ) :   0.8604 B(  0-C ,  6-H ) :   0.9159
B(  0-C ,  7-H ) :   0.7944 B(  1-C ,  3-O ) :   0.8604 B(  1-C ,  5-O ) :   0.8604
B(  1-C ,  8-H ) :   0.7944 B(  1-C ,  9-H ) :   0.9159 B(  2-C ,  4-O ) :   0.8604
B(  2-C ,  5-O ) :   0.8604 B(  2-C , 10-H ) :   0.9159 B(  2-C , 11-H ) :   0.7944

MP2 TOTAL ENERGY:     -343.018846371 Eh
FINAL SINGLE POINT ENERGY      -343.018846371322

DIPOLE MOMENT
-------------
                                X             Y             Z
Electronic contribution:     -0.00000       0.00000      -2.12886
Nuclear contribution   :      0.00000      -0.00000       3.04885
                        -----------------------------------------
Total Dipole Moment    :     -0.00000       0.00000       0.91999
                        -----------------------------------------
Magnitude (a.u.)       :      0.91999
Magnitude (Debye)      :      2.33843

Rotational constants in cm-1:     0.175403     0.175403     0.097282
Rotational constants in MHz :  5258.452225  5258.451977  2916.440825

                             ****ORCA TERMINATED NORMALLY****
TOTAL RUN TIME: 0 days 0 hours 2 minutes 56 seconds 293 msec
