                         Program Version 5.0.3 -  RELEASE  -
|  1> !ri-mp2 aug-cc-pvtz aug-cc-pvtz/c tightscf
|  2> %pal nprocs 16 end
|  3> %maxcore 3800
|  4>
|  5> * xyz 0 1
|  6> C      1.195758   -1.298145   -0.004519
|  7> C     -0.164078   -1.590289   -0.001142
|  8> C      0.666857    1.027078   -0.003574
|  9> C      1.634761    0.020991   -0.004468
| 10> C     -1.127279   -0.586152    0.001431
| 11> C     -0.698001    0.753544   -0.000391
| 12> C      3.101945    0.363537    0.005491
| 13> C     -2.592222   -0.934876    0.003747
| 14> C     -1.694071    1.883282   -0.000809
| 15> H      1.916869   -2.105981   -0.008032
| 16> H     -0.483106   -2.625508   -0.001941
| 17> H      0.988228    2.062856   -0.006517
| 18> H      3.350936    1.071949   -0.786662
| 19> H      3.394831    0.823552    0.952224
| 20> H      3.716693   -0.524973   -0.134151
| 21> H     -3.103136   -0.529106    0.880359
| 22> H     -3.105416   -0.531909   -0.872848
| 23> H     -2.735435   -2.014351    0.005643
| 24> H     -1.191305    2.849145   -0.002610
| 25> H     -2.346579    1.844113   -0.876396
| 26> H     -2.344609    1.846392    0.876330
| 27> *
| 28>
| 29>                          ****END OF INPUT****

CARTESIAN COORDINATES (ANGSTROEM)
---------------------------------
  C      1.195758   -1.298145   -0.004519
  C     -0.164078   -1.590289   -0.001142
  C      0.666857    1.027078   -0.003574
  C      1.634761    0.020991   -0.004468
  C     -1.127279   -0.586152    0.001431
  C     -0.698001    0.753544   -0.000391
  C      3.101945    0.363537    0.005491
  C     -2.592222   -0.934876    0.003747
  C     -1.694071    1.883282   -0.000809
  H      1.916869   -2.105981   -0.008032
  H     -0.483106   -2.625508   -0.001941
  H      0.988228    2.062856   -0.006517
  H      3.350936    1.071949   -0.786662
  H      3.394831    0.823552    0.952224
  H      3.716693   -0.524973   -0.134151
  H     -3.103136   -0.529106    0.880359
  H     -3.105416   -0.531909   -0.872848
  H     -2.735435   -2.014351    0.005643
  H     -1.191305    2.849145   -0.002610
  H     -2.346579    1.844113   -0.876396
  H     -2.344609    1.846392    0.876330

 Total Charge           Charge          ....    0
 Multiplicity           Mult            ....    1
 Number of Electrons    NEL             ....   66
 Basis Dimension        Dim             ....  690

ORBITAL ENERGIES
----------------

  NO   OCC          E(Eh)            E(eV)
   0   2.0000     -11.233683      -305.6841
   1   2.0000     -11.231924      -305.6362
   2   2.0000     -11.229229      -305.5628
   3   2.0000     -11.222867      -305.3897
   4   2.0000     -11.220154      -305.3159
   5   2.0000     -11.219147      -305.2885
   6   2.0000     -11.219004      -305.2846
   7   2.0000     -11.218931      -305.2826
   8   2.0000     -11.218806      -305.2792
   9   2.0000      -1.155317       -31.4378
  10   2.0000      -1.064391       -28.9636
  11   2.0000      -1.030848       -28.0508
  12   2.0000      -0.971531       -26.4367
  13   2.0000      -0.933554       -25.4033
  14   2.0000      -0.888217       -24.1696
  15   2.0000      -0.809873       -22.0378
  16   2.0000      -0.765275       -20.8242
  17   2.0000      -0.658071       -17.9070
  18   2.0000      -0.652112       -17.7449
  19   2.0000      -0.611422       -16.6376
  20   2.0000      -0.590953       -16.0806
  21   2.0000      -0.568613       -15.4728
  22   2.0000      -0.564019       -15.3477
  23   2.0000      -0.555781       -15.1236
  24   2.0000      -0.548380       -14.9222
  25   2.0000      -0.544081       -14.8052
  26   2.0000      -0.536891       -14.6095
  27   2.0000      -0.518243       -14.1021
  28   2.0000      -0.472803       -12.8656
  29   2.0000      -0.471252       -12.8234
  30   2.0000      -0.467176       -12.7125
  31   2.0000      -0.323659        -8.8072
  32   2.0000      -0.307653        -8.3717
  33   0.0000       0.029943         0.8148
  34   0.0000       0.030610         0.8329
  35   0.0000       0.033214         0.9038
  36   0.0000       0.043666         1.1882
  37   0.0000       0.044395         1.2080

MULLIKEN ATOMIC CHARGES
-----------------------
   0 C :   -0.318673
   1 C :   -0.991703
   2 C :   -1.244645
   3 C :    1.325582
   4 C :    1.196862
   5 C :    0.418762
   6 C :   -0.843840
   7 C :   -0.986253
   8 C :   -1.003090
   9 H :    0.085995
  10 H :    0.155137
  11 H :   -0.051388
  12 H :    0.273179
  13 H :    0.297785
  14 H :    0.255245
  15 H :    0.265657
  16 H :    0.265647
  17 H :    0.202057
  18 H :    0.209204
  19 H :    0.243361
  20 H :    0.245119
Sum of atomic charges:   -0.0000000

LOEWDIN ATOMIC CHARGES
----------------------
   0 C :    0.216426
   1 C :    0.216940
   2 C :    0.231772
   3 C :   -0.121553
   4 C :   -0.097825
   5 C :   -0.093198
   6 C :    0.577824
   7 C :    0.574293
   8 C :    0.578501
   9 H :   -0.183459
  10 H :   -0.182261
  11 H :   -0.176071
  12 H :   -0.170259
  13 H :   -0.166475
  14 H :   -0.181049
  15 H :   -0.166972
  16 H :   -0.166885
  17 H :   -0.179373
  18 H :   -0.178689
  19 H :   -0.165820
  20 H :   -0.165868

  Mayer bond orders larger than 0.100000
B(  0-C ,  1-C ) :   0.9741 B(  0-C ,  2-C ) :  -0.3100 B(  0-C ,  3-C ) :   0.7009
B(  0-C ,  5-C ) :   0.1991 B(  0-C ,  9-H ) :   1.5033 B(  1-C ,  3-C ) :   0.2775
B(  1-C ,  4-C ) :   0.4188 B(  1-C ,  5-C ) :   0.3211 B(  1-C , 10-H ) :   1.2292
B(  2-C ,  3-C ) :   0.3603 B(  2-C ,  5-C ) :   0.8185 B(  2-C ,  6-C ) :   0.1566
B(  2-C ,  9-H ) :   0.1576 B(  2-C , 11-H ) :   1.7082 B(  3-C ,  5-C ) :   0.3239
B(  3-C ,  6-C ) :   0.3218 B(  3-C ,  9-H ) :  -0.2290 B(  3-C , 11-H ) :  -0.1777
B(  3-C , 12-H ) :  -0.1311 B(  3-C , 13-H ) :  -0.1135 B(  4-C ,  5-C ) :   1.0475
B(  4-C ,  7-C ) :   0.2362 B(  4-C ,  8-C ) :   0.4066 B(  4-C , 15-H ) :  -0.1315
B(  4-C , 16-H ) :  -0.1322 B(  5-C ,  6-C ) :  -0.1283 B(  5-C ,  7-C ) :   0.1221
B(  5-C ,  8-C ) :   0.2107 B(  5-C , 19-H ) :  -0.1150 B(  5-C , 20-H ) :  -0.1129
B(  6-C , 12-H ) :   1.0406 B(  6-C , 13-H ) :   1.0045 B(  6-C , 14-H ) :   1.0099
B(  7-C , 15-H ) :   1.0286 B(  7-C , 16-H ) :   1.0314 B(  7-C , 17-H ) :   1.0692
B(  8-C , 18-H ) :   1.0584 B(  8-C , 19-H ) :   1.0481 B(  8-C , 20-H ) :   1.0424

MP2 TOTAL ENERGY:     -349.434163471 Eh
FINAL SINGLE POINT ENERGY      -349.434163471223

DIPOLE MOMENT
-------------
                                X             Y             Z
Electronic contribution:      1.90335      -2.11451      -0.02074
Nuclear contribution   :     -2.00274       2.23390       0.02619
                        -----------------------------------------
Total Dipole Moment    :     -0.09939       0.11939       0.00545
                        -----------------------------------------
Magnitude (a.u.)       :      0.15544
Magnitude (Debye)      :      0.39511

Rotational constants in cm-1:     0.098541     0.042927     0.030403
Rotational constants in MHz :  2954.189053  1286.928846   911.473004

                             ****ORCA TERMINATED NORMALLY****
TOTAL RUN TIME: 0 days 0 hours 12 minutes 22 seconds 592 msec
