                         Program Version 5.0.3 -  RELEASE  -
|  1> !ri-mp2 aug-cc-pvtz aug-cc-pvtz/c tightscf
|  2> %pal nprocs 16 end
|  3>
|  4> * xyz 0 1
|  5> S     3.158398    0.012249   -0.430328
|  6> S    -3.209591   -0.375034   -0.249597
|  7> N     0.242548    1.157410    0.432157
|  8> N    -1.076255    1.253277   -0.028584
|  9> N    -0.552113   -0.911454    0.160999
| 10> C     0.499106   -0.189314    0.400050
| 11> C     1.863333   -0.733224    0.644600
| 12> C    -1.610629   -0.027657   -0.042353
| 13> H     0.910796    1.791602    0.010985
| 14> H     2.185538   -0.503864    1.660042
| 15> H     1.837961   -1.811016    0.524244
| 16> H    -1.629039    2.025841    0.310848
| 17> H     2.703714   -0.491460   -1.593112
| 18> *
| 19>
| 20>                          ****END OF INPUT****

CARTESIAN COORDINATES (ANGSTROEM)
---------------------------------
  S      3.158398    0.012249   -0.430328
  S     -3.209591   -0.375034   -0.249597
  N      0.242548    1.157410    0.432157
  N     -1.076255    1.253277   -0.028584
  N     -0.552113   -0.911454    0.160999
  C      0.499106   -0.189314    0.400050
  C      1.863333   -0.733224    0.644600
  C     -1.610629   -0.027657   -0.042353
  H      0.910796    1.791602    0.010985
  H      2.185538   -0.503864    1.660042
  H      1.837961   -1.811016    0.524244
  H     -1.629039    2.025841    0.310848
  H      2.703714   -0.491460   -1.593112

 Total Charge           Charge          ....    0
 Multiplicity           Mult            ....    1
 Number of Electrons    NEL             ....   76
 Basis Dimension        Dim             ....  491

ORBITAL ENERGIES
----------------

  NO   OCC          E(Eh)            E(eV)
   0   2.0000     -92.000098     -2503.4499
   1   2.0000     -91.895919     -2500.6151
   2   2.0000     -15.665889      -426.2905
   3   2.0000     -15.653404      -425.9508
   4   2.0000     -15.585102      -424.0922
   5   2.0000     -11.373768      -309.4960
   6   2.0000     -11.372718      -309.4674
   7   2.0000     -11.316293      -307.9320
   8   2.0000      -9.000653      -244.9202
   9   2.0000      -8.898945      -242.1526
  10   2.0000      -6.681856      -181.8225
  11   2.0000      -6.680913      -181.7969
  12   2.0000      -6.679834      -181.7675
  13   2.0000      -6.580435      -179.0627
  14   2.0000      -6.578671      -179.0147
  15   2.0000      -6.577873      -178.9930
  16   2.0000      -1.436681       -39.0941
  17   2.0000      -1.239170       -33.7195
  18   2.0000      -1.185973       -32.2720
  19   2.0000      -1.085877       -29.5482
  20   2.0000      -0.979660       -26.6579
  21   2.0000      -0.945238       -25.7212
  22   2.0000      -0.850497       -23.1432
  23   2.0000      -0.822470       -22.3805
  24   2.0000      -0.756691       -20.5906
  25   2.0000      -0.725032       -19.7291
  26   2.0000      -0.654944       -17.8219
  27   2.0000      -0.650234       -17.6938
  28   2.0000      -0.626532       -17.0488
  29   2.0000      -0.577892       -15.7253
  30   2.0000      -0.527978       -14.3670
  31   2.0000      -0.506136       -13.7727
  32   2.0000      -0.491380       -13.3711
  33   2.0000      -0.472459       -12.8563
  34   2.0000      -0.458219       -12.4688
  35   2.0000      -0.405601       -11.0370
  36   2.0000      -0.324420        -8.8279
  37   2.0000      -0.318766        -8.6741
  38   0.0000       0.017727         0.4824
  39   0.0000       0.029247         0.7958
  40   0.0000       0.031108         0.8465
  41   0.0000       0.042693         1.1617
  42   0.0000       0.054285         1.4772

MULLIKEN ATOMIC CHARGES
-----------------------
   0 S :   -0.336072
   1 S :   -0.610032
   2 N :   -0.217243
   3 N :   -0.050553
   4 N :   -0.231768
   5 C :    0.315202
   6 C :   -0.165370
   7 C :    0.316851
   8 H :    0.125266
   9 H :    0.289494
  10 H :    0.282931
  11 H :    0.103632
  12 H :    0.177660
Sum of atomic charges:    0.0000000

LOEWDIN ATOMIC CHARGES
----------------------
   0 S :    1.302473
   1 S :    0.810552
   2 N :    0.472593
   3 N :    0.392658
   4 N :    0.335157
   5 C :   -0.506369
   6 C :   -0.054931
   7 C :   -1.170188
   8 H :   -0.292665
   9 H :   -0.223524
  10 H :   -0.221363
  11 H :   -0.287802
  12 H :   -0.556591

  Mayer bond orders larger than 0.100000
B(  0-S ,  5-C ) :   0.1489 B(  0-S ,  6-C ) :   0.8707 B(  0-S , 12-H ) :   1.0117
B(  1-S ,  7-C ) :   1.4484 B(  2-N ,  3-N ) :   0.5472 B(  2-N ,  5-C ) :   1.0685
B(  2-N ,  8-H ) :   1.0429 B(  3-N ,  7-C ) :   1.2305 B(  3-N , 11-H ) :   1.0553
B(  4-N ,  5-C ) :   1.0886 B(  4-N ,  7-C ) :   1.0096 B(  5-C ,  6-C ) :   0.6924
B(  5-C ,  7-C ) :  -0.2446 B(  6-C ,  9-H ) :   0.9671 B(  6-C , 10-H ) :   0.9089

MP2 TOTAL ENERGY:    -1076.473959053 Eh
FINAL SINGLE POINT ENERGY     -1076.473959052747

DIPOLE MOMENT
-------------
                                X             Y             Z
Electronic contribution:     -3.40363       0.21655      -0.52263
Nuclear contribution   :      5.81973       0.99972       0.90877
                        -----------------------------------------
Total Dipole Moment    :      2.41611       1.21627       0.38615
                        -----------------------------------------
Magnitude (a.u.)       :      2.73240
Magnitude (Debye)      :      6.94520

Rotational constants in cm-1:     0.171200     0.021346     0.020043
Rotational constants in MHz :  5132.442896   639.924802   600.860610

                             ****ORCA TERMINATED NORMALLY****
TOTAL RUN TIME: 0 days 0 hours 5 minutes 13 seconds 23 msec
