                         Program Version 5.0.3 -  RELEASE  -
|  1> !ri-mp2 aug-cc-pvtz aug-cc-pvtz/c tightscf
|  2> %pal nprocs 16 end
|  3>
|  4> * xyz 0 1
|  5> C     -1.855229   -1.337950    0.000000
|  6> C     -0.499088   -1.653073    0.000000
|  7> C      0.428036   -0.615933    0.000000
|  8> C      0.000000    0.724298    0.000000
|  9> C      1.213119    1.619187    0.000000
| 10> C      1.890304   -0.626401    0.000000
| 11> C      2.352575    0.633211    0.000000
| 12> C     -1.348795    1.031328    0.000000
| 13> C     -2.277760   -0.010338    0.000000
| 14> H     -2.590250   -2.131799    0.000000
| 15> H     -0.176462   -2.686234    0.000000
| 16> H      1.242418    2.275992    0.875487
| 17> H      1.242418    2.275992   -0.875487
| 18> H      2.494096   -1.522542    0.000000
| 19> H      3.391246    0.927949    0.000000
| 20> H     -1.686610    2.060169    0.000000
| 21> H     -3.335828    0.214508    0.000000
| 22> *
| 23>
| 24>                          ****END OF INPUT****

CARTESIAN COORDINATES (ANGSTROEM)
---------------------------------
  C     -1.855229   -1.337950    0.000000
  C     -0.499088   -1.653073    0.000000
  C      0.428036   -0.615933    0.000000
  C      0.000000    0.724298    0.000000
  C      1.213119    1.619187    0.000000
  C      1.890304   -0.626401    0.000000
  C      2.352575    0.633211    0.000000
  C     -1.348795    1.031328    0.000000
  C     -2.277760   -0.010338    0.000000
  H     -2.590250   -2.131799    0.000000
  H     -0.176462   -2.686234    0.000000
  H      1.242418    2.275992    0.875487
  H      1.242418    2.275992   -0.875487
  H      2.494096   -1.522542    0.000000
  H      3.391246    0.927949    0.000000
  H     -1.686610    2.060169    0.000000
  H     -3.335828    0.214508    0.000000

 Total Charge           Charge          ....    0
 Multiplicity           Mult            ....    1
 Number of Electrons    NEL             ....   62
 Basis Dimension        Dim             ....  598

ORBITAL ENERGIES
----------------

  NO   OCC          E(Eh)            E(eV)
   0   2.0000     -11.236164      -305.7516
   1   2.0000     -11.234760      -305.7134
   2   2.0000     -11.234265      -305.6999
   3   2.0000     -11.233047      -305.6668
   4   2.0000     -11.231661      -305.6290
   5   2.0000     -11.231191      -305.6162
   6   2.0000     -11.230412      -305.5950
   7   2.0000     -11.229328      -305.5656
   8   2.0000     -11.228236      -305.5358
   9   2.0000      -1.179632       -32.0994
  10   2.0000      -1.101913       -29.9846
  11   2.0000      -1.026371       -27.9290
  12   2.0000      -0.974642       -26.5214
  13   2.0000      -0.942609       -25.6497
  14   2.0000      -0.828348       -22.5405
  15   2.0000      -0.791033       -21.5251
  16   2.0000      -0.758044       -20.6274
  17   2.0000      -0.691381       -18.8134
  18   2.0000      -0.646117       -17.5817
  19   2.0000      -0.628341       -17.0980
  20   2.0000      -0.601354       -16.3637
  21   2.0000      -0.585027       -15.9194
  22   2.0000      -0.582604       -15.8535
  23   2.0000      -0.540579       -14.7099
  24   2.0000      -0.511404       -13.9160
  25   2.0000      -0.496457       -13.5093
  26   2.0000      -0.494442       -13.4545
  27   2.0000      -0.473736       -12.8910
  28   2.0000      -0.403510       -10.9801
  29   2.0000      -0.329784        -8.9739
  30   2.0000      -0.294399        -8.0110
  31   0.0000       0.029547         0.8040
  32   0.0000       0.031872         0.8673
  33   0.0000       0.033220         0.9040
  34   0.0000       0.044708         1.2166
  35   0.0000       0.045322         1.2333

MULLIKEN ATOMIC CHARGES
-----------------------
   0 C :   -0.393190
   1 C :   -1.190142
   2 C :    1.212671
   3 C :    0.925017
   4 C :   -0.415422
   5 C :   -0.995876
   6 C :   -0.626377
   7 C :   -1.202069
   8 C :   -0.425523
   9 H :    0.582599
  10 H :    0.172734
  11 H :    0.263578
  12 H :    0.263578
  13 H :    0.502677
  14 H :    0.550067
  15 H :    0.285960
  16 H :    0.489717
Sum of atomic charges:   -0.0000000

LOEWDIN ATOMIC CHARGES
----------------------
   0 C :    0.190695
   1 C :    0.227251
   2 C :   -0.129323
   3 C :   -0.104080
   4 C :    0.276128
   5 C :    0.241618
   6 C :    0.248666
   7 C :    0.231533
   8 C :    0.193832
   9 H :   -0.189355
  10 H :   -0.180999
  11 H :   -0.142380
  12 H :   -0.142380
  13 H :   -0.175502
  14 H :   -0.177973
  15 H :   -0.176847
  16 H :   -0.190884

  Mayer bond orders larger than 0.100000
B(  0-C ,  1-C ) :   1.0357 B(  0-C ,  8-C ) :   1.0452 B(  0-C ,  9-H ) :   0.5354
B(  1-C ,  2-C ) :   0.2650 B(  1-C ,  3-C ) :   0.1053 B(  1-C ,  5-C ) :   0.4810
B(  1-C ,  7-C ) :   0.1733 B(  1-C ,  9-H ) :  -0.1552 B(  1-C , 10-H ) :   1.4592
B(  2-C ,  3-C ) :   0.6649 B(  2-C ,  4-C ) :   0.1148 B(  2-C ,  5-C ) :   0.2752
B(  2-C ,  6-C ) :  -0.1234 B(  2-C ,  8-C ) :   0.1000 B(  3-C ,  4-C ) :   0.6627
B(  3-C ,  5-C ) :   0.2512 B(  3-C ,  7-C ) :   0.6487 B(  3-C ,  9-H ) :   0.1044
B(  4-C ,  6-C ) :   0.8920 B(  4-C ,  7-C ) :   0.1142 B(  4-C , 11-H ) :   0.9329
B(  4-C , 12-H ) :   0.9329 B(  5-C ,  6-C ) :   1.4502 B(  5-C ,  7-C ) :  -0.1311
B(  5-C ,  8-C ) :   0.1025 B(  5-C , 10-H ) :  -0.1248 B(  5-C , 13-H ) :   0.7603
B(  6-C ,  7-C ) :   0.1290 B(  6-C ,  9-H ) :   0.1062 B(  6-C , 14-H ) :   0.6493
B(  7-C ,  8-C ) :   1.3245 B(  7-C , 15-H ) :   1.0688 B(  7-C , 16-H ) :  -0.1353
B(  8-C , 16-H ) :   0.7412

MP2 TOTAL ENERGY:     -347.018868105 Eh
FINAL SINGLE POINT ENERGY      -347.018868104544

DIPOLE MOMENT
-------------
                                X             Y             Z
Electronic contribution:     -0.38815      -1.20710       0.00000
Nuclear contribution   :      0.58242       1.41741       0.00000
                        -----------------------------------------
Total Dipole Moment    :      0.19427       0.21032       0.00000
                        -----------------------------------------
Magnitude (a.u.)       :      0.28631
Magnitude (Debye)      :      0.72774

Rotational constants in cm-1:     0.126898     0.052903     0.037595
Rotational constants in MHz :  3804.293795  1585.991500  1127.057476

                             ****ORCA TERMINATED NORMALLY****
TOTAL RUN TIME: 0 days 0 hours 9 minutes 0 seconds 474 msec
