                         Program Version 5.0.3 -  RELEASE  -
|  1> !ri-mp2 aug-cc-pvtz aug-cc-pvtz/c tightscf
|  2> %pal nprocs 16 end
|  3>
|  4> * xyz 0 1
|  5> O     0.569873    2.594176    0.155646
|  6> O    -2.539726   -0.757181    0.081104
|  7> O     2.008157   -1.846819    0.105094
|  8> N     0.242253    1.348825   -0.423189
|  9> N    -1.244557   -0.381906   -0.375129
| 10> N    -0.961120    0.888970    0.212235
| 11> C     1.064960   -0.864269    0.012715
| 12> C     1.310785    0.421165   -0.255557
| 13> C    -0.329937   -1.403053    0.142311
| 14> H     0.854272    2.424313    1.072480
| 15> H    -3.127779   -0.379891   -0.584305
| 16> H     2.891387   -1.470128    0.025779
| 17> H    -0.747833    0.743910    1.215313
| 18> H     2.292040    0.814411   -0.479160
| 19> H    -0.568583   -1.662971    1.182597
| 20> H    -0.430815   -2.305323   -0.461686
| 21> *
| 22>
| 23>                          ****END OF INPUT****

CARTESIAN COORDINATES (ANGSTROEM)
---------------------------------
  O      0.569873    2.594176    0.155646
  O     -2.539726   -0.757181    0.081104
  O      2.008157   -1.846819    0.105094
  N      0.242253    1.348825   -0.423189
  N     -1.244557   -0.381906   -0.375129
  N     -0.961120    0.888970    0.212235
  C      1.064960   -0.864269    0.012715
  C      1.310785    0.421165   -0.255557
  C     -0.329937   -1.403053    0.142311
  H      0.854272    2.424313    1.072480
  H     -3.127779   -0.379891   -0.584305
  H      2.891387   -1.470128    0.025779
  H     -0.747833    0.743910    1.215313
  H      2.292040    0.814411   -0.479160
  H     -0.568583   -1.662971    1.182597
  H     -0.430815   -2.305323   -0.461686

 Total Charge           Charge          ....    0
 Multiplicity           Mult            ....    1
 Number of Electrons    NEL             ....   70
 Basis Dimension        Dim             ....  575

ORBITAL ENERGIES
----------------

  NO   OCC          E(Eh)            E(eV)
   0   2.0000     -20.610355      -560.8363
   1   2.0000     -20.609574      -560.8150
   2   2.0000     -20.604371      -560.6735
   3   2.0000     -15.661579      -426.1732
   4   2.0000     -15.659424      -426.1146
   5   2.0000     -15.627453      -425.2446
   6   2.0000     -11.321021      -308.0607
   7   2.0000     -11.280243      -306.9510
   8   2.0000     -11.266251      -306.5703
   9   2.0000      -1.460571       -39.7442
  10   2.0000      -1.428072       -38.8598
  11   2.0000      -1.423496       -38.7353
  12   2.0000      -1.282859       -34.9084
  13   2.0000      -1.125413       -30.6241
  14   2.0000      -1.098357       -29.8878
  15   2.0000      -0.940754       -25.5992
  16   2.0000      -0.924101       -25.1461
  17   2.0000      -0.805793       -21.9267
  18   2.0000      -0.758385       -20.6367
  19   2.0000      -0.743512       -20.2320
  20   2.0000      -0.714288       -19.4368
  21   2.0000      -0.690249       -18.7826
  22   2.0000      -0.665893       -18.1199
  23   2.0000      -0.639210       -17.3938
  24   2.0000      -0.629225       -17.1221
  25   2.0000      -0.608957       -16.5706
  26   2.0000      -0.592617       -16.1259
  27   2.0000      -0.569668       -15.5015
  28   2.0000      -0.541925       -14.7465
  29   2.0000      -0.532601       -14.4928
  30   2.0000      -0.496591       -13.5129
  31   2.0000      -0.491859       -13.3842
  32   2.0000      -0.431651       -11.7458
  33   2.0000      -0.401827       -10.9343
  34   2.0000      -0.335913        -9.1407
  35   0.0000       0.021257         0.5784
  36   0.0000       0.033929         0.9233
  37   0.0000       0.035937         0.9779
  38   0.0000       0.042535         1.1574
  39   0.0000       0.052685         1.4336

MULLIKEN ATOMIC CHARGES
-----------------------
   0 O :   -0.514300
   1 O :   -0.486519
   2 O :   -0.687865
   3 N :   -0.095380
   4 N :   -0.154534
   5 N :   -0.102244
   6 C :    0.357807
   7 C :   -0.455498
   8 C :    0.113528
   9 H :    0.219113
  10 H :    0.193078
  11 H :    0.142059
  12 H :    0.067464
  13 H :    0.656299
  14 H :    0.330214
  15 H :    0.416779
Sum of atomic charges:    0.0000000

LOEWDIN ATOMIC CHARGES
----------------------
   0 O :    0.701986
   1 O :    0.721731
   2 O :    0.838923
   3 N :   -0.111404
   4 N :   -0.059035
   5 N :    0.329883
   6 C :   -0.361432
   7 C :    0.083624
   8 C :    0.132850
   9 H :   -0.497881
  10 H :   -0.499574
  11 H :   -0.469914
  12 H :   -0.322119
  13 H :   -0.190370
  14 H :   -0.147400
  15 H :   -0.149868

  Mayer bond orders larger than 0.100000
B(  0-O ,  3-N ) :   0.6216 B(  0-O ,  9-H ) :   0.9537 B(  1-O ,  4-N ) :   0.7099
B(  1-O , 10-H ) :   1.0126 B(  2-O ,  6-C ) :   0.7790 B(  2-O , 11-H ) :   1.0616
B(  3-N ,  5-N ) :   0.5885 B(  3-N ,  6-C ) :  -0.1311 B(  3-N ,  7-C ) :   1.0113
B(  4-N ,  5-N ) :   0.5717 B(  4-N ,  8-C ) :   0.8676 B(  5-N , 12-H ) :   0.9258
B(  6-C ,  7-C ) :   1.3796 B(  6-C ,  8-C ) :   0.6866 B(  6-C , 11-H ) :   0.1195
B(  7-C , 13-H ) :   0.4771 B(  8-C , 14-H ) :   0.9123 B(  8-C , 15-H ) :   0.8896

MP2 TOTAL ENERGY:     -507.437063307 Eh
FINAL SINGLE POINT ENERGY      -507.437063306909

DIPOLE MOMENT
-------------
                                X             Y             Z
Electronic contribution:     -0.25813       1.28754      -1.29769
Nuclear contribution   :      1.13756      -1.80243       1.94863
                        -----------------------------------------
Total Dipole Moment    :      0.87943      -0.51489       0.65094
                        -----------------------------------------
Magnitude (a.u.)       :      1.20923
Magnitude (Debye)      :      3.07362

Rotational constants in cm-1:     0.061675     0.059869     0.031706
Rotational constants in MHz :  1848.983674  1794.818101   950.513653

                             ****ORCA TERMINATED NORMALLY****
TOTAL RUN TIME: 0 days 0 hours 7 minutes 11 seconds 129 msec
