                         Program Version 5.0.3 -  RELEASE  -
|  1> !ri-mp2 aug-cc-pvtz aug-cc-pvtz/c tightscf
|  2> %pal nprocs 16 end
|  3>
|  4> * xyz 0 1
|  5> C     -1.755788   -1.135628    0.000000
|  6> C     -1.135780    0.259439    0.000000
|  7> C      0.373557    0.244819    0.000000
|  8> F      0.879802   -0.382880    1.085643
|  9> F      0.879802    1.498257    0.000000
| 10> F      0.879802   -0.382880   -1.085643
| 11> H     -1.459013   -1.700292    0.882744
| 12> H     -2.842020   -1.057015    0.000000
| 13> H     -1.459013   -1.700292   -0.882744
| 14> H     -1.443277    0.826675    0.878962
| 15> H     -1.443277    0.826675   -0.878962
| 16> *
| 17>
| 18>                          ****END OF INPUT****

CARTESIAN COORDINATES (ANGSTROEM)
---------------------------------
  C     -1.755788   -1.135628    0.000000
  C     -1.135780    0.259439    0.000000
  C      0.373557    0.244819    0.000000
  F      0.879802   -0.382880    1.085643
  F      0.879802    1.498257    0.000000
  F      0.879802   -0.382880   -1.085643
  H     -1.459013   -1.700292    0.882744
  H     -2.842020   -1.057015    0.000000
  H     -1.459013   -1.700292   -0.882744
  H     -1.443277    0.826675    0.878962
  H     -1.443277    0.826675   -0.878962

 Total Charge           Charge          ....    0
 Multiplicity           Mult            ....    1
 Number of Electrons    NEL             ....   50
 Basis Dimension        Dim             ....  391

ORBITAL ENERGIES
----------------

  NO   OCC          E(Eh)            E(eV)
   0   2.0000     -26.331110      -716.5059
   1   2.0000     -26.331089      -716.5054
   2   2.0000     -26.330829      -716.4983
   3   2.0000     -11.500052      -312.9323
   4   2.0000     -11.261860      -306.4508
   5   2.0000     -11.238607      -305.8181
   6   2.0000      -1.716775       -46.7158
   7   2.0000      -1.623720       -44.1837
   8   2.0000      -1.623623       -44.1810
   9   2.0000      -1.096485       -29.8369
  10   2.0000      -0.964048       -26.2331
  11   2.0000      -0.883035       -24.0286
  12   2.0000      -0.813596       -22.1391
  13   2.0000      -0.811246       -22.0751
  14   2.0000      -0.763600       -20.7786
  15   2.0000      -0.705896       -19.2084
  16   2.0000      -0.702355       -19.1120
  17   2.0000      -0.660067       -17.9613
  18   2.0000      -0.656288       -17.8585
  19   2.0000      -0.641543       -17.4573
  20   2.0000      -0.622908       -16.9502
  21   2.0000      -0.603631       -16.4256
  22   2.0000      -0.545224       -14.8363
  23   2.0000      -0.525763       -14.3067
  24   2.0000      -0.523569       -14.2470
  25   0.0000       0.026996         0.7346
  26   0.0000       0.039814         1.0834
  27   0.0000       0.040922         1.1135
  28   0.0000       0.048804         1.3280
  29   0.0000       0.062671         1.7054

MULLIKEN ATOMIC CHARGES
-----------------------
   0 C :   -0.900432
   1 C :   -0.650911
   2 C :    1.298620
   3 F :   -0.416722
   4 F :   -0.403170
   5 F :   -0.416722
   6 H :    0.306310
   7 H :    0.293356
   8 H :    0.306310
   9 H :    0.291681
  10 H :    0.291681
Sum of atomic charges:    0.0000000

LOEWDIN ATOMIC CHARGES
----------------------
   0 C :    0.582831
   1 C :    0.239124
   2 C :   -1.474492
   3 F :    0.494232
   4 F :    0.492383
   5 F :    0.494232
   6 H :   -0.172487
   7 H :   -0.169626
   8 H :   -0.172487
   9 H :   -0.156856
  10 H :   -0.156856

  Mayer bond orders larger than 0.100000
B(  0-C ,  1-C ) :   0.8675 B(  0-C ,  6-H ) :   0.9209 B(  0-C ,  7-H ) :   0.9453
B(  0-C ,  8-H ) :   0.9209 B(  1-C ,  2-C ) :   0.9874 B(  1-C ,  9-H ) :   0.9189
B(  1-C , 10-H ) :   0.9189 B(  2-C ,  3-F ) :   0.7454 B(  2-C ,  4-F ) :   0.7524
B(  2-C ,  5-F ) :   0.7454

MP2 TOTAL ENERGY:     -416.307346114 Eh
FINAL SINGLE POINT ENERGY      -416.307346114177

DIPOLE MOMENT
-------------
                                X             Y             Z
Electronic contribution:      9.70111       3.29954       0.00000
Nuclear contribution   :    -10.77550      -3.37789       0.00000
                        -----------------------------------------
Total Dipole Moment    :     -1.07440      -0.07836       0.00000
                        -----------------------------------------
Magnitude (a.u.)       :      1.07725
Magnitude (Debye)      :      2.73815

Rotational constants in cm-1:     0.172708     0.090961     0.090094
Rotational constants in MHz :  5177.668099  2726.950536  2700.937707

                             ****ORCA TERMINATED NORMALLY****
TOTAL RUN TIME: 0 days 0 hours 2 minutes 0 seconds 157 msec
