                         Program Version 5.0.3 -  RELEASE  -
|  1> !ri-mp2 aug-cc-pvtz aug-cc-pvtz/c tightscf
|  2> %pal nprocs 16 end
|  3>
|  4> * xyz 0 1
|  5> C     -0.035450   -0.681860    0.000000
|  6> F      1.048578   -1.447157    0.000000
|  7> F     -1.137562   -1.409159    0.000000
|  8> C      0.000000    0.641679    0.000000
|  9> F     -1.187405    1.293847    0.000000
| 10> C      1.198490    1.512864    0.000000
| 11> H      2.107235    0.915995    0.000000
| 12> H      1.201017    2.155061    0.882809
| 13> H      1.201017    2.155061   -0.882809
| 14> *
| 15>
| 16>                          ****END OF INPUT****

CARTESIAN COORDINATES (ANGSTROEM)
---------------------------------
  C     -0.035450   -0.681860    0.000000
  F      1.048578   -1.447157    0.000000
  F     -1.137562   -1.409159    0.000000
  C      0.000000    0.641679    0.000000
  F     -1.187405    1.293847    0.000000
  C      1.198490    1.512864    0.000000
  H      2.107235    0.915995    0.000000
  H      1.201017    2.155061    0.882809
  H      1.201017    2.155061   -0.882809

 Total Charge           Charge          ....    0
 Multiplicity           Mult            ....    1
 Number of Electrons    NEL             ....   48
 Basis Dimension        Dim             ....  345

ORBITAL ENERGIES
----------------

  NO   OCC          E(Eh)            E(eV)
   0   2.0000     -26.353425      -717.1132
   1   2.0000     -26.350590      -717.0360
   2   2.0000     -26.322362      -716.2679
   3   2.0000     -11.423157      -310.8399
   4   2.0000     -11.344526      -308.7003
   5   2.0000     -11.255509      -306.2780
   6   2.0000      -1.704549       -46.3831
   7   2.0000      -1.644642       -44.7530
   8   2.0000      -1.634003       -44.4635
   9   2.0000      -1.105123       -30.0719
  10   2.0000      -0.988684       -26.9035
  11   2.0000      -0.872127       -23.7318
  12   2.0000      -0.807162       -21.9640
  13   2.0000      -0.787495       -21.4288
  14   2.0000      -0.770994       -20.9798
  15   2.0000      -0.704455       -19.1692
  16   2.0000      -0.702719       -19.1219
  17   2.0000      -0.694722       -18.9043
  18   2.0000      -0.685447       -18.6520
  19   2.0000      -0.668700       -18.1963
  20   2.0000      -0.593688       -16.1551
  21   2.0000      -0.584077       -15.8935
  22   2.0000      -0.577632       -15.7182
  23   2.0000      -0.380461       -10.3529
  24   0.0000       0.027119         0.7379
  25   0.0000       0.043800         1.1919
  26   0.0000       0.045744         1.2448
  27   0.0000       0.058683         1.5969
  28   0.0000       0.078674         2.1408

MULLIKEN ATOMIC CHARGES
-----------------------
   0 C :    0.467384
   1 F :   -0.350778
   2 F :   -0.273642
   3 C :    0.526375
   4 F :   -0.506080
   5 C :   -0.735542
   6 H :    0.305368
   7 H :    0.283458
   8 H :    0.283458
Sum of atomic charges:   -0.0000000

LOEWDIN ATOMIC CHARGES
----------------------
   0 C :   -0.916118
   1 F :    0.487481
   2 F :    0.490606
   3 C :   -0.559456
   4 F :    0.476694
   5 C :    0.549359
   6 H :   -0.184610
   7 H :   -0.171978
   8 H :   -0.171978

  Mayer bond orders larger than 0.100000
B(  0-C ,  1-F ) :   0.9748 B(  0-C ,  2-F ) :   0.7193 B(  0-C ,  3-C ) :   1.5237
B(  2-F ,  3-C ) :   0.1043 B(  3-C ,  4-F ) :   0.7221 B(  3-C ,  5-C ) :   0.7851
B(  5-C ,  6-H ) :   0.9347 B(  5-C ,  7-H ) :   0.9487 B(  5-C ,  8-H ) :   0.9487

MP2 TOTAL ENERGY:     -415.040595478 Eh
FINAL SINGLE POINT ENERGY      -415.040595478125

DIPOLE MOMENT
-------------
                                X             Y             Z
Electronic contribution:     -4.67555      -5.86629       0.00000
Nuclear contribution   :      5.41519       6.35315       0.00000
                        -----------------------------------------
Total Dipole Moment    :      0.73964       0.48685       0.00000
                        -----------------------------------------
Magnitude (a.u.)       :      0.88549
Magnitude (Debye)      :      2.25074

Rotational constants in cm-1:     0.171820     0.106243     0.066463
Rotational constants in MHz :  5151.025541  3185.089121  1992.503166

                             ****ORCA TERMINATED NORMALLY****
TOTAL RUN TIME: 0 days 0 hours 1 minutes 37 seconds 44 msec
