                         Program Version 5.0.3 -  RELEASE  -
|  1> !ri-mp2 aug-cc-pvtz aug-cc-pvtz/c tightscf
|  2> %pal nprocs 16 end
|  3>
|  4> * xyz 0 1
|  5> C      1.897976   -0.126622    0.018618
|  6> C      0.516931    0.524551   -0.044771
|  7> C     -0.613059   -0.494853    0.024012
|  8> O     -1.909274    0.090322   -0.086974
|  9> H      2.048829   -0.814819   -0.815272
| 10> H      2.688867    0.622294   -0.024744
| 11> H      2.029572   -0.693014    0.942713
| 12> H      0.411143    1.099907   -0.967085
| 13> H      0.407044    1.234976    0.781380
| 14> H     -0.541025   -1.193082   -0.811207
| 15> H     -0.535151   -1.082893    0.946811
| 16> H     -2.046169    0.685602    0.656039
| 17> *
| 18>
| 19>                          ****END OF INPUT****

CARTESIAN COORDINATES (ANGSTROEM)
---------------------------------
  C      1.897976   -0.126622    0.018618
  C      0.516931    0.524551   -0.044771
  C     -0.613059   -0.494853    0.024012
  O     -1.909274    0.090322   -0.086974
  H      2.048829   -0.814819   -0.815272
  H      2.688867    0.622294   -0.024744
  H      2.029572   -0.693014    0.942713
  H      0.411143    1.099907   -0.967085
  H      0.407044    1.234976    0.781380
  H     -0.541025   -1.193082   -0.811207
  H     -0.535151   -1.082893    0.946811
  H     -2.046169    0.685602    0.656039

 Total Charge           Charge          ....    0
 Multiplicity           Mult            ....    1
 Number of Electrons    NEL             ....   34
 Basis Dimension        Dim             ....  368

ORBITAL ENERGIES
----------------

  NO   OCC          E(Eh)            E(eV)
   0   2.0000     -20.554508      -559.3166
   1   2.0000     -11.272236      -306.7331
   2   2.0000     -11.223283      -305.4011
   3   2.0000     -11.219103      -305.2873
   4   2.0000      -1.354114       -36.8473
   5   2.0000      -1.054047       -28.6821
   6   2.0000      -0.917513       -24.9668
   7   2.0000      -0.817100       -22.2344
   8   2.0000      -0.689691       -18.7674
   9   2.0000      -0.632973       -17.2241
  10   2.0000      -0.596404       -16.2290
  11   2.0000      -0.586522       -15.9601
  12   2.0000      -0.545532       -14.8447
  13   2.0000      -0.501969       -13.6593
  14   2.0000      -0.500270       -13.6130
  15   2.0000      -0.471473       -12.8294
  16   2.0000      -0.437018       -11.8919
  17   0.0000       0.029452         0.8014
  18   0.0000       0.036477         0.9926
  19   0.0000       0.039264         1.0684
  20   0.0000       0.043009         1.1703
  21   0.0000       0.061185         1.6649

MULLIKEN ATOMIC CHARGES
-----------------------
   0 C :   -0.929791
   1 C :   -0.451739
   2 C :   -0.152186
   3 O :   -0.629067
   4 H :    0.285894
   5 H :    0.283843
   6 H :    0.286834
   7 H :    0.266086
   8 H :    0.252481
   9 H :    0.341191
  10 H :    0.275192
  11 H :    0.171262
Sum of atomic charges:   -0.0000000

LOEWDIN ATOMIC CHARGES
----------------------
   0 C :    0.572067
   1 C :    0.248654
   2 C :    0.025361
   3 O :    0.803495
   4 H :   -0.171550
   5 H :   -0.173969
   6 H :   -0.172547
   7 H :   -0.153458
   8 H :   -0.156174
   9 H :   -0.164779
  10 H :   -0.155940
  11 H :   -0.501160

  Mayer bond orders larger than 0.100000
B(  0-C ,  1-C ) :   0.8833 B(  0-C ,  4-H ) :   0.9378 B(  0-C ,  5-H ) :   0.9550
B(  0-C ,  6-H ) :   0.9287 B(  1-C ,  2-C ) :   0.8972 B(  1-C ,  7-H ) :   0.9273
B(  1-C ,  8-H ) :   0.9389 B(  2-C ,  3-O ) :   0.7184 B(  2-C ,  9-H ) :   0.8987
B(  2-C , 10-H ) :   0.9568 B(  3-O , 11-H ) :   0.9975

MP2 TOTAL ENERGY:     -193.982569776 Eh
FINAL SINGLE POINT ENERGY      -193.982569775933

DIPOLE MOMENT
-------------
                                X             Y             Z
Electronic contribution:     -4.16588       0.29757      -0.27807
Nuclear contribution   :      4.71026      -0.14834       0.75150
                        -----------------------------------------
Total Dipole Moment    :      0.54438       0.14924       0.47343
                        -----------------------------------------
Magnitude (a.u.)       :      0.73672
Magnitude (Debye)      :      1.87259

Rotational constants in cm-1:     0.877206     0.124807     0.117242
Rotational constants in MHz : 26297.961328  3741.627396  3514.829443

                             ****ORCA TERMINATED NORMALLY****
TOTAL RUN TIME: 0 days 0 hours 1 minutes 55 seconds 615 msec
