                         Program Version 5.0.3 -  RELEASE  -
|  1> !ri-mp2 aug-cc-pvtz aug-cc-pvtz/c tightscf
|  2> %pal nprocs 16 end
|  3>
|  4> * xyz 0 1
|  5> O      0.000000    0.000000    1.125015
|  6> N      0.000000    1.129079    0.352670
|  7> C      0.000000    0.709443   -0.877819
|  8> C      0.000000   -0.709443   -0.877819
|  9> N      0.000000   -1.129079    0.352670
| 10> H      0.000000    1.401671   -1.701840
| 11> H      0.000000   -1.401671   -1.701840
| 12> *
| 13>
| 14>                          ****END OF INPUT****

CARTESIAN COORDINATES (ANGSTROEM)
---------------------------------
  O      0.000000    0.000000    1.125015
  N      0.000000    1.129079    0.352670
  C      0.000000    0.709443   -0.877819
  C      0.000000   -0.709443   -0.877819
  N      0.000000   -1.129079    0.352670
  H      0.000000    1.401671   -1.701840
  H      0.000000   -1.401671   -1.701840

 Total Charge           Charge          ....    0
 Multiplicity           Mult            ....    1
 Number of Electrons    NEL             ....   36
 Basis Dimension        Dim             ....  276

ORBITAL ENERGIES
----------------

  NO   OCC          E(Eh)            E(eV)
   0   2.0000     -20.689681      -562.9948
   1   2.0000     -15.665748      -426.2867
   2   2.0000     -15.665693      -426.2852
   3   2.0000     -11.303386      -307.5808
   4   2.0000     -11.302335      -307.5522
   5   2.0000      -1.552483       -42.2452
   6   2.0000      -1.221540       -33.2398
   7   2.0000      -1.184870       -32.2420
   8   2.0000      -0.874623       -23.7997
   9   2.0000      -0.868514       -23.6335
  10   2.0000      -0.752796       -20.4846
  11   2.0000      -0.694648       -18.9023
  12   2.0000      -0.660274       -17.9670
  13   2.0000      -0.590263       -16.0619
  14   2.0000      -0.536314       -14.5938
  15   2.0000      -0.499845       -13.6015
  16   2.0000      -0.451700       -12.2914
  17   2.0000      -0.436159       -11.8685
  18   0.0000       0.022164         0.6031
  19   0.0000       0.034221         0.9312
  20   0.0000       0.064427         1.7532
  21   0.0000       0.070207         1.9104
  22   0.0000       0.091467         2.4890

MULLIKEN ATOMIC CHARGES
-----------------------
   0 O :   -0.189418
   1 N :   -0.361141
   2 C :   -0.180124
   3 C :   -0.180124
   4 N :   -0.361141
   5 H :    0.635974
   6 H :    0.635974
Sum of atomic charges:    0.0000000

LOEWDIN ATOMIC CHARGES
----------------------
   0 O :    0.234020
   1 N :    0.129456
   2 C :   -0.044268
   3 C :   -0.044268
   4 N :    0.129456
   5 H :   -0.202198
   6 H :   -0.202198

  Mayer bond orders larger than 0.100000
B(  0-O ,  1-N ) :   0.7749 B(  0-O ,  4-N ) :   0.7749 B(  1-N ,  2-C ) :   1.2896
B(  2-C ,  3-C ) :   0.9963 B(  2-C ,  5-H ) :   0.5993 B(  3-C ,  4-N ) :   1.2896
B(  3-C ,  6-H ) :   0.5993

MP2 TOTAL ENERGY:     -261.612469009 Eh
FINAL SINGLE POINT ENERGY      -261.612469008645

DIPOLE MOMENT
-------------
                                X             Y             Z
Electronic contribution:      0.00000      -0.00000       1.73811
Nuclear contribution   :      0.00000       0.00000      -3.26399
                        -----------------------------------------
Total Dipole Moment    :      0.00000      -0.00000      -1.52588
                        -----------------------------------------
Magnitude (a.u.)       :      1.52588
Magnitude (Debye)      :      3.87849

Rotational constants in cm-1:     0.351775     0.325663     0.169108
Rotational constants in MHz : 10545.943320  9763.129566  5069.724827

                             ****ORCA TERMINATED NORMALLY****
TOTAL RUN TIME: 0 days 0 hours 1 minutes 25 seconds 812 msec
