                         Program Version 5.0.3 -  RELEASE  -
|  1> !ri-mp2 aug-cc-pvtz aug-cc-pvtz/c tightscf
|  2> %pal nprocs 16 end
|  3>
|  4> * xyz 0 1
|  5> C      0.754145    0.274218   -0.000001
|  6> C      2.080251   -0.448669    0.000000
|  7> C     -2.006474    0.397153    0.000001
|  8> O      0.648332    1.474901    0.000000
|  9> S     -0.661464   -0.824798    0.000000
| 10> H      1.966836   -1.530536   -0.000035
| 11> H      2.644386   -0.141223    0.880822
| 12> H      2.644418   -0.141166   -0.880780
| 13> H     -1.944496    1.019312    0.888116
| 14> H     -2.937384   -0.164322    0.000020
| 15> H     -1.944520    1.019289   -0.888133
| 16> *
| 17>
| 18>                          ****END OF INPUT****

CARTESIAN COORDINATES (ANGSTROEM)
---------------------------------
  C      0.754145    0.274218   -0.000001
  C      2.080251   -0.448669    0.000000
  C     -2.006474    0.397153    0.000001
  O      0.648332    1.474901    0.000000
  S     -0.661464   -0.824798    0.000000
  H      1.966836   -1.530536   -0.000035
  H      2.644386   -0.141223    0.880822
  H      2.644418   -0.141166   -0.880780
  H     -1.944496    1.019312    0.888116
  H     -2.937384   -0.164322    0.000020
  H     -1.944520    1.019289   -0.888133

 Total Charge           Charge          ....    0
 Multiplicity           Mult            ....    1
 Number of Electrons    NEL             ....   48
 Basis Dimension        Dim             ....  372

ORBITAL ENERGIES
----------------

  NO   OCC          E(Eh)            E(eV)
   0   2.0000     -91.972026     -2502.6861
   1   2.0000     -20.556690      -559.3760
   2   2.0000     -11.364843      -309.2531
   3   2.0000     -11.259745      -306.3932
   4   2.0000     -11.245604      -306.0084
   5   2.0000      -8.973203      -244.1733
   6   2.0000      -6.654369      -181.0746
   7   2.0000      -6.653245      -181.0440
   8   2.0000      -6.652612      -181.0268
   9   2.0000      -1.404016       -38.2052
  10   2.0000      -1.068460       -29.0743
  11   2.0000      -1.015839       -27.6424
  12   2.0000      -0.893911       -24.3245
  13   2.0000      -0.734078       -19.9753
  14   2.0000      -0.653231       -17.7753
  15   2.0000      -0.637745       -17.3539
  16   2.0000      -0.620586       -16.8870
  17   2.0000      -0.591301       -16.0901
  18   2.0000      -0.587759       -15.9937
  19   2.0000      -0.542694       -14.7675
  20   2.0000      -0.516550       -14.0560
  21   2.0000      -0.481109       -13.0916
  22   2.0000      -0.407454       -11.0874
  23   2.0000      -0.371769       -10.1164
  24   0.0000       0.029772         0.8101
  25   0.0000       0.033413         0.9092
  26   0.0000       0.043474         1.1830
  27   0.0000       0.045829         1.2471
  28   0.0000       0.056109         1.5268

MULLIKEN ATOMIC CHARGES
-----------------------
   0 C :    0.622451
   1 C :   -0.697782
   2 C :   -0.797866
   3 O :   -0.799011
   4 S :   -0.119315
   5 H :    0.329307
   6 H :    0.298097
   7 H :    0.298097
   8 H :    0.292554
   9 H :    0.280917
  10 H :    0.292551
Sum of atomic charges:    0.0000000

LOEWDIN ATOMIC CHARGES
----------------------
   0 C :   -0.944902
   1 C :    0.495444
   2 C :    0.223287
   3 O :    0.384228
   4 S :    1.168386
   5 H :   -0.215088
   6 H :   -0.180816
   7 H :   -0.180818
   8 H :   -0.245419
   9 H :   -0.258885
  10 H :   -0.245417

  Mayer bond orders larger than 0.100000
B(  0-C ,  1-C ) :   0.6249 B(  0-C ,  3-O ) :   1.4644 B(  0-C ,  4-S ) :   1.0095
B(  1-C ,  3-O ) :  -0.1052 B(  1-C ,  5-H ) :   0.9255 B(  1-C ,  6-H ) :   0.9505
B(  1-C ,  7-H ) :   0.9505 B(  2-C ,  4-S ) :   0.9835 B(  2-C ,  8-H ) :   0.9110
B(  2-C ,  9-H ) :   0.9559 B(  2-C , 10-H ) :   0.9110

MP2 TOTAL ENERGY:     -590.521114675 Eh
FINAL SINGLE POINT ENERGY      -590.521114675483

DIPOLE MOMENT
-------------
                                X             Y             Z
Electronic contribution:     -0.51332      -0.70785      -0.00001
Nuclear contribution   :      0.45991       0.11006       0.00001
                        -----------------------------------------
Total Dipole Moment    :     -0.05341      -0.59778       0.00000
                        -----------------------------------------
Magnitude (a.u.)       :      0.60016
Magnitude (Debye)      :      1.52550

Rotational constants in cm-1:     0.244423     0.101600     0.073749
Rotational constants in MHz :  7327.608863  3045.893160  2210.928544

                             ****ORCA TERMINATED NORMALLY****
TOTAL RUN TIME: 0 days 0 hours 2 minutes 20 seconds 403 msec
