                         Program Version 5.0.3 -  RELEASE  -
|  1> !ri-mp2 aug-cc-pvtz aug-cc-pvtz/c tightscf
|  2> %pal nprocs 16 end
|  3>
|  4> * xyz 0 1
|  5> C     -2.173897    1.524699   -0.102751
|  6> H     -2.210085    1.552101   -1.191500
|  7> H     -3.180147    1.347902    0.271737
|  8> H     -1.838899    2.500384    0.255787
|  9> C     -1.216511    0.451803    0.380282
| 10> H     -1.222850    0.398251    1.467431
| 11> Cl    -1.855348   -1.193546   -0.136424
| 12> C      0.204566    0.645728   -0.135500
| 13> H      0.516270    1.656393    0.140769
| 14> H      0.207952    0.595476   -1.225135
| 15> C      1.199715   -0.350388    0.431283
| 16> H      1.239358   -0.310969    1.516948
| 17> H      0.984119   -1.365316    0.116205
| 18> Cl     2.880115    0.016766   -0.145466
| 19> *
| 20>
| 21>                          ****END OF INPUT****

CARTESIAN COORDINATES (ANGSTROEM)
---------------------------------
  C     -2.173897    1.524699   -0.102751
  H     -2.210085    1.552101   -1.191500
  H     -3.180147    1.347902    0.271737
  H     -1.838899    2.500384    0.255787
  C     -1.216511    0.451803    0.380282
  H     -1.222850    0.398251    1.467431
  Cl    -1.855348   -1.193546   -0.136424
  C      0.204566    0.645728   -0.135500
  H      0.516270    1.656393    0.140769
  H      0.207952    0.595476   -1.225135
  C      1.199715   -0.350388    0.431283
  H      1.239358   -0.310969    1.516948
  H      0.984119   -1.365316    0.116205
  Cl     2.880115    0.016766   -0.145466

 Total Charge           Charge          ....    0
 Multiplicity           Mult            ....    1
 Number of Electrons    NEL             ....   66
 Basis Dimension        Dim             ....  468

ORBITAL ENERGIES
----------------

  NO   OCC          E(Eh)            E(eV)
   0   2.0000    -104.826144     -2852.4644
   1   2.0000    -104.825638     -2852.4506
   2   2.0000     -11.315833      -307.9195
   3   2.0000     -11.299791      -307.4829
   4   2.0000     -11.255332      -306.2732
   5   2.0000     -11.241449      -305.8954
   6   2.0000     -10.550375      -287.0903
   7   2.0000     -10.549617      -287.0697
   8   2.0000      -8.017066      -218.1555
   9   2.0000      -8.016403      -218.1374
  10   2.0000      -8.015454      -218.1116
  11   2.0000      -8.015435      -218.1111
  12   2.0000      -8.014691      -218.0908
  13   2.0000      -8.014663      -218.0901
  14   2.0000      -1.165277       -31.7088
  15   2.0000      -1.125167       -30.6173
  16   2.0000      -1.034123       -28.1399
  17   2.0000      -0.989451       -26.9243
  18   2.0000      -0.870528       -23.6883
  19   2.0000      -0.810008       -22.0414
  20   2.0000      -0.678662       -18.4673
  21   2.0000      -0.639438       -17.4000
  22   2.0000      -0.617821       -16.8118
  23   2.0000      -0.602902       -16.4058
  24   2.0000      -0.555817       -15.1245
  25   2.0000      -0.544898       -14.8274
  26   2.0000      -0.533002       -14.5037
  27   2.0000      -0.509656       -13.8684
  28   2.0000      -0.493921       -13.4403
  29   2.0000      -0.449395       -12.2287
  30   2.0000      -0.440167       -11.9775
  31   2.0000      -0.435897       -11.8614
  32   2.0000      -0.428451       -11.6588
  33   0.0000       0.026366         0.7175
  34   0.0000       0.034621         0.9421
  35   0.0000       0.040555         1.1036
  36   0.0000       0.043494         1.1835
  37   0.0000       0.055588         1.5126

MULLIKEN ATOMIC CHARGES
-----------------------
   0 C :   -1.044870
   1 H :    0.287157
   2 H :    0.316340
   3 H :    0.280732
   4 C :    0.290513
   5 H :    0.285891
   6 Cl:   -0.470292
   7 C :   -0.365069
   8 H :    0.285655
   9 H :    0.336997
  10 C :   -0.358942
  11 H :    0.257026
  12 H :    0.284848
  13 Cl:   -0.385986
Sum of atomic charges:    0.0000000

LOEWDIN ATOMIC CHARGES
----------------------
   0 C :    0.504979
   1 H :   -0.174536
   2 H :   -0.182518
   3 H :   -0.167111
   4 C :   -0.538049
   5 H :   -0.219283
   6 Cl:    0.920601
   7 C :    0.100909
   8 H :   -0.166397
   9 H :   -0.169109
  10 C :   -0.281336
  11 H :   -0.234917
  12 H :   -0.264887
  13 Cl:    0.871652

  Mayer bond orders larger than 0.100000
B(  0-C ,  1-H ) :   0.9645 B(  0-C ,  2-H ) :   0.9618 B(  0-C ,  3-H ) :   0.9406
B(  0-C ,  4-C ) :   0.8292 B(  4-C ,  5-H ) :   0.9129 B(  4-C ,  6-Cl) :   0.6243
B(  4-C ,  7-C ) :   0.9114 B(  7-C ,  8-H ) :   0.8994 B(  7-C ,  9-H ) :   0.8991
B(  7-C , 10-C ) :   0.9909 B( 10-C , 11-H ) :   0.9548 B( 10-C , 12-H ) :   0.9311
B( 10-C , 13-Cl) :   0.8125

MP2 TOTAL ENERGY:    -1076.334750313 Eh
FINAL SINGLE POINT ENERGY     -1076.334750312649

DIPOLE MOMENT
-------------
                                X             Y             Z
Electronic contribution:      6.21278      -7.11313      -1.25736
Nuclear contribution   :     -6.80238       7.86359       1.71322
                        -----------------------------------------
Total Dipole Moment    :     -0.58960       0.75046       0.45586
                        -----------------------------------------
Magnitude (a.u.)       :      1.05765
Magnitude (Debye)      :      2.68833

Rotational constants in cm-1:     0.146191     0.030936     0.026603
Rotational constants in MHz :  4382.690223   927.447978   797.552020

                             ****ORCA TERMINATED NORMALLY****
TOTAL RUN TIME: 0 days 0 hours 3 minutes 59 seconds 792 msec
