                         Program Version 5.0.3 -  RELEASE  -
|  1> !ri-mp2 aug-cc-pvtz aug-cc-pvtz/c tightscf
|  2> %pal nprocs 16 end
|  3>
|  4> * xyz 0 1
|  5> C      0.682278   -2.011975        0.000000
|  6> N     -0.594186   -1.780881        0.000000
|  7> C     -0.879403   -0.454202        0.000000
|  8> C      0.000000    0.622440        0.000000
|  9> N     -0.689283    1.811813        0.000000
| 10> C     -1.948126    1.467994        0.000000
| 11> N     -2.127037    0.103915        0.000000
| 12> N      1.638326   -1.045896        0.000000
| 13> C      1.418524    0.367369        0.000000
| 14> H      1.040118   -3.033903        0.000000
| 15> H     -2.782873    2.149310        0.000000
| 16> H     -2.996743   -0.401694        0.000000
| 17> O      2.361664    1.128525        0.000000
| 18> H      2.611808   -1.314335        0.000000
| 19> *
| 20>
| 21>                          ****END OF INPUT****

CARTESIAN COORDINATES (ANGSTROEM)
---------------------------------
  C      0.682278   -2.011975    0.000000
  N     -0.594186   -1.780881    0.000000
  C     -0.879403   -0.454202    0.000000
  C      0.000000    0.622440    0.000000
  N     -0.689283    1.811813    0.000000
  C     -1.948126    1.467994    0.000000
  N     -2.127037    0.103915    0.000000
  N      1.638326   -1.045896    0.000000
  C      1.418524    0.367369    0.000000
  H      1.040118   -3.033903    0.000000
  H     -2.782873    2.149310    0.000000
  H     -2.996743   -0.401694    0.000000
  O      2.361664    1.128525    0.000000
  H      2.611808   -1.314335    0.000000

 Total Charge           Charge          ....    0
 Multiplicity           Mult            ....    1
 Number of Electrons    NEL             ....   70
 Basis Dimension        Dim             ....  552

ORBITAL ENERGIES
----------------

  NO   OCC          E(Eh)            E(eV)
   0   2.0000     -20.527923      -558.5932
   1   2.0000     -15.640178      -425.5909
   2   2.0000     -15.637707      -425.5237
   3   2.0000     -15.585715      -424.1089
   4   2.0000     -15.568818      -423.6491
   5   2.0000     -11.370099      -309.3961
   6   2.0000     -11.361337      -309.1577
   7   2.0000     -11.329347      -308.2872
   8   2.0000     -11.319868      -308.0293
   9   2.0000     -11.261470      -306.4402
  10   2.0000      -1.401411       -38.1343
  11   2.0000      -1.371517       -37.3209
  12   2.0000      -1.320922       -35.9441
  13   2.0000      -1.225880       -33.3579
  14   2.0000      -1.187701       -32.3190
  15   2.0000      -1.053315       -28.6622
  16   2.0000      -0.911598       -24.8059
  17   2.0000      -0.909459       -24.7476
  18   2.0000      -0.851627       -23.1740
  19   2.0000      -0.791283       -21.5319
  20   2.0000      -0.748615       -20.3709
  21   2.0000      -0.726979       -19.7821
  22   2.0000      -0.688093       -18.7240
  23   2.0000      -0.656986       -17.8775
  24   2.0000      -0.625269       -17.0144
  25   2.0000      -0.621383       -16.9087
  26   2.0000      -0.613039       -16.6816
  27   2.0000      -0.595030       -16.1916
  28   2.0000      -0.531198       -14.4546
  29   2.0000      -0.502142       -13.6640
  30   2.0000      -0.444817       -12.1041
  31   2.0000      -0.438440       -11.9306
  32   2.0000      -0.437897       -11.9158
  33   2.0000      -0.417414       -11.3584
  34   2.0000      -0.317456        -8.6384
  35   0.0000       0.018775         0.5109
  36   0.0000       0.022078         0.6008
  37   0.0000       0.039483         1.0744
  38   0.0000       0.047446         1.2911
  39   0.0000       0.058017         1.5787

MULLIKEN ATOMIC CHARGES
-----------------------
   0 C :   -0.577481
   1 N :   -0.456710
   2 C :    0.490837
   3 C :    1.120481
   4 N :   -0.705327
   5 C :   -0.728582
   6 N :   -0.028669
   7 N :    0.085724
   8 C :    0.133406
   9 H :    0.650560
  10 H :    0.657364
  11 H :    0.086652
  12 O :   -0.853861
  13 H :    0.125607
Sum of atomic charges:    0.0000000

LOEWDIN ATOMIC CHARGES
----------------------
   0 C :   -0.052355
   1 N :    0.399791
   2 C :   -0.439119
   3 C :   -0.317762
   4 N :    0.394156
   5 C :   -0.046694
   6 N :    0.562819
   7 N :    0.557853
   8 C :   -0.642193
   9 H :   -0.163252
  10 H :   -0.173627
  11 H :   -0.237753
  12 O :    0.430301
  13 H :   -0.272165

  Mayer bond orders larger than 0.100000
B(  0-C ,  1-N ) :   1.6562 B(  0-C ,  2-C ) :  -0.3804 B(  0-C ,  7-N ) :   1.1740
B(  0-C ,  8-C ) :  -0.2238 B(  0-C ,  9-H ) :   0.4612 B(  1-N ,  2-C ) :   0.6404
B(  1-N ,  6-N ) :  -0.1906 B(  2-C ,  3-C ) :   1.5480 B(  2-C ,  5-C ) :  -0.5263
B(  2-C ,  6-N ) :   0.8488 B(  2-C ,  8-C ) :   0.5834 B(  3-C ,  4-N ) :   0.1938
B(  3-C ,  5-C ) :  -0.1545 B(  3-C ,  7-N ) :  -0.2594 B(  3-C , 12-O ) :   0.2193
B(  4-N ,  5-C ) :   1.8211 B(  4-N ,  8-C ) :  -0.1187 B(  5-C ,  6-N ) :   1.1726
B(  5-C , 10-H ) :   0.4696 B(  6-N , 11-H ) :   1.1427 B(  7-N ,  8-C ) :   1.0072
B(  7-N , 13-H ) :   1.0529 B(  8-C , 12-O ) :   1.0229

MP2 TOTAL ENERGY:     -486.345803247 Eh
FINAL SINGLE POINT ENERGY      -486.345803246554

DIPOLE MOMENT
-------------
                                X             Y             Z
Electronic contribution:      0.72130       0.61707      -0.00000
Nuclear contribution   :     -2.02911      -2.49978       0.00000
                        -----------------------------------------
Total Dipole Moment    :     -1.30781      -1.88271      -0.00000
                        -----------------------------------------
Magnitude (a.u.)       :      2.29237
Magnitude (Debye)      :      5.82675

Rotational constants in cm-1:     0.080031     0.051728     0.031420
Rotational constants in MHz :  2399.280106  1550.765605   941.943799

                             ****ORCA TERMINATED NORMALLY****
TOTAL RUN TIME: 0 days 0 hours 7 minutes 26 seconds 976 msec
