                         Program Version 5.0.3 -  RELEASE  -
|  1> !ri-mp2 aug-cc-pvtz aug-cc-pvtz/c tightscf
|  2> %pal nprocs 16 end
|  3>
|  4> * xyz 0 1
|  5> C      0.728933   -1.997108        0.000000
|  6> N     -0.543008   -1.810437        0.000000
|  7> C     -0.914571   -0.487179        0.000000
|  8> C      0.000000    0.605212        0.000000
|  9> C     -0.793070    1.736321        0.000000
| 10> N     -2.058612    1.279355        0.000000
| 11> N     -2.176192   -0.065847        0.000000
| 12> N      1.685510   -1.008834        0.000000
| 13> C      1.424753    0.375734        0.000000
| 14> H      1.120457   -3.007750        0.000000
| 15> O      2.329973    1.187587        0.000000
| 16> H     -0.552002    2.784573        0.000000
| 17> H      2.661361   -1.265449        0.000000
| 18> H     -2.899755    1.830394        0.000000
| 19> *
| 20>
| 21>                          ****END OF INPUT****

CARTESIAN COORDINATES (ANGSTROEM)
---------------------------------
  C      0.728933   -1.997108    0.000000
  N     -0.543008   -1.810437    0.000000
  C     -0.914571   -0.487179    0.000000
  C      0.000000    0.605212    0.000000
  C     -0.793070    1.736321    0.000000
  N     -2.058612    1.279355    0.000000
  N     -2.176192   -0.065847    0.000000
  N      1.685510   -1.008834    0.000000
  C      1.424753    0.375734    0.000000
  H      1.120457   -3.007750    0.000000
  O      2.329973    1.187587    0.000000
  H     -0.552002    2.784573    0.000000
  H      2.661361   -1.265449    0.000000
  H     -2.899755    1.830394    0.000000

 Total Charge           Charge          ....    0
 Multiplicity           Mult            ....    1
 Number of Electrons    NEL             ....   70
 Basis Dimension        Dim             ....  552

ORBITAL ENERGIES
----------------

  NO   OCC          E(Eh)            E(eV)
   0   2.0000     -20.539088      -558.8970
   1   2.0000     -15.669503      -426.3889
   2   2.0000     -15.631832      -425.3638
   3   2.0000     -15.597043      -424.4171
   4   2.0000     -15.571670      -423.7267
   5   2.0000     -11.379587      -309.6543
   6   2.0000     -11.352243      -308.9102
   7   2.0000     -11.313880      -307.8663
   8   2.0000     -11.307625      -307.6961
   9   2.0000     -11.244730      -305.9847
  10   2.0000      -1.409811       -38.3629
  11   2.0000      -1.397344       -38.0237
  12   2.0000      -1.319031       -35.8927
  13   2.0000      -1.219406       -33.1817
  14   2.0000      -1.113183       -30.2913
  15   2.0000      -1.093562       -29.7573
  16   2.0000      -0.943638       -25.6777
  17   2.0000      -0.898989       -24.4627
  18   2.0000      -0.819275       -22.2936
  19   2.0000      -0.783595       -21.3227
  20   2.0000      -0.761642       -20.7253
  21   2.0000      -0.722954       -19.6726
  22   2.0000      -0.684365       -18.6225
  23   2.0000      -0.654311       -17.8047
  24   2.0000      -0.632622       -17.2145
  25   2.0000      -0.618421       -16.8281
  26   2.0000      -0.615479       -16.7480
  27   2.0000      -0.605598       -16.4792
  28   2.0000      -0.530601       -14.4384
  29   2.0000      -0.498854       -13.5745
  30   2.0000      -0.450412       -12.2563
  31   2.0000      -0.443922       -12.0797
  32   2.0000      -0.441766       -12.0211
  33   2.0000      -0.374505       -10.1908
  34   2.0000      -0.341631        -9.2963
  35   0.0000       0.021975         0.5980
  36   0.0000       0.024087         0.6554
  37   0.0000       0.041958         1.1417
  38   0.0000       0.048284         1.3139
  39   0.0000       0.057202         1.5565

MULLIKEN ATOMIC CHARGES
-----------------------
   0 C :   -0.551911
   1 N :   -0.346723
   2 C :    0.487240
   3 C :    1.428190
   4 C :   -1.343759
   5 N :    0.142886
   6 N :   -0.704447
   7 N :    0.064350
   8 C :    0.223698
   9 H :    0.660370
  10 O :   -0.899125
  11 H :    0.563839
  12 H :    0.125071
  13 H :    0.150321
Sum of atomic charges:    0.0000000

LOEWDIN ATOMIC CHARGES
----------------------
   0 C :   -0.051152
   1 N :    0.384065
   2 C :   -0.554874
   3 C :   -0.138656
   4 C :    0.187387
   5 N :    0.334976
   6 N :    0.344910
   7 N :    0.556106
   8 C :   -0.657041
   9 H :   -0.165743
  10 O :    0.431825
  11 H :   -0.144462
  12 H :   -0.273235
  13 H :   -0.254106

  Mayer bond orders larger than 0.100000
B(  0-C ,  1-N ) :   1.6128 B(  0-C ,  2-C ) :  -0.2755 B(  0-C ,  3-C ) :   0.1208
B(  0-C ,  7-N ) :   1.0670 B(  0-C ,  8-C ) :  -0.2100 B(  0-C ,  9-H ) :   0.4503
B(  1-N ,  2-C ) :   0.3626 B(  1-N ,  3-C ) :   0.1427 B(  1-N ,  6-N ) :  -0.1756
B(  2-C ,  3-C ) :   1.0036 B(  2-C ,  4-C ) :   0.3763 B(  2-C ,  6-N ) :   1.1386
B(  2-C ,  8-C ) :   0.1998 B(  3-C ,  5-N ) :  -0.3958 B(  3-C ,  6-N ) :   0.1157
B(  3-C ,  7-N ) :  -0.1666 B(  3-C ,  8-C ) :   0.2808 B(  3-C , 10-O ) :   0.1029
B(  4-C ,  5-N ) :   1.4428 B(  4-C , 11-H ) :   0.7366 B(  5-N ,  6-N ) :   0.4713
B(  5-N , 13-H ) :   1.0974 B(  7-N ,  8-C ) :   0.9243 B(  7-N , 12-H ) :   1.0661
B(  8-C , 10-O ) :   1.0898

MP2 TOTAL ENERGY:     -486.323107192 Eh
FINAL SINGLE POINT ENERGY      -486.323107192358

DIPOLE MOMENT
-------------
                                X             Y             Z
Electronic contribution:     -0.28013      -0.07572       0.00000
Nuclear contribution   :      0.33673       0.33907       0.00000
                        -----------------------------------------
Total Dipole Moment    :      0.05661       0.26335       0.00000
                        -----------------------------------------
Magnitude (a.u.)       :      0.26937
Magnitude (Debye)      :      0.68467

Rotational constants in cm-1:     0.080709     0.050493     0.031061
Rotational constants in MHz :  2419.604036  1513.748634   931.183296

                             ****ORCA TERMINATED NORMALLY****
TOTAL RUN TIME: 0 days 0 hours 7 minutes 11 seconds 558 msec
