                         Program Version 5.0.3 -  RELEASE  -
|  1> !ri-mp2 aug-cc-pvtz aug-cc-pvtz/c tightscf
|  2> %pal nprocs 16 end
|  3>
|  4> * xyz 0 1
|  5> H      0.649149    1.161865   -2.677287
|  6> H     -0.649149   -1.161865   -2.677287
|  7> S      0.000000    0.000000    2.320077
|  8> C      0.000000    0.000000    0.684261
|  9> S     -0.642955   -1.323450   -0.281165
| 10> S      0.642955    1.323450   -0.281165
| 11> H      1.004355   -1.158971   -2.032629
| 12> C      0.000000   -0.759876   -1.900808
| 13> H     -1.004355    1.158971   -2.032629
| 14> C      0.000000    0.759876   -1.900808
| 15> *
| 16>
| 17>                          ****END OF INPUT****

CARTESIAN COORDINATES (ANGSTROEM)
---------------------------------
  H      0.649149    1.161865   -2.677287
  H     -0.649149   -1.161865   -2.677287
  S      0.000000    0.000000    2.320077
  C      0.000000    0.000000    0.684261
  S     -0.642955   -1.323450   -0.281165
  S      0.642955    1.323450   -0.281165
  H      1.004355   -1.158971   -2.032629
  C      0.000000   -0.759876   -1.900808
  H     -1.004355    1.158971   -2.032629
  C      0.000000    0.759876   -1.900808

 Total Charge           Charge          ....    0
 Multiplicity           Mult            ....    1
 Number of Electrons    NEL             ....   70
 Basis Dimension        Dim             ....  380

ORBITAL ENERGIES
----------------

  NO   OCC          E(Eh)            E(eV)
   0   2.0000     -91.997618     -2503.3825
   1   2.0000     -91.997618     -2503.3825
   2   2.0000     -91.930814     -2501.5646
   3   2.0000     -11.376755      -309.5773
   4   2.0000     -11.298496      -307.4477
   5   2.0000     -11.297864      -307.4305
   6   2.0000      -8.997891      -244.8451
   7   2.0000      -8.997880      -244.8448
   8   2.0000      -8.933317      -243.0879
   9   2.0000      -6.678759      -181.7383
  10   2.0000      -6.678757      -181.7382
  11   2.0000      -6.677803      -181.7123
  12   2.0000      -6.677800      -181.7122
  13   2.0000      -6.676945      -181.6889
  14   2.0000      -6.676943      -181.6889
  15   2.0000      -6.614397      -179.9869
  16   2.0000      -6.613143      -179.9528
  17   2.0000      -6.611944      -179.9201
  18   2.0000      -1.175430       -31.9851
  19   2.0000      -1.065838       -29.0029
  20   2.0000      -1.017430       -27.6857
  21   2.0000      -0.928836       -25.2749
  22   2.0000      -0.841155       -22.8890
  23   2.0000      -0.705011       -19.1843
  24   2.0000      -0.681734       -18.5509
  25   2.0000      -0.639771       -17.4090
  26   2.0000      -0.578544       -15.7430
  27   2.0000      -0.566512       -15.4156
  28   2.0000      -0.522796       -14.2260
  29   2.0000      -0.500992       -13.6327
  30   2.0000      -0.500737       -13.6258
  31   2.0000      -0.452569       -12.3150
  32   2.0000      -0.378365       -10.2958
  33   2.0000      -0.341996        -9.3062
  34   2.0000      -0.335472        -9.1287
  35   0.0000       0.020215         0.5501
  36   0.0000       0.033182         0.9029
  37   0.0000       0.035777         0.9735
  38   0.0000       0.048287         1.3140
  39   0.0000       0.049128         1.3368

MULLIKEN ATOMIC CHARGES
-----------------------
   0 H :    0.292729
   1 H :    0.292729
   2 S :   -0.414614
   3 C :    0.366163
   4 S :   -0.147419
   5 S :   -0.147419
   6 H :    0.275885
   7 C :   -0.396970
   8 H :    0.275885
   9 C :   -0.396970
Sum of atomic charges:   -0.0000000

LOEWDIN ATOMIC CHARGES
----------------------
   0 H :   -0.223254
   1 H :   -0.223254
   2 S :    0.716393
   3 C :   -1.747200
   4 S :    1.085627
   5 S :    1.085627
   6 H :   -0.226965
   7 C :   -0.120005
   8 H :   -0.226965
   9 C :   -0.120005

  Mayer bond orders larger than 0.100000
B(  0-H ,  9-C ) :   0.9202 B(  1-H ,  7-C ) :   0.9202 B(  2-S ,  3-C ) :   1.6600
B(  3-C ,  4-S ) :   1.0697 B(  3-C ,  5-S ) :   1.0697 B(  4-S ,  7-C ) :   0.9654
B(  5-S ,  9-C ) :   0.9654 B(  6-H ,  7-C ) :   0.9170 B(  7-C ,  9-C ) :   0.9933
B(  8-H ,  9-C ) :   0.9170

MP2 TOTAL ENERGY:    -1309.635572882 Eh
FINAL SINGLE POINT ENERGY     -1309.635572881708

DIPOLE MOMENT
-------------
                                X             Y             Z
Electronic contribution:     -0.00000      -0.00000       6.94821
Nuclear contribution   :      0.00000       0.00000      -9.14169
                        -----------------------------------------
Total Dipole Moment    :     -0.00000      -0.00000      -2.19348
                        -----------------------------------------
Magnitude (a.u.)       :      2.19348
Magnitude (Debye)      :      5.57539

Rotational constants in cm-1:     0.104708     0.056470     0.037726
Rotational constants in MHz :  3139.057911  1692.917587  1130.998919

                             ****ORCA TERMINATED NORMALLY****
TOTAL RUN TIME: 0 days 0 hours 3 minutes 1 seconds 732 msec
