                         Program Version 5.0.3 -  RELEASE  -
|  1> !ri-mp2 aug-cc-pvtz aug-cc-pvtz/c tightscf
|  2> %pal nprocs 16 end
|  3>
|  4> * xyz 0 1
|  5> C      0.680732    0.592289   -0.291181
|  6> C     -0.721940    0.567772    0.287742
|  7> O      1.404236   -0.594510    0.050668
|  8> O     -1.459811   -0.557597   -0.160898
|  9> H      1.214042    1.489687    0.038901
| 10> H      0.632713    0.600665   -1.379775
| 11> H     -1.271483    1.455526   -0.029664
| 12> H     -0.669565    0.583184    1.385698
| 13> H      1.668590   -0.545996    0.974636
| 14> H     -0.882437   -1.326578   -0.087321
| 15> *
| 16>
| 17>                          ****END OF INPUT****

CARTESIAN COORDINATES (ANGSTROEM)
---------------------------------
  C      0.680732    0.592289   -0.291181
  C     -0.721940    0.567772    0.287742
  O      1.404236   -0.594510    0.050668
  O     -1.459811   -0.557597   -0.160898
  H      1.214042    1.489687    0.038901
  H      0.632713    0.600665   -1.379775
  H     -1.271483    1.455526   -0.029664
  H     -0.669565    0.583184    1.385698
  H      1.668590   -0.545996    0.974636
  H     -0.882437   -1.326578   -0.087321

 Total Charge           Charge          ....    0
 Multiplicity           Mult            ....    1
 Number of Electrons    NEL             ....   34
 Basis Dimension        Dim             ....  322

ORBITAL ENERGIES
----------------

  NO   OCC          E(Eh)            E(eV)
   0   2.0000     -20.572442      -559.8046
   1   2.0000     -20.555458      -559.3424
   2   2.0000     -11.284734      -307.0732
   3   2.0000     -11.279586      -306.9331
   4   2.0000      -1.378575       -37.5129
   5   2.0000      -1.350705       -36.7545
   6   2.0000      -1.004032       -27.3211
   7   2.0000      -0.853475       -23.2242
   8   2.0000      -0.708677       -19.2841
   9   2.0000      -0.688848       -18.7445
  10   2.0000      -0.645057       -17.5529
  11   2.0000      -0.616393       -16.7729
  12   2.0000      -0.574549       -15.6343
  13   2.0000      -0.527103       -14.3432
  14   2.0000      -0.508912       -13.8482
  15   2.0000      -0.472324       -12.8526
  16   2.0000      -0.437298       -11.8995
  17   0.0000       0.025907         0.7050
  18   0.0000       0.037224         1.0129
  19   0.0000       0.042606         1.1594
  20   0.0000       0.044228         1.2035
  21   0.0000       0.062210         1.6928

MULLIKEN ATOMIC CHARGES
-----------------------
   0 C :   -0.247801
   1 C :   -0.214205
   2 O :   -0.575697
   3 O :   -0.601968
   4 H :    0.329924
   5 H :    0.342512
   6 H :    0.351343
   7 H :    0.242433
   8 H :    0.168855
   9 H :    0.204605
Sum of atomic charges:    0.0000000

LOEWDIN ATOMIC CHARGES
----------------------
   0 C :    0.041024
   1 C :    0.020157
   2 O :    0.802475
   3 O :    0.803045
   4 H :   -0.157760
   5 H :   -0.166669
   6 H :   -0.167981
   7 H :   -0.161962
   8 H :   -0.493770
   9 H :   -0.518559

  Mayer bond orders larger than 0.100000
B(  0-C ,  1-C ) :   0.9344 B(  0-C ,  2-O ) :   0.7534 B(  0-C ,  4-H ) :   0.9003
B(  0-C ,  5-H ) :   0.8825 B(  1-C ,  3-O ) :   0.7413 B(  1-C ,  6-H ) :   0.8815
B(  1-C ,  7-H ) :   0.9689 B(  2-O ,  8-H ) :   1.0026 B(  3-O ,  9-H ) :   0.9761

MP2 TOTAL ENERGY:     -229.882169400 Eh
FINAL SINGLE POINT ENERGY      -229.882169400358

DIPOLE MOMENT
-------------
                                X             Y             Z
Electronic contribution:     -0.15526      -1.74057      -0.30517
Nuclear contribution   :      0.71087       2.30275       0.92666
                        -----------------------------------------
Total Dipole Moment    :      0.55561       0.56218       0.62149
                        -----------------------------------------
Magnitude (a.u.)       :      1.00549
Magnitude (Debye)      :      2.55575

Rotational constants in cm-1:     0.509841     0.182653     0.152118
Rotational constants in MHz : 15284.648671  5475.796065  4560.389886

                             ****ORCA TERMINATED NORMALLY****
TOTAL RUN TIME: 0 days 0 hours 1 minutes 28 seconds 672 msec
