                         Program Version 5.0.3 -  RELEASE  -
|  1> !ri-mp2 aug-cc-pvtz aug-cc-pvtz/c tightscf
|  2> %pal nprocs 16 end
|  3>
|  4> * xyz 0 1
|  5> O     -1.090936    0.355540        0.000000
|  6> N     -0.611357   -1.025671        0.000000
|  7> N      0.631549   -0.984727        0.000000
|  8> C      1.095265    0.310964        0.000000
|  9> C      0.000000    1.106756        0.000000
| 10> H      2.142317    0.547367        0.000000
| 11> H     -0.127759    2.174789        0.000000
| 12> *
| 13>
| 14>                          ****END OF INPUT****

CARTESIAN COORDINATES (ANGSTROEM)
---------------------------------
  O     -1.090936    0.355540    0.000000
  N     -0.611357   -1.025671    0.000000
  N      0.631549   -0.984727    0.000000
  C      1.095265    0.310964    0.000000
  C      0.000000    1.106756    0.000000
  H      2.142317    0.547367    0.000000
  H     -0.127759    2.174789    0.000000

 Total Charge           Charge          ....    0
 Multiplicity           Mult            ....    1
 Number of Electrons    NEL             ....   36
 Basis Dimension        Dim             ....  276

ORBITAL ENERGIES
----------------

  NO   OCC          E(Eh)            E(eV)
   0   2.0000     -20.665629      -562.3404
   1   2.0000     -15.700545      -427.2336
   2   2.0000     -15.649073      -425.8329
   3   2.0000     -11.337306      -308.5038
   4   2.0000     -11.280723      -306.9641
   5   2.0000      -1.530063       -41.6351
   6   2.0000      -1.331622       -36.2353
   7   2.0000      -1.104936       -30.0668
   8   2.0000      -0.882999       -24.0276
   9   2.0000      -0.862852       -23.4794
  10   2.0000      -0.760480       -20.6937
  11   2.0000      -0.684771       -18.6336
  12   2.0000      -0.656678       -17.8691
  13   2.0000      -0.600718       -16.3464
  14   2.0000      -0.560790       -15.2599
  15   2.0000      -0.508223       -13.8294
  16   2.0000      -0.477205       -12.9854
  17   2.0000      -0.388994       -10.5851
  18   0.0000       0.023484         0.6390
  19   0.0000       0.035497         0.9659
  20   0.0000       0.070518         1.9189
  21   0.0000       0.071486         1.9452
  22   0.0000       0.087964         2.3936

MULLIKEN ATOMIC CHARGES
-----------------------
   0 O :   -0.288731
   1 N :   -0.161530
   2 N :   -0.168978
   3 C :   -0.333813
   4 C :   -0.277507
   5 H :    0.581691
   6 H :    0.648868
Sum of atomic charges:   -0.0000000

LOEWDIN ATOMIC CHARGES
----------------------
   0 O :    0.403175
   1 N :    0.026035
   2 N :    0.099082
   3 C :   -0.005887
   4 C :   -0.119389
   5 H :   -0.215425
   6 H :   -0.187591

  Mayer bond orders larger than 0.100000
B(  0-O ,  1-N ) :   0.7588 B(  0-O ,  3-C ) :  -0.1020 B(  0-O ,  4-C ) :   1.0976
B(  1-N ,  2-N ) :   1.2229 B(  1-N ,  3-C ) :   0.2029 B(  2-N ,  3-C ) :   0.8635
B(  3-C ,  4-C ) :   1.4860 B(  3-C ,  5-H ) :   0.6535 B(  4-C ,  6-H ) :   0.5713

MP2 TOTAL ENERGY:     -261.629151654 Eh
FINAL SINGLE POINT ENERGY      -261.629151653727

DIPOLE MOMENT
-------------
                                X             Y             Z
Electronic contribution:     -1.28961      -1.37156      -0.00000
Nuclear contribution   :      1.92789       2.62134       0.00000
                        -----------------------------------------
Total Dipole Moment    :      0.63828       1.24978      -0.00000
                        -----------------------------------------
Magnitude (a.u.)       :      1.40334
Magnitude (Debye)      :      3.56701

Rotational constants in cm-1:     0.348754     0.326062     0.168513
Rotational constants in MHz : 10455.383115  9775.092106  5051.899762

                             ****ORCA TERMINATED NORMALLY****
TOTAL RUN TIME: 0 days 0 hours 1 minutes 30 seconds 645 msec
