                         Program Version 5.0.3 -  RELEASE  -
|  1> !ri-mp2 aug-cc-pvtz aug-cc-pvtz/c tightscf
|  2> %pal nprocs 16 end
|  3>
|  4> * xyz 0 1
|  5> C      0.672289   -0.872864        0.000000
|  6> C      0.000000    1.080516        0.000000
|  7> N      1.115151    0.428577        0.000000
|  8> N     -0.618412   -1.018822        0.000000
|  9> O     -1.086341    0.307970        0.000000
| 10> H      1.331150   -1.725351        0.000000
| 11> H     -0.151329    2.147397        0.000000
| 12> *
| 13>
| 14>                          ****END OF INPUT****

CARTESIAN COORDINATES (ANGSTROEM)
---------------------------------
  C      0.672289   -0.872864    0.000000
  C      0.000000    1.080516    0.000000
  N      1.115151    0.428577    0.000000
  N     -0.618412   -1.018822    0.000000
  O     -1.086341    0.307970    0.000000
  H      1.331150   -1.725351    0.000000
  H     -0.151329    2.147397    0.000000

 Total Charge           Charge          ....    0
 Multiplicity           Mult            ....    1
 Number of Electrons    NEL             ....   36
 Basis Dimension        Dim             ....  276

ORBITAL ENERGIES
----------------

  NO   OCC          E(Eh)            E(eV)
   0   2.0000     -20.674236      -562.5745
   1   2.0000     -15.643624      -425.6847
   2   2.0000     -15.590430      -424.2372
   3   2.0000     -11.371464      -309.4333
   4   2.0000     -11.324239      -308.1482
   5   2.0000      -1.534351       -41.7518
   6   2.0000      -1.268627       -34.5211
   7   2.0000      -1.175820       -31.9957
   8   2.0000      -0.879917       -23.9438
   9   2.0000      -0.868739       -23.6396
  10   2.0000      -0.766448       -20.8561
  11   2.0000      -0.691597       -18.8193
  12   2.0000      -0.632517       -17.2117
  13   2.0000      -0.608431       -16.5563
  14   2.0000      -0.536735       -14.6053
  15   2.0000      -0.484843       -13.1933
  16   2.0000      -0.482855       -13.1392
  17   2.0000      -0.421406       -11.4671
  18   0.0000       0.027271         0.7421
  19   0.0000       0.034715         0.9446
  20   0.0000       0.067293         1.8311
  21   0.0000       0.070938         1.9303
  22   0.0000       0.083924         2.2837

MULLIKEN ATOMIC CHARGES
-----------------------
   0 C :   -0.156050
   1 C :   -0.220341
   2 N :   -0.350672
   3 N :   -0.330587
   4 O :   -0.252633
   5 H :    0.630118
   6 H :    0.680165
Sum of atomic charges:   -0.0000000

LOEWDIN ATOMIC CHARGES
----------------------
   0 C :   -0.241606
   1 C :   -0.269797
   2 N :    0.337115
   3 N :    0.155490
   4 O :    0.400343
   5 H :   -0.200470
   6 H :   -0.181074

  Mayer bond orders larger than 0.100000
B(  0-C ,  1-C ) :  -0.1944 B(  0-C ,  2-N ) :   1.0727 B(  0-C ,  3-N ) :   1.4938
B(  0-C ,  5-H ) :   0.5864 B(  1-C ,  2-N ) :   1.5370 B(  1-C ,  4-O ) :   1.2339
B(  1-C ,  6-H ) :   0.5000 B(  3-N ,  4-O ) :   0.6399

MP2 TOTAL ENERGY:     -261.651536595 Eh
FINAL SINGLE POINT ENERGY      -261.651536594963

DIPOLE MOMENT
-------------
                                X             Y             Z
Electronic contribution:     -0.81762       0.06203       0.00000
Nuclear contribution   :      1.12501       0.40868       0.00000
                        -----------------------------------------
Total Dipole Moment    :      0.30738       0.47071       0.00000
                        -----------------------------------------
Magnitude (a.u.)       :      0.56219
Magnitude (Debye)      :      1.42897

Rotational constants in cm-1:     0.346777     0.339103     0.171448
Rotational constants in MHz : 10396.102765 10166.041653  5139.892590

                             ****ORCA TERMINATED NORMALLY****
TOTAL RUN TIME: 0 days 0 hours 1 minutes 25 seconds 707 msec
