                         Program Version 5.0.3 -  RELEASE  -
|  1> !ri-mp2 aug-cc-pvtz aug-cc-pvtz/c tightscf
|  2> %pal nprocs 16 end
|  3>
|  4> * xyz 0 1
|  5> O    -0.027776    1.986911   -0.109462
|  6> N     0.447489    0.699855    0.009592
|  7> N     0.482610   -1.505368    0.002437
|  8> N    -2.871050   -0.377420    0.004695
|  9> C    -0.304395   -0.445800   -0.010178
| 10> C     1.764045    0.350395    0.006510
| 11> C     1.757719   -1.024291    0.007880
| 12> C    -1.719987   -0.424794   -0.008428
| 13> H    -0.325015    2.249084    0.774101
| 14> H     2.543576    1.089605   -0.002664
| 15> H     2.606018   -1.686508    0.012487
| 16> *
| 17>
| 18>                          ****END OF INPUT****

CARTESIAN COORDINATES (ANGSTROEM)
---------------------------------
  O     -0.027776    1.986911   -0.109462
  N      0.447489    0.699855    0.009592
  N      0.482610   -1.505368    0.002437
  N     -2.871050   -0.377420    0.004695
  C     -0.304395   -0.445800   -0.010178
  C      1.764045    0.350395    0.006510
  C      1.757719   -1.024291    0.007880
  C     -1.719987   -0.424794   -0.008428
  H     -0.325015    2.249084    0.774101
  H      2.543576    1.089605   -0.002664
  H      2.606018   -1.686508    0.012487

 Total Charge           Charge          ....    0
 Multiplicity           Mult            ....    1
 Number of Electrons    NEL             ....   56
 Basis Dimension        Dim             ....  437

ORBITAL ENERGIES
----------------

  NO   OCC          E(Eh)            E(eV)
   0   2.0000     -20.674673      -562.5865
   1   2.0000     -15.718959      -427.7346
   2   2.0000     -15.596897      -424.4132
   3   2.0000     -15.593763      -424.3279
   4   2.0000     -11.356019      -309.0130
   5   2.0000     -11.302384      -307.5535
   6   2.0000     -11.297138      -307.4107
   7   2.0000     -11.279563      -306.9325
   8   2.0000      -1.512148       -41.1476
   9   2.0000      -1.352756       -36.8104
  10   2.0000      -1.241212       -33.7751
  11   2.0000      -1.172912       -31.9166
  12   2.0000      -1.068722       -29.0814
  13   2.0000      -0.897903       -24.4332
  14   2.0000      -0.859481       -23.3877
  15   2.0000      -0.832314       -22.6484
  16   2.0000      -0.744047       -20.2465
  17   2.0000      -0.699700       -19.0398
  18   2.0000      -0.658298       -17.9132
  19   2.0000      -0.630770       -17.1641
  20   2.0000      -0.620089       -16.8735
  21   2.0000      -0.580725       -15.8023
  22   2.0000      -0.575808       -15.6685
  23   2.0000      -0.510175       -13.8826
  24   2.0000      -0.493711       -13.4346
  25   2.0000      -0.475260       -12.9325
  26   2.0000      -0.429058       -11.6753
  27   2.0000      -0.351237        -9.5576
  28   0.0000       0.017316         0.4712
  29   0.0000       0.029733         0.8091
  30   0.0000       0.038463         1.0466
  31   0.0000       0.058718         1.5978
  32   0.0000       0.068714         1.8698

MULLIKEN ATOMIC CHARGES
-----------------------
   0 O :   -0.555264
   1 N :    0.730995
   2 N :   -0.529835
   3 N :   -0.744526
   4 C :    0.125534
   5 C :   -0.736412
   6 C :   -0.263199
   7 C :    0.562373
   8 H :    0.235904
   9 H :    0.607098
  10 H :    0.567333
Sum of atomic charges:    0.0000000

LOEWDIN ATOMIC CHARGES
----------------------
   0 O :    0.793803
   1 N :   -0.054621
   2 N :    0.368783
   3 N :    0.276161
   4 C :   -0.497656
   5 C :    0.141872
   6 C :    0.014124
   7 C :   -0.222504
   8 H :   -0.451371
   9 H :   -0.169264
  10 H :   -0.199328

  Mayer bond orders larger than 0.100000
B(  0-O ,  1-N ) :   0.5034 B(  0-O ,  8-H ) :   0.9865 B(  1-N ,  2-N ) :  -0.1574
B(  1-N ,  4-C ) :   1.1916 B(  1-N ,  5-C ) :   1.2667 B(  1-N ,  6-C ) :  -0.2497
B(  1-N ,  7-C ) :  -0.1313 B(  2-N ,  4-C ) :   1.1408 B(  2-N ,  5-C ) :   0.1043
B(  2-N ,  6-C ) :   0.9841 B(  2-N ,  7-C ) :  -0.1604 B(  3-N ,  7-C ) :   2.0532
B(  4-C ,  5-C ) :  -0.1372 B(  4-C ,  7-C ) :   0.7400 B(  5-C ,  6-C ) :   1.3511
B(  5-C ,  9-H ) :   0.6562 B(  6-C , 10-H ) :   0.7336

MP2 TOTAL ENERGY:     -392.940424412 Eh
FINAL SINGLE POINT ENERGY      -392.940424411901

DIPOLE MOMENT
-------------
                                X             Y             Z
Electronic contribution:     -2.99457      -0.40390      -0.19493
Nuclear contribution   :      4.63999       1.61638       0.75421
                        -----------------------------------------
Total Dipole Moment    :      1.64541       1.21248       0.55928
                        -----------------------------------------
Magnitude (a.u.)       :      2.11903
Magnitude (Debye)      :      5.38614

Rotational constants in cm-1:     0.127442     0.068318     0.044658
Rotational constants in MHz :  3820.613769  2048.136224  1338.815406

                             ****ORCA TERMINATED NORMALLY****
TOTAL RUN TIME: 0 days 0 hours 3 minutes 55 seconds 553 msec
