                         Program Version 5.0.3 -  RELEASE  -
|  1> !ri-mp2 aug-cc-pvtz aug-cc-pvtz/c tightscf
|  2> %pal nprocs 16 end
|  3>
|  4> * xyz 0 1
|  5> C     -2.640949   -0.019049    0.026517
|  6> C     -1.209042    0.058303   -0.500284
|  7> C     -0.194938   -0.085420    0.631445
|  8> N      1.205024   -0.003386    0.081039
|  9> O      1.765014   -1.053167   -0.189400
| 10> O      1.672267    1.111046   -0.088501
| 11> H     -2.833745   -0.973366    0.519100
| 12> H     -2.844646    0.776897    0.744558
| 13> H     -3.353672    0.081711   -0.791461
| 14> H     -1.043315    1.011913   -1.003038
| 15> H     -1.035929   -0.731717   -1.232936
| 16> H     -0.270535   -1.051673    1.121825
| 17> H     -0.282005    0.723902    1.351821
| 18> *
| 19>
| 20>                          ****END OF INPUT****

CARTESIAN COORDINATES (ANGSTROEM)
---------------------------------
  C     -2.640949   -0.019049    0.026517
  C     -1.209042    0.058303   -0.500284
  C     -0.194938   -0.085420    0.631445
  N      1.205024   -0.003386    0.081039
  O      1.765014   -1.053167   -0.189400
  O      1.672267    1.111046   -0.088501
  H     -2.833745   -0.973366    0.519100
  H     -2.844646    0.776897    0.744558
  H     -3.353672    0.081711   -0.791461
  H     -1.043315    1.011913   -1.003038
  H     -1.035929   -0.731717   -1.232936
  H     -0.270535   -1.051673    1.121825
  H     -0.282005    0.723902    1.351821

 Total Charge           Charge          ....    0
 Multiplicity           Mult            ....    1
 Number of Electrons    NEL             ....   48
 Basis Dimension        Dim             ....  437

ORBITAL ENERGIES
----------------

  NO   OCC          E(Eh)            E(eV)
   0   2.0000     -20.603176      -560.6409
   1   2.0000     -20.602203      -560.6144
   2   2.0000     -15.844266      -431.1444
   3   2.0000     -11.307298      -307.6872
   4   2.0000     -11.259122      -306.3763
   5   2.0000     -11.242123      -305.9137
   6   2.0000      -1.604614       -43.6638
   7   2.0000      -1.399688       -38.0874
   8   2.0000      -1.131255       -30.7830
   9   2.0000      -1.026226       -27.9250
  10   2.0000      -0.886720       -24.1289
  11   2.0000      -0.835830       -22.7441
  12   2.0000      -0.752027       -20.4637
  13   2.0000      -0.734174       -19.9779
  14   2.0000      -0.711522       -19.3615
  15   2.0000      -0.671082       -18.2611
  16   2.0000      -0.603221       -16.4145
  17   2.0000      -0.587189       -15.9782
  18   2.0000      -0.552292       -15.0286
  19   2.0000      -0.521165       -14.1816
  20   2.0000      -0.514359       -13.9964
  21   2.0000      -0.491332       -13.3698
  22   2.0000      -0.479681       -13.0528
  23   2.0000      -0.452147       -12.3035
  24   0.0000       0.023875         0.6497
  25   0.0000       0.032976         0.8973
  26   0.0000       0.036853         1.0028
  27   0.0000       0.044269         1.2046
  28   0.0000       0.057697         1.5700

MULLIKEN ATOMIC CHARGES
-----------------------
   0 C :   -0.943359
   1 C :   -0.443561
   2 C :   -0.243517
   3 N :    0.889580
   4 O :   -0.691817
   5 O :   -0.697299
   6 H :    0.290160
   7 H :    0.293200
   8 H :    0.280302
   9 H :    0.285791
  10 H :    0.285091
  11 H :    0.349140
  12 H :    0.346289
Sum of atomic charges:    0.0000000

LOEWDIN ATOMIC CHARGES
----------------------
   0 C :    0.589271
   1 C :    0.265945
   2 C :    0.205485
   3 N :   -0.714942
   4 O :    0.378995
   5 O :    0.379163
   6 H :   -0.167304
   7 H :   -0.167143
   8 H :   -0.166916
   9 H :   -0.149413
  10 H :   -0.146126
  11 H :   -0.155769
  12 H :   -0.151246

  Mayer bond orders larger than 0.100000
B(  0-C ,  1-C ) :   0.8835 B(  0-C ,  6-H ) :   0.9316 B(  0-C ,  7-H ) :   0.9287
B(  0-C ,  8-H ) :   0.9641 B(  1-C ,  2-C ) :   0.9133 B(  1-C ,  9-H ) :   0.9282
B(  1-C , 10-H ) :   0.9228 B(  2-C ,  3-N ) :   0.8606 B(  2-C , 11-H ) :   0.8778
B(  2-C , 12-H ) :   0.8772 B(  3-N ,  4-O ) :   1.0998 B(  3-N ,  5-O ) :   1.0878
B(  4-O ,  5-O ) :   0.1706

MP2 TOTAL ENERGY:     -323.096700525 Eh
FINAL SINGLE POINT ENERGY      -323.096700525465

DIPOLE MOMENT
-------------
                                X             Y             Z
Electronic contribution:     10.02291       0.09147      -0.24255
Nuclear contribution   :    -11.73978      -0.16335       0.71431
                        -----------------------------------------
Total Dipole Moment    :     -1.71687      -0.07188       0.47176
                        -----------------------------------------
Magnitude (a.u.)       :      1.78196
Magnitude (Debye)      :      4.52938

Rotational constants in cm-1:     0.290052     0.064628     0.058624
Rotational constants in MHz :  8695.536949  1937.501033  1757.512351

                             ****ORCA TERMINATED NORMALLY****
TOTAL RUN TIME: 0 days 0 hours 2 minutes 51 seconds 418 msec
