                         Program Version 5.0.3 -  RELEASE  -
|  1> !ri-mp2 aug-cc-pvtz aug-cc-pvtz/c tightscf
|  2> %pal nprocs 16 end
|  3>
|  4> * xyz 0 1
|  5> N      1.951229   -0.653592    0.274179
|  6> C     -1.544566   -0.217982   -0.577174
|  7> C      0.599777    1.081360   -0.202261
|  8> H      0.156334    2.041637   -0.396652
|  9> C      1.871547    0.709910    0.140798
| 10> H      2.728958    1.343392    0.292022
| 11> H      0.434363   -2.128670    0.020356
| 12> C      0.743448   -1.095776    0.014974
| 13> N     -0.123330   -0.087560   -0.284887
| 14> H     -1.720891   -1.257639   -0.851818
| 15> H     -1.770847    0.387341   -1.456142
| 16> C     -2.439557    0.181938    0.592297
| 17> H     -2.233726   -0.434183    1.467321
| 18> H     -3.488111    0.054549    0.320622
| 19> H     -2.285276    1.224935    0.867450
| 20> *
| 21>
| 22>                          ****END OF INPUT****

CARTESIAN COORDINATES (ANGSTROEM)
---------------------------------
  N      1.951229   -0.653592    0.274179
  C     -1.544566   -0.217982   -0.577174
  C      0.599777    1.081360   -0.202261
  H      0.156334    2.041637   -0.396652
  C      1.871547    0.709910    0.140798
  H      2.728958    1.343392    0.292022
  H      0.434363   -2.128670    0.020356
  C      0.743448   -1.095776    0.014974
  N     -0.123330   -0.087560   -0.284887
  H     -1.720891   -1.257639   -0.851818
  H     -1.770847    0.387341   -1.456142
  C     -2.439557    0.181938    0.592297
  H     -2.233726   -0.434183    1.467321
  H     -3.488111    0.054549    0.320622
  H     -2.285276    1.224935    0.867450

 Total Charge           Charge          ....    0
 Multiplicity           Mult            ....    1
 Number of Electrons    NEL             ....   52
 Basis Dimension        Dim             ....  506

ORBITAL ENERGIES
----------------

  NO   OCC          E(Eh)            E(eV)
   0   2.0000     -15.617139      -424.9640
   1   2.0000     -15.537924      -422.8084
   2   2.0000     -11.288409      -307.1732
   3   2.0000     -11.287795      -307.1565
   4   2.0000     -11.252424      -306.1940
   5   2.0000     -11.237555      -305.7894
   6   2.0000     -11.235384      -305.7304
   7   2.0000      -1.342041       -36.5188
   8   2.0000      -1.184093       -32.2208
   9   2.0000      -1.040824       -28.3223
  10   2.0000      -0.999201       -27.1896
  11   2.0000      -0.889272       -24.1983
  12   2.0000      -0.804054       -21.8794
  13   2.0000      -0.779556       -21.2128
  14   2.0000      -0.718476       -19.5507
  15   2.0000      -0.646925       -17.6037
  16   2.0000      -0.624397       -16.9907
  17   2.0000      -0.594670       -16.1818
  18   2.0000      -0.590608       -16.0713
  19   2.0000      -0.566974       -15.4281
  20   2.0000      -0.546591       -14.8735
  21   2.0000      -0.532399       -14.4873
  22   2.0000      -0.517736       -14.0883
  23   2.0000      -0.428974       -11.6730
  24   2.0000      -0.380962       -10.3665
  25   2.0000      -0.315210        -8.5773
  26   0.0000       0.023305         0.6342
  27   0.0000       0.033595         0.9142
  28   0.0000       0.036371         0.9897
  29   0.0000       0.039199         1.0667
  30   0.0000       0.048533         1.3206

MULLIKEN ATOMIC CHARGES
-----------------------
   0 N :   -0.742801
   1 C :   -0.424879
   2 C :   -0.986412
   3 H :    0.510740
   4 C :   -0.272467
   5 H :    0.618149
   6 H :    0.613048
   7 C :   -0.440371
   8 N :    0.507001
   9 H :    0.312782
  10 H :    0.274419
  11 C :   -0.854826
  12 H :    0.265448
  13 H :    0.336705
  14 H :    0.283464
Sum of atomic charges:    0.0000000

LOEWDIN ATOMIC CHARGES
----------------------
   0 N :    0.342366
   1 C :    0.200468
   2 C :    0.108696
   3 H :   -0.176328
   4 C :   -0.008261
   5 H :   -0.207281
   6 H :   -0.172171
   7 C :   -0.088074
   8 N :    0.193769
   9 H :   -0.149095
  10 H :   -0.140025
  11 C :    0.601766
  12 H :   -0.165525
  13 H :   -0.170028
  14 H :   -0.170278

  Mayer bond orders larger than 0.100000
B(  0-N ,  2-C ) :   0.1520 B(  0-N ,  4-C ) :   0.8670 B(  0-N ,  7-C ) :   1.2381
B(  0-N ,  8-N ) :  -0.1706 B(  1-C ,  2-C ) :  -0.1114 B(  1-C ,  8-N ) :   0.8732
B(  1-C ,  9-H ) :   0.9071 B(  1-C , 10-H ) :   0.9514 B(  1-C , 11-C ) :   0.9286
B(  2-C ,  3-H ) :   0.8214 B(  2-C ,  4-C ) :   1.5343 B(  2-C ,  8-N ) :   0.9023
B(  4-C ,  5-H ) :   0.6099 B(  4-C ,  7-C ) :  -0.1368 B(  4-C ,  8-N ) :  -0.2105
B(  6-H ,  7-C ) :   0.5739 B(  7-C ,  8-N ) :   1.1803 B( 11-C , 12-H ) :   0.9566
B( 11-C , 13-H ) :   0.8945 B( 11-C , 14-H ) :   0.9450

MP2 TOTAL ENERGY:     -304.241725821 Eh
FINAL SINGLE POINT ENERGY      -304.241725821479

DIPOLE MOMENT
-------------
                                X             Y             Z
Electronic contribution:      6.63863      -0.95288      -0.61732
Nuclear contribution   :     -8.29820       1.24650       0.26727
                        -----------------------------------------
Total Dipole Moment    :     -1.65957       0.29362      -0.35004
                        -----------------------------------------
Magnitude (a.u.)       :      1.72131
Magnitude (Debye)      :      4.37522

Rotational constants in cm-1:     0.231424     0.064898     0.056556
Rotational constants in MHz :  6937.912450  1945.589727  1695.508054

                             ****ORCA TERMINATED NORMALLY****
TOTAL RUN TIME: 0 days 0 hours 4 minutes 47 seconds 667 msec
