                         Program Version 5.0.3 -  RELEASE  -
|  1> !ri-mp2 aug-cc-pvtz aug-cc-pvtz/c tightscf
|  2> %pal nprocs 16 end
|  3> %maxcore 3800
|  4>
|  5> * xyz 0 1
|  6> C    -0.128603     0.754635    1.257237
|  7> C     0.128603    -0.754635    1.257237
|  8> C    -0.128603     0.754635   -1.257237
|  9> C     0.128603    -0.754635   -1.257237
| 10> C     0.420511     1.441390    0.000000
| 11> C    -0.420511    -1.441390    0.000000
| 12> C     0.128603     2.941424    0.000000
| 13> C    -0.128603    -2.941424    0.000000
| 14> H    -1.207697     0.938689    1.316247
| 15> H     0.309333     1.209266    2.149736
| 16> H     1.207697    -0.938689    1.316247
| 17> H    -0.309333    -1.209266    2.149736
| 18> H     0.309333     1.209266   -2.149736
| 19> H    -1.207697     0.938689   -1.316247
| 20> H    -0.309333    -1.209266   -2.149736
| 21> H     1.207697    -0.938689   -1.316247
| 22> H     1.509662     1.308301    0.000000
| 23> H    -1.509662    -1.308301    0.000000
| 24> H     0.549005     3.428483   -0.881999
| 25> H    -0.948008     3.128721    0.000000
| 26> H     0.549005     3.428483    0.881999
| 27> H     0.948008    -3.128721    0.000000
| 28> H    -0.549005    -3.428483    0.881999
| 29> H    -0.549005    -3.428483   -0.881999
| 30> *
| 31>
| 32>                          ****END OF INPUT****

CARTESIAN COORDINATES (ANGSTROEM)
---------------------------------
  C     -0.128603    0.754635    1.257237
  C      0.128603   -0.754635    1.257237
  C     -0.128603    0.754635   -1.257237
  C      0.128603   -0.754635   -1.257237
  C      0.420511    1.441390    0.000000
  C     -0.420511   -1.441390    0.000000
  C      0.128603    2.941424    0.000000
  C     -0.128603   -2.941424    0.000000
  H     -1.207697    0.938689    1.316247
  H      0.309333    1.209266    2.149736
  H      1.207697   -0.938689    1.316247
  H     -0.309333   -1.209266    2.149736
  H      0.309333    1.209266   -2.149736
  H     -1.207697    0.938689   -1.316247
  H     -0.309333   -1.209266   -2.149736
  H      1.207697   -0.938689   -1.316247
  H      1.509662    1.308301    0.000000
  H     -1.509662   -1.308301    0.000000
  H      0.549005    3.428483   -0.881999
  H     -0.948008    3.128721    0.000000
  H      0.549005    3.428483    0.881999
  H      0.948008   -3.128721    0.000000
  H     -0.549005   -3.428483    0.881999
  H     -0.549005   -3.428483   -0.881999

 Total Charge           Charge          ....    0
 Multiplicity           Mult            ....    1
 Number of Electrons    NEL             ....   64
 Basis Dimension        Dim             ....  736

ORBITAL ENERGIES
----------------

  NO   OCC          E(Eh)            E(eV)
   0   2.0000     -11.217925      -305.2553
   1   2.0000     -11.217922      -305.2552
   2   2.0000     -11.210708      -305.0589
   3   2.0000     -11.210670      -305.0578
   4   2.0000     -11.210097      -305.0422
   5   2.0000     -11.210068      -305.0415
   6   2.0000     -11.206612      -304.9474
   7   2.0000     -11.206612      -304.9474
   8   2.0000      -1.122050       -30.5325
   9   2.0000      -1.048645       -28.5351
  10   2.0000      -0.998479       -27.1700
  11   2.0000      -0.953530       -25.9469
  12   2.0000      -0.876866       -23.8607
  13   2.0000      -0.831119       -22.6159
  14   2.0000      -0.779584       -21.2136
  15   2.0000      -0.747773       -20.3479
  16   2.0000      -0.635766       -17.3001
  17   2.0000      -0.602515       -16.3953
  18   2.0000      -0.599115       -16.3027
  19   2.0000      -0.598901       -16.2969
  20   2.0000      -0.582544       -15.8518
  21   2.0000      -0.549842       -14.9620
  22   2.0000      -0.537582       -14.6283
  23   2.0000      -0.519472       -14.1356
  24   2.0000      -0.511424       -13.9165
  25   2.0000      -0.496450       -13.5091
  26   2.0000      -0.480054       -13.0629
  27   2.0000      -0.467189       -12.7128
  28   2.0000      -0.456713       -12.4278
  29   2.0000      -0.445431       -12.1208
  30   2.0000      -0.422345       -11.4926
  31   2.0000      -0.416145       -11.3239
  32   0.0000       0.031351         0.8531
  33   0.0000       0.033296         0.9060
  34   0.0000       0.034997         0.9523
  35   0.0000       0.035377         0.9627
  36   0.0000       0.047242         1.2855

MULLIKEN ATOMIC CHARGES
-----------------------
   0 C :   -0.611467
   1 C :   -0.611467
   2 C :   -0.611466
   3 C :   -0.611467
   4 C :    0.378702
   5 C :    0.378702
   6 C :   -1.171168
   7 C :   -1.171168
   8 H :    0.151017
   9 H :    0.333537
  10 H :    0.151017
  11 H :    0.333537
  12 H :    0.333537
  13 H :    0.151017
  14 H :    0.333537
  15 H :    0.151017
  16 H :    0.352514
  17 H :    0.352514
  18 H :    0.228375
  19 H :    0.237026
  20 H :    0.228375
  21 H :    0.237026
  22 H :    0.228375
  23 H :    0.228375
Sum of atomic charges:    0.0000000

LOEWDIN ATOMIC CHARGES
----------------------
   0 C :    0.300896
   1 C :    0.300896
   2 C :    0.300896
   3 C :    0.300896
   4 C :   -0.033515
   5 C :   -0.033515
   6 C :    0.591369
   7 C :    0.591369
   8 H :   -0.134782
   9 H :   -0.137267
  10 H :   -0.134782
  11 H :   -0.137267
  12 H :   -0.137267
  13 H :   -0.134782
  14 H :   -0.137267
  15 H :   -0.134782
  16 H :   -0.124700
  17 H :   -0.124700
  18 H :   -0.164543
  19 H :   -0.161762
  20 H :   -0.164543
  21 H :   -0.161762
  22 H :   -0.164543
  23 H :   -0.164543

  Mayer bond orders larger than 0.100000
B(  0-C ,  1-C ) :   0.9791 B(  0-C ,  2-C ) :   0.1548 B(  0-C ,  4-C ) :   0.7997
B(  0-C ,  8-H ) :   1.0675 B(  0-C ,  9-H ) :   0.8930 B(  1-C ,  3-C ) :   0.1548
B(  1-C ,  5-C ) :   0.7997 B(  1-C , 10-H ) :   1.0675 B(  1-C , 11-H ) :   0.8930
B(  2-C ,  3-C ) :   0.9791 B(  2-C ,  4-C ) :   0.7997 B(  2-C , 12-H ) :   0.8930
B(  2-C , 13-H ) :   1.0675 B(  3-C ,  5-C ) :   0.7997 B(  3-C , 14-H ) :   0.8930
B(  3-C , 15-H ) :   1.0675 B(  4-C ,  6-C ) :   0.6026 B(  4-C , 16-H ) :   0.8601
B(  5-C ,  7-C ) :   0.6026 B(  5-C , 17-H ) :   0.8601 B(  6-C , 18-H ) :   1.0466
B(  6-C , 19-H ) :   1.0420 B(  6-C , 20-H ) :   1.0466 B(  7-C , 21-H ) :   1.0420
B(  7-C , 22-H ) :   1.0466 B(  7-C , 23-H ) :   1.0466

MP2 TOTAL ENERGY:     -313.803907451 Eh
FINAL SINGLE POINT ENERGY      -313.803907451065

DIPOLE MOMENT
-------------
                                X             Y             Z
Electronic contribution:      0.00000      -0.00000      -0.00000
Nuclear contribution   :      0.00000       0.00000       0.00000
                        -----------------------------------------
Total Dipole Moment    :      0.00000      -0.00000      -0.00000
                        -----------------------------------------
Magnitude (a.u.)       :      0.00000
Magnitude (Debye)      :      0.00000

Rotational constants in cm-1:     0.137400     0.043847     0.035779
Rotational constants in MHz :  4119.136534  1314.511380  1072.621317

                             ****ORCA TERMINATED NORMALLY****
TOTAL RUN TIME: 0 days 0 hours 15 minutes 18 seconds 129 msec
