                         Program Version 5.0.3 -  RELEASE  -
|  1> !ri-mp2 aug-cc-pvtz aug-cc-pvtz/c tightscf
|  2> %pal nprocs 16 end
|  3>
|  4> * xyz 0 1
|  5> S     -2.085780   -0.900716    0.006105
|  6> O      2.215947   -1.569659    0.000507
|  7> N      0.569237   -0.210430    0.014654
|  8> N     -0.824348    1.471103   -0.076104
|  9> N      1.006426   -1.480170    0.031513
| 10> C     -0.797846    0.120492   -0.016313
| 11> C      1.454352    0.955921   -0.068349
| 12> C      0.468196    2.125120    0.088754
| 13> H     -1.707844    1.945974   -0.009085
| 14> H      1.968507    0.956565   -1.029568
| 15> H      2.206495    0.910570    0.715423
| 16> H      0.550123    2.589299    1.074075
| 17> H      0.620197    2.893610   -0.667587
| 18> *
| 19>
| 20>                          ****END OF INPUT****

CARTESIAN COORDINATES (ANGSTROEM)
---------------------------------
  S     -2.085780   -0.900716    0.006105
  O      2.215947   -1.569659    0.000507
  N      0.569237   -0.210430    0.014654
  N     -0.824348    1.471103   -0.076104
  N      1.006426   -1.480170    0.031513
  C     -0.797846    0.120492   -0.016313
  C      1.454352    0.955921   -0.068349
  C      0.468196    2.125120    0.088754
  H     -1.707844    1.945974   -0.009085
  H      1.968507    0.956565   -1.029568
  H      2.206495    0.910570    0.715423
  H      0.550123    2.589299    1.074075
  H      0.620197    2.893610   -0.667587

 Total Charge           Charge          ....    0
 Multiplicity           Mult            ....    1
 Number of Electrons    NEL             ....   68
 Basis Dimension        Dim             ....  487

ORBITAL ENERGIES
----------------

  NO   OCC          E(Eh)            E(eV)
   0   2.0000     -91.910061     -2500.9999
   1   2.0000     -20.620122      -561.1020
   2   2.0000     -15.754557      -428.7033
   3   2.0000     -15.667205      -426.3263
   4   2.0000     -15.627292      -425.2402
   5   2.0000     -11.400568      -310.2252
   6   2.0000     -11.315666      -307.9149
   7   2.0000     -11.312355      -307.8248
   8   2.0000      -8.913384      -242.5455
   9   2.0000      -6.594931      -179.4572
  10   2.0000      -6.592982      -179.4042
  11   2.0000      -6.592224      -179.3835
  12   2.0000      -1.548189       -42.1284
  13   2.0000      -1.372299       -37.3421
  14   2.0000      -1.253982       -34.1226
  15   2.0000      -1.096472       -29.8365
  16   2.0000      -1.022692       -27.8289
  17   2.0000      -0.947533       -25.7837
  18   2.0000      -0.899195       -24.4683
  19   2.0000      -0.806906       -21.9570
  20   2.0000      -0.732370       -19.9288
  21   2.0000      -0.730082       -19.8665
  22   2.0000      -0.719054       -19.5665
  23   2.0000      -0.675422       -18.3792
  24   2.0000      -0.648746       -17.6533
  25   2.0000      -0.621546       -16.9131
  26   2.0000      -0.585007       -15.9189
  27   2.0000      -0.573053       -15.5936
  28   2.0000      -0.544243       -14.8096
  29   2.0000      -0.533137       -14.5074
  30   2.0000      -0.444900       -12.1063
  31   2.0000      -0.421384       -11.4664
  32   2.0000      -0.343952        -9.3594
  33   2.0000      -0.339320        -9.2334
  34   0.0000       0.015536         0.4228
  35   0.0000       0.030757         0.8369
  36   0.0000       0.032022         0.8714
  37   0.0000       0.044723         1.2170
  38   0.0000       0.054293         1.4774

MULLIKEN ATOMIC CHARGES
-----------------------
   0 S :   -0.514467
   1 O :   -0.491208
   2 N :    0.934666
   3 N :   -0.105408
   4 N :   -0.370924
   5 C :   -0.120832
   6 C :   -0.376924
   7 C :   -0.299804
   8 H :    0.104152
   9 H :    0.297055
  10 H :    0.353013
  11 H :    0.281664
  12 H :    0.309017
Sum of atomic charges:    0.0000000

LOEWDIN ATOMIC CHARGES
----------------------
   0 S :    0.871810
   1 O :    0.273241
   2 N :   -0.018529
   3 N :    0.487108
   4 N :   -0.130902
   5 C :   -1.080104
   6 C :    0.207040
   7 C :    0.241749
   8 H :   -0.281988
   9 H :   -0.139639
  10 H :   -0.150898
  11 H :   -0.138188
  12 H :   -0.140701

  Mayer bond orders larger than 0.100000
B(  0-S ,  2-N ) :  -0.1219 B(  0-S ,  5-C ) :   1.6794 B(  1-O ,  2-N ) :   0.1197
B(  1-O ,  4-N ) :   1.2676 B(  2-N ,  3-N ) :  -0.1977 B(  2-N ,  4-N ) :   0.2656
B(  2-N ,  5-C ) :   0.9302 B(  2-N ,  6-C ) :   0.6958 B(  3-N ,  5-C ) :   1.2032
B(  3-N ,  7-C ) :   0.7098 B(  3-N ,  8-H ) :   1.0669 B(  4-N ,  5-C ) :  -0.1168
B(  4-N ,  6-C ) :  -0.1167 B(  6-C ,  7-C ) :   1.0279 B(  6-C ,  9-H ) :   0.9554
B(  6-C , 10-H ) :   0.9087 B(  7-C , 11-H ) :   0.9458 B(  7-C , 12-H ) :   0.9248

MP2 TOTAL ENERGY:     -753.831943105 Eh
FINAL SINGLE POINT ENERGY      -753.831943104595

DIPOLE MOMENT
-------------
                                X             Y             Z
Electronic contribution:     -2.88964      -6.47683      -0.03021
Nuclear contribution   :      3.64294       9.05362       0.08073
                        -----------------------------------------
Total Dipole Moment    :      0.75330       2.57680       0.05051
                        -----------------------------------------
Magnitude (a.u.)       :      2.68512
Magnitude (Debye)      :      6.82504

Rotational constants in cm-1:     0.078106     0.056580     0.033258
Rotational constants in MHz :  2341.567734  1696.237308   997.050711

                             ****ORCA TERMINATED NORMALLY****
TOTAL RUN TIME: 0 days 0 hours 5 minutes 31 seconds 978 msec
