                         Program Version 5.0.3 -  RELEASE  -
|  1> !ri-mp2 aug-cc-pvtz aug-cc-pvtz/c tightscf
|  2> %pal nprocs 16 end
|  3>
|  4> * xyz 0 1
|  5> C      0.000000    0.000000   -2.055605
|  6> C      0.000000    1.208669   -1.369465
|  7> C      0.000000    1.195102    0.013528
|  8> C      0.000000    0.000000    0.720519
|  9> C      0.000000   -1.195102    0.013528
| 10> C      0.000000   -1.208669   -1.369465
| 11> F      0.000000   -2.344755    0.704591
| 12> F      0.000000    0.000000    2.056059
| 13> F      0.000000    2.344755    0.704591
| 14> H      0.000000    0.000000   -3.135818
| 15> H      0.000000    2.157806   -1.884800
| 16> H      0.000000   -2.157806   -1.884800
| 17> *
| 18>
| 19>                          ****END OF INPUT****

CARTESIAN COORDINATES (ANGSTROEM)
---------------------------------
  C      0.000000    0.000000   -2.055605
  C      0.000000    1.208669   -1.369465
  C      0.000000    1.195102    0.013528
  C      0.000000    0.000000    0.720519
  C      0.000000   -1.195102    0.013528
  C      0.000000   -1.208669   -1.369465
  F      0.000000   -2.344755    0.704591
  F      0.000000    0.000000    2.056059
  F      0.000000    2.344755    0.704591
  H      0.000000    0.000000   -3.135818
  H      0.000000    2.157806   -1.884800
  H      0.000000   -2.157806   -1.884800

 Total Charge           Charge          ....    0
 Multiplicity           Mult            ....    1
 Number of Electrons    NEL             ....   66
 Basis Dimension        Dim             ....  483

ORBITAL ENERGIES
----------------

  NO   OCC          E(Eh)            E(eV)
   0   2.0000     -26.334432      -716.5963
   1   2.0000     -26.332900      -716.5546
   2   2.0000     -26.332900      -716.5546
   3   2.0000     -11.357348      -309.0492
   4   2.0000     -11.357155      -309.0439
   5   2.0000     -11.353303      -308.9391
   6   2.0000     -11.272330      -306.7357
   7   2.0000     -11.265432      -306.5480
   8   2.0000     -11.265306      -306.5446
   9   2.0000      -1.661012       -45.1984
  10   2.0000      -1.649929       -44.8969
  11   2.0000      -1.641144       -44.6578
  12   2.0000      -1.194887       -32.5145
  13   2.0000      -1.054896       -28.7052
  14   2.0000      -1.054839       -28.7036
  15   2.0000      -0.895637       -24.3715
  16   2.0000      -0.888397       -24.1745
  17   2.0000      -0.793514       -21.5926
  18   2.0000      -0.778892       -21.1947
  19   2.0000      -0.768775       -20.9194
  20   2.0000      -0.737087       -20.0572
  21   2.0000      -0.712041       -19.3756
  22   2.0000      -0.707292       -19.2464
  23   2.0000      -0.698422       -19.0050
  24   2.0000      -0.685507       -18.6536
  25   2.0000      -0.674405       -18.3515
  26   2.0000      -0.669810       -18.2265
  27   2.0000      -0.601697       -16.3730
  28   2.0000      -0.561489       -15.2789
  29   2.0000      -0.561325       -15.2744
  30   2.0000      -0.527158       -14.3447
  31   2.0000      -0.366432        -9.9711
  32   2.0000      -0.365050        -9.9335
  33   0.0000       0.024080         0.6553
  34   0.0000       0.033317         0.9066
  35   0.0000       0.041173         1.1204
  36   0.0000       0.066120         1.7992
  37   0.0000       0.073861         2.0099

MULLIKEN ATOMIC CHARGES
-----------------------
   0 C :   -0.337909
   1 C :   -0.734826
   2 C :    0.653997
   3 C :    0.360711
   4 C :    0.653997
   5 C :   -0.734826
   6 F :   -0.459094
   7 F :   -0.432268
   8 F :   -0.459094
   9 H :    0.556346
  10 H :    0.466483
  11 H :    0.466483
Sum of atomic charges:   -0.0000000

LOEWDIN ATOMIC CHARGES
----------------------
   0 C :    0.182786
   1 C :    0.190901
   2 C :   -0.522988
   3 C :   -0.519916
   4 C :   -0.522988
   5 C :    0.190901
   6 F :    0.512812
   7 F :    0.518379
   8 F :    0.512812
   9 H :   -0.179680
  10 H :   -0.181509
  11 H :   -0.181509

  Mayer bond orders larger than 0.100000
B(  0-C ,  1-C ) :   1.2026 B(  0-C ,  2-C ) :  -0.1963 B(  0-C ,  4-C ) :  -0.1963
B(  0-C ,  5-C ) :   1.2026 B(  0-C ,  9-H ) :   0.6483 B(  1-C ,  2-C ) :   1.1565
B(  1-C ,  3-C ) :   0.1125 B(  1-C ,  8-F ) :   0.1241 B(  1-C , 10-H ) :   0.6395
B(  2-C ,  3-C ) :   1.2596 B(  2-C ,  7-F ) :   0.1212 B(  2-C ,  8-F ) :   0.4683
B(  2-C , 10-H ) :  -0.1055 B(  3-C ,  4-C ) :   1.2596 B(  3-C ,  5-C ) :   0.1125
B(  3-C ,  7-F ) :   0.3464 B(  4-C ,  5-C ) :   1.1565 B(  4-C ,  6-F ) :   0.4683
B(  4-C ,  7-F ) :   0.1212 B(  4-C , 11-H ) :  -0.1055 B(  5-C ,  6-F ) :   0.1241
B(  5-C , 11-H ) :   0.6395 B(  6-F , 11-H ) :   0.1263 B(  8-F , 10-H ) :   0.1263

MP2 TOTAL ENERGY:     -529.143251237 Eh
FINAL SINGLE POINT ENERGY      -529.143251237172

DIPOLE MOMENT
-------------
                                X             Y             Z
Electronic contribution:     -0.00000       0.00000       8.33593
Nuclear contribution   :      0.00000       0.00000      -9.69188
                        -----------------------------------------
Total Dipole Moment    :     -0.00000       0.00000      -1.35594
                        -----------------------------------------
Magnitude (a.u.)       :      1.35594
Magnitude (Debye)      :      3.44654

Rotational constants in cm-1:     0.077508     0.058597     0.033369
Rotational constants in MHz :  2323.635132  1756.697837  1000.390126

                             ****ORCA TERMINATED NORMALLY****
TOTAL RUN TIME: 0 days 0 hours 4 minutes 17 seconds 596 msec
