                         Program Version 5.0.3 -  RELEASE  -
|  1> !ri-mp2 aug-cc-pvtz aug-cc-pvtz/c tightscf
|  2> %pal nprocs 16 end
|  3>
|  4> * xyz 0 1
|  5> C     0.566910   -0.338873    0.000000
|  6> C    -0.170872    1.010509    0.000000
|  7> H     1.633086   -0.144099    0.000000
|  8> Cl    0.182082   -1.256529    1.476575
|  9> Cl    0.182082   -1.256529   -1.476575
| 10> F    -1.497512    0.873510    0.000000
| 11> F     0.182082    1.720816    1.083344
| 12> F     0.182082    1.720816   -1.083344
| 13> *
| 14>
| 15>                          ****END OF INPUT****

CARTESIAN COORDINATES (ANGSTROEM)
---------------------------------
  C      0.566910   -0.338873    0.000000
  C     -0.170872    1.010509    0.000000
  H      1.633086   -0.144099    0.000000
  Cl     0.182082   -1.256529    1.476575
  Cl     0.182082   -1.256529   -1.476575
  F     -1.497512    0.873510    0.000000
  F      0.182082    1.720816    1.083344
  F      0.182082    1.720816   -1.083344

 Total Charge           Charge          ....    0
 Multiplicity           Mult            ....    1
 Number of Electrons    NEL             ....   74
 Basis Dimension        Dim             ....  353

ORBITAL ENERGIES
----------------

  NO   OCC          E(Eh)            E(eV)
   0   2.0000    -104.874457     -2853.7791
   1   2.0000    -104.874457     -2853.7791
   2   2.0000     -26.361500      -717.3329
   3   2.0000     -26.361484      -717.3324
   4   2.0000     -26.361438      -717.3312
   5   2.0000     -11.541133      -314.0502
   6   2.0000     -11.408260      -310.4345
   7   2.0000     -10.598315      -288.3948
   8   2.0000     -10.598308      -288.3946
   9   2.0000      -8.065148      -219.4638
  10   2.0000      -8.065147      -219.4638
  11   2.0000      -8.063036      -219.4064
  12   2.0000      -8.063036      -219.4064
  13   2.0000      -8.062974      -219.4047
  14   2.0000      -8.062974      -219.4047
  15   2.0000      -1.752318       -47.6830
  16   2.0000      -1.658136       -45.1202
  17   2.0000      -1.656323       -45.0708
  18   2.0000      -1.227742       -33.4086
  19   2.0000      -1.120398       -30.4876
  20   2.0000      -1.031471       -28.0678
  21   2.0000      -0.919446       -25.0194
  22   2.0000      -0.848497       -23.0888
  23   2.0000      -0.844526       -22.9807
  24   2.0000      -0.801646       -21.8139
  25   2.0000      -0.733687       -19.9646
  26   2.0000      -0.731416       -19.9028
  27   2.0000      -0.690746       -18.7961
  28   2.0000      -0.686419       -18.6784
  29   2.0000      -0.670448       -18.2438
  30   2.0000      -0.656107       -17.8536
  31   2.0000      -0.616212       -16.7680
  32   2.0000      -0.605129       -16.4664
  33   2.0000      -0.498053       -13.5527
  34   2.0000      -0.494792       -13.4640
  35   2.0000      -0.474111       -12.9012
  36   2.0000      -0.468393       -12.7456
  37   0.0000       0.031180         0.8484
  38   0.0000       0.060207         1.6383
  39   0.0000       0.064637         1.7589
  40   0.0000       0.065883         1.7928
  41   0.0000       0.092482         2.5166

MULLIKEN ATOMIC CHARGES
-----------------------
   0 C :    0.065666
   1 C :    1.296428
   2 H :    0.275684
   3 Cl:   -0.262364
   4 Cl:   -0.262364
   5 F :   -0.366260
   6 F :   -0.373395
   7 F :   -0.373395
Sum of atomic charges:    0.0000000

LOEWDIN ATOMIC CHARGES
----------------------
   0 C :   -1.241212
   1 C :   -1.696111
   2 H :   -0.338340
   3 Cl:    0.903877
   4 Cl:    0.903877
   5 F :    0.491589
   6 F :    0.488160
   7 F :    0.488160

  Mayer bond orders larger than 0.100000
B(  0-C ,  1-C ) :   0.9479 B(  0-C ,  2-H ) :   0.9018 B(  0-C ,  3-Cl) :   0.8691
B(  0-C ,  4-Cl) :   0.8691 B(  1-C ,  5-F ) :   0.8097 B(  1-C ,  6-F ) :   0.8007
B(  1-C ,  7-F ) :   0.8007

MP2 TOTAL ENERGY:    -1295.304470281 Eh
FINAL SINGLE POINT ENERGY     -1295.304470280619

DIPOLE MOMENT
-------------
                                X             Y             Z
Electronic contribution:     -1.45879       0.56627      -0.00000
Nuclear contribution   :      2.02779      -0.73644       0.00000
                        -----------------------------------------
Total Dipole Moment    :      0.56901      -0.17017      -0.00000
                        -----------------------------------------
Magnitude (a.u.)       :      0.59391
Magnitude (Debye)      :      1.50959

Rotational constants in cm-1:     0.068331     0.055144     0.036858
Rotational constants in MHz :  2048.498705  1653.171459  1104.964849

                             ****ORCA TERMINATED NORMALLY****
TOTAL RUN TIME: 0 days 0 hours 1 minutes 44 seconds 114 msec
