                         Program Version 5.0.3 -  RELEASE  -
|  1> !ri-mp2 aug-cc-pvtz aug-cc-pvtz/c tightscf
|  2> %pal nprocs 16 end
|  3>
|  4> * xyz 0 1
|  5> O     0.313702   -1.614925   -0.926768
|  6> N     1.171613   -1.268187    0.163198
|  7> N     1.427390    2.027391   -0.681155
|  8> N    -2.527750    0.403730   -0.742264
|  9> C     0.711444   -0.025519    0.777150
| 10> C    -0.791840    0.053445    1.169705
| 11> C     1.112029    1.119852   -0.051970
| 12> C    -1.739571    0.231309    0.075617
| 13> H     0.885285   -1.552765   -1.700527
| 14> H     1.045190   -2.024365    0.828812
| 15> H     1.278390    0.046227    1.709846
| 16> H    -1.048671   -0.855680    1.716626
| 17> H    -0.920956    0.890916    1.857922
| 18> *
| 19>
| 20>                          ****END OF INPUT****

CARTESIAN COORDINATES (ANGSTROEM)
---------------------------------
  O      0.313702   -1.614925   -0.926768
  N      1.171613   -1.268187    0.163198
  N      1.427390    2.027391   -0.681155
  N     -2.527750    0.403730   -0.742264
  C      0.711444   -0.025519    0.777150
  C     -0.791840    0.053445    1.169705
  C      1.112029    1.119852   -0.051970
  C     -1.739571    0.231309    0.075617
  H      0.885285   -1.552765   -1.700527
  H      1.045190   -2.024365    0.828812
  H      1.278390    0.046227    1.709846
  H     -1.048671   -0.855680    1.716626
  H     -0.920956    0.890916    1.857922

 Total Charge           Charge          ....    0
 Multiplicity           Mult            ....    1
 Number of Electrons    NEL             ....   58
 Basis Dimension        Dim             ....  483

ORBITAL ENERGIES
----------------

  NO   OCC          E(Eh)            E(eV)
   0   2.0000     -20.622986      -561.1800
   1   2.0000     -15.657486      -426.0619
   2   2.0000     -15.590986      -424.2523
   3   2.0000     -15.576692      -423.8633
   4   2.0000     -11.356936      -309.0379
   5   2.0000     -11.317448      -307.9634
   6   2.0000     -11.289553      -307.2043
   7   2.0000     -11.281709      -306.9909
   8   2.0000      -1.442757       -39.2594
   9   2.0000      -1.248031       -33.9607
  10   2.0000      -1.229760       -33.4635
  11   2.0000      -1.191653       -32.4265
  12   2.0000      -1.077138       -29.3104
  13   2.0000      -0.959631       -26.1129
  14   2.0000      -0.779597       -21.2139
  15   2.0000      -0.732384       -19.9292
  16   2.0000      -0.728435       -19.8217
  17   2.0000      -0.691002       -18.8031
  18   2.0000      -0.647463       -17.6184
  19   2.0000      -0.641956       -17.4685
  20   2.0000      -0.613785       -16.7019
  21   2.0000      -0.573420       -15.6035
  22   2.0000      -0.560280       -15.2460
  23   2.0000      -0.526034       -14.3141
  24   2.0000      -0.492858       -13.4113
  25   2.0000      -0.483860       -13.1665
  26   2.0000      -0.481629       -13.1058
  27   2.0000      -0.470065       -12.7911
  28   2.0000      -0.439400       -11.9567
  29   0.0000       0.011998         0.3265
  30   0.0000       0.030662         0.8343
  31   0.0000       0.034140         0.9290
  32   0.0000       0.040188         1.0936
  33   0.0000       0.054612         1.4861

MULLIKEN ATOMIC CHARGES
-----------------------
   0 O :   -0.423730
   1 N :   -0.318434
   2 N :   -0.679523
   3 N :   -0.651105
   4 C :    0.604054
   5 C :   -0.194082
   6 C :    0.112853
   7 C :    0.277623
   8 H :    0.189339
   9 H :    0.095489
  10 H :    0.397386
  11 H :    0.304522
  12 H :    0.285607
Sum of atomic charges:   -0.0000000

LOEWDIN ATOMIC CHARGES
----------------------
   0 O :    0.731327
   1 N :    0.357904
   2 N :    0.291348
   3 N :    0.279646
   4 C :   -0.200412
   5 C :    0.249450
   6 C :   -0.211517
   7 C :   -0.224679
   8 H :   -0.491999
   9 H :   -0.325705
  10 H :   -0.149555
  11 H :   -0.152544
  12 H :   -0.153263

  Mayer bond orders larger than 0.100000
B(  0-O ,  1-N ) :   0.8236 B(  0-O ,  4-C ) :  -0.1066 B(  0-O ,  8-H ) :   1.0222
B(  1-N ,  4-C ) :   0.6590 B(  1-N ,  6-C ) :   0.1314 B(  1-N ,  9-H ) :   0.9422
B(  2-N ,  6-C ) :   2.1770 B(  3-N ,  7-C ) :   2.1409 B(  4-C ,  5-C ) :   0.8976
B(  4-C ,  6-C ) :   0.7300 B(  4-C ,  7-C ) :   0.1394 B(  4-C , 10-H ) :   0.8879
B(  5-C ,  6-C ) :   0.1462 B(  5-C ,  7-C ) :   0.9559 B(  5-C , 11-H ) :   0.9010
B(  5-C , 12-H ) :   0.9172

MP2 TOTAL ENERGY:     -394.127474256 Eh
FINAL SINGLE POINT ENERGY      -394.127474256330

DIPOLE MOMENT
-------------
                                X             Y             Z
Electronic contribution:     -0.40950       2.07871      -2.30165
Nuclear contribution   :      1.22023      -3.44548       4.30469
                        -----------------------------------------
Total Dipole Moment    :      0.81073      -1.36677       2.00304
                        -----------------------------------------
Magnitude (a.u.)       :      2.55685
Magnitude (Debye)      :      6.49901

Rotational constants in cm-1:     0.079296     0.061467     0.047217
Rotational constants in MHz :  2377.236481  1842.723854  1415.530535

                             ****ORCA TERMINATED NORMALLY****
TOTAL RUN TIME: 0 days 0 hours 4 minutes 32 seconds 99 msec
