                         Program Version 5.0.3 -  RELEASE  -
|  1> !ri-mp2 aug-cc-pvtz aug-cc-pvtz/c tightscf
|  2> %pal nprocs 16 end
|  3>
|  4> * xyz 0 1
|  5> Cl     0.551587    1.629115    0.087511
|  6> Cl    -2.244644   -0.339481   -0.083117
|  7> N      2.790232   -1.254867    0.059102
|  8> C      0.482758   -0.120609   -0.375006
|  9> C     -0.599970   -0.872040    0.395411
| 10> C      1.784559   -0.732929   -0.133991
| 11> H      0.269104   -0.138557   -1.441420
| 12> H     -0.528062   -1.933131    0.170399
| 13> H     -0.494775   -0.714549    1.464113
| 14> *
| 15>
| 16>                          ****END OF INPUT****

CARTESIAN COORDINATES (ANGSTROEM)
---------------------------------
  Cl     0.551587    1.629115    0.087511
  Cl    -2.244644   -0.339481   -0.083117
  N      2.790232   -1.254867    0.059102
  C      0.482758   -0.120609   -0.375006
  C     -0.599970   -0.872040    0.395411
  C      1.784559   -0.732929   -0.133991
  H      0.269104   -0.138557   -1.441420
  H     -0.528062   -1.933131    0.170399
  H     -0.494775   -0.714549    1.464113

 Total Charge           Charge          ....    0
 Multiplicity           Mult            ....    1
 Number of Electrons    NEL             ....   62
 Basis Dimension        Dim             ....  353

ORBITAL ENERGIES
----------------

  NO   OCC          E(Eh)            E(eV)
   0   2.0000    -104.866932     -2853.5743
   1   2.0000    -104.856926     -2853.3020
   2   2.0000     -15.603572      -424.5948
   3   2.0000     -11.379545      -309.6532
   4   2.0000     -11.342703      -308.6506
   5   2.0000     -11.303465      -307.5829
   6   2.0000     -10.590584      -288.1844
   7   2.0000     -10.580848      -287.9195
   8   2.0000      -8.057374      -219.2523
   9   2.0000      -8.055327      -219.1966
  10   2.0000      -8.055304      -219.1960
  11   2.0000      -8.047683      -218.9886
  12   2.0000      -8.045794      -218.9372
  13   2.0000      -8.045734      -218.9356
  14   2.0000      -1.259328       -34.2680
  15   2.0000      -1.203326       -32.7442
  16   2.0000      -1.140644       -31.0385
  17   2.0000      -1.033318       -28.1180
  18   2.0000      -0.906590       -24.6696
  19   2.0000      -0.755739       -20.5647
  20   2.0000      -0.696814       -18.9613
  21   2.0000      -0.647339       -17.6150
  22   2.0000      -0.596852       -16.2412
  23   2.0000      -0.590902       -16.0793
  24   2.0000      -0.567226       -15.4350
  25   2.0000      -0.501987       -13.6597
  26   2.0000      -0.498709       -13.5706
  27   2.0000      -0.482050       -13.1173
  28   2.0000      -0.474936       -12.9237
  29   2.0000      -0.464463       -12.6387
  30   2.0000      -0.460848       -12.5403
  31   0.0000       0.027162         0.7391
  32   0.0000       0.035905         0.9770
  33   0.0000       0.043870         1.1938
  34   0.0000       0.059681         1.6240
  35   0.0000       0.067698         1.8422

MULLIKEN ATOMIC CHARGES
-----------------------
   0 Cl:   -0.288959
   1 Cl:   -0.297169
   2 N :   -0.537016
   3 C :    0.333691
   4 C :   -0.320306
   5 C :    0.227980
   6 H :    0.299467
   7 H :    0.282119
   8 H :    0.300193
Sum of atomic charges:    0.0000000

LOEWDIN ATOMIC CHARGES
----------------------
   0 Cl:    0.945659
   1 Cl:    0.913388
   2 N :    0.277042
   3 C :   -0.709218
   4 C :   -0.366504
   5 C :   -0.322784
   6 H :   -0.253953
   7 H :   -0.238758
   8 H :   -0.244872

  Mayer bond orders larger than 0.100000
B(  0-Cl,  3-C ) :   0.8117 B(  1-Cl,  4-C ) :   0.8525 B(  2-N ,  5-C ) :   2.3364
B(  3-C ,  4-C ) :   0.9307 B(  3-C ,  5-C ) :   0.8846 B(  3-C ,  6-H ) :   0.9115
B(  4-C ,  5-C ) :   0.1291 B(  4-C ,  7-H ) :   0.9091 B(  4-C ,  8-H ) :   0.9265

MP2 TOTAL ENERGY:    -1089.951936823 Eh
FINAL SINGLE POINT ENERGY     -1089.951936822670

DIPOLE MOMENT
-------------
                                X             Y             Z
Electronic contribution:     -2.32031       4.14957      -0.33935
Nuclear contribution   :      1.58250      -4.35689       0.17579
                        -----------------------------------------
Total Dipole Moment    :     -0.73781      -0.20732      -0.16357
                        -----------------------------------------
Magnitude (a.u.)       :      0.78364
Magnitude (Debye)      :      1.99187

Rotational constants in cm-1:     0.113333     0.047750     0.034789
Rotational constants in MHz :  3397.634151  1431.512787  1042.958568

                             ****ORCA TERMINATED NORMALLY****
TOTAL RUN TIME: 0 days 0 hours 2 minutes 33 seconds 128 msec
