                         Program Version 5.0.3 -  RELEASE  -
|  1> !ri-mp2 aug-cc-pvtz aug-cc-pvtz/c tightscf
|  2> %pal nprocs 16 end
|  3>
|  4> * xyz 0 1
|  5> O      0.667290    1.027732   -0.440985
|  6> O      1.225661    0.020424    0.440386
|  7> O     -1.225661   -0.020424    0.440386
|  8> O     -0.667290   -1.027732   -0.440985
|  9> C     -0.667290    1.205624    0.000454
| 10> C      0.667290   -1.205624    0.000454
| 11> H     -0.743907    1.858599    0.874591
| 12> H     -1.180482    1.619002   -0.872517
| 13> H      1.180482   -1.619002   -0.872517
| 14> H      0.743907   -1.858599    0.874591
| 15> *
| 16>
| 17>                          ****END OF INPUT****

CARTESIAN COORDINATES (ANGSTROEM)
---------------------------------
  O      0.667290    1.027732   -0.440985
  O      1.225661    0.020424    0.440386
  O     -1.225661   -0.020424    0.440386
  O     -0.667290   -1.027732   -0.440985
  C     -0.667290    1.205624    0.000454
  C      0.667290   -1.205624    0.000454
  H     -0.743907    1.858599    0.874591
  H     -1.180482    1.619002   -0.872517
  H      1.180482   -1.619002   -0.872517
  H      0.743907   -1.858599    0.874591

 Total Charge           Charge          ....    0
 Multiplicity           Mult            ....    1
 Number of Electrons    NEL             ....   48
 Basis Dimension        Dim             ....  368

ORBITAL ENERGIES
----------------

  NO   OCC          E(Eh)            E(eV)
   0   2.0000     -20.650087      -561.9174
   1   2.0000     -20.650058      -561.9166
   2   2.0000     -20.649778      -561.9090
   3   2.0000     -20.649771      -561.9088
   4   2.0000     -11.360170      -309.1259
   5   2.0000     -11.360169      -309.1259
   6   2.0000      -1.549594       -42.1666
   7   2.0000      -1.465561       -39.8800
   8   2.0000      -1.309383       -35.6301
   9   2.0000      -1.222006       -33.2525
  10   2.0000      -0.957813       -26.0634
  11   2.0000      -0.860165       -23.4063
  12   2.0000      -0.756326       -20.5807
  13   2.0000      -0.755303       -20.5528
  14   2.0000      -0.751838       -20.4586
  15   2.0000      -0.648052       -17.6344
  16   2.0000      -0.637123       -17.3370
  17   2.0000      -0.596260       -16.2251
  18   2.0000      -0.588419       -16.0117
  19   2.0000      -0.587797       -15.9948
  20   2.0000      -0.556457       -15.1420
  21   2.0000      -0.499547       -13.5934
  22   2.0000      -0.473175       -12.8757
  23   2.0000      -0.452600       -12.3159
  24   0.0000       0.031170         0.8482
  25   0.0000       0.037480         1.0199
  26   0.0000       0.040520         1.1026
  27   0.0000       0.052253         1.4219
  28   0.0000       0.074579         2.0294

MULLIKEN ATOMIC CHARGES
-----------------------
   0 O :   -0.389146
   1 O :   -0.389394
   2 O :   -0.389394
   3 O :   -0.389146
   4 C :   -0.010898
   5 C :   -0.010898
   6 H :    0.394668
   7 H :    0.394770
   8 H :    0.394770
   9 H :    0.394668
Sum of atomic charges:    0.0000000

LOEWDIN ATOMIC CHARGES
----------------------
   0 O :    0.325230
   1 O :    0.325295
   2 O :    0.325295
   3 O :    0.325230
   4 C :   -0.284714
   5 C :   -0.284714
   6 H :   -0.182897
   7 H :   -0.182914
   8 H :   -0.182914
   9 H :   -0.182897

  Mayer bond orders larger than 0.100000
B(  0-O ,  1-O ) :   0.8525 B(  0-O ,  4-C ) :   0.8004 B(  1-O ,  5-C ) :   0.7999
B(  2-O ,  3-O ) :   0.8525 B(  2-O ,  4-C ) :   0.7999 B(  3-O ,  5-C ) :   0.8004
B(  4-C ,  6-H ) :   0.8538 B(  4-C ,  7-H ) :   0.8537 B(  5-C ,  8-H ) :   0.8537
B(  5-C ,  9-H ) :   0.8538

MP2 TOTAL ENERGY:     -378.730015752 Eh
FINAL SINGLE POINT ENERGY      -378.730015751501

DIPOLE MOMENT
-------------
                                X             Y             Z
Electronic contribution:     -0.00000       0.00000      -0.00297
Nuclear contribution   :      0.00000      -0.00000       0.00404
                        -----------------------------------------
Total Dipole Moment    :     -0.00000       0.00000       0.00107
                        -----------------------------------------
Magnitude (a.u.)       :      0.00107
Magnitude (Debye)      :      0.00272

Rotational constants in cm-1:     0.185942     0.171556     0.106752
Rotational constants in MHz :  5574.405066  5143.111721  3200.348112

                             ****ORCA TERMINATED NORMALLY****
TOTAL RUN TIME: 0 days 0 hours 2 minutes 25 seconds 819 msec
