                         Program Version 5.0.3 -  RELEASE  -
|  1> !ri-mp2 aug-cc-pvtz aug-cc-pvtz/c tightscf
|  2> %pal nprocs 16 end
|  3>
|  4> * xyz 0 1
|  5> C     -0.355891    0.007246    0.000000
|  6> C     -0.817838    1.438371    0.000000
|  7> Cl     1.445175   -0.130990    0.000000
|  8> F     -0.817838   -0.654552    1.085396
|  9> F     -0.817838   -0.654552   -1.085396
| 10> H     -1.907414    1.446254    0.000000
| 11> H     -0.448549    1.944401    0.887913
| 12> H     -0.448549    1.944401   -0.887913
| 13> *
| 14>
| 15>                          ****END OF INPUT****

CARTESIAN COORDINATES (ANGSTROEM)
---------------------------------
  C     -0.355891    0.007246    0.000000
  C     -0.817838    1.438371    0.000000
  Cl     1.445175   -0.130990    0.000000
  F     -0.817838   -0.654552    1.085396
  F     -0.817838   -0.654552   -1.085396
  H     -1.907414    1.446254    0.000000
  H     -0.448549    1.944401    0.887913
  H     -0.448549    1.944401   -0.887913

 Total Charge           Charge          ....    0
 Multiplicity           Mult            ....    1
 Number of Electrons    NEL             ....   50
 Basis Dimension        Dim             ....  303

ORBITAL ENERGIES
----------------

  NO   OCC          E(Eh)            E(eV)
   0   2.0000    -104.854162     -2853.2268
   1   2.0000     -26.336934      -716.6644
   2   2.0000     -26.336913      -716.6638
   3   2.0000     -11.488224      -312.6105
   4   2.0000     -11.261535      -306.4420
   5   2.0000     -10.578697      -287.8610
   6   2.0000      -8.045427      -218.9272
   7   2.0000      -8.043540      -218.8758
   8   2.0000      -8.043516      -218.8752
   9   2.0000      -1.693436       -46.0807
  10   2.0000      -1.627219       -44.2789
  11   2.0000      -1.154535       -31.4165
  12   2.0000      -1.046095       -28.4657
  13   2.0000      -0.896548       -24.3963
  14   2.0000      -0.793074       -21.5806
  15   2.0000      -0.765353       -20.8263
  16   2.0000      -0.759343       -20.6628
  17   2.0000      -0.693182       -18.8624
  18   2.0000      -0.656106       -17.8535
  19   2.0000      -0.639304       -17.3963
  20   2.0000      -0.591653       -16.0997
  21   2.0000      -0.586212       -15.9516
  22   2.0000      -0.530921       -14.4471
  23   2.0000      -0.477705       -12.9990
  24   2.0000      -0.472402       -12.8547
  25   0.0000       0.028359         0.7717
  26   0.0000       0.045400         1.2354
  27   0.0000       0.045509         1.2384
  28   0.0000       0.065536         1.7833
  29   0.0000       0.081638         2.2215

MULLIKEN ATOMIC CHARGES
-----------------------
   0 C :    1.080026
   1 C :   -0.977391
   2 Cl:   -0.281679
   3 F :   -0.412751
   4 F :   -0.412751
   5 H :    0.293239
   6 H :    0.355653
   7 H :    0.355653
Sum of atomic charges:    0.0000000

LOEWDIN ATOMIC CHARGES
----------------------
   0 C :   -1.683482
   1 C :    0.479482
   2 Cl:    0.877882
   3 F :    0.440966
   4 F :    0.440966
   5 H :   -0.178071
   6 H :   -0.188871
   7 H :   -0.188871

  Mayer bond orders larger than 0.100000
B(  0-C ,  1-C ) :   0.9426 B(  0-C ,  2-Cl) :   0.9317 B(  0-C ,  3-F ) :   0.7270
B(  0-C ,  4-F ) :   0.7270 B(  1-C ,  5-H ) :   0.9065 B(  1-C ,  6-H ) :   0.8849
B(  1-C ,  7-H ) :   0.8849

MP2 TOTAL ENERGY:     -737.047095537 Eh
FINAL SINGLE POINT ENERGY      -737.047095536695

DIPOLE MOMENT
-------------
                                X             Y             Z
Electronic contribution:      2.77195      -5.44247       0.00000
Nuclear contribution   :     -3.04308       6.36831       0.00000
                        -----------------------------------------
Total Dipole Moment    :     -0.27113       0.92584       0.00000
                        -----------------------------------------
Magnitude (a.u.)       :      0.96472
Magnitude (Debye)      :      2.45213

Rotational constants in cm-1:     0.173816     0.105550     0.102795
Rotational constants in MHz :  5210.872909  3164.320410  3081.701662

                             ****ORCA TERMINATED NORMALLY****
TOTAL RUN TIME: 0 days 0 hours 1 minutes 19 seconds 981 msec
