                         Program Version 5.0.3 -  RELEASE  -
|  1> !ri-mp2 aug-cc-pvtz aug-cc-pvtz/c tightscf
|  2> %pal nprocs 16 end
|  3>
|  4> * xyz 0 1
|  5> S    -3.986894   -0.049708   -0.000087
|  6> O     4.775654   -0.113191   -0.000147
|  7> N    -1.218888   -0.119564    0.000118
|  8> N     2.439468    0.263192    0.000069
|  9> C     0.039669    0.560667    0.000057
| 10> C     1.185169   -0.449890    0.000115
| 11> C    -2.404278   -0.042911    0.000025
| 12> C     3.612272    0.010529   -0.000044
| 13> H     0.112187    1.198876   -0.883098
| 14> H     0.112207    1.198992    0.883127
| 15> H     1.109813   -1.086449   -0.883060
| 16> H     1.109821   -1.086333    0.883374
| 17> *
| 18>
| 19>                          ****END OF INPUT****

CARTESIAN COORDINATES (ANGSTROEM)
---------------------------------
  S     -3.986894   -0.049708   -0.000087
  O      4.775654   -0.113191   -0.000147
  N     -1.218888   -0.119564    0.000118
  N      2.439468    0.263192    0.000069
  C      0.039669    0.560667    0.000057
  C      1.185169   -0.449890    0.000115
  C     -2.404278   -0.042911    0.000025
  C      3.612272    0.010529   -0.000044
  H      0.112187    1.198876   -0.883098
  H      0.112207    1.198992    0.883127
  H      1.109813   -1.086449   -0.883060
  H      1.109821   -1.086333    0.883374

 Total Charge           Charge          ....    0
 Multiplicity           Mult            ....    1
 Number of Electrons    NEL             ....   66
 Basis Dimension        Dim             ....  464

ORBITAL ENERGIES
----------------

  NO   OCC          E(Eh)            E(eV)
   0   2.0000     -91.954543     -2502.2103
   1   2.0000     -20.618582      -561.0601
   2   2.0000     -15.618249      -424.9942
   3   2.0000     -15.603192      -424.5845
   4   2.0000     -11.412272      -310.5437
   5   2.0000     -11.383749      -309.7676
   6   2.0000     -11.321304      -308.0683
   7   2.0000     -11.318946      -308.0042
   8   2.0000      -8.957799      -243.7541
   9   2.0000      -6.639448      -180.6686
  10   2.0000      -6.636876      -180.5986
  11   2.0000      -6.636675      -180.5931
  12   2.0000      -1.470904       -40.0253
  13   2.0000      -1.309496       -35.6332
  14   2.0000      -1.289269       -35.0828
  15   2.0000      -1.101539       -29.9744
  16   2.0000      -1.031646       -28.0725
  17   2.0000      -0.941535       -25.6205
  18   2.0000      -0.777854       -21.1665
  19   2.0000      -0.741853       -20.1868
  20   2.0000      -0.710123       -19.3234
  21   2.0000      -0.701650       -19.0929
  22   2.0000      -0.666569       -18.1383
  23   2.0000      -0.658137       -17.9088
  24   2.0000      -0.619281       -16.8515
  25   2.0000      -0.600996       -16.3539
  26   2.0000      -0.598461       -16.2850
  27   2.0000      -0.539345       -14.6763
  28   2.0000      -0.529238       -14.4013
  29   2.0000      -0.460389       -12.5278
  30   2.0000      -0.438272       -11.9260
  31   2.0000      -0.372762       -10.1434
  32   2.0000      -0.363700        -9.8968
  33   0.0000       0.022288         0.6065
  34   0.0000       0.033817         0.9202
  35   0.0000       0.034890         0.9494
  36   0.0000       0.048775         1.3272
  37   0.0000       0.055043         1.4978

MULLIKEN ATOMIC CHARGES
-----------------------
   0 S :   -0.377691
   1 O :   -0.504185
   2 N :    0.032258
   3 N :    0.040686
   4 C :    0.110706
   5 C :    0.041320
   6 C :   -0.412534
   7 C :   -0.204909
   8 H :    0.326530
   9 H :    0.326541
  10 H :    0.310637
  11 H :    0.310641
Sum of atomic charges:   -0.0000000

LOEWDIN ATOMIC CHARGES
----------------------
   0 S :    0.817033
   1 O :    0.373350
   2 N :    0.227741
   3 N :    0.300799
   4 C :    0.114580
   5 C :    0.103114
   6 C :   -0.877033
   7 C :   -0.461605
   8 H :   -0.147484
   9 H :   -0.147484
  10 H :   -0.151505
  11 H :   -0.151506

  Mayer bond orders larger than 0.100000
B(  0-S ,  2-N ) :  -0.1129 B(  0-S ,  6-C ) :   1.8650 B(  1-O ,  3-N ) :  -0.2700
B(  1-O ,  7-C ) :   2.0871 B(  2-N ,  4-C ) :   0.4904 B(  2-N ,  6-C ) :   1.9988
B(  3-N ,  5-C ) :   0.5572 B(  3-N ,  7-C ) :   1.7415 B(  4-C ,  5-C ) :   0.9335
B(  4-C ,  6-C ) :  -0.3788 B(  4-C ,  8-H ) :   0.9013 B(  4-C ,  9-H ) :   0.9013
B(  5-C ,  7-C ) :  -0.1649 B(  5-C , 10-H ) :   0.9154 B(  5-C , 11-H ) :   0.9154

MP2 TOTAL ENERGY:     -736.665847522 Eh
FINAL SINGLE POINT ENERGY      -736.665847522149

DIPOLE MOMENT
-------------
                                X             Y             Z
Electronic contribution:     -2.35101      -0.22315      -0.00027
Nuclear contribution   :      2.56274       0.21829       0.00033
                        -----------------------------------------
Total Dipole Moment    :      0.21173      -0.00486       0.00006
                        -----------------------------------------
Magnitude (a.u.)       :      0.21179
Magnitude (Debye)      :      0.53832

Rotational constants in cm-1:     1.046877     0.013735     0.013627
Rotational constants in MHz : 31384.568312   411.779629   408.513321

                             ****ORCA TERMINATED NORMALLY****
TOTAL RUN TIME: 0 days 0 hours 3 minutes 1 seconds 700 msec
