                         Program Version 5.0.3 -  RELEASE  -
|  1> !ri-mp2 aug-cc-pvtz aug-cc-pvtz/c tightscf
|  2> %pal nprocs 16 end
|  3>
|  4> * xyz 0 1
|  5> C     0.000000     0.000000    1.478573
|  6> C     0.000000     0.000000   -0.023472
|  7> H     0.000000    -1.026225    1.838151
|  8> H     0.888737     0.513112    1.838151
|  9> H    -0.888737     0.513112    1.838151
| 10> F     0.000000     1.253973   -0.527595
| 11> F    -1.085973    -0.626987   -0.527595
| 12> F     1.085973    -0.626987   -0.527595
| 13> *
| 14>
| 15>                          ****END OF INPUT****

CARTESIAN COORDINATES (ANGSTROEM)
---------------------------------
  C      0.000000    0.000000    1.478573
  C      0.000000    0.000000   -0.023472
  H      0.000000   -1.026225    1.838151
  H      0.888737    0.513112    1.838151
  H     -0.888737    0.513112    1.838151
  F      0.000000    1.253973   -0.527595
  F     -1.085973   -0.626987   -0.527595
  F      1.085973   -0.626987   -0.527595

 Total Charge           Charge          ....    0
 Multiplicity           Mult            ....    1
 Number of Electrons    NEL             ....   42
 Basis Dimension        Dim             ....  299

ORBITAL ENERGIES
----------------

  NO   OCC          E(Eh)            E(eV)
   0   2.0000     -26.333535      -716.5719
   1   2.0000     -26.333535      -716.5719
   2   2.0000     -26.333503      -716.5710
   3   2.0000     -11.505623      -313.0839
   4   2.0000     -11.260175      -306.4050
   5   2.0000      -1.719534       -46.7909
   6   2.0000      -1.626286       -44.2535
   7   2.0000      -1.626286       -44.2535
   8   2.0000      -1.071130       -29.1469
   9   2.0000      -0.921021       -25.0622
  10   2.0000      -0.816018       -22.2050
  11   2.0000      -0.816018       -22.2050
  12   2.0000      -0.775777       -21.1100
  13   2.0000      -0.705934       -19.2094
  14   2.0000      -0.705934       -19.2094
  15   2.0000      -0.659501       -17.9459
  16   2.0000      -0.659501       -17.9459
  17   2.0000      -0.643527       -17.5113
  18   2.0000      -0.590475       -16.0676
  19   2.0000      -0.590475       -16.0676
  20   2.0000      -0.568106       -15.4589
  21   0.0000       0.027300         0.7429
  22   0.0000       0.044800         1.2191
  23   0.0000       0.044800         1.2191
  24   0.0000       0.065146         1.7727
  25   0.0000       0.097273         2.6469

MULLIKEN ATOMIC CHARGES
-----------------------
   0 C :   -1.092332
   1 C :    1.286924
   2 H :    0.324889
   3 H :    0.324889
   4 H :    0.324889
   5 F :   -0.389753
   6 F :   -0.389753
   7 F :   -0.389753
Sum of atomic charges:    0.0000000

LOEWDIN ATOMIC CHARGES
----------------------
   0 C :    0.568910
   1 C :   -1.493232
   2 H :   -0.175633
   3 H :   -0.175634
   4 H :   -0.175634
   5 F :    0.483741
   6 F :    0.483741
   7 F :    0.483741

  Mayer bond orders larger than 0.100000
B(  0-C ,  1-C ) :   0.9495 B(  0-C ,  2-H ) :   0.8914 B(  0-C ,  3-H ) :   0.8914
B(  0-C ,  4-H ) :   0.8914 B(  1-C ,  5-F ) :   0.7667 B(  1-C ,  6-F ) :   0.7667
B(  1-C ,  7-F ) :   0.7667

MP2 TOTAL ENERGY:     -377.082541283 Eh
FINAL SINGLE POINT ENERGY      -377.082541282889

DIPOLE MOMENT
-------------
                                X             Y             Z
Electronic contribution:      0.00000       0.00000      -5.61403
Nuclear contribution   :      0.00000      -0.00000       6.64296
                        -----------------------------------------
Total Dipole Moment    :      0.00000       0.00000       1.02892
                        -----------------------------------------
Magnitude (a.u.)       :      1.02892
Magnitude (Debye)      :      2.61532

Rotational constants in cm-1:     0.181646     0.171735     0.171735
Rotational constants in MHz :  5445.613635  5148.494179  5148.493081

                             ****ORCA TERMINATED NORMALLY****
TOTAL RUN TIME: 0 days 0 hours 1 minutes 7 seconds 957 msec
