                         Program Version 5.0.3 -  RELEASE  -
|  1> !ri-mp2 aug-cc-pvtz aug-cc-pvtz/c tightscf
|  2> %pal nprocs 16 end
|  3> %maxcore 3800
|  4>
|  5> * xyz 0 1
|  6> C      2.945747   -1.326432   -0.272137
|  7> C     -3.205462   -0.965279   -0.174465
|  8> C      0.235796    2.251178   -0.163046
|  9> C      2.118990   -0.257690    0.413385
| 10> C     -1.783395   -0.782436    0.311995
| 11> C     -0.023554    0.819576    0.264379
| 12> O      0.911871   -0.083840   -0.314715
| 13> O     -1.302450    0.472628   -0.168283
| 14> H      3.881046   -1.483282    0.266831
| 15> H      2.403192   -2.271186   -0.304900
| 16> H      3.182130   -1.032240   -1.294481
| 17> H     -3.603189   -1.917908    0.177985
| 18> H     -3.848536   -0.165468    0.192996
| 19> H     -3.241225   -0.960448   -1.263778
| 20> H      0.138687    2.326594   -1.245260
| 21> H      1.239390    2.563008    0.124892
| 22> H     -0.483643    2.921348    0.306118
| 23> H      2.680904    0.683225    0.457447
| 24> H      1.890021   -0.550298    1.446690
| 25> H     -1.139904   -1.586590   -0.051523
| 26> H     -1.743586   -0.787738    1.409110
| 27> H      0.040618    0.717179    1.361201
| 28> *
| 29>
| 30>                          ****END OF INPUT****

CARTESIAN COORDINATES (ANGSTROEM)
---------------------------------
  C      2.945747   -1.326432   -0.272137
  C     -3.205462   -0.965279   -0.174465
  C      0.235796    2.251178   -0.163046
  C      2.118990   -0.257690    0.413385
  C     -1.783395   -0.782436    0.311995
  C     -0.023554    0.819576    0.264379
  O      0.911871   -0.083840   -0.314715
  O     -1.302450    0.472628   -0.168283
  H      3.881046   -1.483282    0.266831
  H      2.403192   -2.271186   -0.304900
  H      3.182130   -1.032240   -1.294481
  H     -3.603189   -1.917908    0.177985
  H     -3.848536   -0.165468    0.192996
  H     -3.241225   -0.960448   -1.263778
  H      0.138687    2.326594   -1.245260
  H      1.239390    2.563008    0.124892
  H     -0.483643    2.921348    0.306118
  H      2.680904    0.683225    0.457447
  H      1.890021   -0.550298    1.446690
  H     -1.139904   -1.586590   -0.051523
  H     -1.743586   -0.787738    1.409110
  H      0.040618    0.717179    1.361201

 Total Charge           Charge          ....    0
 Multiplicity           Mult            ....    1
 Number of Electrons    NEL             ....   66
 Basis Dimension        Dim             ....  690

ORBITAL ENERGIES
----------------

  NO   OCC          E(Eh)            E(eV)
   0   2.0000     -20.553317      -559.2842
   1   2.0000     -20.551720      -559.2407
   2   2.0000     -11.328642      -308.2680
   3   2.0000     -11.277448      -306.8750
   4   2.0000     -11.269185      -306.6501
   5   2.0000     -11.215282      -305.1833
   6   2.0000     -11.210927      -305.0648
   7   2.0000     -11.210313      -305.0481
   8   2.0000      -1.408369       -38.3237
   9   2.0000      -1.339478       -36.4490
  10   2.0000      -1.047810       -28.5124
  11   2.0000      -1.009795       -27.4779
  12   2.0000      -0.977588       -26.6015
  13   2.0000      -0.854517       -23.2526
  14   2.0000      -0.835148       -22.7255
  15   2.0000      -0.813614       -22.1396
  16   2.0000      -0.694650       -18.9024
  17   2.0000      -0.683510       -18.5993
  18   2.0000      -0.661332       -17.9958
  19   2.0000      -0.623488       -16.9660
  20   2.0000      -0.609004       -16.5718
  21   2.0000      -0.565334       -15.3835
  22   2.0000      -0.560469       -15.2511
  23   2.0000      -0.548073       -14.9138
  24   2.0000      -0.536769       -14.6062
  25   2.0000      -0.525078       -14.2881
  26   2.0000      -0.518694       -14.1144
  27   2.0000      -0.513469       -13.9722
  28   2.0000      -0.495652       -13.4874
  29   2.0000      -0.477488       -12.9931
  30   2.0000      -0.470473       -12.8022
  31   2.0000      -0.431018       -11.7286
  32   2.0000      -0.419566       -11.4170
  33   0.0000       0.028999         0.7891
  34   0.0000       0.034241         0.9317
  35   0.0000       0.036229         0.9858
  36   0.0000       0.037669         1.0250
  37   0.0000       0.048803         1.3280

MULLIKEN ATOMIC CHARGES
-----------------------
   0 C :   -0.965476
   1 C :   -0.986849
   2 C :   -1.113337
   3 C :   -0.264349
   4 C :   -0.317409
   5 C :    0.623552
   6 O :   -0.599898
   7 O :   -0.633959
   8 H :    0.299136
   9 H :    0.277571
  10 H :    0.272783
  11 H :    0.316871
  12 H :    0.257078
  13 H :    0.264369
  14 H :    0.249840
  15 H :    0.334492
  16 H :    0.245031
  17 H :    0.347772
  18 H :    0.328762
  19 H :    0.322950
  20 H :    0.322124
  21 H :    0.418947
Sum of atomic charges:   -0.0000000

LOEWDIN ATOMIC CHARGES
----------------------
   0 C :    0.579102
   1 C :    0.578504
   2 C :    0.592884
   3 C :   -0.009037
   4 C :    0.012104
   5 C :   -0.569048
   6 O :    0.585595
   7 O :    0.587412
   8 H :   -0.175833
   9 H :   -0.173859
  10 H :   -0.172470
  11 H :   -0.176911
  12 H :   -0.174641
  13 H :   -0.173298
  14 H :   -0.166954
  15 H :   -0.181523
  16 H :   -0.170814
  17 H :   -0.159534
  18 H :   -0.156815
  19 H :   -0.163597
  20 H :   -0.155669
  21 H :   -0.155596

  Mayer bond orders larger than 0.100000
B(  0-C ,  3-C ) :   0.8829 B(  0-C ,  8-H ) :   0.9513 B(  0-C ,  9-H ) :   0.9519
B(  0-C , 10-H ) :   0.9568 B(  1-C ,  4-C ) :   0.8788 B(  1-C , 11-H ) :   0.9413
B(  1-C , 12-H ) :   0.9741 B(  1-C , 13-H ) :   0.9758 B(  2-C ,  5-C ) :   0.7197
B(  2-C , 14-H ) :   1.0177 B(  2-C , 15-H ) :   0.9300 B(  2-C , 16-H ) :   1.0126
B(  3-C ,  6-O ) :   0.9610 B(  3-C , 17-H ) :   0.8659 B(  3-C , 18-H ) :   0.8922
B(  4-C ,  7-O ) :   0.9586 B(  4-C , 19-H ) :   0.8651 B(  4-C , 20-H ) :   0.8732
B(  5-C ,  6-O ) :   0.6853 B(  5-C ,  7-O ) :   0.7566 B(  5-C , 21-H ) :   0.8942

MP2 TOTAL ENERGY:     -386.771275131 Eh
FINAL SINGLE POINT ENERGY      -386.771275130684

DIPOLE MOMENT
-------------
                                X             Y             Z
Electronic contribution:     -1.07824       1.48817      -0.94304
Nuclear contribution   :      1.45768      -1.61284       1.65274
                        -----------------------------------------
Total Dipole Moment    :      0.37945      -0.12467       0.70970
                        -----------------------------------------
Magnitude (a.u.)       :      0.81437
Magnitude (Debye)      :      2.06996

Rotational constants in cm-1:     0.098925     0.036115     0.028139
Rotational constants in MHz :  2965.703251  1082.688585   843.582892

                             ****ORCA TERMINATED NORMALLY****
TOTAL RUN TIME: 0 days 0 hours 9 minutes 41 seconds 896 msec
