                         Program Version 5.0.3 -  RELEASE  -
|  1> !ri-mp2 aug-cc-pvtz aug-cc-pvtz/c tightscf
|  2> %pal nprocs 16 end
|  3>
|  4> * xyz 0 1
|  5> Cl    -1.906509   -0.012464   -0.000003
|  6> N     -0.208360    0.009411    0.000000
|  7> N      0.477354   -1.136970    0.000000
|  8> C      0.568717    1.122667    0.000002
|  9> C      1.748562   -0.743730    0.000002
| 10> C      1.865057    0.659271    0.000004
| 11> H      0.143298    2.109292    0.000002
| 12> H      2.528586   -1.486330    0.000002
| 13> H      2.761801    1.252584    0.000006
| 14> *
| 15>
| 16>                          ****END OF INPUT****

CARTESIAN COORDINATES (ANGSTROEM)
---------------------------------
  Cl    -1.906509   -0.012464   -0.000003
  N     -0.208360    0.009411    0.000000
  N      0.477354   -1.136970    0.000000
  C      0.568717    1.122667    0.000002
  C      1.748562   -0.743730    0.000002
  C      1.865057    0.659271    0.000004
  H      0.143298    2.109292    0.000002
  H      2.528586   -1.486330    0.000002
  H      2.761801    1.252584    0.000006

 Total Charge           Charge          ....    0
 Multiplicity           Mult            ....    1
 Number of Electrons    NEL             ....   52
 Basis Dimension        Dim             ....  349

ORBITAL ENERGIES
----------------

  NO   OCC          E(Eh)            E(eV)
   0   2.0000    -104.897636     -2854.4098
   1   2.0000     -15.698505      -427.1780
   2   2.0000     -15.605473      -424.6465
   3   2.0000     -11.295628      -307.3697
   4   2.0000     -11.268491      -306.6312
   5   2.0000     -11.237671      -305.7926
   6   2.0000     -10.617925      -288.9284
   7   2.0000      -8.085055      -220.0055
   8   2.0000      -8.082263      -219.9296
   9   2.0000      -8.082049      -219.9237
  10   2.0000      -1.413713       -38.4691
  11   2.0000      -1.189509       -32.3682
  12   2.0000      -1.089070       -29.6351
  13   2.0000      -1.020963       -27.7818
  14   2.0000      -0.830077       -22.5875
  15   2.0000      -0.794225       -21.6120
  16   2.0000      -0.739557       -20.1244
  17   2.0000      -0.657437       -17.8898
  18   2.0000      -0.619571       -16.8594
  19   2.0000      -0.601277       -16.3616
  20   2.0000      -0.583045       -15.8655
  21   2.0000      -0.502675       -13.6785
  22   2.0000      -0.491371       -13.3709
  23   2.0000      -0.478771       -13.0280
  24   2.0000      -0.367672       -10.0049
  25   2.0000      -0.362130        -9.8541
  26   0.0000       0.027177         0.7395
  27   0.0000       0.034323         0.9340
  28   0.0000       0.044587         1.2133
  29   0.0000       0.065335         1.7779
  30   0.0000       0.075913         2.0657

MULLIKEN ATOMIC CHARGES
-----------------------
   0 Cl:   -0.044294
   1 N :    0.561933
   2 N :   -0.871530
   3 C :   -0.848876
   4 C :   -0.373421
   5 C :   -0.154123
   6 H :    0.628173
   7 H :    0.659867
   8 H :    0.442271
Sum of atomic charges:    0.0000000

LOEWDIN ATOMIC CHARGES
----------------------
   0 Cl:    0.877109
   1 N :   -0.624277
   2 N :    0.195108
   3 C :    0.004185
   4 C :   -0.032814
   5 C :    0.171658
   6 H :   -0.187191
   7 H :   -0.200853
   8 H :   -0.202923

  Mayer bond orders larger than 0.100000
B(  0-Cl,  1-N ) :   0.8538 B(  0-Cl,  2-N ) :   0.1116 B(  1-N ,  2-N ) :   0.3078
B(  1-N ,  3-C ) :   1.3200 B(  1-N ,  5-C ) :  -0.2058 B(  2-N ,  4-C ) :   1.4177
B(  3-C ,  5-C ) :   1.1958 B(  3-C ,  6-H ) :   0.6057 B(  4-C ,  5-C ) :   1.0700
B(  4-C ,  7-H ) :   0.5345 B(  5-C ,  8-H ) :   0.8466

MP2 TOTAL ENERGY:     -684.848503714 Eh
FINAL SINGLE POINT ENERGY      -684.848503714142

DIPOLE MOMENT
-------------
                                X             Y             Z
Electronic contribution:     -7.46483      -0.91103      -0.00001
Nuclear contribution   :      7.77554       1.79724       0.00001
                        -----------------------------------------
Total Dipole Moment    :      0.31071       0.88622       0.00000
                        -----------------------------------------
Magnitude (a.u.)       :      0.93911
Magnitude (Debye)      :      2.38702

Rotational constants in cm-1:     0.315835     0.073755     0.059792
Rotational constants in MHz :  9468.488179  2211.112115  1792.517586

                             ****ORCA TERMINATED NORMALLY****
TOTAL RUN TIME: 0 days 0 hours 2 minutes 40 seconds 51 msec
