                         Program Version 5.0.3 -  RELEASE  -
|  1> !ri-mp2 aug-cc-pvtz aug-cc-pvtz/c tightscf
|  2> %pal nprocs 16 end
|  3>
|  4> * xyz 0 1
|  5> O     1.527751   -0.041787   -0.537922
|  6> O     2.903656   -0.081519   -0.081598
|  7> O    -2.550243   -0.648905   -0.302870
|  8> N    -0.622833    0.129378    0.252599
|  9> N    -1.430434   -0.925890    0.075880
| 10> C     0.715920   -0.171147    0.638713
| 11> C    -1.072890    1.482292   -0.050054
| 12> H     1.075986    0.533849    1.388665
| 13> H     0.743524   -1.191858    1.019263
| 14> H    -0.254370    2.165555    0.153369
| 15> H    -1.938584    1.731739    0.562219
| 16> H    -1.363685    1.558623   -1.097009
| 17> H     3.202517   -0.911507   -0.478692
| 18> *
| 19>
| 20>                          ****END OF INPUT****

CARTESIAN COORDINATES (ANGSTROEM)
---------------------------------
  O      1.527751   -0.041787   -0.537922
  O      2.903656   -0.081519   -0.081598
  O     -2.550243   -0.648905   -0.302870
  N     -0.622833    0.129378    0.252599
  N     -1.430434   -0.925890    0.075880
  C      0.715920   -0.171147    0.638713
  C     -1.072890    1.482292   -0.050054
  H      1.075986    0.533849    1.388665
  H      0.743524   -1.191858    1.019263
  H     -0.254370    2.165555    0.153369
  H     -1.938584    1.731739    0.562219
  H     -1.363685    1.558623   -1.097009
  H      3.202517   -0.911507   -0.478692

 Total Charge           Charge          ....    0
 Multiplicity           Mult            ....    1
 Number of Electrons    NEL             ....   56
 Basis Dimension        Dim             ....  460

ORBITAL ENERGIES
----------------

  NO   OCC          E(Eh)            E(eV)
   0   2.0000     -20.643214      -561.7304
   1   2.0000     -20.642726      -561.7171
   2   2.0000     -20.593005      -560.3641
   3   2.0000     -15.734745      -428.1642
   4   2.0000     -15.640075      -425.5881
   5   2.0000     -11.344023      -308.6866
   6   2.0000     -11.276885      -306.8596
   7   2.0000      -1.524990       -41.4971
   8   2.0000      -1.492612       -40.6160
   9   2.0000      -1.307487       -35.5785
  10   2.0000      -1.226191       -33.3664
  11   2.0000      -1.021035       -27.7838
  12   2.0000      -0.973925       -26.5019
  13   2.0000      -0.817050       -22.2331
  14   2.0000      -0.750005       -20.4087
  15   2.0000      -0.741624       -20.1806
  16   2.0000      -0.710049       -19.3214
  17   2.0000      -0.693621       -18.8744
  18   2.0000      -0.642317       -17.4783
  19   2.0000      -0.635859       -17.3026
  20   2.0000      -0.610388       -16.6095
  21   2.0000      -0.582778       -15.8582
  22   2.0000      -0.573071       -15.5941
  23   2.0000      -0.562597       -15.3090
  24   2.0000      -0.517051       -14.0697
  25   2.0000      -0.476475       -12.9656
  26   2.0000      -0.423200       -11.5159
  27   2.0000      -0.410460       -11.1692
  28   0.0000       0.025894         0.7046
  29   0.0000       0.033229         0.9042
  30   0.0000       0.040976         1.1150
  31   0.0000       0.045975         1.2510
  32   0.0000       0.055069         1.4985

MULLIKEN ATOMIC CHARGES
-----------------------
   0 O :   -0.412891
   1 O :   -0.344213
   2 O :   -0.541400
   3 N :    0.366572
   4 N :   -0.192916
   5 C :   -0.130307
   6 C :   -0.866446
   7 H :    0.391215
   8 H :    0.433013
   9 H :    0.364935
  10 H :    0.340576
  11 H :    0.346317
  12 H :    0.245546
Sum of atomic charges:   -0.0000000

LOEWDIN ATOMIC CHARGES
----------------------
   0 O :    0.346049
   1 O :    0.579011
   2 O :    0.253069
   3 N :    0.022095
   4 N :   -0.128680
   5 C :   -0.142007
   6 C :    0.474172
   7 H :   -0.169209
   8 H :   -0.176278
   9 H :   -0.172671
  10 H :   -0.172187
  11 H :   -0.168350
  12 H :   -0.545013

  Mayer bond orders larger than 0.100000
B(  0-O ,  1-O ) :   0.8582 B(  0-O ,  5-C ) :   0.6858 B(  1-O , 12-H ) :   0.9645
B(  2-O ,  3-N ) :   0.1703 B(  2-O ,  4-N ) :   1.2111 B(  3-N ,  4-N ) :   0.6005
B(  3-N ,  5-C ) :   1.0318 B(  3-N ,  6-C ) :   0.8268 B(  5-C ,  7-H ) :   0.8769
B(  5-C ,  8-H ) :   0.8140 B(  6-C ,  9-H ) :   0.8668 B(  6-C , 10-H ) :   0.9148
B(  6-C , 11-H ) :   0.8976

MP2 TOTAL ENERGY:     -414.167603267 Eh
FINAL SINGLE POINT ENERGY      -414.167603267289

DIPOLE MOMENT
-------------
                                X             Y             Z
Electronic contribution:     -0.51646      -3.53177      -0.99755
Nuclear contribution   :      1.47028       3.83640       1.52205
                        -----------------------------------------
Total Dipole Moment    :      0.95383       0.30463       0.52450
                        -----------------------------------------
Magnitude (a.u.)       :      1.13034
Magnitude (Debye)      :      2.87311

Rotational constants in cm-1:     0.224636     0.046150     0.041459
Rotational constants in MHz :  6734.408349  1383.545306  1242.905248

                             ****ORCA TERMINATED NORMALLY****
TOTAL RUN TIME: 0 days 0 hours 4 minutes 26 seconds 790 msec
