                         Program Version 5.0.3 -  RELEASE  -
|  1> !ri-mp2 aug-cc-pvtz aug-cc-pvtz/c tightscf
|  2> %pal nprocs 16 end
|  3> %maxcore 3800
|  4>
|  5> * xyz 0 1
|  6> C     -0.002677    0.695637    2.287492
|  7> C      0.002677   -0.695637    2.287492
|  8> C     -0.005281    1.380849    1.083628
|  9> C      0.005281   -1.380849    1.083628
| 10> C      0.002677    0.706828   -0.143419
| 11> C     -0.002677   -0.706828   -0.143419
| 12> C      0.504833    2.671718   -1.602985
| 13> C     -0.504833   -2.671718   -1.602985
| 14> C     -0.027936    1.466513   -1.404857
| 15> C      0.027936   -1.466513   -1.404857
| 16> H     -0.012494    1.242389    3.220751
| 17> H      0.012494   -1.242389    3.220751
| 18> H     -0.044540    2.461435    1.086304
| 19> H      0.044540   -2.461435    1.086304
| 20> H      0.415967    3.169418   -2.558579
| 21> H      1.054385    3.194867   -0.831116
| 22> H     -0.415967   -3.169418   -2.558579
| 23> H     -1.054385   -3.194867   -0.831116
| 24> H     -0.534592    0.991304   -2.236512
| 25> H      0.534592   -0.991304   -2.236512
| 26> *
| 27>
| 28>                          ****END OF INPUT****

CARTESIAN COORDINATES (ANGSTROEM)
---------------------------------
  C     -0.002677    0.695637    2.287492
  C      0.002677   -0.695637    2.287492
  C     -0.005281    1.380849    1.083628
  C      0.005281   -1.380849    1.083628
  C      0.002677    0.706828   -0.143419
  C     -0.002677   -0.706828   -0.143419
  C      0.504833    2.671718   -1.602985
  C     -0.504833   -2.671718   -1.602985
  C     -0.027936    1.466513   -1.404857
  C      0.027936   -1.466513   -1.404857
  H     -0.012494    1.242389    3.220751
  H      0.012494   -1.242389    3.220751
  H     -0.044540    2.461435    1.086304
  H      0.044540   -2.461435    1.086304
  H      0.415967    3.169418   -2.558579
  H      1.054385    3.194867   -0.831116
  H     -0.415967   -3.169418   -2.558579
  H     -1.054385   -3.194867   -0.831116
  H     -0.534592    0.991304   -2.236512
  H      0.534592   -0.991304   -2.236512

 Total Charge           Charge          ....    0
 Multiplicity           Mult            ....    1
 Number of Electrons    NEL             ....   70
 Basis Dimension        Dim             ....  690

ORBITAL ENERGIES
----------------

  NO   OCC          E(Eh)            E(eV)
   0   2.0000     -11.247351      -306.0560
   1   2.0000     -11.246242      -306.0258
   2   2.0000     -11.240099      -305.8587
   3   2.0000     -11.240098      -305.8586
   4   2.0000     -11.235395      -305.7307
   5   2.0000     -11.234653      -305.7105
   6   2.0000     -11.233808      -305.6875
   7   2.0000     -11.233330      -305.6745
   8   2.0000     -11.229448      -305.5688
   9   2.0000     -11.229448      -305.5688
  10   2.0000      -1.167392       -31.7664
  11   2.0000      -1.076431       -29.2912
  12   2.0000      -1.071604       -29.1598
  13   2.0000      -0.998025       -27.1577
  14   2.0000      -0.986300       -26.8386
  15   2.0000      -0.855334       -23.2748
  16   2.0000      -0.849402       -23.1134
  17   2.0000      -0.771979       -21.0066
  18   2.0000      -0.761632       -20.7251
  19   2.0000      -0.697965       -18.9926
  20   2.0000      -0.657260       -17.8850
  21   2.0000      -0.645892       -17.5756
  22   2.0000      -0.613276       -16.6881
  23   2.0000      -0.611219       -16.6321
  24   2.0000      -0.590382       -16.0651
  25   2.0000      -0.581621       -15.8267
  26   2.0000      -0.542463       -14.7612
  27   2.0000      -0.521160       -14.1815
  28   2.0000      -0.514281       -13.9943
  29   2.0000      -0.493551       -13.4302
  30   2.0000      -0.478780       -13.0283
  31   2.0000      -0.405299       -11.0287
  32   2.0000      -0.403898       -10.9906
  33   2.0000      -0.323763        -8.8100
  34   2.0000      -0.302225        -8.2240
  35   0.0000       0.029081         0.7913
  36   0.0000       0.031336         0.8527
  37   0.0000       0.031372         0.8537
  38   0.0000       0.042841         1.1658
  39   0.0000       0.045256         1.2315

MULLIKEN ATOMIC CHARGES
-----------------------
   0 C :   -0.619674
   1 C :   -0.619664
   2 C :   -0.893832
   3 C :   -0.893849
   4 C :    1.297932
   5 C :    1.297951
   6 C :   -1.396013
   7 C :   -1.396013
   8 C :   -0.059104
   9 C :   -0.059109
  10 H :    0.471323
  11 H :    0.471323
  12 H :    0.193129
  13 H :    0.193127
  14 H :    0.395055
  15 H :    0.334374
  16 H :    0.395059
  17 H :    0.334370
  18 H :    0.276809
  19 H :    0.276806
Sum of atomic charges:    0.0000000

LOEWDIN ATOMIC CHARGES
----------------------
   0 C :    0.205882
   1 C :    0.205882
   2 C :    0.209185
   3 C :    0.209185
   4 C :   -0.114221
   5 C :   -0.114221
   6 C :    0.540006
   7 C :    0.540006
   8 C :    0.173452
   9 C :    0.173452
  10 H :   -0.183628
  11 H :   -0.183628
  12 H :   -0.189093
  13 H :   -0.189093
  14 H :   -0.221072
  15 H :   -0.219236
  16 H :   -0.221072
  17 H :   -0.219237
  18 H :   -0.201275
  19 H :   -0.201275

  Mayer bond orders larger than 0.100000
B(  0-C ,  1-C ) :   1.2208 B(  0-C ,  2-C ) :   1.0614 B(  0-C ,  4-C ) :   0.1273
B(  0-C , 10-H ) :   0.7626 B(  1-C ,  3-C ) :   1.0614 B(  1-C ,  5-C ) :   0.1273
B(  1-C , 11-H ) :   0.7626 B(  2-C ,  4-C ) :   0.7612 B(  2-C ,  6-C ) :   0.1768
B(  2-C ,  8-C ) :   0.1595 B(  2-C , 10-H ) :  -0.1175 B(  2-C , 12-H ) :   1.2958
B(  3-C ,  5-C ) :   0.7612 B(  3-C ,  7-C ) :   0.1768 B(  3-C ,  9-C ) :   0.1595
B(  3-C , 11-H ) :  -0.1175 B(  3-C , 13-H ) :   1.2958 B(  4-C ,  5-C ) :   0.6634
B(  4-C ,  6-C ) :  -0.1662 B(  4-C ,  9-C ) :   0.2892 B(  4-C , 11-H ) :   0.1490
B(  5-C ,  7-C ) :  -0.1662 B(  5-C ,  8-C ) :   0.2892 B(  5-C , 10-H ) :   0.1490
B(  6-C ,  8-C ) :   1.1370 B(  6-C , 14-H ) :   0.7990 B(  6-C , 15-H ) :   1.0479
B(  7-C ,  9-C ) :   1.1370 B(  7-C , 16-H ) :   0.7990 B(  7-C , 17-H ) :   1.0479
B(  8-C , 18-H ) :   1.1054 B(  9-C , 19-H ) :   1.1054

MP2 TOTAL ENERGY:     -386.207759369 Eh
FINAL SINGLE POINT ENERGY      -386.207759368947

DIPOLE MOMENT
-------------
                                X             Y             Z
Electronic contribution:     -0.00000      -0.00000       2.69086
Nuclear contribution   :      0.00000      -0.00000      -2.66414
                        -----------------------------------------
Total Dipole Moment    :     -0.00000      -0.00000       0.02671
                        -----------------------------------------
Magnitude (a.u.)       :      0.02671
Magnitude (Debye)      :      0.06789

Rotational constants in cm-1:     0.053300     0.046825     0.025288
Rotational constants in MHz :  1597.886808  1403.784062   758.110773

                             ****ORCA TERMINATED NORMALLY****
TOTAL RUN TIME: 0 days 0 hours 12 minutes 49 seconds 900 msec
