                         Program Version 5.0.3 -  RELEASE  -
|  1> !ri-mp2 aug-cc-pvtz aug-cc-pvtz/c tightscf
|  2> %pal nprocs 16 end
|  3>
|  4> * xyz 0 1
|  5> C      0.666782    1.690821   -0.460286
|  6> C     -0.725969    0.098901    0.986609
|  7> C      0.649984    0.536037    0.521680
|  8> Cl    -1.857919   -0.342878   -0.351048
|  9> Cl     1.569886   -0.883973   -0.164823
| 10> H      0.168266    1.420936   -1.388454
| 11> H      0.146881    2.547529   -0.025224
| 12> H      1.689864    1.985265   -0.683868
| 13> H     -0.661903   -0.769025    1.634334
| 14> H     -1.198048    0.919690    1.523433
| 15> H      1.206722    0.797530    1.421558
| 16> *
| 17>
| 18>                          ****END OF INPUT****

CARTESIAN COORDINATES (ANGSTROEM)
---------------------------------
  C      0.666782    1.690821   -0.460286
  C     -0.725969    0.098901    0.986609
  C      0.649984    0.536037    0.521680
  Cl    -1.857919   -0.342878   -0.351048
  Cl     1.569886   -0.883973   -0.164823
  H      0.168266    1.420936   -1.388454
  H      0.146881    2.547529   -0.025224
  H      1.689864    1.985265   -0.683868
  H     -0.661903   -0.769025    1.634334
  H     -1.198048    0.919690    1.523433
  H      1.206722    0.797530    1.421558

 Total Charge           Charge          ....    0
 Multiplicity           Mult            ....    1
 Number of Electrons    NEL             ....   58
 Basis Dimension        Dim             ....  376

ORBITAL ENERGIES
----------------

  NO   OCC          E(Eh)            E(eV)
   0   2.0000    -104.831120     -2852.5998
   1   2.0000    -104.826231     -2852.4668
   2   2.0000     -11.320153      -308.0370
   3   2.0000     -11.311672      -307.8062
   4   2.0000     -11.238893      -305.8258
   5   2.0000     -10.555110      -287.2192
   6   2.0000     -10.550370      -287.0902
   7   2.0000      -8.021919      -218.2875
   8   2.0000      -8.020147      -218.2393
   9   2.0000      -8.020098      -218.2379
  10   2.0000      -8.017104      -218.1565
  11   2.0000      -8.015400      -218.1101
  12   2.0000      -8.015365      -218.1092
  13   2.0000      -1.174457       -31.9586
  14   2.0000      -1.108314       -30.1588
  15   2.0000      -1.016975       -27.6733
  16   2.0000      -0.945404       -25.7258
  17   2.0000      -0.801537       -21.8109
  18   2.0000      -0.669489       -18.2177
  19   2.0000      -0.656075       -17.8527
  20   2.0000      -0.611685       -16.6448
  21   2.0000      -0.566204       -15.4072
  22   2.0000      -0.543466       -14.7885
  23   2.0000      -0.527556       -14.3555
  24   2.0000      -0.505345       -13.7511
  25   2.0000      -0.450040       -12.2462
  26   2.0000      -0.443815       -12.0768
  27   2.0000      -0.436297       -11.8723
  28   2.0000      -0.434344       -11.8191
  29   0.0000       0.024799         0.6748
  30   0.0000       0.036423         0.9911
  31   0.0000       0.041148         1.1197
  32   0.0000       0.046453         1.2640
  33   0.0000       0.059665         1.6236

MULLIKEN ATOMIC CHARGES
-----------------------
   0 C :   -0.925494
   1 C :   -0.306093
   2 C :    0.195360
   3 Cl:   -0.341737
   4 Cl:   -0.420333
   5 H :    0.337776
   6 H :    0.281931
   7 H :    0.316061
   8 H :    0.309590
   9 H :    0.264073
  10 H :    0.288867
Sum of atomic charges:   -0.0000000

LOEWDIN ATOMIC CHARGES
----------------------
   0 C :    0.472495
   1 C :   -0.337390
   2 C :   -0.650319
   3 Cl:    0.896144
   4 Cl:    0.903354
   5 H :   -0.206505
   6 H :   -0.169617
   7 H :   -0.183743
   8 H :   -0.256084
   9 H :   -0.239181
  10 H :   -0.229154

  Mayer bond orders larger than 0.100000
B(  0-C ,  2-C ) :   0.8346 B(  0-C ,  5-H ) :   0.9192 B(  0-C ,  6-H ) :   0.9248
B(  0-C ,  7-H ) :   0.9452 B(  1-C ,  2-C ) :   0.9807 B(  1-C ,  3-Cl) :   0.7932
B(  1-C ,  8-H ) :   0.9357 B(  1-C ,  9-H ) :   0.9269 B(  2-C ,  4-Cl) :   0.7313
B(  2-C , 10-H ) :   0.8970

MP2 TOTAL ENERGY:    -1037.106377922 Eh
FINAL SINGLE POINT ENERGY     -1037.106377922079

DIPOLE MOMENT
-------------
                                X             Y             Z
Electronic contribution:     -1.60706      -7.41434      -2.28181
Nuclear contribution   :      1.70050       8.34614       3.10415
                        -----------------------------------------
Total Dipole Moment    :      0.09344       0.93180       0.82233
                        -----------------------------------------
Magnitude (a.u.)       :      1.24628
Magnitude (Debye)      :      3.16779

Rotational constants in cm-1:     0.145645     0.063594     0.053234
Rotational constants in MHz :  4366.323771  1906.490088  1595.912347

                             ****ORCA TERMINATED NORMALLY****
TOTAL RUN TIME: 0 days 0 hours 2 minutes 31 seconds 443 msec
