                         Program Version 5.0.3 -  RELEASE  -
|  1> !ri-mp2 aug-cc-pvtz aug-cc-pvtz/c tightscf
|  2> %pal nprocs 16 end
|  3>
|  4> * xyz 0 1
|  5> N      1.116569    0.323298        0.000000
|  6> N      0.000000    1.033096        0.000000
|  7> N     -1.109966    0.315745        0.000000
|  8> N     -0.722852   -0.930666        0.000000
|  9> C      0.629718   -0.907123        0.000000
| 10> H     -0.009536    2.040913        0.000000
| 11> H      1.244977   -1.788487        0.000000
| 12> *
| 13>
| 14>                          ****END OF INPUT****

CARTESIAN COORDINATES (ANGSTROEM)
---------------------------------
  N      1.116569    0.323298    0.000000
  N      0.000000    1.033096    0.000000
  N     -1.109966    0.315745    0.000000
  N     -0.722852   -0.930666    0.000000
  C      0.629718   -0.907123    0.000000
  H     -0.009536    2.040913    0.000000
  H      1.244977   -1.788487    0.000000

 Total Charge           Charge          ....    0
 Multiplicity           Mult            ....    1
 Number of Electrons    NEL             ....   36
 Basis Dimension        Dim             ....  276

ORBITAL ENERGIES
----------------

  NO   OCC          E(Eh)            E(eV)
   0   2.0000     -15.711551      -427.5330
   1   2.0000     -15.679478      -426.6603
   2   2.0000     -15.637120      -425.5077
   3   2.0000     -15.617986      -424.9870
   4   2.0000     -11.308754      -307.7268
   5   2.0000      -1.512812       -41.1657
   6   2.0000      -1.272365       -34.6228
   7   2.0000      -1.189341       -32.3636
   8   2.0000      -0.927236       -25.2314
   9   2.0000      -0.884347       -24.0643
  10   2.0000      -0.787884       -21.4394
  11   2.0000      -0.690195       -18.7812
  12   2.0000      -0.655695       -17.8424
  13   2.0000      -0.578719       -15.7477
  14   2.0000      -0.509247       -13.8573
  15   2.0000      -0.479469       -13.0470
  16   2.0000      -0.453258       -12.3338
  17   2.0000      -0.418487       -11.3876
  18   0.0000       0.025179         0.6852
  19   0.0000       0.036256         0.9866
  20   0.0000       0.073314         1.9950
  21   0.0000       0.078675         2.1409
  22   0.0000       0.092304         2.5117

MULLIKEN ATOMIC CHARGES
-----------------------
   0 N :   -0.492776
   1 N :    0.504234
   2 N :   -0.362039
   3 N :   -0.211132
   4 C :   -0.291928
   5 H :    0.204212
   6 H :    0.649429
Sum of atomic charges:    0.0000000

LOEWDIN ATOMIC CHARGES
----------------------
   0 N :    0.284112
   1 N :    0.128547
   2 N :    0.120485
   3 N :    0.155299
   4 C :   -0.212941
   5 H :   -0.263755
   6 H :   -0.211747

  Mayer bond orders larger than 0.100000
B(  0-N ,  1-N ) :   0.6929 B(  0-N ,  2-N ) :   0.1631 B(  0-N ,  4-C ) :   1.5509
B(  1-N ,  2-N ) :   0.9464 B(  1-N ,  5-H ) :   1.0395 B(  2-N ,  3-N ) :   0.9596
B(  2-N ,  4-C ) :   0.1072 B(  3-N ,  4-C ) :   1.2203 B(  4-C ,  6-H ) :   0.5196

MP2 TOTAL ENERGY:     -257.830952831 Eh
FINAL SINGLE POINT ENERGY      -257.830952830650

DIPOLE MOMENT
-------------
                                X             Y             Z
Electronic contribution:     -0.63752       0.42032      -0.00000
Nuclear contribution   :      1.18828       0.24782       0.00000
                        -----------------------------------------
Total Dipole Moment    :      0.55075       0.66814      -0.00000
                        -----------------------------------------
Magnitude (a.u.)       :      0.86588
Magnitude (Debye)      :      2.20089

Rotational constants in cm-1:     0.357971     0.347594     0.176353
Rotational constants in MHz : 10731.713843 10420.615773  5286.938535

                             ****ORCA TERMINATED NORMALLY****
TOTAL RUN TIME: 0 days 0 hours 1 minutes 29 seconds 963 msec
