                         Program Version 5.0.3 -  RELEASE  -
|  1> !ri-mp2 aug-cc-pvtz aug-cc-pvtz/c tightscf
|  2> %pal nprocs 16 end
|  3>
|  4> * xyz 0 1
|  5> C     -0.494582   -1.855654        0.000000
|  6> N      0.801387   -1.341554        0.000000
|  7> C      1.003289    0.010465        0.000000
|  8> C      0.000000    0.951847        0.000000
|  9> N      0.543549    2.219652        0.000000
| 10> C      1.828513    2.045590        0.000000
| 11> N      2.176164    0.698429        0.000000
| 12> N     -1.483837   -0.891134        0.000000
| 13> C     -1.384973    0.528592        0.000000
| 14> O     -0.710820   -3.048700        0.000000
| 15> H      2.579315    2.817576        0.000000
| 16> O     -2.386498    1.205693        0.000000
| 17> H     -2.426033   -1.254649        0.000000
| 18> H      1.543280   -2.021140        0.000000
| 19> H      3.107654    0.319474        0.000000
| 20> *
| 21>
| 22>                          ****END OF INPUT****

CARTESIAN COORDINATES (ANGSTROEM)
---------------------------------
  C     -0.494582   -1.855654    0.000000
  N      0.801387   -1.341554    0.000000
  C      1.003289    0.010465    0.000000
  C      0.000000    0.951847    0.000000
  N      0.543549    2.219652    0.000000
  C      1.828513    2.045590    0.000000
  N      2.176164    0.698429    0.000000
  N     -1.483837   -0.891134    0.000000
  C     -1.384973    0.528592    0.000000
  O     -0.710820   -3.048700    0.000000
  H      2.579315    2.817576    0.000000
  O     -2.386498    1.205693    0.000000
  H     -2.426033   -1.254649    0.000000
  H      1.543280   -2.021140    0.000000
  H      3.107654    0.319474    0.000000

 Total Charge           Charge          ....    0
 Multiplicity           Mult            ....    1
 Number of Electrons    NEL             ....   78
 Basis Dimension        Dim             ....  598

ORBITAL ENERGIES
----------------

  NO   OCC          E(Eh)            E(eV)
   0   2.0000     -20.547850      -559.1354
   1   2.0000     -20.539253      -558.9015
   2   2.0000     -15.665323      -426.2751
   3   2.0000     -15.650761      -425.8788
   4   2.0000     -15.624013      -425.1510
   5   2.0000     -15.585029      -424.0902
   6   2.0000     -11.422243      -310.8150
   7   2.0000     -11.379800      -309.6601
   8   2.0000     -11.365679      -309.2758
   9   2.0000     -11.330953      -308.3309
  10   2.0000     -11.270626      -306.6893
  11   2.0000      -1.439642       -39.1746
  12   2.0000      -1.401521       -38.1373
  13   2.0000      -1.390071       -37.8258
  14   2.0000      -1.303127       -35.4599
  15   2.0000      -1.245184       -33.8832
  16   2.0000      -1.207566       -32.8595
  17   2.0000      -1.061324       -28.8801
  18   2.0000      -0.926203       -25.2033
  19   2.0000      -0.904126       -24.6025
  20   2.0000      -0.876238       -23.8437
  21   2.0000      -0.832976       -22.6664
  22   2.0000      -0.777005       -21.1434
  23   2.0000      -0.738729       -20.1018
  24   2.0000      -0.695827       -18.9344
  25   2.0000      -0.688613       -18.7381
  26   2.0000      -0.680599       -18.5200
  27   2.0000      -0.647418       -17.6171
  28   2.0000      -0.630933       -17.1685
  29   2.0000      -0.626490       -17.0477
  30   2.0000      -0.619729       -16.8637
  31   2.0000      -0.575253       -15.6534
  32   2.0000      -0.502548       -13.6750
  33   2.0000      -0.490719       -13.3531
  34   2.0000      -0.472140       -12.8476
  35   2.0000      -0.445456       -12.1215
  36   2.0000      -0.442013       -12.0278
  37   2.0000      -0.435075       -11.8390
  38   2.0000      -0.332292        -9.0421
  39   0.0000       0.004921         0.1339
  40   0.0000       0.025378         0.6906
  41   0.0000       0.040443         1.1005
  42   0.0000       0.048594         1.3223
  43   0.0000       0.052845         1.4380

MULLIKEN ATOMIC CHARGES
-----------------------
   0 C :    0.109807
   1 N :   -0.005447
   2 C :    0.369319
   3 C :    1.313471
   4 N :   -0.724583
   5 C :   -0.748581
   6 N :   -0.142798
   7 N :    0.182505
   8 C :    0.211952
   9 O :   -0.775720
  10 H :    0.663246
  11 O :   -0.842996
  12 H :    0.164720
  13 H :    0.121818
  14 H :    0.103287
Sum of atomic charges:    0.0000000

LOEWDIN ATOMIC CHARGES
----------------------
   0 C :   -0.759146
   1 N :    0.588122
   2 C :   -0.318582
   3 C :   -0.306588
   4 N :    0.395785
   5 C :   -0.037463
   6 N :    0.581943
   7 N :    0.563532
   8 C :   -0.644752
   9 O :    0.439371
  10 H :   -0.174430
  11 O :    0.448848
  12 H :   -0.279256
  13 H :   -0.259551
  14 H :   -0.237833

  Mayer bond orders larger than 0.100000
B(  0-C ,  1-N ) :   1.0787 B(  0-C ,  2-C ) :  -0.2995 B(  0-C ,  7-N ) :   1.0084
B(  0-C ,  8-C ) :  -0.1753 B(  0-C ,  9-O ) :   1.6169 B(  1-N ,  2-C ) :   0.8883
B(  1-N ,  3-C ) :  -0.1221 B(  1-N ,  6-N ) :  -0.1122 B(  1-N ,  9-O ) :  -0.1452
B(  1-N , 13-H ) :   1.0878 B(  2-C ,  3-C ) :   1.4347 B(  2-C ,  5-C ) :  -0.5174
B(  2-C ,  6-N ) :   0.8007 B(  2-C ,  7-N ) :   0.1286 B(  2-C ,  8-C ) :   0.6808
B(  3-C ,  4-N ) :   0.1288 B(  3-C ,  5-C ) :  -0.2138 B(  3-C ,  7-N ) :  -0.3557
B(  3-C , 11-O ) :   0.1736 B(  4-N ,  5-C ) :   1.8389 B(  4-N ,  8-C ) :  -0.1461
B(  5-C ,  6-N ) :   1.2150 B(  5-C , 10-H ) :   0.4564 B(  6-N , 14-H ) :   1.1449
B(  7-N ,  8-C ) :   1.0669 B(  7-N ,  9-O ) :  -0.1050 B(  7-N , 11-O ) :  -0.1237
B(  7-N , 12-H ) :   1.0331 B(  8-C , 11-O ) :   1.0518

MP2 TOTAL ENERGY:     -561.495223166 Eh
FINAL SINGLE POINT ENERGY      -561.495223166474

DIPOLE MOMENT
-------------
                                X             Y             Z
Electronic contribution:     -1.52816      -0.27736       0.00000
Nuclear contribution   :      4.59111      -0.15771       0.00000
                        -----------------------------------------
Total Dipole Moment    :      3.06295      -0.43507       0.00000
                        -----------------------------------------
Magnitude (a.u.)       :      3.09369
Magnitude (Debye)      :      7.86354

Rotational constants in cm-1:     0.064628     0.037023     0.023539
Rotational constants in MHz :  1937.501551  1109.926792   705.672009

                             ****ORCA TERMINATED NORMALLY****
TOTAL RUN TIME: 0 days 0 hours 9 minutes 26 seconds 371 msec
