                         Program Version 5.0.3 -  RELEASE  -
|  1> !ri-mp2 aug-cc-pvtz aug-cc-pvtz/c tightscf
|  2> %pal nprocs 16 end
|  3>
|  4> * xyz 0 1
|  5> Cl     1.271311   -0.098836        0.000000
|  6> F     -0.891537    1.237652        0.000000
|  7> C     -0.455870   -0.024081        0.000000
|  8> C     -1.271818   -1.059179        0.000002
|  9> H     -0.883625   -2.063137        0.000003
| 10> H     -2.338704   -0.895953        0.000003
| 11> *
| 12>
| 13>                          ****END OF INPUT****

CARTESIAN COORDINATES (ANGSTROEM)
---------------------------------
  Cl     1.271311   -0.098836    0.000000
  F     -0.891537    1.237652    0.000000
  C     -0.455870   -0.024081    0.000000
  C     -1.271818   -1.059179    0.000002
  H     -0.883625   -2.063137    0.000003
  H     -2.338704   -0.895953    0.000003

 Total Charge           Charge          ....    0
 Multiplicity           Mult            ....    1
 Number of Electrons    NEL             ....   40
 Basis Dimension        Dim             ....  234

ORBITAL ENERGIES
----------------

  NO   OCC          E(Eh)            E(eV)
   0   2.0000    -104.867342     -2853.5854
   1   2.0000     -26.338813      -716.7155
   2   2.0000     -11.398523      -310.1696
   3   2.0000     -11.252403      -306.1935
   4   2.0000     -10.591270      -288.2031
   5   2.0000      -8.058206      -219.2749
   6   2.0000      -8.056138      -219.2187
   7   2.0000      -8.056108      -219.2178
   8   2.0000      -1.659437       -45.1556
   9   2.0000      -1.174030       -31.9470
  10   2.0000      -1.042561       -28.3695
  11   2.0000      -0.840050       -22.8589
  12   2.0000      -0.737027       -20.0555
  13   2.0000      -0.723303       -19.6821
  14   2.0000      -0.707292       -19.2464
  15   2.0000      -0.609756       -16.5923
  16   2.0000      -0.571033       -15.5386
  17   2.0000      -0.520204       -14.1555
  18   2.0000      -0.484445       -13.1824
  19   2.0000      -0.384591       -10.4653
  20   0.0000       0.030131         0.8199
  21   0.0000       0.043922         1.1952
  22   0.0000       0.061449         1.6721
  23   0.0000       0.080238         2.1834
  24   0.0000       0.082604         2.2478

MULLIKEN ATOMIC CHARGES
-----------------------
   0 Cl:   -0.159382
   1 F :   -0.289568
   2 C :    0.639671
   3 C :   -1.085319
   4 H :    0.484996
   5 H :    0.409602
Sum of atomic charges:    0.0000000

LOEWDIN ATOMIC CHARGES
----------------------
   0 Cl:    0.923199
   1 F :    0.416471
   2 C :   -1.219344
   3 C :    0.380057
   4 H :   -0.258361
   5 H :   -0.242022

  Mayer bond orders larger than 0.100000
B(  0-Cl,  2-C ) :   0.9510 B(  1-F ,  2-C ) :   0.6977 B(  1-F ,  3-C ) :   0.1399
B(  2-C ,  3-C ) :   1.6906 B(  3-C ,  4-H ) :   0.7751 B(  3-C ,  5-H ) :   0.8089

MP2 TOTAL ENERGY:     -636.663524400 Eh
FINAL SINGLE POINT ENERGY      -636.663524400292

DIPOLE MOMENT
-------------
                                X             Y             Z
Electronic contribution:      3.59422       3.20038      -0.00000
Nuclear contribution   :     -3.88328      -3.77064       0.00001
                        -----------------------------------------
Total Dipole Moment    :     -0.28906      -0.57026       0.00000
                        -----------------------------------------
Magnitude (a.u.)       :      0.63934
Magnitude (Debye)      :      1.62507

Rotational constants in cm-1:     0.356497     0.166984     0.113718
Rotational constants in MHz : 10687.497355  5006.043691  3409.178244

                             ****ORCA TERMINATED NORMALLY****
TOTAL RUN TIME: 0 days 0 hours 1 minutes 18 seconds 258 msec
