                         Program Version 5.0.3 -  RELEASE  -
|  1> !ri-mp2 aug-cc-pvtz aug-cc-pvtz/c tightscf
|  2> %pal nprocs 16 end
|  3>
|  4> * xyz 0 1
|  5> O      0.710722   -1.733894        0.000000
|  6> N     -0.691138   -1.797404        0.000000
|  7> N     -0.085068    2.920338        0.000000
|  8> C      0.000000    0.355924        0.000000
|  9> C      1.091283   -0.460386        0.000000
| 10> C     -1.094603   -0.562112        0.000000
| 11> C     -0.038720    1.769277        0.000000
| 12> H      2.149576   -0.263840        0.000000
| 13> H     -2.149674   -0.341769        0.000000
| 14> *
| 15>
| 16>                          ****END OF INPUT****

CARTESIAN COORDINATES (ANGSTROEM)
---------------------------------
  O      0.710722   -1.733894    0.000000
  N     -0.691138   -1.797404    0.000000
  N     -0.085068    2.920338    0.000000
  C      0.000000    0.355924    0.000000
  C      1.091283   -0.460386    0.000000
  C     -1.094603   -0.562112    0.000000
  C     -0.038720    1.769277    0.000000
  H      2.149576   -0.263840    0.000000
  H     -2.149674   -0.341769    0.000000

 Total Charge           Charge          ....    0
 Multiplicity           Mult            ....    1
 Number of Electrons    NEL             ....   48
 Basis Dimension        Dim             ....  368

ORBITAL ENERGIES
----------------

  NO   OCC          E(Eh)            E(eV)
   0   2.0000     -20.689834      -562.9990
   1   2.0000     -15.662509      -426.1985
   2   2.0000     -15.592463      -424.2925
   3   2.0000     -11.369325      -309.3751
   4   2.0000     -11.323327      -308.1234
   5   2.0000     -11.304855      -307.6207
   6   2.0000     -11.298938      -307.4597
   7   2.0000      -1.537405       -41.8349
   8   2.0000      -1.244895       -33.8753
   9   2.0000      -1.211542       -32.9677
  10   2.0000      -1.129227       -30.7278
  11   2.0000      -0.914692       -24.8900
  12   2.0000      -0.864780       -23.5318
  13   2.0000      -0.814445       -22.1622
  14   2.0000      -0.715516       -19.4702
  15   2.0000      -0.698015       -18.9939
  16   2.0000      -0.639405       -17.3991
  17   2.0000      -0.611549       -16.6411
  18   2.0000      -0.578789       -15.7497
  19   2.0000      -0.538576       -14.6554
  20   2.0000      -0.529979       -14.4215
  21   2.0000      -0.483439       -13.1551
  22   2.0000      -0.460744       -12.5375
  23   2.0000      -0.396499       -10.7893
  24   0.0000       0.024146         0.6570
  25   0.0000       0.030439         0.8283
  26   0.0000       0.055334         1.5057
  27   0.0000       0.061367         1.6699
  28   0.0000       0.067873         1.8469

MULLIKEN ATOMIC CHARGES
-----------------------
   0 O :   -0.368365
   1 N :   -0.472525
   2 N :   -0.722057
   3 C :    1.215427
   4 C :   -0.824981
   5 C :   -0.395269
   6 C :    0.380851
   7 H :    0.614277
   8 H :    0.572642
Sum of atomic charges:    0.0000000

LOEWDIN ATOMIC CHARGES
----------------------
   0 O :    0.423353
   1 N :    0.185928
   2 N :    0.264607
   3 C :   -0.235384
   4 C :   -0.033250
   5 C :   -0.027692
   6 C :   -0.245605
   7 H :   -0.156486
   8 H :   -0.175472

  Mayer bond orders larger than 0.100000
B(  0-O ,  1-N ) :   0.6968 B(  0-O ,  4-C ) :   1.0989 B(  1-N ,  5-C ) :   1.2186
B(  2-N ,  3-C ) :  -0.1161 B(  2-N ,  6-C ) :   2.0259 B(  3-C ,  4-C ) :   0.6492
B(  3-C ,  5-C ) :   0.5973 B(  3-C ,  6-C ) :   0.9965 B(  4-C ,  5-C ) :   0.3029
B(  4-C ,  6-C ) :  -0.1036 B(  4-C ,  7-H ) :   0.6686 B(  5-C ,  6-C ) :  -0.1036
B(  5-C ,  8-H ) :   0.7042

MP2 TOTAL ENERGY:     -337.685770822 Eh
FINAL SINGLE POINT ENERGY      -337.685770822033

DIPOLE MOMENT
-------------
                                X             Y             Z
Electronic contribution:      0.30129       0.08087       0.00000
Nuclear contribution   :      0.00628      -0.60021       0.00000
                        -----------------------------------------
Total Dipole Moment    :      0.30757      -0.51934       0.00000
                        -----------------------------------------
Magnitude (a.u.)       :      0.60359
Magnitude (Debye)      :      1.53419

Rotational constants in cm-1:     0.319418     0.065193     0.054143
Rotational constants in MHz :  9575.910017  1954.449418  1623.161174

                             ****ORCA TERMINATED NORMALLY****
TOTAL RUN TIME: 0 days 0 hours 2 minutes 40 seconds 57 msec
