                         Program Version 5.0.3 -  RELEASE  -
|  1> !ri-mp2 aug-cc-pvtz aug-cc-pvtz/c tightscf
|  2> %pal nprocs 16 end
|  3>
|  4> * xyz 0 1
|  5> C      1.426873    1.298590    0.000000
|  6> C      0.000000    0.751500    0.000000
|  7> C     -0.052657   -0.779459    0.000000
|  8> N     -1.385423   -1.383272    0.000000
|  9> H      1.978422    0.962964    0.880677
| 10> H      1.978422    0.962964   -0.880677
| 11> H      1.436602    2.389035    0.000000
| 12> H     -0.539820    1.125120   -0.875744
| 13> H     -0.539820    1.125120    0.875744
| 14> H      0.483988   -1.159679    0.873422
| 15> H      0.483988   -1.159679   -0.873422
| 16> H     -1.914561   -1.093363   -0.813803
| 17> H     -1.914561   -1.093363    0.813803
| 18> *
| 19>
| 20>                          ****END OF INPUT****

CARTESIAN COORDINATES (ANGSTROEM)
---------------------------------
  C      1.426873    1.298590    0.000000
  C      0.000000    0.751500    0.000000
  C     -0.052657   -0.779459    0.000000
  N     -1.385423   -1.383272    0.000000
  H      1.978422    0.962964    0.880677
  H      1.978422    0.962964   -0.880677
  H      1.436602    2.389035    0.000000
  H     -0.539820    1.125120   -0.875744
  H     -0.539820    1.125120    0.875744
  H      0.483988   -1.159679    0.873422
  H      0.483988   -1.159679   -0.873422
  H     -1.914561   -1.093363   -0.813803
  H     -1.914561   -1.093363    0.813803

 Total Charge           Charge          ....    0
 Multiplicity           Mult            ....    1
 Number of Electrons    NEL             ....   34
 Basis Dimension        Dim             ....  391

ORBITAL ENERGIES
----------------

  NO   OCC          E(Eh)            E(eV)
   0   2.0000     -15.536353      -422.7657
   1   2.0000     -11.243822      -305.9600
   2   2.0000     -11.218314      -305.2658
   3   2.0000     -11.214008      -305.1487
   4   2.0000      -1.174656       -31.9640
   5   2.0000      -1.036375       -28.2012
   6   2.0000      -0.898490       -24.4492
   7   2.0000      -0.805351       -21.9147
   8   2.0000      -0.674518       -18.3546
   9   2.0000      -0.607193       -16.5226
  10   2.0000      -0.603904       -16.4331
  11   2.0000      -0.561190       -15.2708
  12   2.0000      -0.521625       -14.1941
  13   2.0000      -0.517227       -14.0745
  14   2.0000      -0.486741       -13.2449
  15   2.0000      -0.470378       -12.7996
  16   2.0000      -0.383085       -10.4243
  17   0.0000       0.029977         0.8157
  18   0.0000       0.036737         0.9997
  19   0.0000       0.039568         1.0767
  20   0.0000       0.041218         1.1216
  21   0.0000       0.059668         1.6236

MULLIKEN ATOMIC CHARGES
-----------------------
   0 C :   -0.955526
   1 C :   -0.398806
   2 C :   -0.130801
   3 N :   -0.649498
   4 H :    0.283214
   5 H :    0.283214
   6 H :    0.268215
   7 H :    0.253359
   8 H :    0.253359
   9 H :    0.291497
  10 H :    0.291497
  11 H :    0.105139
  12 H :    0.105139
Sum of atomic charges:    0.0000000

LOEWDIN ATOMIC CHARGES
----------------------
   0 C :    0.572217
   1 C :    0.254596
   2 C :    0.138982
   3 N :    0.833440
   4 H :   -0.172466
   5 H :   -0.172466
   6 H :   -0.175094
   7 H :   -0.154963
   8 H :   -0.154963
   9 H :   -0.154041
  10 H :   -0.154041
  11 H :   -0.330600
  12 H :   -0.330600

  Mayer bond orders larger than 0.100000
B(  0-C ,  1-C ) :   0.8964 B(  0-C ,  4-H ) :   0.9372 B(  0-C ,  5-H ) :   0.9372
B(  0-C ,  6-H ) :   0.9805 B(  1-C ,  2-C ) :   0.8487 B(  1-C ,  7-H ) :   0.9442
B(  1-C ,  8-H ) :   0.9442 B(  2-C ,  3-N ) :   0.6668 B(  2-C ,  9-H ) :   0.9405
B(  2-C , 10-H ) :   0.9405 B(  3-N , 11-H ) :   1.0005 B(  3-N , 12-H ) :   1.0005

MP2 TOTAL ENERGY:     -174.119381314 Eh
FINAL SINGLE POINT ENERGY      -174.119381313676

DIPOLE MOMENT
-------------
                                X             Y             Z
Electronic contribution:     -1.60436      -1.65339      -0.00000
Nuclear contribution   :      1.56042       2.21555       0.00000
                        -----------------------------------------
Total Dipole Moment    :     -0.04393       0.56216      -0.00000
                        -----------------------------------------
Magnitude (a.u.)       :      0.56387
Magnitude (Debye)      :      1.43324

Rotational constants in cm-1:     0.832740     0.122296     0.115368
Rotational constants in MHz : 24964.919473  3666.354612  3458.649301

                             ****ORCA TERMINATED NORMALLY****
TOTAL RUN TIME: 0 days 0 hours 2 minutes 0 seconds 750 msec
