                         Program Version 5.0.3 -  RELEASE  -
|  1> !ri-mp2 aug-cc-pvtz aug-cc-pvtz/c tightscf
|  2> %pal nprocs 16 end
|  3>
|  4> * xyz 0 1
|  5> C      0.898943    1.042679    0.000000
|  6> C     -0.321603    0.166943    0.000000
|  7> F     -0.321603   -0.652153    1.102135
|  8> F     -0.321603   -0.652153   -1.102135
|  9> H      1.793325    0.421274    0.000000
| 10> H      0.899762    1.674835   -0.886681
| 11> H      0.899762    1.674835    0.886681
| 12> H     -1.268028    0.710080    0.000000
| 13> *
| 14>
| 15>                          ****END OF INPUT****

CARTESIAN COORDINATES (ANGSTROEM)
---------------------------------
  C      0.898943    1.042679    0.000000
  C     -0.321603    0.166943    0.000000
  F     -0.321603   -0.652153    1.102135
  F     -0.321603   -0.652153   -1.102135
  H      1.793325    0.421274    0.000000
  H      0.899762    1.674835   -0.886681
  H      0.899762    1.674835    0.886681
  H     -1.268028    0.710080    0.000000

 Total Charge           Charge          ....    0
 Multiplicity           Mult            ....    1
 Number of Electrons    NEL             ....   34
 Basis Dimension        Dim             ....  276

ORBITAL ENERGIES
----------------

  NO   OCC          E(Eh)            E(eV)
   0   2.0000     -26.303240      -715.7475
   1   2.0000     -26.303221      -715.7470
   2   2.0000     -11.406500      -310.3867
   3   2.0000     -11.242728      -305.9302
   4   2.0000      -1.648567       -44.8598
   5   2.0000      -1.588943       -43.2373
   6   2.0000      -1.052536       -28.6410
   7   2.0000      -0.891693       -24.2642
   8   2.0000      -0.770627       -20.9698
   9   2.0000      -0.749474       -20.3942
  10   2.0000      -0.722709       -19.6659
  11   2.0000      -0.660582       -17.9753
  12   2.0000      -0.624162       -16.9843
  13   2.0000      -0.616796       -16.7839
  14   2.0000      -0.572022       -15.5655
  15   2.0000      -0.564756       -15.3678
  16   2.0000      -0.518865       -14.1190
  17   0.0000       0.028003         0.7620
  18   0.0000       0.038572         1.0496
  19   0.0000       0.044652         1.2150
  20   0.0000       0.052223         1.4211
  21   0.0000       0.089938         2.4473

MULLIKEN ATOMIC CHARGES
-----------------------
   0 C :   -0.992656
   1 C :    0.612318
   2 F :   -0.445034
   3 F :   -0.445034
   4 H :    0.286134
   5 H :    0.327267
   6 H :    0.327267
   7 H :    0.329740
Sum of atomic charges:    0.0000000

LOEWDIN ATOMIC CHARGES
----------------------
   0 C :    0.570034
   1 C :   -0.773709
   2 F :    0.458547
   3 F :    0.458547
   4 H :   -0.175939
   5 H :   -0.177913
   6 H :   -0.177913
   7 H :   -0.181653

  Mayer bond orders larger than 0.100000
B(  0-C ,  1-C ) :   0.9530 B(  0-C ,  4-H ) :   0.9135 B(  0-C ,  5-H ) :   0.8920
B(  0-C ,  6-H ) :   0.8920 B(  1-C ,  2-F ) :   0.6951 B(  1-C ,  3-F ) :   0.6951
B(  1-C ,  7-H ) :   0.9143

MP2 TOTAL ENERGY:     -277.924004467 Eh
FINAL SINGLE POINT ENERGY      -277.924004467250

DIPOLE MOMENT
-------------
                                X             Y             Z
Electronic contribution:     -2.72029      -4.57828       0.00000
Nuclear contribution   :      2.86165       5.57738       0.00000
                        -----------------------------------------
Total Dipole Moment    :      0.14136       0.99910       0.00000
                        -----------------------------------------
Magnitude (a.u.)       :      1.00905
Magnitude (Debye)      :      2.56480

Rotational constants in cm-1:     0.313980     0.297633     0.171272
Rotational constants in MHz :  9412.884371  8922.827125  5134.596365

                             ****ORCA TERMINATED NORMALLY****
TOTAL RUN TIME: 0 days 0 hours 1 minutes 13 seconds 833 msec
