                         Program Version 5.0.3 -  RELEASE  -
|  1> !ri-mp2 aug-cc-pvtz aug-cc-pvtz/c tightscf
|  2> %pal nprocs 16 end
|  3>
|  4> * xyz 0 1
|  5> C      0.000000    1.060596        0.000000
|  6> N      1.107973    0.392861        0.000000
|  7> N      0.687701   -0.924391        0.000000
|  8> N     -0.543555   -1.038784        0.000000
|  9> O     -1.082437    0.312079        0.000000
| 10> H     -0.105336    2.131991        0.000000
| 11> *
| 12>
| 13>                          ****END OF INPUT****

CARTESIAN COORDINATES (ANGSTROEM)
---------------------------------
  C      0.000000    1.060596    0.000000
  N      1.107973    0.392861    0.000000
  N      0.687701   -0.924391    0.000000
  N     -0.543555   -1.038784    0.000000
  O     -1.082437    0.312079    0.000000
  H     -0.105336    2.131991    0.000000

 Total Charge           Charge          ....    0
 Multiplicity           Mult            ....    1
 Number of Electrons    NEL             ....   36
 Basis Dimension        Dim             ....  253

ORBITAL ENERGIES
----------------

  NO   OCC          E(Eh)            E(eV)
   0   2.0000     -20.695722      -563.1592
   1   2.0000     -15.722623      -427.8343
   2   2.0000     -15.694752      -427.0759
   3   2.0000     -15.631758      -425.3618
   4   2.0000     -11.387872      -309.8797
   5   2.0000      -1.580807       -43.0159
   6   2.0000      -1.376423       -37.4544
   7   2.0000      -1.245240       -33.8847
   8   2.0000      -0.923785       -25.1375
   9   2.0000      -0.915437       -24.9103
  10   2.0000      -0.777124       -21.1466
  11   2.0000      -0.723669       -19.6920
  12   2.0000      -0.661450       -17.9990
  13   2.0000      -0.606221       -16.4961
  14   2.0000      -0.539400       -14.6778
  15   2.0000      -0.518497       -14.1090
  16   2.0000      -0.507361       -13.8060
  17   2.0000      -0.460177       -12.5221
  18   0.0000       0.023508         0.6397
  19   0.0000       0.060869         1.6563
  20   0.0000       0.065999         1.7959
  21   0.0000       0.073149         1.9905
  22   0.0000       0.094081         2.5601

MULLIKEN ATOMIC CHARGES
-----------------------
   0 C :   -0.100586
   1 N :   -0.345018
   2 N :   -0.008842
   3 N :    0.009426
   4 O :   -0.235131
   5 H :    0.680151
Sum of atomic charges:    0.0000000

LOEWDIN ATOMIC CHARGES
----------------------
   0 C :   -0.336325
   1 N :    0.171120
   2 N :   -0.058645
   3 N :    0.006609
   4 O :    0.406132
   5 H :   -0.188890

  Mayer bond orders larger than 0.100000
B(  0-C ,  1-N ) :   1.5388 B(  0-C ,  4-O ) :   1.2260 B(  0-C ,  5-H ) :   0.4854
B(  1-N ,  2-N ) :   0.7579 B(  1-N ,  3-N ) :   0.1538 B(  2-N ,  3-N ) :   1.2724
B(  3-N ,  4-O ) :   0.7464

MP2 TOTAL ENERGY:     -277.655514871 Eh
FINAL SINGLE POINT ENERGY      -277.655514870550

DIPOLE MOMENT
-------------
                                X             Y             Z
Electronic contribution:     -0.29817      -0.92612       0.00000
Nuclear contribution   :     -0.10950       2.02501       0.00000
                        -----------------------------------------
Total Dipole Moment    :     -0.40766       1.09889       0.00000
                        -----------------------------------------
Magnitude (a.u.)       :      1.17207
Magnitude (Debye)      :      2.97917

Rotational constants in cm-1:     0.361822     0.344339     0.176432
Rotational constants in MHz : 10847.158575 10323.028420  5289.302653

                             ****ORCA TERMINATED NORMALLY****
TOTAL RUN TIME: 0 days 0 hours 1 minutes 21 seconds 780 msec
