                         Program Version 5.0.3 -  RELEASE  -
|  1> !ri-mp2 aug-cc-pvtz aug-cc-pvtz/c tightscf
|  2> %pal nprocs 16 end
|  3>
|  4> * xyz 0 1
|  5> C     0.000000     3.710922   -0.232233
|  6> C     0.000000    -3.710922   -0.232233
|  7> C     0.000000     2.389208    0.533807
|  8> C     0.000000    -2.389208    0.533807
|  9> C     0.000000     1.184713   -0.390496
| 10> C     0.000000    -1.184713   -0.390496
| 11> O     0.000000     0.000000    0.385340
| 12> H    -0.881297     3.802170   -0.870295
| 13> H     0.000000     4.559288    0.452278
| 14> H     0.881297     3.802170   -0.870295
| 15> H     0.881297    -3.802170   -0.870295
| 16> H     0.000000    -4.559288    0.452278
| 17> H    -0.881297    -3.802170   -0.870295
| 18> H    -0.875832     2.330147    1.183540
| 19> H     0.875832     2.330147    1.183540
| 20> H     0.875832    -2.330147    1.183540
| 21> H    -0.875832    -2.330147    1.183540
| 22> H    -0.884755     1.205018   -1.043297
| 23> H     0.884755     1.205018   -1.043297
| 24> H     0.884755    -1.205018   -1.043297
| 25> H    -0.884755    -1.205018   -1.043297
| 26> *
| 27>
| 28>                          ****END OF INPUT****

CARTESIAN COORDINATES (ANGSTROEM)
---------------------------------
  C      0.000000    3.710922   -0.232233
  C      0.000000   -3.710922   -0.232233
  C      0.000000    2.389208    0.533807
  C      0.000000   -2.389208    0.533807
  C      0.000000    1.184713   -0.390496
  C      0.000000   -1.184713   -0.390496
  O      0.000000    0.000000    0.385340
  H     -0.881297    3.802170   -0.870295
  H      0.000000    4.559288    0.452278
  H      0.881297    3.802170   -0.870295
  H      0.881297   -3.802170   -0.870295
  H      0.000000   -4.559288    0.452278
  H     -0.881297   -3.802170   -0.870295
  H     -0.875832    2.330147    1.183540
  H      0.875832    2.330147    1.183540
  H      0.875832   -2.330147    1.183540
  H     -0.875832   -2.330147    1.183540
  H     -0.884755    1.205018   -1.043297
  H      0.884755    1.205018   -1.043297
  H      0.884755   -1.205018   -1.043297
  H     -0.884755   -1.205018   -1.043297

 Total Charge           Charge          ....    0
 Multiplicity           Mult            ....    1
 Number of Electrons    NEL             ....   58
 Basis Dimension        Dim             ....  644

ORBITAL ENERGIES
----------------

  NO   OCC          E(Eh)            E(eV)
   0   2.0000     -20.548647      -559.1571
   1   2.0000     -11.268245      -306.6245
   2   2.0000     -11.268226      -306.6240
   3   2.0000     -11.215773      -305.1967
   4   2.0000     -11.215772      -305.1967
   5   2.0000     -11.213777      -305.1424
   6   2.0000     -11.213777      -305.1424
   7   2.0000      -1.367566       -37.2134
   8   2.0000      -1.067065       -29.0363
   9   2.0000      -1.037945       -28.2439
  10   2.0000      -0.938153       -25.5284
  11   2.0000      -0.881359       -23.9830
  12   2.0000      -0.811789       -22.0899
  13   2.0000      -0.796725       -21.6800
  14   2.0000      -0.677890       -18.4463
  15   2.0000      -0.653897       -17.7934
  16   2.0000      -0.629080       -17.1181
  17   2.0000      -0.613247       -16.6873
  18   2.0000      -0.582066       -15.8388
  19   2.0000      -0.567988       -15.4557
  20   2.0000      -0.533609       -14.5202
  21   2.0000      -0.531897       -14.4737
  22   2.0000      -0.508997       -13.8505
  23   2.0000      -0.494713       -13.4618
  24   2.0000      -0.483623       -13.1601
  25   2.0000      -0.468459       -12.7474
  26   2.0000      -0.463949       -12.6247
  27   2.0000      -0.461569       -12.5599
  28   2.0000      -0.416352       -11.3295
  29   0.0000       0.030778         0.8375
  30   0.0000       0.031531         0.8580
  31   0.0000       0.037584         1.0227
  32   0.0000       0.038457         1.0465
  33   0.0000       0.047867         1.3025

MULLIKEN ATOMIC CHARGES
-----------------------
   0 C :   -0.928259
   1 C :   -0.928259
   2 C :   -0.523991
   3 C :   -0.523991
   4 C :   -0.170727
   5 C :   -0.170727
   6 O :   -0.607971
   7 H :    0.277044
   8 H :    0.288129
   9 H :    0.277044
  10 H :    0.277044
  11 H :    0.288129
  12 H :    0.277044
  13 H :    0.234673
  14 H :    0.234673
  15 H :    0.234673
  16 H :    0.234673
  17 H :    0.307700
  18 H :    0.307700
  19 H :    0.307700
  20 H :    0.307700
Sum of atomic charges:   -0.0000000

LOEWDIN ATOMIC CHARGES
----------------------
   0 C :    0.573238
   1 C :    0.573238
   2 C :    0.254477
   3 C :    0.254477
   4 C :    0.000054
   5 C :    0.000054
   6 O :    0.580677
   7 H :   -0.172191
   8 H :   -0.173990
   9 H :   -0.172191
  10 H :   -0.172191
  11 H :   -0.173990
  12 H :   -0.172191
  13 H :   -0.151172
  14 H :   -0.151172
  15 H :   -0.151172
  16 H :   -0.151172
  17 H :   -0.148695
  18 H :   -0.148695
  19 H :   -0.148695
  20 H :   -0.148695

  Mayer bond orders larger than 0.100000
B(  0-C ,  2-C ) :   0.9092 B(  0-C ,  7-H ) :   0.9451 B(  0-C ,  8-H ) :   0.9802
B(  0-C ,  9-H ) :   0.9451 B(  1-C ,  3-C ) :   0.9092 B(  1-C , 10-H ) :   0.9451
B(  1-C , 11-H ) :   0.9802 B(  1-C , 12-H ) :   0.9451 B(  2-C ,  4-C ) :   0.9168
B(  2-C , 13-H ) :   0.9738 B(  2-C , 14-H ) :   0.9738 B(  3-C ,  5-C ) :   0.9168
B(  3-C , 15-H ) :   0.9738 B(  3-C , 16-H ) :   0.9738 B(  4-C ,  5-C ) :   0.1303
B(  4-C ,  6-O ) :   0.9706 B(  4-C , 17-H ) :   0.8853 B(  4-C , 18-H ) :   0.8853
B(  5-C ,  6-O ) :   0.9706 B(  5-C , 19-H ) :   0.8853 B(  5-C , 20-H ) :   0.8853

MP2 TOTAL ENERGY:     -311.646019051 Eh
FINAL SINGLE POINT ENERGY      -311.646019051044

DIPOLE MOMENT
-------------
                                X             Y             Z
Electronic contribution:     -0.00000      -0.00000       1.71241
Nuclear contribution   :      0.00000      -0.00000      -2.14236
                        -----------------------------------------
Total Dipole Moment    :     -0.00000      -0.00000      -0.42995
                        -----------------------------------------
Magnitude (a.u.)       :      0.42995
Magnitude (Debye)      :      1.09284

Rotational constants in cm-1:     0.455319     0.026383     0.025649
Rotational constants in MHz : 13650.114421   790.928863   768.951370

                             ****ORCA TERMINATED NORMALLY****
TOTAL RUN TIME: 0 days 0 hours 7 minutes 26 seconds 581 msec
