                         Program Version 5.0.3 -  RELEASE  -
|  1> !ri-mp2 aug-cc-pvtz aug-cc-pvtz/c tightscf
|  2> %pal nprocs 16 end
|  3>
|  4> * xyz 0 1
|  5> C     -0.115632    2.015647    0.000000
|  6> H     -0.652547    2.342305    0.887714
|  7> H     -0.652547    2.342305   -0.887714
|  8> H      0.882425    2.445220    0.000000
|  9> N      0.000000    0.569086    0.000000
| 10> N     -1.090343   -0.221557    0.000000
| 11> N     -0.666004   -1.437578    0.000000
| 12> H      2.096573    0.126082    0.000000
| 13> C      1.080585   -0.227007    0.000000
| 14> N      0.690116   -1.479630    0.000000
| 15> *
| 16>
| 17>                          ****END OF INPUT****

CARTESIAN COORDINATES (ANGSTROEM)
---------------------------------
  C     -0.115632    2.015647    0.000000
  H     -0.652547    2.342305    0.887714
  H     -0.652547    2.342305   -0.887714
  H      0.882425    2.445220    0.000000
  N      0.000000    0.569086    0.000000
  N     -1.090343   -0.221557    0.000000
  N     -0.666004   -1.437578    0.000000
  H      2.096573    0.126082    0.000000
  C      1.080585   -0.227007    0.000000
  N      0.690116   -1.479630    0.000000

 Total Charge           Charge          ....    0
 Multiplicity           Mult            ....    1
 Number of Electrons    NEL             ....   44
 Basis Dimension        Dim             ....  368

ORBITAL ENERGIES
----------------

  NO   OCC          E(Eh)            E(eV)
   0   2.0000     -15.678681      -426.6386
   1   2.0000     -15.653294      -425.9478
   2   2.0000     -15.641595      -425.6294
   3   2.0000     -15.596684      -424.4073
   4   2.0000     -11.327514      -308.2373
   5   2.0000     -11.306357      -307.6616
   6   2.0000      -1.489455       -40.5301
   7   2.0000      -1.267115       -34.4800
   8   2.0000      -1.188737       -32.3472
   9   2.0000      -1.020447       -27.7678
  10   2.0000      -0.890895       -24.2425
  11   2.0000      -0.853758       -23.2319
  12   2.0000      -0.743140       -20.2219
  13   2.0000      -0.700099       -19.0507
  14   2.0000      -0.658117       -17.9083
  15   2.0000      -0.615596       -16.7512
  16   2.0000      -0.605084       -16.4652
  17   2.0000      -0.558324       -15.1928
  18   2.0000      -0.471775       -12.8376
  19   2.0000      -0.463359       -12.6087
  20   2.0000      -0.431195       -11.7334
  21   2.0000      -0.412107       -11.2140
  22   0.0000       0.016940         0.4610
  23   0.0000       0.033576         0.9137
  24   0.0000       0.038882         1.0580
  25   0.0000       0.045723         1.2442
  26   0.0000       0.077416         2.1066

MULLIKEN ATOMIC CHARGES
-----------------------
   0 C :   -0.745067
   1 H :    0.351189
   2 H :    0.351189
   3 H :    0.370384
   4 N :    0.477717
   5 N :   -0.297172
   6 N :   -0.368242
   7 H :    0.609978
   8 C :   -0.382416
   9 N :   -0.367558
Sum of atomic charges:   -0.0000000

LOEWDIN ATOMIC CHARGES
----------------------
   0 C :    0.527989
   1 H :   -0.159536
   2 H :   -0.159536
   3 H :   -0.168330
   4 N :   -0.010958
   5 N :    0.114940
   6 N :   -0.014370
   7 H :   -0.172961
   8 C :   -0.119701
   9 N :    0.162463

  Mayer bond orders larger than 0.100000
B(  0-C ,  1-H ) :   0.8983 B(  0-C ,  2-H ) :   0.8983 B(  0-C ,  3-H ) :   0.8644
B(  0-C ,  4-N ) :   0.7325 B(  4-N ,  5-N ) :   0.6846 B(  4-N ,  6-N ) :   0.1735
B(  4-N ,  8-C ) :   1.2281 B(  4-N ,  9-N ) :  -0.1547 B(  5-N ,  6-N ) :   0.9945
B(  5-N ,  9-N ) :   0.1561 B(  6-N ,  9-N ) :   0.6879 B(  7-H ,  8-C ) :   0.5567
B(  8-C ,  9-N ) :   1.4222

MP2 TOTAL ENERGY:     -297.049425743 Eh
FINAL SINGLE POINT ENERGY      -297.049425743157

DIPOLE MOMENT
-------------
                                X             Y             Z
Electronic contribution:     -0.70869      -4.88711       0.00000
Nuclear contribution   :      1.63895       7.11624       0.00000
                        -----------------------------------------
Total Dipole Moment    :      0.93026       2.22913       0.00000
                        -----------------------------------------
Magnitude (a.u.)       :      2.41545
Magnitude (Debye)      :      6.13958

Rotational constants in cm-1:     0.329566     0.127197     0.093392
Rotational constants in MHz :  9880.139942  3813.282627  2799.808306

                             ****ORCA TERMINATED NORMALLY****
TOTAL RUN TIME: 0 days 0 hours 1 minutes 52 seconds 367 msec
