                         Program Version 5.0.3 -  RELEASE  -
|  1> !ri-mp2 aug-cc-pvtz aug-cc-pvtz/c tightscf
|  2> %pal nprocs 16 end
|  3> %maxcore 3800
|  4>
|  5> * xyz 0 1
|  6> C     -4.547650   -1.705638    0.272597
|  7> C     -3.795689   -0.553081   -0.390005
|  8> C     -2.349515   -0.430093    0.100464
|  9> C     -1.615268    0.722413   -0.573309
| 10> S      0.037748    1.077404    0.089018
| 11> O      0.541910    2.249760   -0.624888
| 12> C      1.055947   -0.348493   -0.390800
| 13> C      2.496572   -0.170036    0.080449
| 14> C      3.378082   -1.358055   -0.315035
| 15> C      4.824517   -1.194420    0.147764
| 16> O     -0.048573    1.105880    1.548995
| 17> H     -4.067320   -2.663473    0.063479
| 18> H     -4.581440   -1.582093    1.356437
| 19> H     -5.575090   -1.764796   -0.087565
| 20> H     -4.320256    0.386228   -0.194738
| 21> H     -3.803321   -0.687023   -1.475548
| 22> H     -1.826735   -1.371038   -0.089908
| 23> H     -2.336575   -0.275264    1.180431
| 24> H     -2.130655    1.672755   -0.422484
| 25> H     -1.487390    0.579358   -1.646641
| 26> H      0.990394   -0.416247   -1.477160
| 27> H      0.591980   -1.227121    0.056620
| 28> H      2.505188   -0.047615    1.164989
| 29> H      2.901550    0.749170   -0.346134
| 30> H      3.354143   -1.481736   -1.401693
| 31> H      2.960814   -2.276931    0.107216
| 32> H      5.277008   -0.300011   -0.284003
| 33> H      4.882665   -1.102883    1.233779
| 34> H      5.432396   -2.050455   -0.146968
| 35> *
| 36>
| 37>                          ****END OF INPUT****

CARTESIAN COORDINATES (ANGSTROEM)
---------------------------------
  C     -4.547650   -1.705638    0.272597
  C     -3.795689   -0.553081   -0.390005
  C     -2.349515   -0.430093    0.100464
  C     -1.615268    0.722413   -0.573309
  S      0.037748    1.077404    0.089018
  O      0.541910    2.249760   -0.624888
  C      1.055947   -0.348493   -0.390800
  C      2.496572   -0.170036    0.080449
  C      3.378082   -1.358055   -0.315035
  C      4.824517   -1.194420    0.147764
  O     -0.048573    1.105880    1.548995
  H     -4.067320   -2.663473    0.063479
  H     -4.581440   -1.582093    1.356437
  H     -5.575090   -1.764796   -0.087565
  H     -4.320256    0.386228   -0.194738
  H     -3.803321   -0.687023   -1.475548
  H     -1.826735   -1.371038   -0.089908
  H     -2.336575   -0.275264    1.180431
  H     -2.130655    1.672755   -0.422484
  H     -1.487390    0.579358   -1.646641
  H      0.990394   -0.416247   -1.477160
  H      0.591980   -1.227121    0.056620
  H      2.505188   -0.047615    1.164989
  H      2.901550    0.749170   -0.346134
  H      3.354143   -1.481736   -1.401693
  H      2.960814   -2.276931    0.107216
  H      5.277008   -0.300011   -0.284003
  H      4.882665   -1.102883    1.233779
  H      5.432396   -2.050455   -0.146968

 Total Charge           Charge          ....    0
 Multiplicity           Mult            ....    1
 Number of Electrons    NEL             ....   98
 Basis Dimension        Dim             ....  924

ORBITAL ENERGIES
----------------

  NO   OCC          E(Eh)            E(eV)
   0   2.0000     -92.167616     -2508.0083
   1   2.0000     -20.533365      -558.7413
   2   2.0000     -20.532815      -558.7263
   3   2.0000     -11.274546      -306.7960
   4   2.0000     -11.274066      -306.7829
   5   2.0000     -11.246031      -306.0201
   6   2.0000     -11.238505      -305.8153
   7   2.0000     -11.238182      -305.8065
   8   2.0000     -11.233693      -305.6843
   9   2.0000     -11.225102      -305.4505
  10   2.0000     -11.219616      -305.3013
  11   2.0000      -9.137871      -248.6541
  12   2.0000      -6.822259      -185.6431
  13   2.0000      -6.821863      -185.6323
  14   2.0000      -6.821824      -185.6313
  15   2.0000      -1.430739       -38.9324
  16   2.0000      -1.319594       -35.9080
  17   2.0000      -1.111196       -30.2372
  18   2.0000      -1.098722       -29.8977
  19   2.0000      -1.038156       -28.2497
  20   2.0000      -1.011735       -27.5307
  21   2.0000      -0.928469       -25.2649
  22   2.0000      -0.891886       -24.2694
  23   2.0000      -0.821838       -22.3633
  24   2.0000      -0.814014       -22.1504
  25   2.0000      -0.788123       -21.4459
  26   2.0000      -0.686415       -18.6783
  27   2.0000      -0.673417       -18.3246
  28   2.0000      -0.664123       -18.0717
  29   2.0000      -0.651313       -17.7231
  30   2.0000      -0.633340       -17.2341
  31   2.0000      -0.605494       -16.4763
  32   2.0000      -0.604208       -16.4413
  33   2.0000      -0.594647       -16.1812
  34   2.0000      -0.590881       -16.0787
  35   2.0000      -0.555368       -15.1123
  36   2.0000      -0.553921       -15.0729
  37   2.0000      -0.529438       -14.4067
  38   2.0000      -0.523362       -14.2414
  39   2.0000      -0.517608       -14.0848
  40   2.0000      -0.500284       -13.6134
  41   2.0000      -0.496099       -13.4995
  42   2.0000      -0.492351       -13.3975
  43   2.0000      -0.487395       -13.2627
  44   2.0000      -0.486616       -13.2415
  45   2.0000      -0.477194       -12.9851
  46   2.0000      -0.468380       -12.7453
  47   2.0000      -0.455752       -12.4016
  48   2.0000      -0.415452       -11.3050
  49   0.0000       0.022183         0.6036
  50   0.0000       0.026865         0.7310
  51   0.0000       0.031781         0.8648
  52   0.0000       0.034624         0.9422
  53   0.0000       0.042789         1.1644

MULLIKEN ATOMIC CHARGES
-----------------------
   0 C :   -1.005741
   1 C :   -0.490407
   2 C :   -0.313414
   3 C :   -0.717907
   4 S :    2.313922
   5 O :   -1.133349
   6 C :   -0.565867
   7 C :   -0.393168
   8 C :   -0.468962
   9 C :   -1.010089
  10 O :   -1.118550
  11 H :    0.263697
  12 H :    0.261480
  13 H :    0.287229
  14 H :    0.253425
  15 H :    0.242566
  16 H :    0.272796
  17 H :    0.234266
  18 H :    0.310844
  19 H :    0.259938
  20 H :    0.328148
  21 H :    0.346985
  22 H :    0.290770
  23 H :    0.283763
  24 H :    0.222123
  25 H :    0.229013
  26 H :    0.267099
  27 H :    0.265672
  28 H :    0.283717
Sum of atomic charges:   -0.0000000

LOEWDIN ATOMIC CHARGES
----------------------
   0 C :    0.585836
   1 C :    0.261413
   2 C :    0.236539
   3 C :    0.208683
   4 S :    0.303363
   5 O :    0.029969
   6 C :    0.203284
   7 C :    0.237632
   8 C :    0.258995
   9 C :    0.585286
  10 O :    0.035168
  11 H :   -0.169706
  12 H :   -0.167998
  13 H :   -0.171012
  14 H :   -0.146298
  15 H :   -0.146124
  16 H :   -0.156431
  17 H :   -0.156443
  18 H :   -0.182261
  19 H :   -0.179588
  20 H :   -0.177369
  21 H :   -0.187340
  22 H :   -0.150091
  23 H :   -0.151404
  24 H :   -0.147693
  25 H :   -0.147724
  26 H :   -0.168393
  27 H :   -0.168382
  28 H :   -0.171911

  Mayer bond orders larger than 0.100000
B(  0-C ,  1-C ) :   0.9393 B(  0-C , 11-H ) :   0.9646 B(  0-C , 12-H ) :   0.9711
B(  0-C , 13-H ) :   0.9805 B(  1-C ,  2-C ) :   0.8626 B(  1-C , 14-H ) :   0.9695
B(  1-C , 15-H ) :   0.9554 B(  2-C ,  3-C ) :   0.9410 B(  2-C , 16-H ) :   0.9199
B(  2-C , 17-H ) :   0.9618 B(  3-C ,  4-S ) :   0.9760 B(  3-C ,  5-O ) :   0.1582
B(  3-C , 10-O ) :   0.1266 B(  3-C , 18-H ) :   0.9154 B(  3-C , 19-H ) :   0.9192
B(  4-S ,  5-O ) :   0.8960 B(  4-S ,  6-C ) :   0.9112 B(  4-S , 10-O ) :   1.0358
B(  6-C ,  7-C ) :   1.0114 B(  6-C , 20-H ) :   0.8650 B(  6-C , 21-H ) :   0.8597
B(  7-C ,  8-C ) :   0.8617 B(  7-C , 22-H ) :   0.9261 B(  7-C , 23-H ) :   0.9465
B(  8-C ,  9-C ) :   0.9127 B(  8-C , 24-H ) :   0.9769 B(  8-C , 25-H ) :   0.9738
B(  9-C , 26-H ) :   0.9664 B(  9-C , 27-H ) :   0.9671 B(  9-C , 28-H ) :   0.9830

MP2 TOTAL ENERGY:     -862.946675446 Eh
FINAL SINGLE POINT ENERGY      -862.946675446398

DIPOLE MOMENT
-------------
                                X             Y             Z
Electronic contribution:      0.69350      12.48653       1.54633
Nuclear contribution   :     -1.26565     -14.28672      -2.47556
                        -----------------------------------------
Total Dipole Moment    :     -0.57215      -1.80019      -0.92923
                        -----------------------------------------
Magnitude (a.u.)       :      2.10512
Magnitude (Debye)      :      5.35078

Rotational constants in cm-1:     0.051165     0.012619     0.011062
Rotational constants in MHz :  1533.879521   378.306436   331.636175

                             ****ORCA TERMINATED NORMALLY****
TOTAL RUN TIME: 0 days 0 hours 24 minutes 39 seconds 156 msec
