                         Program Version 5.0.3 -  RELEASE  -
|  1> !ri-mp2 aug-cc-pvtz aug-cc-pvtz/c tightscf
|  2> %pal nprocs 16 end
|  3>
|  4> * xyz 0 1
|  5> H      0.819970    0.970836    1.504408
|  6> H     -1.166548   -1.746969   -0.177938
|  7> H     -0.984908   -0.880520    1.362012
|  8> C     -1.009069   -0.777888    0.281092
|  9> H      0.177283    0.021144   -1.322049
| 10> Cl     1.582703   -1.367580   -0.036028
| 11> C      0.252711   -0.117091   -0.245865
| 12> C      0.632489    1.180766    0.448756
| 13> H      2.728827    1.294378   -0.120432
| 14> H      2.019134    2.837293    0.352290
| 15> H      1.638622    2.140940   -1.219876
| 16> C      1.825906    1.901249   -0.171533
| 17> H     -0.246766    1.827735    0.407093
| 18> Cl    -2.476694    0.215400   -0.120455
| 19> *
| 20>
| 21>                          ****END OF INPUT****

CARTESIAN COORDINATES (ANGSTROEM)
---------------------------------
  H      0.819970    0.970836    1.504408
  H     -1.166548   -1.746969   -0.177938
  H     -0.984908   -0.880520    1.362012
  C     -1.009069   -0.777888    0.281092
  H      0.177283    0.021144   -1.322049
  Cl     1.582703   -1.367580   -0.036028
  C      0.252711   -0.117091   -0.245865
  C      0.632489    1.180766    0.448756
  H      2.728827    1.294378   -0.120432
  H      2.019134    2.837293    0.352290
  H      1.638622    2.140940   -1.219876
  C      1.825906    1.901249   -0.171533
  H     -0.246766    1.827735    0.407093
  Cl    -2.476694    0.215400   -0.120455

 Total Charge           Charge          ....    0
 Multiplicity           Mult            ....    1
 Number of Electrons    NEL             ....   66
 Basis Dimension        Dim             ....  468

ORBITAL ENERGIES
----------------

  NO   OCC          E(Eh)            E(eV)
   0   2.0000    -104.835573     -2852.7210
   1   2.0000    -104.830796     -2852.5910
   2   2.0000     -11.317880      -307.9752
   3   2.0000     -11.311344      -307.7973
   4   2.0000     -11.243664      -305.9556
   5   2.0000     -11.224501      -305.4342
   6   2.0000     -10.559556      -287.3401
   7   2.0000     -10.554928      -287.2142
   8   2.0000      -8.026330      -218.4075
   9   2.0000      -8.024613      -218.3608
  10   2.0000      -8.024562      -218.3594
  11   2.0000      -8.021625      -218.2795
  12   2.0000      -8.019979      -218.2347
  13   2.0000      -8.019948      -218.2339
  14   2.0000      -1.176931       -32.0259
  15   2.0000      -1.115005       -30.3408
  16   2.0000      -1.046393       -28.4738
  17   2.0000      -0.969836       -26.3906
  18   2.0000      -0.882170       -24.0051
  19   2.0000      -0.805438       -21.9171
  20   2.0000      -0.666687       -18.1415
  21   2.0000      -0.639148       -17.3921
  22   2.0000      -0.630418       -17.1545
  23   2.0000      -0.584983       -15.9182
  24   2.0000      -0.573175       -15.5969
  25   2.0000      -0.528128       -14.3711
  26   2.0000      -0.517499       -14.0819
  27   2.0000      -0.508225       -13.8295
  28   2.0000      -0.489033       -13.3073
  29   2.0000      -0.457389       -12.4462
  30   2.0000      -0.444706       -12.1011
  31   2.0000      -0.442047       -12.0287
  32   2.0000      -0.436390       -11.8748
  33   0.0000       0.031195         0.8489
  34   0.0000       0.036078         0.9817
  35   0.0000       0.037497         1.0204
  36   0.0000       0.045586         1.2405
  37   0.0000       0.053864         1.4657

MULLIKEN ATOMIC CHARGES
-----------------------
   0 H :    0.315505
   1 H :    0.294002
   2 H :    0.251190
   3 C :   -0.365100
   4 H :    0.300051
   5 Cl:   -0.468410
   6 C :    0.309771
   7 C :   -0.454721
   8 H :    0.304002
   9 H :    0.274915
  10 H :    0.272305
  11 C :   -0.970306
  12 H :    0.298744
  13 Cl:   -0.361947
Sum of atomic charges:    0.0000000

LOEWDIN ATOMIC CHARGES
----------------------
   0 H :   -0.160816
   1 H :   -0.262702
   2 H :   -0.241657
   3 C :   -0.326658
   4 H :   -0.230631
   5 Cl:    0.934579
   6 C :   -0.606798
   7 C :    0.157331
   8 H :   -0.195308
   9 H :   -0.170489
  10 H :   -0.169383
  11 C :    0.563047
  12 H :   -0.186093
  13 Cl:    0.895580

  Mayer bond orders larger than 0.100000
B(  0-H ,  7-C ) :   0.9239 B(  1-H ,  3-C ) :   0.9675 B(  2-H ,  3-C ) :   0.9670
B(  3-C ,  6-C ) :   0.9278 B(  3-C , 13-Cl) :   0.7883 B(  4-H ,  6-C ) :   0.8981
B(  5-Cl,  6-C ) :   0.6243 B(  6-C ,  7-C ) :   0.9022 B(  7-C , 11-C ) :   0.8635
B(  7-C , 12-H ) :   0.9122 B(  8-H , 11-C ) :   0.9336 B(  9-H , 11-C ) :   0.9794
B( 10-H , 11-C ) :   0.9589

MP2 TOTAL ENERGY:    -1076.334370315 Eh
FINAL SINGLE POINT ENERGY     -1076.334370314910

DIPOLE MOMENT
-------------
                                X             Y             Z
Electronic contribution:     -5.99293      -7.62872      -0.87030
Nuclear contribution   :      6.11362       7.91767       0.98505
                        -----------------------------------------
Total Dipole Moment    :      0.12070       0.28896       0.11475
                        -----------------------------------------
Magnitude (a.u.)       :      0.33351
Magnitude (Debye)      :      0.84772

Rotational constants in cm-1:     0.100003     0.042590     0.031281
Rotational constants in MHz :  2997.999773  1276.820460   937.782265

                             ****ORCA TERMINATED NORMALLY****
TOTAL RUN TIME: 0 days 0 hours 3 minutes 47 seconds 910 msec
