                         Program Version 5.0.3 -  RELEASE  -
|  1> !ri-mp2 aug-cc-pvtz aug-cc-pvtz/c tightscf
|  2> %pal nprocs 16 end
|  3>
|  4> * xyz 0 1
|  5> O     -2.903943    0.542304    0.000007
|  6> O     -2.224534   -1.527721   -0.000004
|  7> N     -0.718011    0.114913    0.000001
|  8> N     -2.064664   -0.328750    0.000001
|  9> N      3.923133   -0.694141   -0.000009
| 10> C      1.475503    0.087120    0.000000
| 11> C      0.370315   -0.724286   -0.000004
| 12> C     -0.330392    1.446894    0.000007
| 13> C      1.027257    1.456025    0.000005
| 14> C      2.822191   -0.353769   -0.000005
| 15> H      0.260075   -1.791459   -0.000009
| 16> H     -1.062361    2.231220    0.000012
| 17> H      1.657653    2.327515    0.000009
| 18> *
| 19>
| 20>                          ****END OF INPUT****

CARTESIAN COORDINATES (ANGSTROEM)
---------------------------------
  O     -2.903943    0.542304    0.000007
  O     -2.224534   -1.527721   -0.000004
  N     -0.718011    0.114913    0.000001
  N     -2.064664   -0.328750    0.000001
  N      3.923133   -0.694141   -0.000009
  C      1.475503    0.087120    0.000000
  C      0.370315   -0.724286   -0.000004
  C     -0.330392    1.446894    0.000007
  C      1.027257    1.456025    0.000005
  C      2.822191   -0.353769   -0.000005
  H      0.260075   -1.791459   -0.000009
  H     -1.062361    2.231220    0.000012
  H      1.657653    2.327515    0.000009

 Total Charge           Charge          ....    0
 Multiplicity           Mult            ....    1
 Number of Electrons    NEL             ....   70
 Basis Dimension        Dim             ....  529

ORBITAL ENERGIES
----------------

  NO   OCC          E(Eh)            E(eV)
   0   2.0000     -20.652406      -561.9806
   1   2.0000     -20.652085      -561.9718
   2   2.0000     -15.940814      -433.7716
   3   2.0000     -15.722574      -427.8330
   4   2.0000     -15.586330      -424.1256
   5   2.0000     -11.336512      -308.4822
   6   2.0000     -11.319956      -308.0317
   7   2.0000     -11.305844      -307.6477
   8   2.0000     -11.291468      -307.2565
   9   2.0000     -11.282582      -307.0147
  10   2.0000      -1.681524       -45.7566
  11   2.0000      -1.468321       -39.9550
  12   2.0000      -1.386343       -37.7243
  13   2.0000      -1.237660       -33.6785
  14   2.0000      -1.163193       -31.6521
  15   2.0000      -1.065538       -28.9948
  16   2.0000      -0.998606       -27.1735
  17   2.0000      -0.886745       -24.1295
  18   2.0000      -0.852312       -23.1926
  19   2.0000      -0.815214       -22.1831
  20   2.0000      -0.798850       -21.7378
  21   2.0000      -0.780978       -21.2515
  22   2.0000      -0.744950       -20.2711
  23   2.0000      -0.658971       -17.9315
  24   2.0000      -0.652425       -17.7534
  25   2.0000      -0.637195       -17.3389
  26   2.0000      -0.618363       -16.8265
  27   2.0000      -0.573192       -15.5973
  28   2.0000      -0.557292       -15.1647
  29   2.0000      -0.545479       -14.8432
  30   2.0000      -0.523190       -14.2367
  31   2.0000      -0.507710       -13.8155
  32   2.0000      -0.481742       -13.1089
  33   2.0000      -0.411915       -11.2088
  34   2.0000      -0.368601       -10.0301
  35   0.0000       0.022187         0.6037
  36   0.0000       0.022654         0.6164
  37   0.0000       0.033107         0.9009
  38   0.0000       0.037936         1.0323
  39   0.0000       0.061000         1.6599

MULLIKEN ATOMIC CHARGES
-----------------------
   0 O :   -0.712762
   1 O :   -0.730054
   2 N :    0.124896
   3 N :    1.332920
   4 N :   -0.776994
   5 C :    1.132215
   6 C :   -0.931175
   7 C :   -0.551110
   8 C :   -0.706644
   9 C :    0.188152
  10 H :    0.563449
  11 H :    0.691131
  12 H :    0.375977
Sum of atomic charges:    0.0000000

LOEWDIN ATOMIC CHARGES
----------------------
   0 O :    0.417808
   1 O :    0.417415
   2 N :    0.116955
   3 N :   -0.781679
   4 N :    0.268093
   5 C :   -0.212485
   6 C :    0.151822
   7 C :    0.145216
   8 C :    0.222136
   9 C :   -0.232018
  10 H :   -0.162478
  11 H :   -0.179320
  12 H :   -0.171465

  Mayer bond orders larger than 0.100000
B(  0-O ,  1-O ) :   0.1141 B(  0-O ,  2-N ) :   0.3617 B(  0-O ,  3-N ) :   0.7597
B(  1-O ,  2-N ) :   0.4361 B(  1-O ,  3-N ) :   0.7099 B(  1-O ,  6-C ) :  -0.1267
B(  2-N ,  3-N ) :   0.9848 B(  2-N ,  5-C ) :  -0.2107 B(  2-N ,  6-C ) :   1.1187
B(  2-N ,  7-C ) :   1.1642 B(  2-N ,  8-C ) :  -0.3520 B(  4-N ,  5-C ) :  -0.1838
B(  4-N ,  6-C ) :   0.1325 B(  4-N ,  9-C ) :   1.9853 B(  5-C ,  6-C ) :   0.6906
B(  5-C ,  7-C ) :   0.1743 B(  5-C ,  8-C ) :   1.0338 B(  5-C ,  9-C ) :   0.3854
B(  6-C ,  9-C ) :   0.2344 B(  6-C , 10-H ) :   0.6717 B(  7-C ,  8-C ) :   1.1616
B(  7-C , 11-H ) :   0.3853 B(  8-C , 12-H ) :   1.0601

MP2 TOTAL ENERGY:     -506.037207914 Eh
FINAL SINGLE POINT ENERGY      -506.037207914488

DIPOLE MOMENT
-------------
                                X             Y             Z
Electronic contribution:     -1.48749      -1.78856      -0.00001
Nuclear contribution   :      0.74912       2.63357       0.00001
                        -----------------------------------------
Total Dipole Moment    :     -0.73837       0.84501       0.00001
                        -----------------------------------------
Magnitude (a.u.)       :      1.12216
Magnitude (Debye)      :      2.85229

Rotational constants in cm-1:     0.137440     0.026422     0.022161
Rotational constants in MHz :  4120.345078   792.103593   664.381525

                             ****ORCA TERMINATED NORMALLY****
TOTAL RUN TIME: 0 days 0 hours 5 minutes 55 seconds 606 msec
