                         Program Version 5.0.3 -  RELEASE  -
|  1> !ri-mp2 aug-cc-pvtz aug-cc-pvtz/c tightscf
|  2> %pal nprocs 16 end
|  3>
|  4> * xyz 0 1
|  5> H     -2.225998   -0.334426    0.000000
|  6> C     -1.153291   -0.397233    0.000000
|  7> C      0.000000    0.177369    0.000000
|  8> H      0.299785   -1.863186    0.910841
|  9> H      0.299785   -1.863186   -0.910841
| 10> C      0.031359   -1.328906    0.000000
| 11> H      1.501616    1.388241    0.877063
| 12> H      0.254349    2.293402    0.000000
| 13> H      1.501616    1.388241   -0.877063
| 14> C      0.850074    1.380589    0.000000
| 15> *
| 16>
| 17>                          ****END OF INPUT****

CARTESIAN COORDINATES (ANGSTROEM)
---------------------------------
  H     -2.225998   -0.334426    0.000000
  C     -1.153291   -0.397233    0.000000
  C      0.000000    0.177369    0.000000
  H      0.299785   -1.863186    0.910841
  H      0.299785   -1.863186   -0.910841
  C      0.031359   -1.328906    0.000000
  H      1.501616    1.388241    0.877063
  H      0.254349    2.293402    0.000000
  H      1.501616    1.388241   -0.877063
  C      0.850074    1.380589    0.000000

 Total Charge           Charge          ....    0
 Multiplicity           Mult            ....    1
 Number of Electrons    NEL             ....   30
 Basis Dimension        Dim             ....  322

ORBITAL ENERGIES
----------------

  NO   OCC          E(Eh)            E(eV)
   0   2.0000     -11.243291      -305.9455
   1   2.0000     -11.235959      -305.7460
   2   2.0000     -11.229243      -305.5632
   3   2.0000     -11.228642      -305.5469
   4   2.0000      -1.157267       -31.4908
   5   2.0000      -0.987721       -26.8772
   6   2.0000      -0.812922       -22.1207
   7   2.0000      -0.724964       -19.7273
   8   2.0000      -0.634151       -17.2561
   9   2.0000      -0.604512       -16.4496
  10   2.0000      -0.588056       -16.0018
  11   2.0000      -0.559026       -15.2119
  12   2.0000      -0.470454       -12.8017
  13   2.0000      -0.405451       -11.0329
  14   2.0000      -0.343296        -9.3415
  15   0.0000       0.030054         0.8178
  16   0.0000       0.035199         0.9578
  17   0.0000       0.040011         1.0888
  18   0.0000       0.043278         1.1777
  19   0.0000       0.058628         1.5954

MULLIKEN ATOMIC CHARGES
-----------------------
   0 H :    0.336841
   1 C :   -1.238059
   2 C :    0.880085
   3 H :    0.325758
   4 H :    0.325758
   5 C :   -0.827632
   6 H :    0.279460
   7 H :    0.294633
   8 H :    0.279460
   9 C :   -0.656304
Sum of atomic charges:   -0.0000000

LOEWDIN ATOMIC CHARGES
----------------------
   0 H :   -0.197231
   1 C :    0.306660
   2 C :   -0.068597
   3 H :   -0.199593
   4 H :   -0.199593
   5 C :    0.303742
   6 H :   -0.176820
   7 H :   -0.179204
   8 H :   -0.176820
   9 C :    0.587456

  Mayer bond orders larger than 0.100000
B(  0-H ,  1-C ) :   1.1936 B(  1-C ,  2-C ) :   0.6600 B(  1-C ,  5-C ) :   1.2361
B(  2-C ,  5-C ) :   0.6341 B(  2-C ,  9-C ) :   0.7146 B(  3-H ,  5-C ) :   0.8608
B(  4-H ,  5-C ) :   0.8608 B(  6-H ,  9-C ) :   0.9546 B(  7-H ,  9-C ) :   0.9773
B(  8-H ,  9-C ) :   0.9546

MP2 TOTAL ENERGY:     -155.593560957 Eh
FINAL SINGLE POINT ENERGY      -155.593560956780

DIPOLE MOMENT
-------------
                                X             Y             Z
Electronic contribution:     -1.63746      -0.69584      -0.00000
Nuclear contribution   :      1.69901       1.05106       0.00000
                        -----------------------------------------
Total Dipole Moment    :      0.06154       0.35522      -0.00000
                        -----------------------------------------
Magnitude (a.u.)       :      0.36052
Magnitude (Debye)      :      0.91636

Rotational constants in cm-1:     0.692299     0.212960     0.173678
Rotational constants in MHz : 20754.590498  6384.365399  5206.741531

                             ****ORCA TERMINATED NORMALLY****
TOTAL RUN TIME: 0 days 0 hours 1 minutes 33 seconds 452 msec
