                         Program Version 5.0.3 -  RELEASE  -
|  1> !ri-mp2 aug-cc-pvtz aug-cc-pvtz/c tightscf
|  2> %pal nprocs 16 end
|  3>
|  4> * xyz 0 1
|  5> C      2.237512   -1.080208   -0.077675
|  6> C      1.403583   -0.280902   -0.719892
|  7> S      0.000000    0.441332    0.117731
|  8> O      0.000000   -0.012068    1.503955
|  9> C     -1.403588   -0.280896   -0.719890
| 10> C     -2.237510   -1.080210   -0.077674
| 11> O      0.000003    1.864598   -0.204444
| 12> H      2.063322   -1.347346    0.955947
| 13> H      3.118409   -1.474130   -0.566836
| 14> H      1.522477    0.047345   -1.743611
| 15> H     -1.522490    0.047360   -1.743604
| 16> H     -2.063312   -1.347358    0.955944
| 17> H     -3.118410   -1.474129   -0.566832
| 18> *
| 19>
| 20>                          ****END OF INPUT****

CARTESIAN COORDINATES (ANGSTROEM)
---------------------------------
  C      2.237512   -1.080208   -0.077675
  C      1.403583   -0.280902   -0.719892
  S      0.000000    0.441332    0.117731
  O      0.000000   -0.012068    1.503955
  C     -1.403588   -0.280896   -0.719890
  C     -2.237510   -1.080210   -0.077674
  O      0.000003    1.864598   -0.204444
  H      2.063322   -1.347346    0.955947
  H      3.118409   -1.474130   -0.566836
  H      1.522477    0.047345   -1.743611
  H     -1.522490    0.047360   -1.743604
  H     -2.063312   -1.347358    0.955944
  H     -3.118410   -1.474129   -0.566832

 Total Charge           Charge          ....    0
 Multiplicity           Mult            ....    1
 Number of Electrons    NEL             ....   62
 Basis Dimension        Dim             ....  464

ORBITAL ENERGIES
----------------

  NO   OCC          E(Eh)            E(eV)
   0   2.0000     -92.185762     -2508.5021
   1   2.0000     -20.546962      -559.1113
   2   2.0000     -20.542084      -558.9785
   3   2.0000     -11.281526      -306.9859
   4   2.0000     -11.281514      -306.9856
   5   2.0000     -11.275737      -306.8284
   6   2.0000     -11.275736      -306.8284
   7   2.0000      -9.154543      -249.1078
   8   2.0000      -6.839220      -186.1046
   9   2.0000      -6.839031      -186.0995
  10   2.0000      -6.838659      -186.0894
  11   2.0000      -1.444076       -39.2953
  12   2.0000      -1.333353       -36.2824
  13   2.0000      -1.106938       -30.1213
  14   2.0000      -1.085864       -29.5479
  15   2.0000      -0.936928       -25.4951
  16   2.0000      -0.835941       -22.7471
  17   2.0000      -0.772658       -21.0251
  18   2.0000      -0.715733       -19.4761
  19   2.0000      -0.683721       -18.6050
  20   2.0000      -0.671431       -18.2706
  21   2.0000      -0.645559       -17.5666
  22   2.0000      -0.621732       -16.9182
  23   2.0000      -0.579112       -15.7584
  24   2.0000      -0.575204       -15.6521
  25   2.0000      -0.498758       -13.5719
  26   2.0000      -0.497399       -13.5349
  27   2.0000      -0.476637       -12.9699
  28   2.0000      -0.443928       -12.0799
  29   2.0000      -0.438409       -11.9297
  30   2.0000      -0.407584       -11.0909
  31   0.0000       0.023274         0.6333
  32   0.0000       0.029229         0.7954
  33   0.0000       0.035222         0.9584
  34   0.0000       0.049857         1.3567
  35   0.0000       0.050490         1.3739

MULLIKEN ATOMIC CHARGES
-----------------------
   0 C :   -1.029827
   1 C :   -0.408420
   2 S :    2.079363
   3 O :   -0.967683
   4 C :   -0.408422
   5 C :   -1.029826
   6 O :   -0.998222
   7 H :    0.416859
   8 H :    0.474583
   9 H :    0.490074
  10 H :    0.490076
  11 H :    0.416860
  12 H :    0.474583
Sum of atomic charges:   -0.0000000

LOEWDIN ATOMIC CHARGES
----------------------
   0 C :    0.486652
   1 C :    0.067929
   2 S :    0.195299
   3 O :    0.040323
   4 C :    0.067930
   5 C :    0.486652
   6 O :    0.013369
   7 H :   -0.233066
   8 H :   -0.211406
   9 H :   -0.234606
  10 H :   -0.234607
  11 H :   -0.233066
  12 H :   -0.211405

  Mayer bond orders larger than 0.100000
B(  0-C ,  1-C ) :   1.4845 B(  0-C ,  7-H ) :   0.8650 B(  0-C ,  8-H ) :   0.7328
B(  1-C ,  2-S ) :   1.0359 B(  1-C ,  4-C ) :   0.1528 B(  1-C ,  6-O ) :   0.1374
B(  1-C ,  9-H ) :   0.7223 B(  2-S ,  3-O ) :   1.2997 B(  2-S ,  4-C ) :   1.0359
B(  2-S ,  6-O ) :   1.1001 B(  4-C ,  5-C ) :   1.4845 B(  4-C ,  6-O ) :   0.1374
B(  4-C , 10-H ) :   0.7223 B(  5-C , 11-H ) :   0.8650 B(  5-C , 12-H ) :   0.7328

MP2 TOTAL ENERGY:     -703.578836181 Eh
FINAL SINGLE POINT ENERGY      -703.578836181206

DIPOLE MOMENT
-------------
                                X             Y             Z
Electronic contribution:      0.00000       3.76662       1.47181
Nuclear contribution   :     -0.00000      -5.45262      -2.65319
                        -----------------------------------------
Total Dipole Moment    :     -0.00000      -1.68600      -1.18138
                        -----------------------------------------
Magnitude (a.u.)       :      2.05870
Magnitude (Debye)      :      5.23281

Rotational constants in cm-1:     0.106667     0.065117     0.056181
Rotational constants in MHz :  3197.810352  1952.164495  1684.276043

                             ****ORCA TERMINATED NORMALLY****
TOTAL RUN TIME: 0 days 0 hours 3 minutes 30 seconds 54 msec
