                         Program Version 5.0.3 -  RELEASE  -
|  1> !ri-mp2 aug-cc-pvtz aug-cc-pvtz/c tightscf
|  2> %pal nprocs 16 end
|  3>
|  4> * xyz 0 1
|  5> C     0.000000     0.000000    0.149260
|  6> C     0.755342     0.000000   -1.153405
|  7> C    -0.755342     0.000000   -1.153405
|  8> C     0.000000     1.272527    0.969653
|  9> C     0.000000    -1.272527    0.969653
| 10> H     1.261720     0.908062   -1.451789
| 11> H     1.261720    -0.908062   -1.451789
| 12> H    -1.261720    -0.908062   -1.451789
| 13> H    -1.261720     0.908062   -1.451789
| 14> H    -0.882277     1.324395    1.612690
| 15> H    -0.882277    -1.324395    1.612690
| 16> H     0.882277    -1.324395    1.612690
| 17> H     0.882277     1.324395    1.612690
| 18> H     0.000000     2.158152    0.332929
| 19> H     0.000000    -2.158152    0.332929
| 20> *
| 21>
| 22>                          ****END OF INPUT****

CARTESIAN COORDINATES (ANGSTROEM)
---------------------------------
  C      0.000000    0.000000    0.149260
  C      0.755342    0.000000   -1.153405
  C     -0.755342    0.000000   -1.153405
  C      0.000000    1.272527    0.969653
  C      0.000000   -1.272527    0.969653
  H      1.261720    0.908062   -1.451789
  H      1.261720   -0.908062   -1.451789
  H     -1.261720   -0.908062   -1.451789
  H     -1.261720    0.908062   -1.451789
  H     -0.882277    1.324395    1.612690
  H     -0.882277   -1.324395    1.612690
  H      0.882277   -1.324395    1.612690
  H      0.882277    1.324395    1.612690
  H      0.000000    2.158152    0.332929
  H      0.000000   -2.158152    0.332929

 Total Charge           Charge          ....    0
 Multiplicity           Mult            ....    1
 Number of Electrons    NEL             ....   40
 Basis Dimension        Dim             ....  460

ORBITAL ENERGIES
----------------

  NO   OCC          E(Eh)            E(eV)
   0   2.0000     -11.233119      -305.6687
   1   2.0000     -11.216443      -305.2149
   2   2.0000     -11.215799      -305.1974
   3   2.0000     -11.212441      -305.1060
   4   2.0000     -11.212420      -305.1055
   5   2.0000      -1.150256       -31.3001
   6   2.0000      -0.975598       -26.5474
   7   2.0000      -0.934892       -25.4397
   8   2.0000      -0.819659       -22.3041
   9   2.0000      -0.736873       -20.0513
  10   2.0000      -0.649327       -17.6691
  11   2.0000      -0.617098       -16.7921
  12   2.0000      -0.584913       -15.9163
  13   2.0000      -0.550482       -14.9794
  14   2.0000      -0.539296       -14.6750
  15   2.0000      -0.525561       -14.3012
  16   2.0000      -0.503198       -13.6927
  17   2.0000      -0.476184       -12.9576
  18   2.0000      -0.405255       -11.0275
  19   2.0000      -0.388838       -10.5808
  20   0.0000       0.031244         0.8502
  21   0.0000       0.037240         1.0134
  22   0.0000       0.037942         1.0325
  23   0.0000       0.038248         1.0408
  24   0.0000       0.054255         1.4763

MULLIKEN ATOMIC CHARGES
-----------------------
   0 C :    1.185356
   1 C :   -1.135175
   2 C :   -1.135175
   3 C :   -0.894773
   4 C :   -0.894773
   5 H :    0.328428
   6 H :    0.328428
   7 H :    0.328428
   8 H :    0.328428
   9 H :    0.247285
  10 H :    0.247285
  11 H :    0.247285
  12 H :    0.247285
  13 H :    0.285843
  14 H :    0.285843
Sum of atomic charges:    0.0000000

LOEWDIN ATOMIC CHARGES
----------------------
   0 C :   -0.329536
   1 C :    0.374485
   2 C :    0.374485
   3 C :    0.592795
   4 C :    0.592795
   5 H :   -0.157262
   6 H :   -0.157262
   7 H :   -0.157262
   8 H :   -0.157262
   9 H :   -0.159552
  10 H :   -0.159552
  11 H :   -0.159552
  12 H :   -0.159552
  13 H :   -0.168884
  14 H :   -0.168884

  Mayer bond orders larger than 0.100000
B(  0-C ,  1-C ) :   0.2211 B(  0-C ,  2-C ) :   0.2211 B(  0-C ,  3-C ) :   0.6181
B(  0-C ,  4-C ) :   0.6181 B(  1-C ,  2-C ) :   1.5951 B(  1-C ,  5-H ) :   0.8806
B(  1-C ,  6-H ) :   0.8806 B(  2-C ,  7-H ) :   0.8806 B(  2-C ,  8-H ) :   0.8806
B(  3-C ,  9-H ) :   0.9982 B(  3-C , 12-H ) :   0.9982 B(  3-C , 13-H ) :   1.0056
B(  4-C , 10-H ) :   0.9982 B(  4-C , 11-H ) :   0.9982 B(  4-C , 14-H ) :   1.0056

MP2 TOTAL ENERGY:     -196.083467395 Eh
FINAL SINGLE POINT ENERGY      -196.083467394582

DIPOLE MOMENT
-------------
                                X             Y             Z
Electronic contribution:     -0.00000       0.00000      -1.34970
Nuclear contribution   :      0.00000       0.00000       1.40259
                        -----------------------------------------
Total Dipole Moment    :     -0.00000       0.00000       0.05289
                        -----------------------------------------
Magnitude (a.u.)       :      0.05289
Magnitude (Debye)      :      0.13444

Rotational constants in cm-1:     0.205709     0.173329     0.127054
Rotational constants in MHz :  6167.007739  5196.285132  3808.977568

                             ****ORCA TERMINATED NORMALLY****
TOTAL RUN TIME: 0 days 0 hours 3 minutes 38 seconds 100 msec
