                         Program Version 5.0.3 -  RELEASE  -
|  1> !ri-mp2 aug-cc-pvtz aug-cc-pvtz/c tightscf
|  2> %pal nprocs 16 end
|  3>
|  4> * xyz 0 1
|  5> C      0.000000    0.000000   -0.140930
|  6> S      0.000000    0.000000    1.541614
|  7> N     -0.517952   -1.016530   -0.880814
|  8> N      0.517952    1.016530   -0.880814
|  9> C     -1.052435   -2.261346   -0.344065
| 10> C      1.052435    2.261346   -0.344065
| 11> H      1.838995    2.593560   -1.024235
| 12> H      1.512770    2.026931    0.612762
| 13> C      0.000000    3.353187   -0.170351
| 14> H     -1.838995   -2.593560   -1.024235
| 15> H     -1.512770   -2.026931    0.612762
| 16> C      0.000000   -3.353187   -0.170351
| 17> H      0.475134   -3.601948   -1.121155
| 18> H     -0.461950   -4.260562    0.222206
| 19> H      0.769069   -3.029798    0.529468
| 20> H      0.461950    4.260562    0.222206
| 21> H     -0.769069    3.029798    0.529468
| 22> H     -0.475134    3.601948   -1.121155
| 23> H     -0.367821   -0.990573   -1.876978
| 24> H      0.367821    0.990573   -1.876978
| 25> *
| 26>
| 27>                          ****END OF INPUT****

CARTESIAN COORDINATES (ANGSTROEM)
---------------------------------
  C      0.000000    0.000000   -0.140930
  S      0.000000    0.000000    1.541614
  N     -0.517952   -1.016530   -0.880814
  N      0.517952    1.016530   -0.880814
  C     -1.052435   -2.261346   -0.344065
  C      1.052435    2.261346   -0.344065
  H      1.838995    2.593560   -1.024235
  H      1.512770    2.026931    0.612762
  C      0.000000    3.353187   -0.170351
  H     -1.838995   -2.593560   -1.024235
  H     -1.512770   -2.026931    0.612762
  C      0.000000   -3.353187   -0.170351
  H      0.475134   -3.601948   -1.121155
  H     -0.461950   -4.260562    0.222206
  H      0.769069   -3.029798    0.529468
  H      0.461950    4.260562    0.222206
  H     -0.769069    3.029798    0.529468
  H     -0.475134    3.601948   -1.121155
  H     -0.367821   -0.990573   -1.876978
  H      0.367821    0.990573   -1.876978

 Total Charge           Charge          ....    0
 Multiplicity           Mult            ....    1
 Number of Electrons    NEL             ....   72
 Basis Dimension        Dim             ....  648

ORBITAL ENERGIES
----------------

  NO   OCC          E(Eh)            E(eV)
   0   2.0000     -91.878227     -2500.1337
   1   2.0000     -15.595761      -424.3822
   2   2.0000     -15.595733      -424.3815
   3   2.0000     -11.369551      -309.3812
   4   2.0000     -11.264850      -306.5322
   5   2.0000     -11.264849      -306.5321
   6   2.0000     -11.215967      -305.2020
   7   2.0000     -11.215967      -305.2020
   8   2.0000      -8.881672      -241.6826
   9   2.0000      -6.563298      -178.5964
  10   2.0000      -6.561344      -178.5432
  11   2.0000      -6.560820      -178.5290
  12   2.0000      -1.310195       -35.6522
  13   2.0000      -1.216565       -33.1044
  14   2.0000      -1.043304       -28.3897
  15   2.0000      -1.000575       -27.2270
  16   2.0000      -0.966079       -26.2883
  17   2.0000      -0.881681       -23.9918
  18   2.0000      -0.841029       -22.8856
  19   2.0000      -0.766581       -20.8597
  20   2.0000      -0.754471       -20.5302
  21   2.0000      -0.673498       -18.3268
  22   2.0000      -0.632256       -17.2046
  23   2.0000      -0.611154       -16.6303
  24   2.0000      -0.600778       -16.3480
  25   2.0000      -0.589828       -16.0500
  26   2.0000      -0.574190       -15.6245
  27   2.0000      -0.530133       -14.4257
  28   2.0000      -0.522448       -14.2165
  29   2.0000      -0.510136       -13.8815
  30   2.0000      -0.498828       -13.5738
  31   2.0000      -0.494755       -13.4630
  32   2.0000      -0.486981       -13.2514
  33   2.0000      -0.386896       -10.5280
  34   2.0000      -0.317102        -8.6288
  35   2.0000      -0.313735        -8.5372
  36   0.0000       0.018118         0.4930
  37   0.0000       0.030656         0.8342
  38   0.0000       0.035075         0.9544
  39   0.0000       0.039361         1.0711
  40   0.0000       0.047295         1.2870

MULLIKEN ATOMIC CHARGES
-----------------------
   0 C :    0.587903
   1 S :   -0.577471
   2 N :   -0.271128
   3 N :   -0.271128
   4 C :   -0.469214
   5 C :   -0.469214
   6 H :    0.358113
   7 H :    0.365057
   8 C :   -0.911601
   9 H :    0.358113
  10 H :    0.365057
  11 C :   -0.911602
  12 H :    0.257315
  13 H :    0.313901
  14 H :    0.323637
  15 H :    0.313901
  16 H :    0.323637
  17 H :    0.257315
  18 H :    0.028704
  19 H :    0.028704
Sum of atomic charges:   -0.0000000

LOEWDIN ATOMIC CHARGES
----------------------
   0 C :   -0.969572
   1 S :    0.915553
   2 N :    0.486777
   3 N :    0.486777
   4 C :    0.138759
   5 C :    0.138759
   6 H :   -0.148559
   7 H :   -0.215607
   8 C :    0.583192
   9 H :   -0.148559
  10 H :   -0.215607
  11 C :    0.583192
  12 H :   -0.175420
  13 H :   -0.172503
  14 H :   -0.182689
  15 H :   -0.172503
  16 H :   -0.182689
  17 H :   -0.175420
  18 H :   -0.286940
  19 H :   -0.286940

  Mayer bond orders larger than 0.100000
B(  0-C ,  1-S ) :   1.3985 B(  0-C ,  2-N ) :   0.9679 B(  0-C ,  3-N ) :   0.9679
B(  0-C ,  4-C ) :  -0.1167 B(  0-C ,  5-C ) :  -0.1167 B(  2-N ,  4-C ) :   0.9669
B(  2-N , 18-H ) :   1.1009 B(  3-N ,  5-C ) :   0.9669 B(  3-N , 19-H ) :   1.1009
B(  4-C ,  9-H ) :   0.8746 B(  4-C , 10-H ) :   0.8884 B(  4-C , 11-C ) :   0.9073
B(  5-C ,  6-H ) :   0.8746 B(  5-C ,  7-H ) :   0.8884 B(  5-C ,  8-C ) :   0.9073
B(  8-C , 15-H ) :   0.9206 B(  8-C , 16-H ) :   0.9108 B(  8-C , 17-H ) :   0.9682
B( 11-C , 12-H ) :   0.9682 B( 11-C , 13-H ) :   0.9206 B( 11-C , 14-H ) :   0.9108

MP2 TOTAL ENERGY:     -704.372580414 Eh
FINAL SINGLE POINT ENERGY      -704.372580414495

DIPOLE MOMENT
-------------
                                X             Y             Z
Electronic contribution:     -0.00000      -0.00000       3.42911
Nuclear contribution   :     -0.00000       0.00000      -5.49554
                        -----------------------------------------
Total Dipole Moment    :     -0.00000      -0.00000      -2.06643
                        -----------------------------------------
Magnitude (a.u.)       :      2.06643
Magnitude (Debye)      :      5.25245

Rotational constants in cm-1:     0.113767     0.029324     0.025697
Rotational constants in MHz :  3410.654479   879.116418   770.368199

                             ****ORCA TERMINATED NORMALLY****
TOTAL RUN TIME: 0 days 0 hours 10 minutes 28 seconds 510 msec
