                         Program Version 5.0.3 -  RELEASE  -
|  1> !ri-mp2 aug-cc-pvtz aug-cc-pvtz/c tightscf
|  2> %pal nprocs 16 end
|  3>
|  4> * xyz 0 1
|  5> O     1.498061     2.666221    0.000000
|  6> O    -1.498061    -2.666221    0.000000
|  7> C     1.498061     1.237514    0.000000
|  8> C    -1.498061    -1.237514    0.000000
|  9> C     0.056538     0.762057    0.000000
| 10> C    -0.056538    -0.762057    0.000000
| 11> H     2.406126     2.980641    0.000000
| 12> H    -2.406126    -2.980641    0.000000
| 13> H    -0.445072     1.179692    0.876807
| 14> H    -0.445072     1.179692   -0.876807
| 15> H     0.445072    -1.179692    0.876807
| 16> H     0.445072    -1.179692   -0.876807
| 17> H    -2.018661    -0.854825   -0.885586
| 18> H    -2.018661    -0.854825    0.885586
| 19> H     2.018661     0.854825   -0.885586
| 20> H     2.018661     0.854825    0.885586
| 21> *
| 22>
| 23>                          ****END OF INPUT****

CARTESIAN COORDINATES (ANGSTROEM)
---------------------------------
  O      1.498061    2.666221    0.000000
  O     -1.498061   -2.666221    0.000000
  C      1.498061    1.237514    0.000000
  C     -1.498061   -1.237514    0.000000
  C      0.056538    0.762057    0.000000
  C     -0.056538   -0.762057    0.000000
  H      2.406126    2.980641    0.000000
  H     -2.406126   -2.980641    0.000000
  H     -0.445072    1.179692    0.876807
  H     -0.445072    1.179692   -0.876807
  H      0.445072   -1.179692    0.876807
  H      0.445072   -1.179692   -0.876807
  H     -2.018661   -0.854825   -0.885586
  H     -2.018661   -0.854825    0.885586
  H      2.018661    0.854825   -0.885586
  H      2.018661    0.854825    0.885586

 Total Charge           Charge          ....    0
 Multiplicity           Mult            ....    1
 Number of Electrons    NEL             ....   50
 Basis Dimension        Dim             ....  506

ORBITAL ENERGIES
----------------

  NO   OCC          E(Eh)            E(eV)
   0   2.0000     -20.556610      -559.3738
   1   2.0000     -20.556610      -559.3738
   2   2.0000     -11.275343      -306.8177
   3   2.0000     -11.275341      -306.8176
   4   2.0000     -11.220501      -305.3253
   5   2.0000     -11.219885      -305.3086
   6   2.0000      -1.356128       -36.9021
   7   2.0000      -1.355692       -36.8903
   8   2.0000      -1.072112       -29.1737
   9   2.0000      -0.968542       -26.3554
  10   2.0000      -0.848363       -23.0851
  11   2.0000      -0.801127       -21.7998
  12   2.0000      -0.701051       -19.0766
  13   2.0000      -0.677442       -18.4341
  14   2.0000      -0.670727       -18.2514
  15   2.0000      -0.633403       -17.2358
  16   2.0000      -0.597614       -16.2619
  17   2.0000      -0.556145       -15.1335
  18   2.0000      -0.550779       -14.9875
  19   2.0000      -0.501095       -13.6355
  20   2.0000      -0.499519       -13.5926
  21   2.0000      -0.485089       -13.1999
  22   2.0000      -0.467919       -12.7327
  23   2.0000      -0.446820       -12.1586
  24   2.0000      -0.441641       -12.0177
  25   0.0000       0.029057         0.7907
  26   0.0000       0.030756         0.8369
  27   0.0000       0.040538         1.1031
  28   0.0000       0.041985         1.1425
  29   0.0000       0.050959         1.3867

MULLIKEN ATOMIC CHARGES
-----------------------
   0 O :   -0.603739
   1 O :   -0.603739
   2 C :   -0.215888
   3 C :   -0.215888
   4 C :   -0.372684
   5 C :   -0.372684
   6 H :    0.150983
   7 H :    0.150983
   8 H :    0.276532
   9 H :    0.276532
  10 H :    0.276532
  11 H :    0.276532
  12 H :    0.244133
  13 H :    0.244133
  14 H :    0.244133
  15 H :    0.244133
Sum of atomic charges:    0.0000000

LOEWDIN ATOMIC CHARGES
----------------------
   0 O :    0.807112
   1 O :    0.807112
   2 C :    0.032153
   3 C :    0.032153
   4 C :    0.256779
   5 C :    0.256779
   6 H :   -0.498476
   7 H :   -0.498476
   8 H :   -0.145803
   9 H :   -0.145803
  10 H :   -0.145803
  11 H :   -0.145803
  12 H :   -0.152980
  13 H :   -0.152980
  14 H :   -0.152980
  15 H :   -0.152980

  Mayer bond orders larger than 0.100000
B(  0-O ,  2-C ) :   0.7976 B(  0-O ,  6-H ) :   1.0322 B(  1-O ,  3-C ) :   0.7976
B(  1-O ,  7-H ) :   1.0322 B(  2-C ,  4-C ) :   0.9865 B(  2-C , 14-H ) :   0.9764
B(  2-C , 15-H ) :   0.9764 B(  3-C ,  5-C ) :   0.9865 B(  3-C , 12-H ) :   0.9764
B(  3-C , 13-H ) :   0.9764 B(  4-C ,  5-C ) :   0.8458 B(  4-C ,  8-H ) :   0.9217
B(  4-C ,  9-H ) :   0.9217 B(  5-C , 10-H ) :   0.9217 B(  5-C , 11-H ) :   0.9217

MP2 TOTAL ENERGY:     -308.330112906 Eh
FINAL SINGLE POINT ENERGY      -308.330112906043

DIPOLE MOMENT
-------------
                                X             Y             Z
Electronic contribution:     -0.00000       0.00000      -0.00000
Nuclear contribution   :      0.00000       0.00000       0.00000
                        -----------------------------------------
Total Dipole Moment    :     -0.00000       0.00000      -0.00000
                        -----------------------------------------
Magnitude (a.u.)       :      0.00000
Magnitude (Debye)      :      0.00000

Rotational constants in cm-1:     0.577410     0.038079     0.036697
Rotational constants in MHz : 17310.328996  1141.591641  1100.160929

                             ****ORCA TERMINATED NORMALLY****
TOTAL RUN TIME: 0 days 0 hours 4 minutes 5 seconds 850 msec
