                         Program Version 5.0.3 -  RELEASE  -
|  1> !ri-mp2 aug-cc-pvtz aug-cc-pvtz/c tightscf
|  2> %pal nprocs 16 end
|  3> %maxcore 3800
|  4>
|  5> * xyz 0 1
|  6> C     -0.072264    1.827345   -0.349034
|  7> C      0.072264   -1.827345    0.349034
|  8> C     -1.374617    2.108960   -0.034074
|  9> C      1.374617   -2.108960    0.034074
| 10> C      1.779072    0.182743   -0.544682
| 11> C     -1.779072   -0.182743    0.544682
| 12> C      0.438570    0.512106   -0.228855
| 13> C     -0.438570   -0.512106    0.228855
| 14> C     -2.259063    1.098577    0.422509
| 15> C      2.259063   -1.098577   -0.422509
| 16> C     -3.684425    1.447260    0.756865
| 17> C      3.684425   -1.447260   -0.756865
| 18> H      0.585539    2.614560   -0.696015
| 19> H     -0.585539   -2.614560    0.696015
| 20> H     -1.742638    3.122803   -0.134031
| 21> H      1.742638   -3.122803    0.134031
| 22> H      2.435555    0.972293   -0.891642
| 23> H     -2.435555   -0.972293    0.891642
| 24> H     -4.237087    0.574737    1.102510
| 25> H     -3.731712    2.207391    1.539862
| 26> H     -4.206005    1.852269   -0.113324
| 27> H      4.206005   -1.852269    0.113324
| 28> H      3.731712   -2.207391   -1.539862
| 29> H      4.237087   -0.574737   -1.102510
| 30> *
| 31>
| 32>                          ****END OF INPUT****

CARTESIAN COORDINATES (ANGSTROEM)
---------------------------------
  C     -0.072264    1.827345   -0.349034
  C      0.072264   -1.827345    0.349034
  C     -1.374617    2.108960   -0.034074
  C      1.374617   -2.108960    0.034074
  C      1.779072    0.182743   -0.544682
  C     -1.779072   -0.182743    0.544682
  C      0.438570    0.512106   -0.228855
  C     -0.438570   -0.512106    0.228855
  C     -2.259063    1.098577    0.422509
  C      2.259063   -1.098577   -0.422509
  C     -3.684425    1.447260    0.756865
  C      3.684425   -1.447260   -0.756865
  H      0.585539    2.614560   -0.696015
  H     -0.585539   -2.614560    0.696015
  H     -1.742638    3.122803   -0.134031
  H      1.742638   -3.122803    0.134031
  H      2.435555    0.972293   -0.891642
  H     -2.435555   -0.972293    0.891642
  H     -4.237087    0.574737    1.102510
  H     -3.731712    2.207391    1.539862
  H     -4.206005    1.852269   -0.113324
  H      4.206005   -1.852269    0.113324
  H      3.731712   -2.207391   -1.539862
  H      4.237087   -0.574737   -1.102510

 Total Charge           Charge          ....    0
 Multiplicity           Mult            ....    1
 Number of Electrons    NEL             ....   84
 Basis Dimension        Dim             ....  828

ORBITAL ENERGIES
----------------

  NO   OCC          E(Eh)            E(eV)
   0   2.0000     -11.238746      -305.8218
   1   2.0000     -11.238745      -305.8218
   2   2.0000     -11.237135      -305.7780
   3   2.0000     -11.236093      -305.7496
   4   2.0000     -11.232366      -305.6482
   5   2.0000     -11.232342      -305.6476
   6   2.0000     -11.228970      -305.5558
   7   2.0000     -11.228969      -305.5558
   8   2.0000     -11.226643      -305.4925
   9   2.0000     -11.226636      -305.4923
  10   2.0000     -11.222701      -305.3852
  11   2.0000     -11.222701      -305.3852
  12   2.0000      -1.175635       -31.9906
  13   2.0000      -1.119943       -30.4752
  14   2.0000      -1.050298       -28.5801
  15   2.0000      -1.044778       -28.4299
  16   2.0000      -0.985295       -26.8113
  17   2.0000      -0.964645       -26.2493
  18   2.0000      -0.905601       -24.6426
  19   2.0000      -0.846868       -23.0445
  20   2.0000      -0.809656       -22.0318
  21   2.0000      -0.796981       -21.6869
  22   2.0000      -0.694627       -18.9017
  23   2.0000      -0.686352       -18.6766
  24   2.0000      -0.660786       -17.9809
  25   2.0000      -0.618246       -16.8233
  26   2.0000      -0.597887       -16.2693
  27   2.0000      -0.596784       -16.2393
  28   2.0000      -0.578261       -15.7353
  29   2.0000      -0.576594       -15.6899
  30   2.0000      -0.573595       -15.6083
  31   2.0000      -0.550206       -14.9719
  32   2.0000      -0.536983       -14.6121
  33   2.0000      -0.530346       -14.4314
  34   2.0000      -0.516910       -14.0658
  35   2.0000      -0.505247       -13.7485
  36   2.0000      -0.479807       -13.0562
  37   2.0000      -0.468662       -12.7529
  38   2.0000      -0.430288       -11.7087
  39   2.0000      -0.379679       -10.3316
  40   2.0000      -0.307426        -8.3655
  41   2.0000      -0.282654        -7.6914
  42   0.0000       0.028437         0.7738
  43   0.0000       0.029200         0.7946
  44   0.0000       0.031365         0.8535
  45   0.0000       0.039860         1.0846
  46   0.0000       0.043584         1.1860

MULLIKEN ATOMIC CHARGES
-----------------------
   0 C :   -1.456607
   1 C :   -1.456494
   2 C :   -0.838265
   3 C :   -0.838222
   4 C :   -1.007075
   5 C :   -1.006953
   6 C :    1.863797
   7 C :    1.863486
   8 C :    1.375329
   9 C :    1.375378
  10 C :   -0.895613
  11 C :   -0.895573
  12 H :    0.033378
  13 H :    0.033410
  14 H :    0.268600
  15 H :    0.268596
  16 H :   -0.141080
  17 H :   -0.141056
  18 H :    0.245642
  19 H :    0.274749
  20 H :    0.277095
  21 H :    0.277086
  22 H :    0.274741
  23 H :    0.245649
Sum of atomic charges:    0.0000000

LOEWDIN ATOMIC CHARGES
----------------------
   0 C :    0.229441
   1 C :    0.229441
   2 C :    0.222801
   3 C :    0.222801
   4 C :    0.241067
   5 C :    0.241067
   6 C :   -0.109366
   7 C :   -0.109366
   8 C :   -0.116677
   9 C :   -0.116677
  10 C :    0.576713
  11 C :    0.576713
  12 H :   -0.176973
  13 H :   -0.176973
  14 H :   -0.176791
  15 H :   -0.176791
  16 H :   -0.176287
  17 H :   -0.176287
  18 H :   -0.179751
  19 H :   -0.167253
  20 H :   -0.166922
  21 H :   -0.166922
  22 H :   -0.167253
  23 H :   -0.179751

  Mayer bond orders larger than 0.100000
B(  0-C ,  2-C ) :   1.2219 B(  0-C ,  4-C ) :   0.3396 B(  0-C ,  6-C ) :  -0.5126
B(  0-C ,  7-C ) :   0.2632 B(  0-C ,  8-C ) :   0.1362 B(  0-C , 12-H ) :   1.5742
B(  1-C ,  3-C ) :   1.2218 B(  1-C ,  5-C ) :   0.3395 B(  1-C ,  6-C ) :   0.2632
B(  1-C ,  7-C ) :  -0.5123 B(  1-C ,  9-C ) :   0.1361 B(  1-C , 13-H ) :   1.5741
B(  2-C ,  5-C ) :  -0.1800 B(  2-C ,  6-C ) :  -0.1152 B(  2-C ,  8-C ) :   0.5272
B(  2-C , 10-C ) :   0.1198 B(  2-C , 14-H ) :   1.1907 B(  3-C ,  4-C ) :  -0.1798
B(  3-C ,  7-C ) :  -0.1151 B(  3-C ,  9-C ) :   0.5272 B(  3-C , 11-C ) :   0.1198
B(  3-C , 15-H ) :   1.1907 B(  4-C ,  7-C ) :  -0.3744 B(  4-C ,  8-C ) :   0.1087
B(  4-C ,  9-C ) :   0.8481 B(  4-C , 11-C ) :  -0.1397 B(  4-C , 12-H ) :  -0.1486
B(  4-C , 16-H ) :   1.9239 B(  5-C ,  6-C ) :  -0.3744 B(  5-C ,  8-C ) :   0.8482
B(  5-C ,  9-C ) :   0.1088 B(  5-C , 10-C ) :  -0.1397 B(  5-C , 13-H ) :  -0.1486
B(  5-C , 17-H ) :   1.9238 B(  6-C ,  7-C ) :   0.7680 B(  6-C ,  9-C ) :   0.3055
B(  6-C , 10-C ) :   0.1191 B(  6-C , 12-H ) :  -0.1411 B(  6-C , 15-H ) :  -0.1103
B(  6-C , 16-H ) :  -0.2543 B(  7-C ,  8-C ) :   0.3054 B(  7-C , 11-C ) :   0.1191
B(  7-C , 13-H ) :  -0.1411 B(  7-C , 14-H ) :  -0.1103 B(  7-C , 17-H ) :  -0.2542
B(  8-C , 10-C ) :   0.1892 B(  8-C , 12-H ) :  -0.1036 B(  8-C , 14-H ) :  -0.1243
B(  8-C , 17-H ) :  -0.2257 B(  8-C , 19-H ) :  -0.1309 B(  8-C , 20-H ) :  -0.1329
B(  9-C , 11-C ) :   0.1892 B(  9-C , 13-H ) :  -0.1036 B(  9-C , 15-H ) :  -0.1243
B(  9-C , 16-H ) :  -0.2258 B(  9-C , 21-H ) :  -0.1329 B(  9-C , 22-H ) :  -0.1308
B( 10-C , 18-H ) :   1.0271 B( 10-C , 19-H ) :   1.0420 B( 10-C , 20-H ) :   1.0396
B( 11-C , 21-H ) :   1.0396 B( 11-C , 22-H ) :   1.0420 B( 11-C , 23-H ) :   1.0271

MP2 TOTAL ENERGY:     -463.530921650 Eh
FINAL SINGLE POINT ENERGY      -463.530921650006

DIPOLE MOMENT
-------------
                                X             Y             Z
Electronic contribution:      0.00000      -0.00000      -0.00000
Nuclear contribution   :      0.00000       0.00000       0.00000
                        -----------------------------------------
Total Dipole Moment    :      0.00000      -0.00000      -0.00000
                        -----------------------------------------
Magnitude (a.u.)       :      0.00000
Magnitude (Debye)      :      0.00000

Rotational constants in cm-1:     0.089865     0.019276     0.015965
Rotational constants in MHz :  2694.070583   577.865424   478.608726

                             ****ORCA TERMINATED NORMALLY****
TOTAL RUN TIME: 0 days 0 hours 22 minutes 11 seconds 512 msec
