                         Program Version 5.0.3 -  RELEASE  -
|  1> !ri-mp2 aug-cc-pvtz aug-cc-pvtz/c tightscf
|  2> %pal nprocs 16 end
|  3>
|  4> * xyz 0 1
|  5> S     -1.711330   -0.591498    0.000002
|  6> N     -0.125713   -1.050663    0.000000
|  7> N      3.206102   -0.162108   -0.000004
|  8> C     -0.041278    1.287387    0.000000
|  9> C      0.631726    0.033488   -0.000001
| 10> C     -1.390605    1.091295    0.000002
| 11> C      2.056708   -0.099158   -0.000002
| 12> H      0.453822    2.244922    0.000000
| 13> H     -2.174575    1.830378    0.000003
| 14> *
| 15>
| 16>                          ****END OF INPUT****

CARTESIAN COORDINATES (ANGSTROEM)
---------------------------------
  S     -1.711330   -0.591498    0.000002
  N     -0.125713   -1.050663    0.000000
  N      3.206102   -0.162108   -0.000004
  C     -0.041278    1.287387    0.000000
  C      0.631726    0.033488   -0.000001
  C     -1.390605    1.091295    0.000002
  C      2.056708   -0.099158   -0.000002
  H      0.453822    2.244922    0.000000
  H     -2.174575    1.830378    0.000003

 Total Charge           Charge          ....    0
 Multiplicity           Mult            ....    1
 Number of Electrons    NEL             ....   56
 Basis Dimension        Dim             ....  372

ORBITAL ENERGIES
----------------

  NO   OCC          E(Eh)            E(eV)
   0   2.0000     -92.046480     -2504.7120
   1   2.0000     -15.630615      -425.3307
   2   2.0000     -15.591466      -424.2654
   3   2.0000     -11.342997      -308.6586
   4   2.0000     -11.313527      -307.8567
   5   2.0000     -11.290401      -307.2274
   6   2.0000     -11.281933      -306.9970
   7   2.0000      -9.043717      -246.0920
   8   2.0000      -6.724544      -182.9842
   9   2.0000      -6.723609      -182.9587
  10   2.0000      -6.723089      -182.9446
  11   2.0000      -1.319161       -35.8962
  12   2.0000      -1.235594       -33.6222
  13   2.0000      -1.100442       -29.9446
  14   2.0000      -1.059052       -28.8183
  15   2.0000      -0.871516       -23.7151
  16   2.0000      -0.834568       -22.7097
  17   2.0000      -0.752391       -20.4736
  18   2.0000      -0.651188       -17.7197
  19   2.0000      -0.624401       -16.9908
  20   2.0000      -0.610347       -16.6084
  21   2.0000      -0.576602       -15.6901
  22   2.0000      -0.525354       -14.2956
  23   2.0000      -0.504604       -13.7310
  24   2.0000      -0.494636       -13.4597
  25   2.0000      -0.485347       -13.2070
  26   2.0000      -0.404205       -10.9990
  27   2.0000      -0.381588       -10.3835
  28   0.0000       0.018873         0.5136
  29   0.0000       0.034419         0.9366
  30   0.0000       0.045887         1.2486
  31   0.0000       0.054571         1.4850
  32   0.0000       0.071438         1.9439

MULLIKEN ATOMIC CHARGES
-----------------------
   0 S :    0.099374
   1 N :   -0.594926
   2 N :   -0.637268
   3 C :   -0.562840
   4 C :    1.013860
   5 C :   -0.464410
   6 C :    0.213700
   7 H :    0.434264
   8 H :    0.498246
Sum of atomic charges:    0.0000000

LOEWDIN ATOMIC CHARGES
----------------------
   0 S :    1.112999
   1 N :   -0.047586
   2 N :    0.271888
   3 C :    0.082555
   4 C :   -0.573707
   5 C :   -0.167666
   6 C :   -0.246012
   7 H :   -0.186157
   8 H :   -0.246313

  Mayer bond orders larger than 0.100000
B(  0-S ,  1-N ) :   1.1326 B(  0-S ,  5-C ) :   1.1356 B(  1-N ,  4-C ) :   1.1333
B(  1-N ,  5-C ) :   0.1166 B(  2-N ,  4-C ) :  -0.1668 B(  2-N ,  6-C ) :   2.3017
B(  3-C ,  4-C ) :   0.9841 B(  3-C ,  5-C ) :   1.4180 B(  3-C ,  6-C ) :   0.1384
B(  3-C ,  7-H ) :   0.8929 B(  4-C ,  5-C ) :  -0.1368 B(  4-C ,  6-C ) :   0.7306
B(  5-C ,  8-H ) :   0.7897

MP2 TOTAL ENERGY:     -660.330519292 Eh
FINAL SINGLE POINT ENERGY      -660.330519292376

DIPOLE MOMENT
-------------
                                X             Y             Z
Electronic contribution:     -0.24183      -2.72298      -0.00000
Nuclear contribution   :     -1.57553       3.90233       0.00000
                        -----------------------------------------
Total Dipole Moment    :     -1.81736       1.17935       0.00000
                        -----------------------------------------
Magnitude (a.u.)       :      2.16649
Magnitude (Debye)      :      5.50677

Rotational constants in cm-1:     0.241998     0.052365     0.043050
Rotational constants in MHz :  7254.916615  1569.857277  1290.592119

                             ****ORCA TERMINATED NORMALLY****
TOTAL RUN TIME: 0 days 0 hours 2 minutes 57 seconds 352 msec
