                         Program Version 5.0.3 -  RELEASE  -
|  1> !ri-mp2 aug-cc-pvtz aug-cc-pvtz/c tightscf
|  2> %pal nprocs 16 end
|  3>
|  4> * xyz 0 1
|  5> S    -1.960908   -0.984786   -0.704762
|  6> O    -0.911149    2.680262   -0.504844
|  7> O     3.424680   -0.179183   -0.597952
|  8> N    -0.053917    1.049338    0.982459
|  9> N     1.194387   -0.739778   -0.030324
| 10> C     0.229652   -0.361475    0.989131
| 11> C    -1.027868   -1.225362    0.844298
| 12> C    -0.515341    1.815052    0.167561
| 13> C     2.331372   -0.414621   -0.267512
| 14> H    -1.018139   -1.475813   -1.529627
| 15> H     0.662672   -0.584117    1.965684
| 16> H    -1.719705   -0.969386    1.644141
| 17> H    -0.748716   -2.271237    0.952542
| 18> *
| 19>
| 20>                          ****END OF INPUT****

CARTESIAN COORDINATES (ANGSTROEM)
---------------------------------
  S     -1.960908   -0.984786   -0.704762
  O     -0.911149    2.680262   -0.504844
  O      3.424680   -0.179183   -0.597952
  N     -0.053917    1.049338    0.982459
  N      1.194387   -0.739778   -0.030324
  C      0.229652   -0.361475    0.989131
  C     -1.027868   -1.225362    0.844298
  C     -0.515341    1.815052    0.167561
  C      2.331372   -0.414621   -0.267512
  H     -1.018139   -1.475813   -1.529627
  H      0.662672   -0.584117    1.965684
  H     -1.719705   -0.969386    1.644141
  H     -0.748716   -2.271237    0.952542

 Total Charge           Charge          ....    0
 Multiplicity           Mult            ....    1
 Number of Electrons    NEL             ....   74
 Basis Dimension        Dim             ....  510

ORBITAL ENERGIES
----------------

  NO   OCC          E(Eh)            E(eV)
   0   2.0000     -91.974409     -2502.7509
   1   2.0000     -20.629974      -561.3701
   2   2.0000     -20.622073      -561.1551
   3   2.0000     -15.605805      -424.6555
   4   2.0000     -15.599855      -424.4936
   5   2.0000     -11.421348      -310.7907
   6   2.0000     -11.416479      -310.6582
   7   2.0000     -11.379211      -309.6441
   8   2.0000     -11.293790      -307.3197
   9   2.0000      -8.975378      -244.2325
  10   2.0000      -6.656656      -181.1368
  11   2.0000      -6.655699      -181.1108
  12   2.0000      -6.654682      -181.0831
  13   2.0000      -1.482899       -40.3517
  14   2.0000      -1.475900       -40.1613
  15   2.0000      -1.326133       -36.0859
  16   2.0000      -1.263932       -34.3933
  17   2.0000      -1.101813       -29.9819
  18   2.0000      -0.999692       -27.2030
  19   2.0000      -0.879615       -23.9355
  20   2.0000      -0.822725       -22.3875
  21   2.0000      -0.746598       -20.3160
  22   2.0000      -0.736258       -20.0346
  23   2.0000      -0.719665       -19.5831
  24   2.0000      -0.687402       -18.7052
  25   2.0000      -0.661923       -18.0119
  26   2.0000      -0.655391       -17.8341
  27   2.0000      -0.639620       -17.4049
  28   2.0000      -0.623773       -16.9737
  29   2.0000      -0.612571       -16.6689
  30   2.0000      -0.547304       -14.8929
  31   2.0000      -0.508621       -13.8403
  32   2.0000      -0.481627       -13.1057
  33   2.0000      -0.461497       -12.5580
  34   2.0000      -0.447425       -12.1751
  35   2.0000      -0.436564       -11.8795
  36   2.0000      -0.382483       -10.4079
  37   0.0000       0.020118         0.5474
  38   0.0000       0.034995         0.9522
  39   0.0000       0.039485         1.0744
  40   0.0000       0.042678         1.1613
  41   0.0000       0.063963         1.7405

MULLIKEN ATOMIC CHARGES
-----------------------
   0 S :   -0.390793
   1 O :   -0.477249
   2 O :   -0.511228
   3 N :   -0.057972
   4 N :    0.063764
   5 C :    0.829893
   6 C :   -0.399792
   7 C :   -0.058067
   8 C :   -0.144583
   9 H :    0.171497
  10 H :    0.384855
  11 H :    0.328369
  12 H :    0.261305
Sum of atomic charges:    0.0000000

LOEWDIN ATOMIC CHARGES
----------------------
   0 S :    1.316477
   1 O :    0.395981
   2 O :    0.393099
   3 N :    0.299897
   4 N :    0.289397
   5 C :   -0.466742
   6 C :   -0.098621
   7 C :   -0.503665
   8 C :   -0.454531
   9 H :   -0.561630
  10 H :   -0.163942
  11 H :   -0.228157
  12 H :   -0.217563

  Mayer bond orders larger than 0.100000
B(  0-S ,  6-C ) :   0.9207 B(  0-S ,  9-H ) :   1.0267 B(  1-O ,  3-N ) :  -0.1679
B(  1-O ,  7-C ) :   1.9823 B(  2-O ,  4-N ) :  -0.2201 B(  2-O ,  8-C ) :   2.0572
B(  3-N ,  5-C ) :   0.3768 B(  3-N ,  7-C ) :   1.7572 B(  4-N ,  5-C ) :   0.4135
B(  4-N ,  8-C ) :   1.7175 B(  5-C ,  6-C ) :   0.8729 B(  5-C , 10-H ) :   0.9143
B(  6-C , 11-H ) :   0.9065 B(  6-C , 12-H ) :   0.9229

MP2 TOTAL ENERGY:     -811.811368003 Eh
FINAL SINGLE POINT ENERGY      -811.811368002736

DIPOLE MOMENT
-------------
                                X             Y             Z
Electronic contribution:      2.47154       3.99792      -2.02021
Nuclear contribution   :     -2.61960      -5.04136       2.93355
                        -----------------------------------------
Total Dipole Moment    :     -0.14806      -1.04344       0.91334
                        -----------------------------------------
Magnitude (a.u.)       :      1.39459
Magnitude (Debye)      :      3.54477

Rotational constants in cm-1:     0.054405     0.033604     0.025145
Rotational constants in MHz :  1631.019781  1007.426695   753.829319

                             ****ORCA TERMINATED NORMALLY****
TOTAL RUN TIME: 0 days 0 hours 5 minutes 20 seconds 898 msec
