                         Program Version 5.0.3 -  RELEASE  -
|  1> !ri-mp2 aug-cc-pvtz aug-cc-pvtz/c tightscf
|  2> %pal nprocs 16 end
|  3>
|  4> * xyz 0 1
|  5> C      3.803979   -0.333546   -0.007335
|  6> C      2.523952    0.499934    0.021358
|  7> C      1.251148   -0.346744   -0.014028
|  8> C     -0.035517    0.479205    0.013309
|  9> C     -1.306448   -0.371112   -0.025050
| 10> C     -2.580107    0.464187    0.009234
| 11> O     -3.770500   -0.317449   -0.083397
| 12> H      4.692588    0.298478    0.020787
| 13> H      3.852231   -1.011503    0.847324
| 14> H      3.858181   -0.941543   -0.912719
| 15> H      2.519811    1.190707   -0.827105
| 16> H      2.515487    1.124471    0.919783
| 17> H      1.255049   -1.037842    0.835498
| 18> H      1.259420   -0.972533   -0.912499
| 19> H     -0.037623    1.169441   -0.836563
| 20> H     -0.042076    1.104927    0.911889
| 21> H     -1.308490   -1.061289    0.826320
| 22> H     -1.317911   -0.988628   -0.926931
| 23> H     -2.600079    1.086487    0.912165
| 24> H     -2.612653    1.137348   -0.848433
| 25> H     -3.811971   -0.910475    0.672738
| 26> *
| 27>
| 28>                          ****END OF INPUT****

CARTESIAN COORDINATES (ANGSTROEM)
---------------------------------
  C      3.803979   -0.333546   -0.007335
  C      2.523952    0.499934    0.021358
  C      1.251148   -0.346744   -0.014028
  C     -0.035517    0.479205    0.013309
  C     -1.306448   -0.371112   -0.025050
  C     -2.580107    0.464187    0.009234
  O     -3.770500   -0.317449   -0.083397
  H      4.692588    0.298478    0.020787
  H      3.852231   -1.011503    0.847324
  H      3.858181   -0.941543   -0.912719
  H      2.519811    1.190707   -0.827105
  H      2.515487    1.124471    0.919783
  H      1.255049   -1.037842    0.835498
  H      1.259420   -0.972533   -0.912499
  H     -0.037623    1.169441   -0.836563
  H     -0.042076    1.104927    0.911889
  H     -1.308490   -1.061289    0.826320
  H     -1.317911   -0.988628   -0.926931
  H     -2.600079    1.086487    0.912165
  H     -2.612653    1.137348   -0.848433
  H     -3.811971   -0.910475    0.672738

 Total Charge           Charge          ....    0
 Multiplicity           Mult            ....    1
 Number of Electrons    NEL             ....   58
 Basis Dimension        Dim             ....  644

ORBITAL ENERGIES
----------------

  NO   OCC          E(Eh)            E(eV)
   0   2.0000     -20.553644      -559.2931
   1   2.0000     -11.271414      -306.7108
   2   2.0000     -11.221745      -305.3592
   3   2.0000     -11.220111      -305.3147
   4   2.0000     -11.218982      -305.2840
   5   2.0000     -11.218260      -305.2644
   6   2.0000     -11.211999      -305.0940
   7   2.0000      -1.353095       -36.8196
   8   2.0000      -1.089284       -29.6409
   9   2.0000      -1.036665       -28.2091
  10   2.0000      -0.957441       -26.0533
  11   2.0000      -0.870848       -23.6970
  12   2.0000      -0.810749       -22.0616
  13   2.0000      -0.791638       -21.5416
  14   2.0000      -0.688641       -18.7389
  15   2.0000      -0.651756       -17.7352
  16   2.0000      -0.619662       -16.8619
  17   2.0000      -0.603048       -16.4098
  18   2.0000      -0.589001       -16.0275
  19   2.0000      -0.571997       -15.5648
  20   2.0000      -0.547835       -14.9073
  21   2.0000      -0.531369       -14.4593
  22   2.0000      -0.501714       -13.6523
  23   2.0000      -0.494045       -13.4436
  24   2.0000      -0.479396       -13.0450
  25   2.0000      -0.466824       -12.7029
  26   2.0000      -0.464428       -12.6377
  27   2.0000      -0.461459       -12.5569
  28   2.0000      -0.428859       -11.6698
  29   0.0000       0.029120         0.7924
  30   0.0000       0.031989         0.8705
  31   0.0000       0.034639         0.9426
  32   0.0000       0.037881         1.0308
  33   0.0000       0.047438         1.2908

MULLIKEN ATOMIC CHARGES
-----------------------
   0 C :   -0.995351
   1 C :   -0.487116
   2 C :   -0.319357
   3 C :   -0.362961
   4 C :   -0.450513
   5 C :   -0.225121
   6 O :   -0.656598
   7 H :    0.278043
   8 H :    0.264468
   9 H :    0.264976
  10 H :    0.233878
  11 H :    0.235043
  12 H :    0.255746
  13 H :    0.253354
  14 H :    0.256513
  15 H :    0.262769
  16 H :    0.238371
  17 H :    0.227838
  18 H :    0.244005
  19 H :    0.312956
  20 H :    0.169056
Sum of atomic charges:   -0.0000000

LOEWDIN ATOMIC CHARGES
----------------------
   0 C :    0.578562
   1 C :    0.257008
   2 C :    0.268899
   3 C :    0.269722
   4 C :    0.271533
   5 C :    0.036549
   6 O :    0.804957
   7 H :   -0.173968
   8 H :   -0.171595
   9 H :   -0.171404
  10 H :   -0.147864
  11 H :   -0.148000
  12 H :   -0.141786
  13 H :   -0.141099
  14 H :   -0.140631
  15 H :   -0.141423
  16 H :   -0.147485
  17 H :   -0.144298
  18 H :   -0.153895
  19 H :   -0.162902
  20 H :   -0.500882

  Mayer bond orders larger than 0.100000
B(  0-C ,  1-C ) :   0.9315 B(  0-C ,  7-H ) :   0.9860 B(  0-C ,  8-H ) :   0.9658
B(  0-C ,  9-H ) :   0.9651 B(  1-C ,  2-C ) :   0.9149 B(  1-C , 10-H ) :   0.9658
B(  1-C , 11-H ) :   0.9662 B(  2-C ,  3-C ) :   0.9545 B(  2-C , 12-H ) :   0.9540
B(  2-C , 13-H ) :   0.9485 B(  3-C ,  4-C ) :   0.9061 B(  3-C , 14-H ) :   0.9424
B(  3-C , 15-H ) :   0.9291 B(  4-C ,  5-C ) :   0.9862 B(  4-C , 16-H ) :   0.9537
B(  4-C , 17-H ) :   0.9514 B(  5-C ,  6-O ) :   0.7338 B(  5-C , 18-H ) :   1.0071
B(  5-C , 19-H ) :   0.9304 B(  6-O , 20-H ) :   0.9988

MP2 TOTAL ENERGY:     -311.657381558 Eh
FINAL SINGLE POINT ENERGY      -311.657381558001

DIPOLE MOMENT
-------------
                                X             Y             Z
Electronic contribution:     -8.10894      -0.21954      -0.25634
Nuclear contribution   :      8.70185       0.19514       0.72593
                        -----------------------------------------
Total Dipole Moment    :      0.59291      -0.02440       0.46959
                        -----------------------------------------
Magnitude (a.u.)       :      0.75674
Magnitude (Debye)      :      1.92348

Rotational constants in cm-1:     0.431295     0.023870     0.023233
Rotational constants in MHz : 12929.912275   715.592409   696.521987

                             ****ORCA TERMINATED NORMALLY****
TOTAL RUN TIME: 0 days 0 hours 7 minutes 55 seconds 736 msec
