                         Program Version 5.0.3 -  RELEASE  -
|  1> !ri-mp2 aug-cc-pvtz aug-cc-pvtz/c tightscf
|  2> %pal nprocs 16 end
|  3>
|  4> * xyz 0 1
|  5> C    -0.987747    -0.732496    0.000000
|  6> C    -0.987747     0.732496    0.000000
|  7> C     0.280659    -1.176401    0.000000
|  8> C     0.280659     1.176401    0.000000
|  9> C     1.213319     0.000000    0.000000
| 10> H    -1.877331    -1.345222    0.000000
| 11> H    -1.877331     1.345222    0.000000
| 12> H     0.605805    -2.205253    0.000000
| 13> H     0.605805     2.205253    0.000000
| 14> H     1.874095     0.000000    0.874476
| 15> H     1.874095     0.000000   -0.874476
| 16> *
| 17>
| 18>                          ****END OF INPUT****

CARTESIAN COORDINATES (ANGSTROEM)
---------------------------------
  C     -0.987747   -0.732496    0.000000
  C     -0.987747    0.732496    0.000000
  C      0.280659   -1.176401    0.000000
  C      0.280659    1.176401    0.000000
  C      1.213319    0.000000    0.000000
  H     -1.877331   -1.345222    0.000000
  H     -1.877331    1.345222    0.000000
  H      0.605805   -2.205253    0.000000
  H      0.605805    2.205253    0.000000
  H      1.874095    0.000000    0.874476
  H      1.874095    0.000000   -0.874476

 Total Charge           Charge          ....    0
 Multiplicity           Mult            ....    1
 Number of Electrons    NEL             ....   36
 Basis Dimension        Dim             ....  368

ORBITAL ENERGIES
----------------

  NO   OCC          E(Eh)            E(eV)
   0   2.0000     -11.229881      -305.5806
   1   2.0000     -11.226749      -305.4954
   2   2.0000     -11.226228      -305.4812
   3   2.0000     -11.224782      -305.4418
   4   2.0000     -11.224563      -305.4359
   5   2.0000      -1.151560       -31.3356
   6   2.0000      -0.964513       -26.2457
   7   2.0000      -0.955044       -25.9881
   8   2.0000      -0.755472       -20.5574
   9   2.0000      -0.726856       -19.7787
  10   2.0000      -0.696166       -18.9436
  11   2.0000      -0.592100       -16.1119
  12   2.0000      -0.561285       -15.2733
  13   2.0000      -0.528482       -14.3807
  14   2.0000      -0.507371       -13.8063
  15   2.0000      -0.502235       -13.6665
  16   2.0000      -0.413873       -11.2621
  17   2.0000      -0.307713        -8.3733
  18   0.0000       0.030716         0.8358
  19   0.0000       0.037093         1.0093
  20   0.0000       0.037300         1.0150
  21   0.0000       0.046887         1.2759
  22   0.0000       0.050925         1.3857

MULLIKEN ATOMIC CHARGES
-----------------------
   0 C :   -0.669309
   1 C :   -0.669309
   2 C :   -0.568452
   3 C :   -0.568451
   4 C :   -0.073053
   5 H :    0.541372
   6 H :    0.541372
   7 H :    0.419933
   8 H :    0.419933
   9 H :    0.312983
  10 H :    0.312983
Sum of atomic charges:   -0.0000000

LOEWDIN ATOMIC CHARGES
----------------------
   0 C :    0.195008
   1 C :    0.195008
   2 C :    0.220026
   3 C :    0.220026
   4 C :    0.216761
   5 H :   -0.189864
   6 H :   -0.189864
   7 H :   -0.183632
   8 H :   -0.183632
   9 H :   -0.149918
  10 H :   -0.149918

  Mayer bond orders larger than 0.100000
B(  0-C ,  1-C ) :   1.2013 B(  0-C ,  2-C ) :   1.5186 B(  0-C ,  5-H ) :   0.7259
B(  1-C ,  3-C ) :   1.5186 B(  1-C ,  6-H ) :   0.7259 B(  2-C ,  3-C ) :   0.1526
B(  2-C ,  4-C ) :   0.8696 B(  2-C ,  7-H ) :   0.8948 B(  3-C ,  4-C ) :   0.8696
B(  3-C ,  8-H ) :   0.8948 B(  4-C ,  9-H ) :   0.9029 B(  4-C , 10-H ) :   0.9029

MP2 TOTAL ENERGY:     -193.676299619 Eh
FINAL SINGLE POINT ENERGY      -193.676299618856

DIPOLE MOMENT
-------------
                                X             Y             Z
Electronic contribution:     -1.07921       0.00000      -0.00000
Nuclear contribution   :      1.23262       0.00000       0.00000
                        -----------------------------------------
Total Dipole Moment    :      0.15342       0.00000      -0.00000
                        -----------------------------------------
Magnitude (a.u.)       :      0.15342
Magnitude (Debye)      :      0.38995

Rotational constants in cm-1:     0.283528     0.275779     0.143468
Rotational constants in MHz :  8499.965825  8267.633492  4301.072305

                             ****ORCA TERMINATED NORMALLY****
TOTAL RUN TIME: 0 days 0 hours 2 minutes 2 seconds 956 msec
