                         Program Version 5.0.3 -  RELEASE  -
|  1> !ri-mp2 aug-cc-pvtz aug-cc-pvtz/c tightscf
|  2> %pal nprocs 16 end
|  3>
|  4> * xyz 0 1
|  5> C      0.000000    0.000000    0.851993
|  6> C     -0.168984    0.745968   -1.301801
|  7> C      0.168984   -0.745968   -1.301801
|  8> O      0.000000    0.000000    2.039757
|  9> O      0.000000    1.114456    0.074557
| 10> O      0.000000   -1.114456    0.074557
| 11> H      0.504009    1.345920   -1.908473
| 12> H     -1.201132    0.944052   -1.592185
| 13> H     -0.504009   -1.345920   -1.908473
| 14> H      1.201132   -0.944052   -1.592185
| 15> *
| 16>
| 17>                          ****END OF INPUT****

CARTESIAN COORDINATES (ANGSTROEM)
---------------------------------
  C      0.000000    0.000000    0.851993
  C     -0.168984    0.745968   -1.301801
  C      0.168984   -0.745968   -1.301801
  O      0.000000    0.000000    2.039757
  O      0.000000    1.114456    0.074557
  O      0.000000   -1.114456    0.074557
  H      0.504009    1.345920   -1.908473
  H     -1.201132    0.944052   -1.592185
  H     -0.504009   -1.345920   -1.908473
  H      1.201132   -0.944052   -1.592185

 Total Charge           Charge          ....    0
 Multiplicity           Mult            ....    1
 Number of Electrons    NEL             ....   46
 Basis Dimension        Dim             ....  368

ORBITAL ENERGIES
----------------

  NO   OCC          E(Eh)            E(eV)
   0   2.0000     -20.627130      -561.2927
   1   2.0000     -20.627094      -561.2918
   2   2.0000     -20.548488      -559.1528
   3   2.0000     -11.436174      -311.1941
   4   2.0000     -11.325894      -308.1932
   5   2.0000     -11.325274      -308.1764
   6   2.0000      -1.525608       -41.5139
   7   2.0000      -1.397838       -38.0371
   8   2.0000      -1.389872       -37.8203
   9   2.0000      -1.059450       -28.8291
  10   2.0000      -0.916740       -24.9458
  11   2.0000      -0.836957       -22.7748
  12   2.0000      -0.750991       -20.4355
  13   2.0000      -0.726389       -19.7660
  14   2.0000      -0.696609       -18.9557
  15   2.0000      -0.640506       -17.4290
  16   2.0000      -0.633253       -17.2317
  17   2.0000      -0.619426       -16.8554
  18   2.0000      -0.570924       -15.5356
  19   2.0000      -0.547794       -14.9062
  20   2.0000      -0.485760       -13.2182
  21   2.0000      -0.480951       -13.0873
  22   2.0000      -0.472545       -12.8586
  23   0.0000       0.019293         0.5250
  24   0.0000       0.032836         0.8935
  25   0.0000       0.034903         0.9498
  26   0.0000       0.049916         1.3583
  27   0.0000       0.061836         1.6826

MULLIKEN ATOMIC CHARGES
-----------------------
   0 C :    0.483301
   1 C :   -0.264171
   2 C :   -0.264171
   3 O :   -0.613693
   4 O :   -0.317047
   5 O :   -0.317047
   6 H :    0.342362
   7 H :    0.304053
   8 H :    0.342362
   9 H :    0.304053
Sum of atomic charges:   -0.0000000

LOEWDIN ATOMIC CHARGES
----------------------
   0 C :   -1.097591
   1 C :    0.090473
   2 C :    0.090473
   3 O :    0.405974
   4 O :    0.564456
   5 O :    0.564456
   6 H :   -0.155546
   7 H :   -0.153573
   8 H :   -0.155546
   9 H :   -0.153573

  Mayer bond orders larger than 0.100000
B(  0-C ,  3-O ) :   1.7355 B(  0-C ,  4-O ) :   1.1122 B(  0-C ,  5-O ) :   1.1122
B(  1-C ,  2-C ) :   0.9485 B(  1-C ,  4-O ) :   0.7081 B(  1-C ,  6-H ) :   0.8901
B(  1-C ,  7-H ) :   0.9251 B(  2-C ,  5-O ) :   0.7081 B(  2-C ,  8-H ) :   0.8901
B(  2-C ,  9-H ) :   0.9251

MP2 TOTAL ENERGY:     -341.860110390 Eh
FINAL SINGLE POINT ENERGY      -341.860110389703

DIPOLE MOMENT
-------------
                                X             Y             Z
Electronic contribution:     -0.00000      -0.00000       4.49072
Nuclear contribution   :      0.00000       0.00000      -6.83464
                        -----------------------------------------
Total Dipole Moment    :     -0.00000      -0.00000      -2.34392
                        -----------------------------------------
Magnitude (a.u.)       :      2.34392
Magnitude (Debye)      :      5.95778

Rotational constants in cm-1:     0.269013     0.127803     0.090185
Rotational constants in MHz :  8064.819763  3831.447458  2703.668220

                             ****ORCA TERMINATED NORMALLY****
TOTAL RUN TIME: 0 days 0 hours 2 minutes 35 seconds 676 msec
