                         Program Version 5.0.3 -  RELEASE  -
|  1> !ri-mp2 aug-cc-pvtz aug-cc-pvtz/c tightscf
|  2> %pal nprocs 16 end
|  3>
|  4> * xyz 0 1
|  5> C      1.056688   -0.825383    0.000000
|  6> C      0.623146    0.625677    0.000000
|  7> Cl    -0.291928   -2.006932    0.000000
|  8> Cl    -0.291928    1.061629    1.479874
|  9> Cl    -0.291928    1.061629   -1.479874
| 10> H      1.650902   -1.016853   -0.889604
| 11> H      1.650902   -1.016853    0.889604
| 12> H      1.507532    1.254404    0.000000
| 13> *
| 14>
| 15>                          ****END OF INPUT****

CARTESIAN COORDINATES (ANGSTROEM)
---------------------------------
  C      1.056688   -0.825383    0.000000
  C      0.623146    0.625677    0.000000
  Cl    -0.291928   -2.006932    0.000000
  Cl    -0.291928    1.061629    1.479874
  Cl    -0.291928    1.061629   -1.479874
  H      1.650902   -1.016853   -0.889604
  H      1.650902   -1.016853    0.889604
  H      1.507532    1.254404    0.000000

 Total Charge           Charge          ....    0
 Multiplicity           Mult            ....    1
 Number of Electrons    NEL             ....   66
 Basis Dimension        Dim             ....  311

ORBITAL ENERGIES
----------------

  NO   OCC          E(Eh)            E(eV)
   0   2.0000    -104.854068     -2853.2243
   1   2.0000    -104.854068     -2853.2242
   2   2.0000    -104.841983     -2852.8954
   3   2.0000     -11.387897      -309.8804
   4   2.0000     -11.328251      -308.2574
   5   2.0000     -10.578087      -287.8444
   6   2.0000     -10.578079      -287.8442
   7   2.0000     -10.565932      -287.5136
   8   2.0000      -8.044864      -218.9119
   9   2.0000      -8.044864      -218.9119
  10   2.0000      -8.042922      -218.8590
  11   2.0000      -8.042922      -218.8590
  12   2.0000      -8.042844      -218.8569
  13   2.0000      -8.042843      -218.8569
  14   2.0000      -8.032781      -218.5831
  15   2.0000      -8.030877      -218.5313
  16   2.0000      -8.030817      -218.5297
  17   2.0000      -1.215750       -33.0822
  18   2.0000      -1.132893       -30.8276
  19   2.0000      -1.099402       -29.9162
  20   2.0000      -0.987050       -26.8590
  21   2.0000      -0.832773       -22.6609
  22   2.0000      -0.686474       -18.6799
  23   2.0000      -0.672735       -18.3061
  24   2.0000      -0.614645       -16.7253
  25   2.0000      -0.564110       -15.3502
  26   2.0000      -0.552188       -15.0258
  27   2.0000      -0.483862       -13.1666
  28   2.0000      -0.477217       -12.9857
  29   2.0000      -0.453895       -12.3511
  30   2.0000      -0.452365       -12.3095
  31   2.0000      -0.451330       -12.2813
  32   2.0000      -0.447408       -12.1746
  33   0.0000       0.025392         0.6910
  34   0.0000       0.042715         1.1623
  35   0.0000       0.043096         1.1727
  36   0.0000       0.060173         1.6374
  37   0.0000       0.079575         2.1654

MULLIKEN ATOMIC CHARGES
-----------------------
   0 C :   -0.241516
   1 C :    0.183050
   2 Cl:   -0.273283
   3 Cl:   -0.286671
   4 Cl:   -0.286671
   5 H :    0.310988
   6 H :    0.310988
   7 H :    0.283115
Sum of atomic charges:    0.0000000

LOEWDIN ATOMIC CHARGES
----------------------
   0 C :   -0.471841
   1 C :   -1.273782
   2 Cl:    0.881842
   3 Cl:    0.862951
   4 Cl:    0.862951
   5 H :   -0.263245
   6 H :   -0.263245
   7 H :   -0.335631

  Mayer bond orders larger than 0.100000
B(  0-C ,  1-C ) :   1.0010 B(  0-C ,  2-Cl) :   0.8296 B(  0-C ,  5-H ) :   0.9099
B(  0-C ,  6-H ) :   0.9099 B(  1-C ,  3-Cl) :   0.8556 B(  1-C ,  4-Cl) :   0.8556
B(  1-C ,  7-H ) :   0.9033

MP2 TOTAL ENERGY:    -1456.992364519 Eh
FINAL SINGLE POINT ENERGY     -1456.992364518730

DIPOLE MOMENT
-------------
                                X             Y             Z
Electronic contribution:     -4.46138       0.97778      -0.00000
Nuclear contribution   :      5.63275      -0.87872       0.00000
                        -----------------------------------------
Total Dipole Moment    :      1.17137       0.09907      -0.00000
                        -----------------------------------------
Magnitude (a.u.)       :      1.17555
Magnitude (Debye)      :      2.98801

Rotational constants in cm-1:     0.088173     0.061544     0.042517
Rotational constants in MHz :  2643.372794  1845.035594  1274.637498

                             ****ORCA TERMINATED NORMALLY****
TOTAL RUN TIME: 0 days 0 hours 1 minutes 26 seconds 346 msec
