                         Program Version 5.0.3 -  RELEASE  -
|  1> !ri-mp2 aug-cc-pvtz aug-cc-pvtz/c tightscf
|  2> %pal nprocs 16 end
|  3>
|  4> * xyz 0 1
|  5> S     -1.852923   -0.547135    0.000003
|  6> S      2.341496   -0.118506    0.000003
|  7> N     -0.197443   -0.956196   -0.000012
|  8> C      0.689320    0.084870   -0.000004
|  9> C     -0.074363    1.311044   -0.000004
| 10> C     -1.409363    1.123574    0.000003
| 11> H      0.409589    2.273247   -0.000007
| 12> H      0.109128   -1.916200    0.000016
| 13> H     -2.187332    1.869648    0.000005
| 14> *
| 15>
| 16>                          ****END OF INPUT****

CARTESIAN COORDINATES (ANGSTROEM)
---------------------------------
  S     -1.852923   -0.547135    0.000003
  S      2.341496   -0.118506    0.000003
  N     -0.197443   -0.956196   -0.000012
  C      0.689320    0.084870   -0.000004
  C     -0.074363    1.311044   -0.000004
  C     -1.409363    1.123574    0.000003
  H      0.409589    2.273247   -0.000007
  H      0.109128   -1.916200    0.000016
  H     -2.187332    1.869648    0.000005

 Total Charge           Charge          ....    0
 Multiplicity           Mult            ....    1
 Number of Electrons    NEL             ....   60
 Basis Dimension        Dim             ....  353

ORBITAL ENERGIES
----------------

  NO   OCC          E(Eh)            E(eV)
   0   2.0000     -92.047032     -2504.7271
   1   2.0000     -91.898544     -2500.6865
   2   2.0000     -15.646081      -425.7515
   3   2.0000     -11.356001      -309.0125
   4   2.0000     -11.320217      -308.0388
   5   2.0000     -11.270871      -306.6960
   6   2.0000      -9.043930      -246.0978
   7   2.0000      -8.901163      -242.2130
   8   2.0000      -6.725018      -182.9971
   9   2.0000      -6.724071      -182.9713
  10   2.0000      -6.722754      -182.9354
  11   2.0000      -6.582627      -179.1224
  12   2.0000      -6.580873      -179.0747
  13   2.0000      -6.580126      -179.0543
  14   2.0000      -1.319268       -35.8991
  15   2.0000      -1.112805       -30.2810
  16   2.0000      -1.064202       -28.9584
  17   2.0000      -0.928274       -25.2596
  18   2.0000      -0.853229       -23.2175
  19   2.0000      -0.806061       -21.9340
  20   2.0000      -0.690730       -18.7957
  21   2.0000      -0.641551       -17.4575
  22   2.0000      -0.613733       -16.7005
  23   2.0000      -0.612791       -16.6749
  24   2.0000      -0.545666       -14.8483
  25   2.0000      -0.503515       -13.7013
  26   2.0000      -0.443344       -12.0640
  27   2.0000      -0.415479       -11.3058
  28   2.0000      -0.325093        -8.8462
  29   2.0000      -0.305537        -8.3141
  30   0.0000       0.021247         0.5782
  31   0.0000       0.031683         0.8621
  32   0.0000       0.040060         1.0901
  33   0.0000       0.052679         1.4335
  34   0.0000       0.063283         1.7220

MULLIKEN ATOMIC CHARGES
-----------------------
   0 S :   -0.064717
   1 S :   -0.571080
   2 N :   -0.027098
   3 C :    0.161608
   4 C :   -0.128194
   5 C :   -0.463646
   6 H :    0.464582
   7 H :    0.109296
   8 H :    0.519249
Sum of atomic charges:    0.0000000

LOEWDIN ATOMIC CHARGES
----------------------
   0 S :    1.163874
   1 S :    0.808866
   2 N :    0.091164
   3 C :   -1.080751
   4 C :    0.012242
   5 C :   -0.182150
   6 H :   -0.204872
   7 H :   -0.365261
   8 H :   -0.243112

  Mayer bond orders larger than 0.100000
B(  0-S ,  2-N ) :   0.9495 B(  0-S ,  5-C ) :   1.1027 B(  1-S ,  3-C ) :   1.4855
B(  2-N ,  3-C ) :   1.1456 B(  2-N ,  4-C ) :  -0.1816 B(  2-N ,  7-H ) :   1.0407
B(  3-C ,  4-C ) :   0.9386 B(  3-C ,  5-C ) :   0.1716 B(  4-C ,  5-C ) :   1.4532
B(  4-C ,  6-H ) :   0.8182 B(  5-C ,  8-H ) :   0.7255

MP2 TOTAL ENERGY:     -965.957390429 Eh
FINAL SINGLE POINT ENERGY      -965.957390428670

DIPOLE MOMENT
-------------
                                X             Y             Z
Electronic contribution:     -0.51492      -1.97565      -0.00000
Nuclear contribution   :     -1.62016       2.15555       0.00001
                        -----------------------------------------
Total Dipole Moment    :     -2.13508       0.17990       0.00001
                        -----------------------------------------
Magnitude (a.u.)       :      2.14265
Magnitude (Debye)      :      5.44617

Rotational constants in cm-1:     0.237118     0.052508     0.042989
Rotational constants in MHz :  7108.623491  1574.156018  1288.767317

                             ****ORCA TERMINATED NORMALLY****
TOTAL RUN TIME: 0 days 0 hours 2 minutes 40 seconds 193 msec
