                         Program Version 5.0.3 -  RELEASE  -
|  1> !ri-mp2 aug-cc-pvtz aug-cc-pvtz/c tightscf
|  2> %pal nprocs 16 end
|  3>
|  4> * xyz 0 1
|  5> S     -2.422026    1.676358    0.000000
|  6> H     -3.662177    1.155548    0.000000
|  7> C     -1.499663    0.079993    0.000000
|  8> H     -1.784672   -0.487365    0.884633
|  9> H     -1.784672   -0.487365   -0.884633
| 10> C      0.000000    0.354619    0.000000
| 11> H      0.257208    0.956252   -0.876062
| 12> H      0.257208    0.956252    0.876062
| 13> C      0.830343   -0.930799    0.000000
| 14> H      0.566953   -1.533496    0.875311
| 15> H      0.566953   -1.533496   -0.875311
| 16> C      2.338563   -0.676984    0.000000
| 17> H      2.601518   -0.074233    0.874144
| 18> H      2.601518   -0.074233   -0.874144
| 19> C      3.164445   -1.962117    0.000000
| 20> H      2.948285   -2.570045    0.880892
| 21> H      2.948285   -2.570045   -0.880892
| 22> H      4.233868   -1.747784    0.000000
| 23> *
| 24>
| 25>                          ****END OF INPUT****

CARTESIAN COORDINATES (ANGSTROEM)
---------------------------------
  S     -2.422026    1.676358    0.000000
  H     -3.662177    1.155548    0.000000
  C     -1.499663    0.079993    0.000000
  H     -1.784672   -0.487365    0.884633
  H     -1.784672   -0.487365   -0.884633
  C      0.000000    0.354619    0.000000
  H      0.257208    0.956252   -0.876062
  H      0.257208    0.956252    0.876062
  C      0.830343   -0.930799    0.000000
  H      0.566953   -1.533496    0.875311
  H      0.566953   -1.533496   -0.875311
  C      2.338563   -0.676984    0.000000
  H      2.601518   -0.074233    0.874144
  H      2.601518   -0.074233   -0.874144
  C      3.164445   -1.962117    0.000000
  H      2.948285   -2.570045    0.880892
  H      2.948285   -2.570045   -0.880892
  H      4.233868   -1.747784    0.000000

 Total Charge           Charge          ....    0
 Multiplicity           Mult            ....    1
 Number of Electrons    NEL             ....   58
 Basis Dimension        Dim             ....  556

ORBITAL ENERGIES
----------------

  NO   OCC          E(Eh)            E(eV)
   0   2.0000     -91.948298     -2502.0404
   1   2.0000     -11.259702      -306.3921
   2   2.0000     -11.228989      -305.5563
   3   2.0000     -11.223730      -305.4132
   4   2.0000     -11.221755      -305.3595
   5   2.0000     -11.214131      -305.1520
   6   2.0000      -8.949131      -243.5182
   7   2.0000      -6.630465      -180.4241
   8   2.0000      -6.629471      -180.3971
   9   2.0000      -6.628464      -180.3697
  10   2.0000      -1.097519       -29.8650
  11   2.0000      -1.045133       -28.4395
  12   2.0000      -0.970177       -26.3999
  13   2.0000      -0.886281       -24.1169
  14   2.0000      -0.811134       -22.0721
  15   2.0000      -0.796254       -21.6672
  16   2.0000      -0.661255       -17.9937
  17   2.0000      -0.612841       -16.6763
  18   2.0000      -0.605011       -16.4632
  19   2.0000      -0.578814       -15.7503
  20   2.0000      -0.546857       -14.8807
  21   2.0000      -0.541508       -14.7352
  22   2.0000      -0.518741       -14.1156
  23   2.0000      -0.491769       -13.3817
  24   2.0000      -0.475216       -12.9313
  25   2.0000      -0.469247       -12.7689
  26   2.0000      -0.461212       -12.5502
  27   2.0000      -0.439978       -11.9724
  28   2.0000      -0.353392        -9.6163
  29   0.0000       0.029505         0.8029
  30   0.0000       0.031946         0.8693
  31   0.0000       0.038044         1.0352
  32   0.0000       0.038196         1.0394
  33   0.0000       0.048474         1.3190

MULLIKEN ATOMIC CHARGES
-----------------------
   0 S :   -0.339695
   1 H :    0.024300
   2 C :   -0.425313
   3 H :    0.260730
   4 H :    0.260730
   5 C :   -0.439833
   6 H :    0.284399
   7 H :    0.284399
   8 C :   -0.271564
   9 H :    0.269064
  10 H :    0.269064
  11 C :   -0.477099
  12 H :    0.241482
  13 H :    0.241482
  14 C :   -0.987189
  15 H :    0.266462
  16 H :    0.266462
  17 H :    0.272119
Sum of atomic charges:   -0.0000000

LOEWDIN ATOMIC CHARGES
----------------------
   0 S :    1.265140
   1 H :   -0.590127
   2 C :   -0.097914
   3 H :   -0.219307
   4 H :   -0.219307
   5 C :    0.177776
   6 H :   -0.159482
   7 H :   -0.159482
   8 C :    0.261691
   9 H :   -0.142715
  10 H :   -0.142715
  11 C :    0.257532
  12 H :   -0.147346
  13 H :   -0.147346
  14 C :    0.579416
  15 H :   -0.171193
  16 H :   -0.171193
  17 H :   -0.173426

  Mayer bond orders larger than 0.100000
B(  0-S ,  1-H ) :   1.1349 B(  0-S ,  2-C ) :   0.9740 B(  2-C ,  3-H ) :   0.9366
B(  2-C ,  4-H ) :   0.9366 B(  2-C ,  5-C ) :   1.0792 B(  5-C ,  6-H ) :   0.9308
B(  5-C ,  7-H ) :   0.9308 B(  5-C ,  8-C ) :   0.8704 B(  8-C ,  9-H ) :   0.9299
B(  8-C , 10-H ) :   0.9299 B(  8-C , 11-C ) :   0.9028 B( 11-C , 12-H ) :   0.9623
B( 11-C , 13-H ) :   0.9623 B( 11-C , 14-C ) :   0.9205 B( 14-C , 15-H ) :   0.9615
B( 14-C , 16-H ) :   0.9615 B( 14-C , 17-H ) :   0.9914

MP2 TOTAL ENERGY:     -595.029493003 Eh
FINAL SINGLE POINT ENERGY      -595.029493003083

DIPOLE MOMENT
-------------
                                X             Y             Z
Electronic contribution:    -10.08281       7.72578      -0.00000
Nuclear contribution   :     10.26975      -8.42666       0.00000
                        -----------------------------------------
Total Dipole Moment    :      0.18695      -0.70087      -0.00000
                        -----------------------------------------
Magnitude (a.u.)       :      0.72538
Magnitude (Debye)      :      1.84377

Rotational constants in cm-1:     0.479168     0.026474     0.025682
Rotational constants in MHz : 14365.108929   793.661032   769.923435

                             ****ORCA TERMINATED NORMALLY****
TOTAL RUN TIME: 0 days 0 hours 5 minutes 28 seconds 637 msec
