                         Program Version 5.0.3 -  RELEASE  -
|  1> !ri-mp2 aug-cc-pvtz aug-cc-pvtz/c tightscf
|  2> %pal nprocs 16 end
|  3>
|  4> * xyz 0 1
|  5> C     -0.531875   -1.845904        0.000000
|  6> N      0.771404   -1.348773        0.000000
|  7> C      1.003562   -0.002016        0.000000
|  8> C      0.000000    0.950259        0.000000
|  9> C      0.690256    2.188187        0.000000
| 10> N      1.994421    2.015793        0.000000
| 11> N      2.175035    0.654328        0.000000
| 12> N     -1.513744   -0.871250        0.000000
| 13> C     -1.384929    0.539209        0.000000
| 14> O     -0.763178   -3.034653        0.000000
| 15> O     -2.371414    1.243358        0.000000
| 16> H     -2.459834   -1.224597        0.000000
| 17> H      1.502564   -2.040445        0.000000
| 18> H      3.109527    0.285765        0.000000
| 19> H      0.272581    3.180547        0.000000
| 20> *
| 21>
| 22>                          ****END OF INPUT****

CARTESIAN COORDINATES (ANGSTROEM)
---------------------------------
  C     -0.531875   -1.845904    0.000000
  N      0.771404   -1.348773    0.000000
  C      1.003562   -0.002016    0.000000
  C      0.000000    0.950259    0.000000
  C      0.690256    2.188187    0.000000
  N      1.994421    2.015793    0.000000
  N      2.175035    0.654328    0.000000
  N     -1.513744   -0.871250    0.000000
  C     -1.384929    0.539209    0.000000
  O     -0.763178   -3.034653    0.000000
  O     -2.371414    1.243358    0.000000
  H     -2.459834   -1.224597    0.000000
  H      1.502564   -2.040445    0.000000
  H      3.109527    0.285765    0.000000
  H      0.272581    3.180547    0.000000

 Total Charge           Charge          ....    0
 Multiplicity           Mult            ....    1
 Number of Electrons    NEL             ....   78
 Basis Dimension        Dim             ....  598

ORBITAL ENERGIES
----------------

  NO   OCC          E(Eh)            E(eV)
   0   2.0000     -20.555904      -559.3546
   1   2.0000     -20.547754      -559.1328
   2   2.0000     -15.674339      -426.5204
   3   2.0000     -15.656733      -426.0414
   4   2.0000     -15.631590      -425.3572
   5   2.0000     -15.616924      -424.9581
   6   2.0000     -11.429757      -311.0195
   7   2.0000     -11.390024      -309.9383
   8   2.0000     -11.376003      -309.5568
   9   2.0000     -11.295847      -307.3756
  10   2.0000     -11.252539      -306.1972
  11   2.0000      -1.447837       -39.3976
  12   2.0000      -1.413237       -38.4561
  13   2.0000      -1.407125       -38.2898
  14   2.0000      -1.314081       -35.7580
  15   2.0000      -1.251476       -34.0544
  16   2.0000      -1.139507       -31.0076
  17   2.0000      -1.098840       -29.9010
  18   2.0000      -0.930325       -25.3154
  19   2.0000      -0.911373       -24.7997
  20   2.0000      -0.868858       -23.6428
  21   2.0000      -0.832766       -22.6607
  22   2.0000      -0.783342       -21.3158
  23   2.0000      -0.747426       -20.3385
  24   2.0000      -0.693435       -18.8693
  25   2.0000      -0.689119       -18.7519
  26   2.0000      -0.672724       -18.3058
  27   2.0000      -0.646590       -17.5946
  28   2.0000      -0.640325       -17.4241
  29   2.0000      -0.632835       -17.2203
  30   2.0000      -0.603527       -16.4228
  31   2.0000      -0.583109       -15.8672
  32   2.0000      -0.510536       -13.8924
  33   2.0000      -0.500061       -13.6074
  34   2.0000      -0.492110       -13.3910
  35   2.0000      -0.452847       -12.3226
  36   2.0000      -0.444006       -12.0820
  37   2.0000      -0.409838       -11.1523
  38   2.0000      -0.356221        -9.6933
  39   0.0000       0.012281         0.3342
  40   0.0000       0.035623         0.9693
  41   0.0000       0.038002         1.0341
  42   0.0000       0.047271         1.2863
  43   0.0000       0.053101         1.4449

MULLIKEN ATOMIC CHARGES
-----------------------
   0 C :    0.179463
   1 N :    0.033259
   2 C :   -0.260908
   3 C :    1.764524
   4 C :   -0.800968
   5 N :   -0.798209
   6 N :    0.177073
   7 N :    0.217061
   8 C :    0.153999
   9 O :   -0.787044
  10 O :   -0.879493
  11 H :    0.166207
  12 H :    0.116666
  13 H :    0.123544
  14 H :    0.594826
Sum of atomic charges:   -0.0000000

LOEWDIN ATOMIC CHARGES
----------------------
   0 C :   -0.751658
   1 N :    0.595533
   2 C :   -0.324958
   3 C :   -0.120685
   4 C :    0.037225
   5 N :    0.317214
   6 N :    0.396988
   7 N :    0.566936
   8 C :   -0.650769
   9 O :    0.446336
  10 O :    0.446426
  11 H :   -0.275896
  12 H :   -0.256388
  13 H :   -0.252569
  14 H :   -0.173735

  Mayer bond orders larger than 0.100000
B(  0-C ,  1-N ) :   1.0395 B(  0-C ,  2-C ) :  -0.2111 B(  0-C ,  7-N ) :   0.9649
B(  0-C ,  8-C ) :  -0.1908 B(  0-C ,  9-O ) :   1.6105 B(  1-N ,  2-C ) :   0.7772
B(  1-N ,  6-N ) :  -0.1082 B(  1-N ,  9-O ) :  -0.1765 B(  1-N , 12-H ) :   1.0990
B(  2-C ,  3-C ) :   0.3340 B(  2-C ,  4-C ) :   0.5126 B(  2-C ,  5-N ) :   0.1463
B(  2-C ,  6-N ) :   1.3050 B(  2-C ,  8-C ) :   0.5438 B(  2-C , 12-H ) :  -0.1351
B(  3-C ,  5-N ) :  -0.2568 B(  3-C ,  6-N ) :  -0.1324 B(  3-C ,  7-N ) :  -0.2529
B(  3-C , 10-O ) :   0.1595 B(  4-C ,  5-N ) :   1.5207 B(  4-C ,  6-N ) :  -0.1113
B(  4-C ,  8-C ) :  -0.2074 B(  4-C , 14-H ) :   0.6371 B(  5-N ,  6-N ) :   0.3329
B(  6-N , 13-H ) :   1.1301 B(  7-N ,  8-C ) :   0.9549 B(  7-N ,  9-O ) :  -0.1118
B(  7-N , 10-O ) :  -0.1013 B(  7-N , 11-H ) :   1.0373 B(  8-C , 10-O ) :   1.0437

MP2 TOTAL ENERGY:     -561.480718141 Eh
FINAL SINGLE POINT ENERGY      -561.480718140567

DIPOLE MOMENT
-------------
                                X             Y             Z
Electronic contribution:     -0.64050      -0.64407      -0.00000
Nuclear contribution   :      2.30698       0.16918       0.00000
                        -----------------------------------------
Total Dipole Moment    :      1.66648      -0.47489      -0.00000
                        -----------------------------------------
Magnitude (a.u.)       :      1.73282
Magnitude (Debye)      :      4.40448

Rotational constants in cm-1:     0.064375     0.036480     0.023285
Rotational constants in MHz :  1929.903203  1093.643165   698.062867

                             ****ORCA TERMINATED NORMALLY****
TOTAL RUN TIME: 0 days 0 hours 9 minutes 6 seconds 252 msec
