                         Program Version 5.0.3 -  RELEASE  -
|  1> !ri-mp2 aug-cc-pvtz aug-cc-pvtz/c tightscf
|  2> %pal nprocs 16 end
|  3>
|  4> * xyz 0 1
|  5> C     -0.513595   -1.847902        0.000000
|  6> N      0.778933   -1.359597        0.000000
|  7> C      1.042726   -0.011300        0.000000
|  8> C      0.000000    0.939529        0.000000
|  9> C      0.650742    2.159172        0.000000
| 10> N      1.962308    1.874826        0.000000
| 11> N      2.241607    0.540130        0.000000
| 12> N     -1.509334   -0.870626        0.000000
| 13> C     -1.390022    0.528250        0.000000
| 14> O     -0.770109   -3.032395        0.000000
| 15> H      2.729469    2.523638        0.000000
| 16> O     -2.370508    1.243288        0.000000
| 17> H      0.271382    3.165642        0.000000
| 18> H     -2.450739   -1.235751        0.000000
| 19> H      1.521119   -2.040297        0.000000
| 20> *
| 21>
| 22>                          ****END OF INPUT****

CARTESIAN COORDINATES (ANGSTROEM)
---------------------------------
  C     -0.513595   -1.847902    0.000000
  N      0.778933   -1.359597    0.000000
  C      1.042726   -0.011300    0.000000
  C      0.000000    0.939529    0.000000
  C      0.650742    2.159172    0.000000
  N      1.962308    1.874826    0.000000
  N      2.241607    0.540130    0.000000
  N     -1.509334   -0.870626    0.000000
  C     -1.390022    0.528250    0.000000
  O     -0.770109   -3.032395    0.000000
  H      2.729469    2.523638    0.000000
  O     -2.370508    1.243288    0.000000
  H      0.271382    3.165642    0.000000
  H     -2.450739   -1.235751    0.000000
  H      1.521119   -2.040297    0.000000

 Total Charge           Charge          ....    0
 Multiplicity           Mult            ....    1
 Number of Electrons    NEL             ....   78
 Basis Dimension        Dim             ....  598

ORBITAL ENERGIES
----------------

  NO   OCC          E(Eh)            E(eV)
   0   2.0000     -20.548207      -559.1451
   1   2.0000     -20.543633      -559.0207
   2   2.0000     -15.679014      -426.6476
   3   2.0000     -15.631989      -425.3681
   4   2.0000     -15.625255      -425.1848
   5   2.0000     -15.612359      -424.8339
   6   2.0000     -11.417204      -310.6779
   7   2.0000     -11.389539      -309.9251
   8   2.0000     -11.341595      -308.6205
   9   2.0000     -11.331588      -308.3482
  10   2.0000     -11.257802      -306.3404
  11   2.0000      -1.436884       -39.0996
  12   2.0000      -1.413457       -38.4621
  13   2.0000      -1.405503       -38.2457
  14   2.0000      -1.300822       -35.3972
  15   2.0000      -1.243319       -33.8324
  16   2.0000      -1.132247       -30.8100
  17   2.0000      -1.105180       -30.0735
  18   2.0000      -0.937946       -25.5228
  19   2.0000      -0.902196       -24.5500
  20   2.0000      -0.869416       -23.6580
  21   2.0000      -0.801496       -21.8098
  22   2.0000      -0.785593       -21.3771
  23   2.0000      -0.724464       -19.7137
  24   2.0000      -0.707333       -19.2475
  25   2.0000      -0.681612       -18.5476
  26   2.0000      -0.679459       -18.4890
  27   2.0000      -0.642537       -17.4843
  28   2.0000      -0.638188       -17.3660
  29   2.0000      -0.631586       -17.1863
  30   2.0000      -0.605501       -16.4765
  31   2.0000      -0.579641       -15.7728
  32   2.0000      -0.507533       -13.8107
  33   2.0000      -0.506019       -13.7695
  34   2.0000      -0.484301       -13.1785
  35   2.0000      -0.449916       -12.2428
  36   2.0000      -0.438083       -11.9208
  37   2.0000      -0.389251       -10.5921
  38   2.0000      -0.365055        -9.9337
  39   0.0000       0.015771         0.4292
  40   0.0000       0.034950         0.9510
  41   0.0000       0.037178         1.0117
  42   0.0000       0.047947         1.3047
  43   0.0000       0.054754         1.4899

MULLIKEN ATOMIC CHARGES
-----------------------
   0 C :    0.184960
   1 N :    0.156081
   2 C :    0.281183
   3 C :    1.712940
   4 C :   -1.458366
   5 N :    0.021677
   6 N :   -0.711957
   7 N :    0.174802
   8 C :    0.254574
   9 O :   -0.788531
  10 H :    0.164507
  11 O :   -0.892023
  12 H :    0.611909
  13 H :    0.165619
  14 H :    0.122627
Sum of atomic charges:    0.0000000

LOEWDIN ATOMIC CHARGES
----------------------
   0 C :   -0.756308
   1 N :    0.570010
   2 C :   -0.459841
   3 C :   -0.121537
   4 C :    0.191129
   5 N :    0.347565
   6 N :    0.357715
   7 N :    0.564809
   8 C :   -0.655033
   9 O :    0.442682
  10 H :   -0.254394
  11 O :    0.444190
  12 H :   -0.137047
  13 H :   -0.278109
  14 H :   -0.255830

  Mayer bond orders larger than 0.100000
B(  0-C ,  1-N ) :   1.0480 B(  0-C ,  2-C ) :  -0.2220 B(  0-C ,  7-N ) :   0.9648
B(  0-C ,  8-C ) :  -0.2005 B(  0-C ,  9-O ) :   1.6133 B(  1-N ,  2-C ) :   0.7516
B(  1-N ,  6-N ) :  -0.1659 B(  1-N ,  9-O ) :  -0.1751 B(  1-N , 14-H ) :   1.0836
B(  2-C ,  3-C ) :   0.5318 B(  2-C ,  4-C ) :   0.4729 B(  2-C ,  5-N ) :   0.1220
B(  2-C ,  6-N ) :   1.1395 B(  2-C ,  7-N ) :   0.1049 B(  2-C ,  8-C ) :   0.3404
B(  3-C ,  4-C ) :  -0.2854 B(  3-C ,  5-N ) :  -0.4811 B(  3-C ,  7-N ) :  -0.2475
B(  3-C ,  8-C ) :   0.2540 B(  3-C , 11-O ) :   0.1137 B(  4-C ,  5-N ) :   1.5116
B(  4-C ,  8-C ) :  -0.1200 B(  4-C , 12-H ) :   0.6293 B(  5-N ,  6-N ) :   0.5359
B(  5-N , 10-H ) :   1.0908 B(  7-N ,  8-C ) :   0.9661 B(  7-N ,  9-O ) :  -0.1184
B(  7-N , 11-O ) :  -0.1031 B(  7-N , 13-H ) :   1.0333 B(  8-C , 11-O ) :   1.0929

MP2 TOTAL ENERGY:     -561.488174629 Eh
FINAL SINGLE POINT ENERGY      -561.488174629111

DIPOLE MOMENT
-------------
                                X             Y             Z
Electronic contribution:     -0.55292      -0.83534       0.00000
Nuclear contribution   :      1.96662       2.29790       0.00000
                        -----------------------------------------
Total Dipole Moment    :      1.41370       1.46257       0.00000
                        -----------------------------------------
Magnitude (a.u.)       :      2.03412
Magnitude (Debye)      :      5.17032

Rotational constants in cm-1:     0.063911     0.036995     0.023431
Rotational constants in MHz :  1916.001924  1109.072380   702.457064

                             ****ORCA TERMINATED NORMALLY****
TOTAL RUN TIME: 0 days 0 hours 8 minutes 49 seconds 161 msec
