                         Program Version 5.0.3 -  RELEASE  -
|  1> !ri-mp2 aug-cc-pvtz aug-cc-pvtz/c tightscf
|  2> %pal nprocs 16 end
|  3> %maxcore 3800
|  4>
|  5> * xyz 0 1
|  6> C    -0.156412     0.744515    1.198880
|  7> C     0.156412    -0.744515    1.198880
|  8> C    -0.156412     0.744515   -1.198880
|  9> C     0.156412    -0.744515   -1.198880
| 10> C     0.156412     2.817089    0.000000
| 11> C    -0.156412    -2.817089    0.000000
| 12> N     0.372203     1.382577    0.000000
| 13> N    -0.372203    -1.382577    0.000000
| 14> H    -1.249175     0.882535    1.278396
| 15> H     0.300386     1.211676    2.073396
| 16> H     1.249175    -0.882535    1.278396
| 17> H    -0.300386    -1.211676    2.073396
| 18> H     0.300386     1.211676   -2.073396
| 19> H    -1.249175     0.882535   -1.278396
| 20> H    -0.300386    -1.211676   -2.073396
| 21> H     1.249175    -0.882535   -1.278396
| 22> H     0.618271     3.260208    0.882966
| 23> H    -0.912825     3.090807    0.000000
| 24> H     0.618271     3.260208   -0.882966
| 25> H     0.912825    -3.090807    0.000000
| 26> H    -0.618271    -3.260208   -0.882966
| 27> H    -0.618271    -3.260208    0.882966
| 28> *
| 29>
| 30>                          ****END OF INPUT****

CARTESIAN COORDINATES (ANGSTROEM)
---------------------------------
  C     -0.156412    0.744515    1.198880
  C      0.156412   -0.744515    1.198880
  C     -0.156412    0.744515   -1.198880
  C      0.156412   -0.744515   -1.198880
  C      0.156412    2.817089    0.000000
  C     -0.156412   -2.817089    0.000000
  N      0.372203    1.382577    0.000000
  N     -0.372203   -1.382577    0.000000
  H     -1.249175    0.882535    1.278396
  H      0.300386    1.211676    2.073396
  H      1.249175   -0.882535    1.278396
  H     -0.300386   -1.211676    2.073396
  H      0.300386    1.211676   -2.073396
  H     -1.249175    0.882535   -1.278396
  H     -0.300386   -1.211676   -2.073396
  H      1.249175   -0.882535   -1.278396
  H      0.618271    3.260208    0.882966
  H     -0.912825    3.090807    0.000000
  H      0.618271    3.260208   -0.882966
  H      0.912825   -3.090807    0.000000
  H     -0.618271   -3.260208   -0.882966
  H     -0.618271   -3.260208    0.882966

 Total Charge           Charge          ....    0
 Multiplicity           Mult            ....    1
 Number of Electrons    NEL             ....   64
 Basis Dimension        Dim             ....  690

ORBITAL ENERGIES
----------------

  NO   OCC          E(Eh)            E(eV)
   0   2.0000     -15.542993      -422.9463
   1   2.0000     -15.542990      -422.9463
   2   2.0000     -11.242753      -305.9309
   3   2.0000     -11.242736      -305.9304
   4   2.0000     -11.242113      -305.9135
   5   2.0000     -11.242103      -305.9132
   6   2.0000     -11.239355      -305.8384
   7   2.0000     -11.239355      -305.8384
   8   2.0000      -1.252278       -34.0762
   9   2.0000      -1.201963       -32.7071
  10   2.0000      -1.023267       -27.8445
  11   2.0000      -0.990051       -26.9407
  12   2.0000      -0.909457       -24.7476
  13   2.0000      -0.864825       -23.5331
  14   2.0000      -0.834670       -22.7125
  15   2.0000      -0.753235       -20.4966
  16   2.0000      -0.663716       -18.0606
  17   2.0000      -0.635848       -17.3023
  18   2.0000      -0.629538       -17.1306
  19   2.0000      -0.624743       -17.0001
  20   2.0000      -0.620083       -16.8733
  21   2.0000      -0.580084       -15.7849
  22   2.0000      -0.548978       -14.9384
  23   2.0000      -0.544363       -14.8129
  24   2.0000      -0.541528       -14.7357
  25   2.0000      -0.516197       -14.0464
  26   2.0000      -0.496451       -13.5091
  27   2.0000      -0.490476       -13.3465
  28   2.0000      -0.465245       -12.6599
  29   2.0000      -0.458043       -12.4640
  30   2.0000      -0.354549        -9.6478
  31   2.0000      -0.350038        -9.5250
  32   0.0000       0.030506         0.8301
  33   0.0000       0.034439         0.9371
  34   0.0000       0.036937         1.0051
  35   0.0000       0.040042         1.0896
  36   0.0000       0.049892         1.3576

MULLIKEN ATOMIC CHARGES
-----------------------
   0 C :   -0.385817
   1 C :   -0.385820
   2 C :   -0.385817
   3 C :   -0.385820
   4 C :   -1.163004
   5 C :   -1.163004
   6 N :   -0.247548
   7 N :   -0.247547
   8 H :    0.236087
   9 H :    0.392900
  10 H :    0.236087
  11 H :    0.392900
  12 H :    0.392900
  13 H :    0.236087
  14 H :    0.392900
  15 H :    0.236087
  16 H :    0.306983
  17 H :    0.310247
  18 H :    0.306983
  19 H :    0.310247
  20 H :    0.306983
  21 H :    0.306983
Sum of atomic charges:    0.0000000

LOEWDIN ATOMIC CHARGES
----------------------
   0 C :    0.159945
   1 C :    0.159945
   2 C :    0.159945
   3 C :    0.159945
   4 C :    0.447412
   5 C :    0.447412
   6 N :    0.261375
   7 N :    0.261375
   8 H :   -0.126485
   9 H :   -0.143571
  10 H :   -0.126485
  11 H :   -0.143571
  12 H :   -0.143571
  13 H :   -0.126485
  14 H :   -0.143571
  15 H :   -0.126485
  16 H :   -0.168598
  17 H :   -0.151367
  18 H :   -0.168598
  19 H :   -0.151367
  20 H :   -0.168598
  21 H :   -0.168598

  Mayer bond orders larger than 0.100000
B(  0-C ,  1-C ) :   0.9600 B(  0-C ,  6-N ) :   0.7968 B(  0-C ,  8-H ) :   1.0380
B(  0-C ,  9-H ) :   0.8274 B(  1-C ,  7-N ) :   0.7968 B(  1-C , 10-H ) :   1.0380
B(  1-C , 11-H ) :   0.8274 B(  2-C ,  3-C ) :   0.9600 B(  2-C ,  6-N ) :   0.7968
B(  2-C , 12-H ) :   0.8274 B(  2-C , 13-H ) :   1.0380 B(  3-C ,  7-N ) :   0.7968
B(  3-C , 14-H ) :   0.8274 B(  3-C , 15-H ) :   1.0380 B(  4-C ,  6-N ) :   1.0968
B(  4-C , 16-H ) :   0.9551 B(  4-C , 17-H ) :   0.9351 B(  4-C , 18-H ) :   0.9551
B(  5-C ,  7-N ) :   1.0968 B(  5-C , 19-H ) :   0.9351 B(  5-C , 20-H ) :   0.9551
B(  5-C , 21-H ) :   0.9551

MP2 TOTAL ENERGY:     -345.838965448 Eh
FINAL SINGLE POINT ENERGY      -345.838965448020

DIPOLE MOMENT
-------------
                                X             Y             Z
Electronic contribution:      0.00000       0.00000      -0.00000
Nuclear contribution   :      0.00000      -0.00000       0.00000
                        -----------------------------------------
Total Dipole Moment    :      0.00000       0.00000      -0.00000
                        -----------------------------------------
Magnitude (a.u.)       :      0.00000
Magnitude (Debye)      :      0.00000

Rotational constants in cm-1:     0.152483     0.047152     0.038383
Rotational constants in MHz :  4571.316845  1413.592912  1150.679134

                             ****ORCA TERMINATED NORMALLY****
TOTAL RUN TIME: 0 days 0 hours 12 minutes 21 seconds 840 msec
