                         Program Version 5.0.3 -  RELEASE  -
|  1> !ri-mp2 aug-cc-pvtz aug-cc-pvtz/c tightscf
|  2> %pal nprocs 16 end
|  3>
|  4> * xyz 0 1
|  5> C      3.083882   -0.164653   -0.435306
|  6> C      2.038689   -0.211887    0.381630
|  7> C     -3.012649   -0.378385   -0.169663
|  8> C      0.775189    0.578680    0.225667
|  9> C     -1.771338    0.499840   -0.023071
| 10> C     -0.474243   -0.302353    0.082056
| 11> H      3.964976   -0.769042   -0.266002
| 12> H      3.096130    0.483870   -1.303601
| 13> H      2.074756   -0.880467    1.238236
| 14> H     -2.952804   -0.999751   -1.065528
| 15> H     -3.919711    0.223030   -0.243990
| 16> H     -3.127075   -1.046179    0.686669
| 17> H      0.861213    1.241498   -0.639318
| 18> H      0.645805    1.223387    1.102645
| 19> H     -1.704688    1.181440   -0.876345
| 20> H     -1.875165    1.133412    0.863013
| 21> H     -0.537082   -0.981633    0.938389
| 22> H     -0.363539   -0.937015   -0.802044
| 23> *
| 24>
| 25>                          ****END OF INPUT****

CARTESIAN COORDINATES (ANGSTROEM)
---------------------------------
  C      3.083882   -0.164653   -0.435306
  C      2.038689   -0.211887    0.381630
  C     -3.012649   -0.378385   -0.169663
  C      0.775189    0.578680    0.225667
  C     -1.771338    0.499840   -0.023071
  C     -0.474243   -0.302353    0.082056
  H      3.964976   -0.769042   -0.266002
  H      3.096130    0.483870   -1.303601
  H      2.074756   -0.880467    1.238236
  H     -2.952804   -0.999751   -1.065528
  H     -3.919711    0.223030   -0.243990
  H     -3.127075   -1.046179    0.686669
  H      0.861213    1.241498   -0.639318
  H      0.645805    1.223387    1.102645
  H     -1.704688    1.181440   -0.876345
  H     -1.875165    1.133412    0.863013
  H     -0.537082   -0.981633    0.938389
  H     -0.363539   -0.937015   -0.802044

 Total Charge           Charge          ....    0
 Multiplicity           Mult            ....    1
 Number of Electrons    NEL             ....   48
 Basis Dimension        Dim             ....  552

ORBITAL ENERGIES
----------------

  NO   OCC          E(Eh)            E(eV)
   0   2.0000     -11.229780      -305.5779
   1   2.0000     -11.222893      -305.3904
   2   2.0000     -11.218629      -305.2744
   3   2.0000     -11.217996      -305.2572
   4   2.0000     -11.216090      -305.2053
   5   2.0000     -11.211177      -305.0716
   6   2.0000      -1.092041       -29.7160
   7   2.0000      -1.043626       -28.3985
   8   2.0000      -0.967421       -26.3249
   9   2.0000      -0.869836       -23.6694
  10   2.0000      -0.794302       -21.6141
  11   2.0000      -0.754970       -20.5438
  12   2.0000      -0.652880       -17.7658
  13   2.0000      -0.623164       -16.9572
  14   2.0000      -0.595069       -16.1926
  15   2.0000      -0.583486       -15.8775
  16   2.0000      -0.555899       -15.1268
  17   2.0000      -0.534129       -14.5344
  18   2.0000      -0.506207       -13.7746
  19   2.0000      -0.489182       -13.3113
  20   2.0000      -0.474185       -12.9032
  21   2.0000      -0.465247       -12.6600
  22   2.0000      -0.459002       -12.4901
  23   2.0000      -0.358058        -9.7433
  24   0.0000       0.030782         0.8376
  25   0.0000       0.033849         0.9211
  26   0.0000       0.036346         0.9890
  27   0.0000       0.039188         1.0664
  28   0.0000       0.048535         1.3207

MULLIKEN ATOMIC CHARGES
-----------------------
   0 C :   -1.049643
   1 C :   -0.246444
   2 C :   -0.979385
   3 C :   -0.105792
   4 C :   -0.469316
   5 C :   -0.368850
   6 H :    0.512071
   7 H :    0.219111
   8 H :    0.198729
   9 H :    0.265077
  10 H :    0.268140
  11 H :    0.272169
  12 H :    0.175062
  13 H :    0.262159
  14 H :    0.252497
  15 H :    0.254305
  16 H :    0.251166
  17 H :    0.288945
Sum of atomic charges:    0.0000000

LOEWDIN ATOMIC CHARGES
----------------------
   0 C :    0.523116
   1 C :    0.178577
   2 C :    0.578381
   3 C :    0.243289
   4 C :    0.254868
   5 C :    0.264504
   6 H :   -0.231047
   7 H :   -0.222819
   8 H :   -0.183904
   9 H :   -0.171289
  10 H :   -0.174041
  11 H :   -0.171484
  12 H :   -0.156718
  13 H :   -0.147768
  14 H :   -0.147670
  15 H :   -0.148737
  16 H :   -0.144896
  17 H :   -0.142362

  Mayer bond orders larger than 0.100000
B(  0-C ,  1-C ) :   1.3704 B(  0-C ,  6-H ) :   0.6375 B(  0-C ,  7-H ) :   1.1442
B(  1-C ,  3-C ) :   0.7308 B(  1-C ,  8-H ) :   1.1221 B(  2-C ,  4-C ) :   0.9056
B(  2-C ,  9-H ) :   0.9591 B(  2-C , 10-H ) :   0.9906 B(  2-C , 11-H ) :   0.9569
B(  3-C ,  5-C ) :   0.9906 B(  3-C , 12-H ) :   0.9911 B(  3-C , 13-H ) :   0.9528
B(  4-C ,  5-C ) :   0.8838 B(  4-C , 14-H ) :   0.9598 B(  4-C , 15-H ) :   0.9503
B(  5-C , 16-H ) :   0.9464 B(  5-C , 17-H ) :   0.9371

MP2 TOTAL ENERGY:     -235.308746875 Eh
FINAL SINGLE POINT ENERGY      -235.308746874884

DIPOLE MOMENT
-------------
                                X             Y             Z
Electronic contribution:      3.93303       0.17777       0.43797
Nuclear contribution   :     -4.11008      -0.13651      -0.39404
                        -----------------------------------------
Total Dipole Moment    :     -0.17705       0.04125       0.04393
                        -----------------------------------------
Magnitude (a.u.)       :      0.18702
Magnitude (Debye)      :      0.47537

Rotational constants in cm-1:     0.457164     0.041388     0.040636
Rotational constants in MHz : 13705.420830  1240.769173  1218.224072

                             ****ORCA TERMINATED NORMALLY****
TOTAL RUN TIME: 0 days 0 hours 5 minutes 16 seconds 6 msec
