                         Program Version 5.0.3 -  RELEASE  -
|  1> !ri-mp2 aug-cc-pvtz aug-cc-pvtz/c tightscf
|  2> %pal nprocs 16 end
|  3>
|  4> * xyz 0 1
|  5> C     -1.818641   -0.717279    0.144096
|  6> C     -1.150092    0.559242   -0.358350
|  7> C      0.172758    0.883165    0.310034
|  8> Cl     1.464599   -0.345613   -0.067396
|  9> H     -2.003786   -0.667711    1.219027
| 10> H     -2.776988   -0.872261   -0.351812
| 11> H     -1.195361   -1.589705   -0.048379
| 12> H     -1.001591    0.509688   -1.438752
| 13> H     -1.806916    1.416179   -0.174399
| 14> H      0.089223    0.894421    1.394122
| 15> H      0.573090    1.834040   -0.028754
| 16> *
| 17>
| 18>                          ****END OF INPUT****

CARTESIAN COORDINATES (ANGSTROEM)
---------------------------------
  C     -1.818641   -0.717279    0.144096
  C     -1.150092    0.559242   -0.358350
  C      0.172758    0.883165    0.310034
  Cl     1.464599   -0.345613   -0.067396
  H     -2.003786   -0.667711    1.219027
  H     -2.776988   -0.872261   -0.351812
  H     -1.195361   -1.589705   -0.048379
  H     -1.001591    0.509688   -1.438752
  H     -1.806916    1.416179   -0.174399
  H      0.089223    0.894421    1.394122
  H      0.573090    1.834040   -0.028754

 Total Charge           Charge          ....    0
 Multiplicity           Mult            ....    1
 Number of Electrons    NEL             ....   42
 Basis Dimension        Dim             ....  349

ORBITAL ENERGIES
----------------

  NO   OCC          E(Eh)            E(eV)
   0   2.0000    -104.817688     -2852.2343
   1   2.0000     -11.293781      -307.3194
   2   2.0000     -11.239254      -305.8356
   3   2.0000     -11.219631      -305.3017
   4   2.0000     -10.541777      -286.8563
   5   2.0000      -8.008544      -217.9236
   6   2.0000      -8.006886      -217.8784
   7   2.0000      -8.006855      -217.8776
   8   2.0000      -1.132221       -30.8093
   9   2.0000      -1.038554       -28.2605
  10   2.0000      -0.922203       -25.0944
  11   2.0000      -0.808869       -22.0104
  12   2.0000      -0.647026       -17.6065
  13   2.0000      -0.633035       -17.2258
  14   2.0000      -0.586423       -15.9574
  15   2.0000      -0.540177       -14.6990
  16   2.0000      -0.515936       -14.0393
  17   2.0000      -0.502901       -13.6846
  18   2.0000      -0.483360       -13.1529
  19   2.0000      -0.429494       -11.6871
  20   2.0000      -0.428466       -11.6591
  21   0.0000       0.028463         0.7745
  22   0.0000       0.037105         1.0097
  23   0.0000       0.039436         1.0731
  24   0.0000       0.046277         1.2593
  25   0.0000       0.059722         1.6251

MULLIKEN ATOMIC CHARGES
-----------------------
   0 C :   -0.916271
   1 C :   -0.404302
   2 C :   -0.291664
   3 Cl:   -0.363640
   4 H :    0.282272
   5 H :    0.280237
   6 H :    0.312320
   7 H :    0.296426
   8 H :    0.263374
   9 H :    0.268300
  10 H :    0.272949
Sum of atomic charges:   -0.0000000

LOEWDIN ATOMIC CHARGES
----------------------
   0 C :    0.553828
   1 C :    0.167719
   2 C :   -0.241675
   3 Cl:    0.861853
   4 H :   -0.172786
   5 H :   -0.173757
   6 H :   -0.194500
   7 H :   -0.165579
   8 H :   -0.156337
   9 H :   -0.237840
  10 H :   -0.240925

  Mayer bond orders larger than 0.100000
B(  0-C ,  1-C ) :   0.8630 B(  0-C ,  4-H ) :   0.9392 B(  0-C ,  5-H ) :   0.9551
B(  0-C ,  6-H ) :   0.9223 B(  1-C ,  2-C ) :   0.9403 B(  1-C ,  7-H ) :   0.9219
B(  1-C ,  8-H ) :   0.9338 B(  2-C ,  3-Cl) :   0.7791 B(  2-C ,  9-H ) :   0.9344
B(  2-C , 10-H ) :   0.9553

MP2 TOTAL ENERGY:     -577.982810225 Eh
FINAL SINGLE POINT ENERGY      -577.982810224863

DIPOLE MOMENT
-------------
                                X             Y             Z
Electronic contribution:      9.50926      -1.46175      -0.53533
Nuclear contribution   :    -10.26151       2.02777       0.67034
                        -----------------------------------------
Total Dipole Moment    :     -0.75225       0.56602       0.13501
                        -----------------------------------------
Magnitude (a.u.)       :      0.95105
Magnitude (Debye)      :      2.41737

Rotational constants in cm-1:     0.397739     0.106991     0.092449
Rotational constants in MHz : 11923.912383  3207.499953  2771.555578

                             ****ORCA TERMINATED NORMALLY****
TOTAL RUN TIME: 0 days 0 hours 1 minutes 55 seconds 611 msec
