                         Program Version 5.0.3 -  RELEASE  -
|  1> !ri-mp2 aug-cc-pvtz aug-cc-pvtz/c tightscf
|  2> %pal nprocs 16 end
|  3>
|  4> * xyz 0 1
|  5> S      1.186410   -0.064006    0.045138
|  6> O     -0.061150   -1.221903   -0.137878
|  7> N      0.175744    1.267799   -0.042280
|  8> C     -1.314499   -0.572652    0.090963
|  9> C     -1.045628    0.909737   -0.039631
| 10> H     -2.026854   -0.942923   -0.648855
| 11> H     -1.699331   -0.803961    1.095565
| 12> H     -1.836625    1.649104   -0.077924
| 13> *
| 14>
| 15>                          ****END OF INPUT****

CARTESIAN COORDINATES (ANGSTROEM)
---------------------------------
  S      1.186410   -0.064006    0.045138
  O     -0.061150   -1.221903   -0.137878
  N      0.175744    1.267799   -0.042280
  C     -1.314499   -0.572652    0.090963
  C     -1.045628    0.909737   -0.039631
  H     -2.026854   -0.942923   -0.648855
  H     -1.699331   -0.803961    1.095565
  H     -1.836625    1.649104   -0.077924

 Total Charge           Charge          ....    0
 Multiplicity           Mult            ....    1
 Number of Electrons    NEL             ....   46
 Basis Dimension        Dim             ....  303

ORBITAL ENERGIES
----------------

  NO   OCC          E(Eh)            E(eV)
   0   2.0000     -92.033151     -2504.3494
   1   2.0000     -20.598482      -560.5132
   2   2.0000     -15.612612      -424.8408
   3   2.0000     -11.315196      -307.9021
   4   2.0000     -11.307333      -307.6882
   5   2.0000      -9.025948      -245.6085
   6   2.0000      -6.706914      -182.5044
   7   2.0000      -6.705396      -182.4631
   8   2.0000      -6.703736      -182.4179
   9   2.0000      -1.404002       -38.2048
  10   2.0000      -1.254373       -34.1332
  11   2.0000      -1.031776       -28.0761
  12   2.0000      -0.889442       -24.2029
  13   2.0000      -0.805774       -21.9262
  14   2.0000      -0.702765       -19.1232
  15   2.0000      -0.681131       -18.5345
  16   2.0000      -0.625051       -17.0085
  17   2.0000      -0.567198       -15.4342
  18   2.0000      -0.530206       -14.4276
  19   2.0000      -0.512449       -13.9444
  20   2.0000      -0.500220       -13.6117
  21   2.0000      -0.460827       -12.5397
  22   2.0000      -0.329245        -8.9592
  23   0.0000       0.024930         0.6784
  24   0.0000       0.039652         1.0790
  25   0.0000       0.041187         1.1207
  26   0.0000       0.062102         1.6899
  27   0.0000       0.076385         2.0785

MULLIKEN ATOMIC CHARGES
-----------------------
   0 S :    0.279989
   1 O :   -0.624177
   2 N :   -0.532104
   3 C :    0.032689
   4 C :   -0.339909
   5 H :    0.329343
   6 H :    0.302497
   7 H :    0.551672
Sum of atomic charges:   -0.0000000

LOEWDIN ATOMIC CHARGES
----------------------
   0 S :    0.778128
   1 O :    0.118539
   2 N :   -0.115490
   3 C :   -0.104833
   4 C :   -0.128165
   5 H :   -0.180785
   6 H :   -0.169859
   7 H :   -0.197535

  Mayer bond orders larger than 0.100000
B(  0-S ,  1-O ) :   0.7602 B(  0-S ,  2-N ) :   0.9580 B(  0-S ,  4-C ) :   0.1372
B(  1-O ,  3-C ) :   0.7581 B(  2-N ,  4-C ) :   1.4394 B(  3-C ,  4-C ) :   0.8057
B(  3-C ,  5-H ) :   0.8997 B(  3-C ,  6-H ) :   0.8986 B(  4-C ,  7-H ) :   0.6218

MP2 TOTAL ENERGY:     -605.294793155 Eh
FINAL SINGLE POINT ENERGY      -605.294793155476

DIPOLE MOMENT
-------------
                                X             Y             Z
Electronic contribution:      4.28480       0.17051      -0.22178
Nuclear contribution   :     -5.42840      -0.10434       0.35383
                        -----------------------------------------
Total Dipole Moment    :     -1.14360       0.06617       0.13205
                        -----------------------------------------
Magnitude (a.u.)       :      1.15310
Magnitude (Debye)      :      2.93094

Rotational constants in cm-1:     0.252181     0.183712     0.109242
Rotational constants in MHz :  7560.193220  5507.540371  3274.994059

                             ****ORCA TERMINATED NORMALLY****
TOTAL RUN TIME: 0 days 0 hours 1 minutes 45 seconds 845 msec
