                         Program Version 5.0.3 -  RELEASE  -
|  1> !ri-mp2 aug-cc-pvtz aug-cc-pvtz/c tightscf
|  2> %pal nprocs 16 end
|  3>
|  4> * xyz 0 1
|  5> C      0.000000    0.513378    0.000000
|  6> C      1.126362    1.500699    0.000000
|  7> C     -0.434875   -1.838472    0.000000
|  8> N     -1.214300    0.871560    0.000000
|  9> O      0.493529   -0.759900    0.000000
| 10> H      1.755164    1.352520    0.878602
| 11> H      1.755164    1.352520   -0.878602
| 12> H      0.727889    2.509956    0.000000
| 13> H      0.161301   -2.746313    0.000000
| 14> H     -1.064794   -1.818499   -0.892116
| 15> H     -1.064794   -1.818499    0.892116
| 16> H     -1.866987    0.092961    0.000000
| 17> *
| 18>
| 19>                          ****END OF INPUT****

CARTESIAN COORDINATES (ANGSTROEM)
---------------------------------
  C      0.000000    0.513378    0.000000
  C      1.126362    1.500699    0.000000
  C     -0.434875   -1.838472    0.000000
  N     -1.214300    0.871560    0.000000
  O      0.493529   -0.759900    0.000000
  H      1.755164    1.352520    0.878602
  H      1.755164    1.352520   -0.878602
  H      0.727889    2.509956    0.000000
  H      0.161301   -2.746313    0.000000
  H     -1.064794   -1.818499   -0.892116
  H     -1.064794   -1.818499    0.892116
  H     -1.866987    0.092961    0.000000

 Total Charge           Charge          ....    0
 Multiplicity           Mult            ....    1
 Number of Electrons    NEL             ....   40
 Basis Dimension        Dim             ....  391

ORBITAL ENERGIES
----------------

  NO   OCC          E(Eh)            E(eV)
   0   2.0000     -20.597873      -560.4966
   1   2.0000     -15.533590      -422.6905
   2   2.0000     -11.339315      -308.5585
   3   2.0000     -11.292813      -307.2931
   4   2.0000     -11.226389      -305.4856
   5   2.0000      -1.425855       -38.7995
   6   2.0000      -1.193633       -32.4804
   7   2.0000      -1.017784       -27.6953
   8   2.0000      -0.945576       -25.7304
   9   2.0000      -0.767479       -20.8842
  10   2.0000      -0.720361       -19.6020
  11   2.0000      -0.669082       -18.2066
  12   2.0000      -0.660523       -17.9737
  13   2.0000      -0.582713       -15.8564
  14   2.0000      -0.566574       -15.4173
  15   2.0000      -0.547596       -14.9009
  16   2.0000      -0.522683       -14.2229
  17   2.0000      -0.503058       -13.6889
  18   2.0000      -0.433454       -11.7949
  19   2.0000      -0.405059       -11.0222
  20   0.0000       0.027197         0.7401
  21   0.0000       0.037121         1.0101
  22   0.0000       0.041619         1.1325
  23   0.0000       0.042809         1.1649
  24   0.0000       0.058320         1.5870

MULLIKEN ATOMIC CHARGES
-----------------------
   0 C :    0.414134
   1 C :   -0.687054
   2 C :   -0.742142
   3 N :   -0.682003
   4 O :   -0.414948
   5 H :    0.271842
   6 H :    0.271842
   7 H :    0.349612
   8 H :    0.357112
   9 H :    0.341898
  10 H :    0.341898
  11 H :    0.177809
Sum of atomic charges:   -0.0000000

LOEWDIN ATOMIC CHARGES
----------------------
   0 C :   -0.596379
   1 C :    0.565956
   2 C :    0.345233
   3 N :    0.654528
   4 O :    0.570739
   5 H :   -0.174456
   6 H :   -0.174456
   7 H :   -0.187135
   8 H :   -0.182570
   9 H :   -0.174942
  10 H :   -0.174942
  11 H :   -0.471575

  Mayer bond orders larger than 0.100000
B(  0-C ,  1-C ) :   0.6660 B(  0-C ,  3-N ) :   1.3222 B(  0-C ,  4-O ) :   0.9609
B(  1-C ,  5-H ) :   0.9706 B(  1-C ,  6-H ) :   0.9706 B(  1-C ,  7-H ) :   0.8942
B(  2-C ,  4-O ) :   0.8193 B(  2-C ,  8-H ) :   0.9325 B(  2-C ,  9-H ) :   0.8768
B(  2-C , 10-H ) :   0.8768 B(  3-N , 11-H ) :   0.9248

MP2 TOTAL ENERGY:     -248.040169213 Eh
FINAL SINGLE POINT ENERGY      -248.040169212607

DIPOLE MOMENT
-------------
                                X             Y             Z
Electronic contribution:     -0.19985       0.25382       0.00000
Nuclear contribution   :      0.41479      -1.11224       0.00000
                        -----------------------------------------
Total Dipole Moment    :      0.21494      -0.85842       0.00000
                        -----------------------------------------
Magnitude (a.u.)       :      0.88492
Magnitude (Debye)      :      2.24928

Rotational constants in cm-1:     0.322276     0.136353     0.099385
Rotational constants in MHz :  9661.587376  4087.745578  2979.489040

                             ****ORCA TERMINATED NORMALLY****
TOTAL RUN TIME: 0 days 0 hours 1 minutes 56 seconds 3 msec
