                         Program Version 5.0.3 -  RELEASE  -
|  1> !ri-mp2 aug-cc-pvtz aug-cc-pvtz/c tightscf
|  2> %pal nprocs 16 end
|  3>
|  4> * xyz 0 1
|  5> Cl     2.286656   -0.909638   -0.094329
|  6> O     -0.348592   -1.741340    0.570157
|  7> O     -3.591259    0.368778   -0.156789
|  8> N      0.834131   -0.041900   -0.440896
|  9> N     -1.480456    0.074394   -0.263918
| 10> N     -2.680962   -0.317585    0.233515
| 11> C      1.034960    1.411899   -0.556362
| 12> C      1.208429    2.133260    0.774373
| 13> C     -0.314225   -0.670944    0.029846
| 14> H      0.193913    1.822214   -1.115508
| 15> H      1.908061    1.546450   -1.191269
| 16> H      1.383554    3.194973    0.597832
| 17> H      0.320409    2.034185    1.398486
| 18> H      2.061221    1.735025    1.322072
| 19> H     -1.505481    0.861831   -0.903010
| 20> *
| 21>
| 22>                          ****END OF INPUT****

CARTESIAN COORDINATES (ANGSTROEM)
---------------------------------
  Cl     2.286656   -0.909638   -0.094329
  O     -0.348592   -1.741340    0.570157
  O     -3.591259    0.368778   -0.156789
  N      0.834131   -0.041900   -0.440896
  N     -1.480456    0.074394   -0.263918
  N     -2.680962   -0.317585    0.233515
  C      1.034960    1.411899   -0.556362
  C      1.208429    2.133260    0.774373
  C     -0.314225   -0.670944    0.029846
  H      0.193913    1.822214   -1.115508
  H      1.908061    1.546450   -1.191269
  H      1.383554    3.194973    0.597832
  H      0.320409    2.034185    1.398486
  H      2.061221    1.735025    1.322072
  H     -1.505481    0.861831   -0.903010

 Total Charge           Charge          ....    0
 Multiplicity           Mult            ....    1
 Number of Electrons    NEL             ....   78
 Basis Dimension        Dim             ....  556

ORBITAL ENERGIES
----------------

  NO   OCC          E(Eh)            E(eV)
   0   2.0000    -104.886030     -2854.0940
   1   2.0000     -20.630708      -561.3901
   2   2.0000     -20.556417      -559.3686
   3   2.0000     -15.763938      -428.9586
   4   2.0000     -15.664855      -426.2624
   5   2.0000     -15.662998      -426.2118
   6   2.0000     -11.426156      -310.9215
   7   2.0000     -11.312591      -307.8313
   8   2.0000     -11.248652      -306.0914
   9   2.0000     -10.606622      -288.6209
  10   2.0000      -8.073644      -219.6950
  11   2.0000      -8.071009      -219.6233
  12   2.0000      -8.070821      -219.6182
  13   2.0000      -1.559527       -42.4369
  14   2.0000      -1.441997       -39.2387
  15   2.0000      -1.309860       -35.6431
  16   2.0000      -1.281564       -34.8731
  17   2.0000      -1.099225       -29.9114
  18   2.0000      -1.051602       -28.6156
  19   2.0000      -0.962416       -26.1887
  20   2.0000      -0.908213       -24.7137
  21   2.0000      -0.843201       -22.9447
  22   2.0000      -0.767287       -20.8789
  23   2.0000      -0.735906       -20.0250
  24   2.0000      -0.699798       -19.0425
  25   2.0000      -0.681162       -18.5354
  26   2.0000      -0.661865       -18.0103
  27   2.0000      -0.643927       -17.5221
  28   2.0000      -0.641754       -17.4630
  29   2.0000      -0.605093       -16.4654
  30   2.0000      -0.582017       -15.8375
  31   2.0000      -0.559716       -15.2306
  32   2.0000      -0.537890       -14.6367
  33   2.0000      -0.519113       -14.1258
  34   2.0000      -0.493976       -13.4418
  35   2.0000      -0.475452       -12.9377
  36   2.0000      -0.454322       -12.3627
  37   2.0000      -0.446643       -12.1538
  38   2.0000      -0.407984       -11.1018
  39   0.0000       0.018960         0.5159
  40   0.0000       0.031986         0.8704
  41   0.0000       0.036626         0.9967
  42   0.0000       0.044164         1.2018
  43   0.0000       0.056167         1.5284

MULLIKEN ATOMIC CHARGES
-----------------------
   0 Cl:   -0.216170
   1 O :   -0.654186
   2 O :   -0.481649
   3 N :    0.151748
   4 N :    0.382380
   5 N :    0.018039
   6 C :   -0.348432
   7 C :   -0.895485
   8 C :    0.327575
   9 H :    0.251454
  10 H :    0.395105
  11 H :    0.315761
  12 H :    0.306247
  13 H :    0.279307
  14 H :    0.168305
Sum of atomic charges:   -0.0000000

LOEWDIN ATOMIC CHARGES
----------------------
   0 Cl:    0.906605
   1 O :    0.420280
   2 O :    0.264171
   3 N :   -0.286520
   4 N :    0.344726
   5 N :   -0.121965
   6 C :    0.058075
   7 C :    0.582691
   8 C :   -0.947566
   9 H :   -0.181888
  10 H :   -0.175789
  11 H :   -0.167169
  12 H :   -0.170004
  13 H :   -0.183371
  14 H :   -0.342278

  Mayer bond orders larger than 0.100000
B(  0-Cl,  3-N ) :   0.8544 B(  1-O ,  8-C ) :   1.6447 B(  2-O ,  4-N ) :   0.1109
B(  2-O ,  5-N ) :   1.3391 B(  3-N ,  6-C ) :   0.7595 B(  3-N ,  8-C ) :   1.0263
B(  4-N ,  5-N ) :   0.8111 B(  4-N ,  8-C ) :   0.9633 B(  4-N , 14-H ) :   1.0271
B(  6-C ,  7-C ) :   0.8819 B(  6-C ,  9-H ) :   0.9209 B(  6-C , 10-H ) :   0.8797
B(  7-C , 11-H ) :   0.9187 B(  7-C , 12-H ) :   0.9269 B(  7-C , 13-H ) :   0.9529

MP2 TOTAL ENERGY:     -891.518956516 Eh
FINAL SINGLE POINT ENERGY      -891.518956516284

DIPOLE MOMENT
-------------
                                X             Y             Z
Electronic contribution:      0.11138     -10.21707      -0.93365
Nuclear contribution   :      0.97493      12.05604       0.23904
                        -----------------------------------------
Total Dipole Moment    :      1.08630       1.83897      -0.69461
                        -----------------------------------------
Magnitude (a.u.)       :      2.24596
Magnitude (Debye)      :      5.70879

Rotational constants in cm-1:     0.077704     0.027726     0.021971
Rotational constants in MHz :  2329.505723   831.190791   658.676360

                             ****ORCA TERMINATED NORMALLY****
TOTAL RUN TIME: 0 days 0 hours 7 minutes 7 seconds 622 msec
