                         Program Version 5.0.3 -  RELEASE  -
|  1> !ri-mp2 aug-cc-pvtz aug-cc-pvtz/c tightscf
|  2> %pal nprocs 16 end
|  3>
|  4> * xyz 0 1
|  5> C      0.000000    1.377987   -0.525257
|  6> C      0.000000    0.695340   -1.726214
|  7> C      0.000000   -0.695340   -1.726214
|  8> C      0.000000   -1.377987   -0.525257
|  9> C      0.000000   -0.694285    0.684098
| 10> C      0.000000    0.694285    0.684098
| 11> F      0.000000    2.719143   -0.501822
| 12> H      0.000000    1.255360   -2.649366
| 13> H      0.000000   -1.255360   -2.649366
| 14> F      0.000000   -2.719143   -0.501822
| 15> F      0.000000   -1.357117    1.841111
| 16> F      0.000000    1.357117    1.841111
| 17> *
| 18>
| 19>                          ****END OF INPUT****

CARTESIAN COORDINATES (ANGSTROEM)
---------------------------------
  C      0.000000    1.377987   -0.525257
  C      0.000000    0.695340   -1.726214
  C      0.000000   -0.695340   -1.726214
  C      0.000000   -1.377987   -0.525257
  C      0.000000   -0.694285    0.684098
  C      0.000000    0.694285    0.684098
  F      0.000000    2.719143   -0.501822
  H      0.000000    1.255360   -2.649366
  H      0.000000   -1.255360   -2.649366
  F      0.000000   -2.719143   -0.501822
  F      0.000000   -1.357117    1.841111
  F      0.000000    1.357117    1.841111

 Total Charge           Charge          ....    0
 Multiplicity           Mult            ....    1
 Number of Electrons    NEL             ....   74
 Basis Dimension        Dim             ....  506

ORBITAL ENERGIES
----------------

  NO   OCC          E(Eh)            E(eV)
   0   2.0000     -26.345846      -716.9069
   1   2.0000     -26.345844      -716.9069
   2   2.0000     -26.338937      -716.7189
   3   2.0000     -26.338937      -716.7189
   4   2.0000     -11.369968      -309.3926
   5   2.0000     -11.368736      -309.3590
   6   2.0000     -11.362654      -309.1935
   7   2.0000     -11.362647      -309.1933
   8   2.0000     -11.281656      -306.9895
   9   2.0000     -11.280419      -306.9558
  10   2.0000      -1.673765       -45.5455
  11   2.0000      -1.663334       -45.2616
  12   2.0000      -1.653243       -44.9870
  13   2.0000      -1.649582       -44.8874
  14   2.0000      -1.208357       -32.8811
  15   2.0000      -1.071387       -29.1539
  16   2.0000      -1.062387       -28.9090
  17   2.0000      -0.914087       -24.8736
  18   2.0000      -0.905687       -24.6450
  19   2.0000      -0.810647       -22.0588
  20   2.0000      -0.802745       -21.8438
  21   2.0000      -0.793323       -21.5874
  22   2.0000      -0.753350       -20.4997
  23   2.0000      -0.751791       -20.4573
  24   2.0000      -0.727945       -19.8084
  25   2.0000      -0.727447       -19.7948
  26   2.0000      -0.713748       -19.4221
  27   2.0000      -0.706148       -19.2153
  28   2.0000      -0.689041       -18.7498
  29   2.0000      -0.684654       -18.6304
  30   2.0000      -0.681620       -18.5478
  31   2.0000      -0.617343       -16.7988
  32   2.0000      -0.593844       -16.1593
  33   2.0000      -0.573171       -15.5968
  34   2.0000      -0.534136       -14.5346
  35   2.0000      -0.379586       -10.3291
  36   2.0000      -0.369394       -10.0517
  37   0.0000       0.024024         0.6537
  38   0.0000       0.036896         1.0040
  39   0.0000       0.053064         1.4440
  40   0.0000       0.071406         1.9431
  41   0.0000       0.073576         2.0021

MULLIKEN ATOMIC CHARGES
-----------------------
   0 C :    0.594111
   1 C :   -0.652962
   2 C :   -0.652962
   3 C :    0.594111
   4 C :    0.431507
   5 C :    0.431507
   6 F :   -0.454484
   7 H :    0.506104
   8 H :    0.506104
   9 F :   -0.454484
  10 F :   -0.424276
  11 F :   -0.424276
Sum of atomic charges:    0.0000000

LOEWDIN ATOMIC CHARGES
----------------------
   0 C :   -0.523794
   1 C :    0.186686
   2 C :    0.186686
   3 C :   -0.523794
   4 C :   -0.525065
   5 C :   -0.525065
   6 F :    0.512601
   7 H :   -0.177168
   8 H :   -0.177168
   9 F :    0.512601
  10 F :    0.526740
  11 F :    0.526740

  Mayer bond orders larger than 0.100000
B(  0-C ,  1-C ) :   1.2376 B(  0-C ,  2-C ) :  -0.1076 B(  0-C ,  5-C ) :   1.2669
B(  0-C ,  6-F ) :   0.3891 B(  1-C ,  2-C ) :   1.3042 B(  1-C ,  3-C ) :  -0.1076
B(  1-C ,  6-F ) :   0.1258 B(  1-C ,  7-H ) :   0.5829 B(  2-C ,  3-C ) :   1.2376
B(  2-C ,  8-H ) :   0.5829 B(  2-C ,  9-F ) :   0.1258 B(  3-C ,  4-C ) :   1.2669
B(  3-C ,  9-F ) :   0.3891 B(  4-C ,  5-C ) :   1.2655 B(  4-C , 10-F ) :   0.4284
B(  4-C , 11-F ) :   0.1328 B(  5-C , 10-F ) :   0.1328 B(  5-C , 11-F ) :   0.4284
B(  6-F ,  7-H ) :   0.1237 B(  8-H ,  9-F ) :   0.1237 B( 10-F , 11-F ) :   0.1064

MP2 TOTAL ENERGY:     -628.271341364 Eh
FINAL SINGLE POINT ENERGY      -628.271341364289

DIPOLE MOMENT
-------------
                                X             Y             Z
Electronic contribution:     -0.00000       0.00000       6.20174
Nuclear contribution   :      0.00000       0.00000      -7.35668
                        -----------------------------------------
Total Dipole Moment    :     -0.00000       0.00000      -1.15494
                        -----------------------------------------
Magnitude (a.u.)       :      1.15494
Magnitude (Debye)      :      2.93561

Rotational constants in cm-1:     0.069790     0.039862     0.025371
Rotational constants in MHz :  2092.244442  1195.040388   760.602363

                             ****ORCA TERMINATED NORMALLY****
TOTAL RUN TIME: 0 days 0 hours 5 minutes 21 seconds 265 msec
