                         Program Version 5.0.3 -  RELEASE  -
|  1> !ri-mp2 aug-cc-pvtz aug-cc-pvtz/c tightscf
|  2> %pal nprocs 16 end
|  3>
|  4> * xyz 0 1
|  5> C     -0.756198    0.073934   -0.002520
|  6> H     -0.343604    2.171486   -0.066463
|  7> C      0.023743    1.153783   -0.022376
|  8> H     -2.647844   -0.452806    0.859762
|  9> H     -2.606606   -0.553100   -0.889410
| 10> H     -2.679983    1.029419   -0.103430
| 11> C     -2.248786    0.030965   -0.036722
| 12> H     -0.043702   -1.617124    1.120770
| 13> H     -0.250301   -1.964412   -0.582053
| 14> C      0.069948   -1.188503    0.117983
| 15> H      1.780513   -0.916913   -1.185058
| 16> H      2.249118   -1.218041    0.478619
| 17> C      1.515599   -0.711239   -0.147209
| 18> H      1.879408    1.089875    1.069321
| 19> H      2.101884    1.357766   -0.645531
| 20> C      1.489213    0.820035    0.081422
| 21> *
| 22>
| 23>                          ****END OF INPUT****

CARTESIAN COORDINATES (ANGSTROEM)
---------------------------------
  C     -0.756198    0.073934   -0.002520
  H     -0.343604    2.171486   -0.066463
  C      0.023743    1.153783   -0.022376
  H     -2.647844   -0.452806    0.859762
  H     -2.606606   -0.553100   -0.889410
  H     -2.679983    1.029419   -0.103430
  C     -2.248786    0.030965   -0.036722
  H     -0.043702   -1.617124    1.120770
  H     -0.250301   -1.964412   -0.582053
  C      0.069948   -1.188503    0.117983
  H      1.780513   -0.916913   -1.185058
  H      2.249118   -1.218041    0.478619
  C      1.515599   -0.711239   -0.147209
  H      1.879408    1.089875    1.069321
  H      2.101884    1.357766   -0.645531
  C      1.489213    0.820035    0.081422

 Total Charge           Charge          ....    0
 Multiplicity           Mult            ....    1
 Number of Electrons    NEL             ....   46
 Basis Dimension        Dim             ....  506

ORBITAL ENERGIES
----------------

  NO   OCC          E(Eh)            E(eV)
   0   2.0000     -11.223084      -305.3957
   1   2.0000     -11.217695      -305.2490
   2   2.0000     -11.217612      -305.2467
   3   2.0000     -11.216385      -305.2134
   4   2.0000     -11.215158      -305.1800
   5   2.0000     -11.208743      -305.0054
   6   2.0000      -1.131152       -30.7802
   7   2.0000      -1.007085       -27.4042
   8   2.0000      -0.954445       -25.9718
   9   2.0000      -0.900101       -24.4930
  10   2.0000      -0.784800       -21.3555
  11   2.0000      -0.700838       -19.0708
  12   2.0000      -0.639684       -17.4067
  13   2.0000      -0.634125       -17.2554
  14   2.0000      -0.573499       -15.6057
  15   2.0000      -0.565755       -15.3950
  16   2.0000      -0.540671       -14.7124
  17   2.0000      -0.511565       -13.9204
  18   2.0000      -0.481149       -13.0927
  19   2.0000      -0.476943       -12.9783
  20   2.0000      -0.472784       -12.8651
  21   2.0000      -0.463954       -12.6248
  22   2.0000      -0.328415        -8.9366
  23   0.0000       0.031292         0.8515
  24   0.0000       0.035314         0.9610
  25   0.0000       0.037566         1.0222
  26   0.0000       0.040319         1.0971
  27   0.0000       0.051896         1.4122

MULLIKEN ATOMIC CHARGES
-----------------------
   0 C :    0.890374
   1 H :    0.264721
   2 C :   -1.060793
   3 H :    0.270026
   4 H :    0.277073
   5 H :    0.258902
   6 C :   -1.007069
   7 H :    0.214687
   8 H :    0.278333
   9 C :   -0.663196
  10 H :    0.214943
  11 H :    0.276791
  12 C :   -0.507641
  13 H :    0.261321
  14 H :    0.315471
  15 C :   -0.283943
Sum of atomic charges:   -0.0000000

LOEWDIN ATOMIC CHARGES
----------------------
   0 C :   -0.103663
   1 H :   -0.174626
   2 C :    0.253898
   3 H :   -0.168173
   4 H :   -0.169815
   5 H :   -0.177357
   6 C :    0.578128
   7 H :   -0.143284
   8 H :   -0.147844
   9 C :    0.287945
  10 H :   -0.152447
  11 H :   -0.151368
  12 C :    0.305593
  13 H :   -0.153421
  14 H :   -0.157097
  15 C :    0.273530

  Mayer bond orders larger than 0.100000
B(  0-C ,  2-C ) :   1.2188 B(  0-C ,  6-C ) :   0.6604 B(  0-C ,  9-C ) :   0.7672
B(  1-H ,  2-C ) :   1.1241 B(  2-C ,  9-C ) :   0.1711 B(  2-C , 15-C ) :   0.7955
B(  3-H ,  6-C ) :   1.0117 B(  4-H ,  6-C ) :   1.0048 B(  5-H ,  6-C ) :   0.9961
B(  7-H ,  9-C ) :   0.9734 B(  8-H ,  9-C ) :   0.9703 B(  9-C , 12-C ) :   1.0435
B( 10-H , 12-C ) :   0.9897 B( 11-H , 12-C ) :   0.9402 B( 12-C , 15-C ) :   0.9570
B( 13-H , 15-C ) :   0.9511 B( 14-H , 15-C ) :   0.9326

MP2 TOTAL ENERGY:     -234.121882534 Eh
FINAL SINGLE POINT ENERGY      -234.121882533777

DIPOLE MOMENT
-------------
                                X             Y             Z
Electronic contribution:      0.53927       1.04247      -0.02923
Nuclear contribution   :     -0.59012      -1.12935       0.05945
                        -----------------------------------------
Total Dipole Moment    :     -0.05084      -0.08687       0.03022
                        -----------------------------------------
Magnitude (a.u.)       :      0.10510
Magnitude (Debye)      :      0.26713

Rotational constants in cm-1:     0.233017     0.101272     0.074930
Rotational constants in MHz :  6985.661687  3036.043861  2246.356459

                             ****ORCA TERMINATED NORMALLY****
TOTAL RUN TIME: 0 days 0 hours 4 minutes 31 seconds 813 msec
