                         Program Version 5.0.3 -  RELEASE  -
|  1> !ri-mp2 aug-cc-pvtz aug-cc-pvtz/c tightscf
|  2> %pal nprocs 16 end
|  3>
|  4> * xyz 0 1
|  5> S      0.000000    0.000000    2.271299
|  6> C      0.000000    0.000000    0.630759
|  7> S      0.000000    1.453602   -0.360432
|  8> C      0.000000    0.668708   -1.915944
|  9> C      0.000000   -0.668708   -1.915944
| 10> S      0.000000   -1.453602   -0.360432
| 11> H      0.000000    1.287666   -2.800087
| 12> H      0.000000   -1.287666   -2.800087
| 13> *
| 14>
| 15>                          ****END OF INPUT****

CARTESIAN COORDINATES (ANGSTROEM)
---------------------------------
  S      0.000000    0.000000    2.271299
  C      0.000000    0.000000    0.630759
  S      0.000000    1.453602   -0.360432
  C      0.000000    0.668708   -1.915944
  C      0.000000   -0.668708   -1.915944
  S      0.000000   -1.453602   -0.360432
  H      0.000000    1.287666   -2.800087
  H      0.000000   -1.287666   -2.800087

 Total Charge           Charge          ....    0
 Multiplicity           Mult            ....    1
 Number of Electrons    NEL             ....   68
 Basis Dimension        Dim             ....  334

ORBITAL ENERGIES
----------------

  NO   OCC          E(Eh)            E(eV)
   0   2.0000     -92.019499     -2503.9779
   1   2.0000     -92.019498     -2503.9779
   2   2.0000     -91.931376     -2501.5799
   3   2.0000     -11.384451      -309.7867
   4   2.0000     -11.303320      -307.5790
   5   2.0000     -11.301647      -307.5334
   6   2.0000      -9.019655      -245.4373
   7   2.0000      -9.019643      -245.4370
   8   2.0000      -8.933837      -243.1021
   9   2.0000      -6.700512      -182.3302
  10   2.0000      -6.700509      -182.3301
  11   2.0000      -6.699601      -182.3054
  12   2.0000      -6.699599      -182.3054
  13   2.0000      -6.698828      -182.2844
  14   2.0000      -6.698826      -182.2843
  15   2.0000      -6.615017      -180.0038
  16   2.0000      -6.613551      -179.9639
  17   2.0000      -6.612507      -179.9355
  18   2.0000      -1.200733       -32.6736
  19   2.0000      -1.071707       -29.1626
  20   2.0000      -1.035803       -28.1856
  21   2.0000      -0.937906       -25.5217
  22   2.0000      -0.797340       -21.6967
  23   2.0000      -0.738520       -20.0962
  24   2.0000      -0.692243       -18.8369
  25   2.0000      -0.583015       -15.8646
  26   2.0000      -0.563285       -15.3278
  27   2.0000      -0.552555       -15.0358
  28   2.0000      -0.531141       -14.4531
  29   2.0000      -0.480429       -13.0731
  30   2.0000      -0.435450       -11.8492
  31   2.0000      -0.420958       -11.4548
  32   2.0000      -0.342192        -9.3115
  33   2.0000      -0.311361        -8.4726
  34   0.0000       0.020879         0.5681
  35   0.0000       0.032673         0.8891
  36   0.0000       0.040120         1.0917
  37   0.0000       0.056890         1.5480
  38   0.0000       0.073173         1.9911

MULLIKEN ATOMIC CHARGES
-----------------------
   0 S :   -0.416154
   1 C :    0.354538
   2 S :   -0.061589
   3 C :   -0.381361
   4 C :   -0.381361
   5 S :   -0.061589
   6 H :    0.473758
   7 H :    0.473758
Sum of atomic charges:    0.0000000

LOEWDIN ATOMIC CHARGES
----------------------
   0 S :    0.698220
   1 C :   -1.710417
   2 S :    1.089852
   3 C :   -0.314896
   4 C :   -0.314896
   5 S :    1.089852
   6 H :   -0.268858
   7 H :   -0.268858

  Mayer bond orders larger than 0.100000
B(  0-S ,  1-C ) :   1.5668 B(  1-C ,  2-S ) :   1.1034 B(  1-C ,  5-S ) :   1.1034
B(  2-S ,  3-C ) :   1.0509 B(  3-C ,  4-C ) :   1.6096 B(  3-C ,  6-H ) :   0.8033
B(  4-C ,  5-S ) :   1.0509 B(  4-C ,  7-H ) :   0.8033

MP2 TOTAL ENERGY:    -1308.423545116 Eh
FINAL SINGLE POINT ENERGY     -1308.423545115951

DIPOLE MOMENT
-------------
                                X             Y             Z
Electronic contribution:      0.00000      -0.00000       3.41066
Nuclear contribution   :      0.00000       0.00000      -5.37367
                        -----------------------------------------
Total Dipole Moment    :      0.00000      -0.00000      -1.96301
                        -----------------------------------------
Magnitude (a.u.)       :      1.96301
Magnitude (Debye)      :      4.98957

Rotational constants in cm-1:     0.112709     0.059725     0.039039
Rotational constants in MHz :  3378.938224  1790.523814  1170.347961

                             ****ORCA TERMINATED NORMALLY****
TOTAL RUN TIME: 0 days 0 hours 2 minutes 37 seconds 958 msec
