                         Program Version 5.0.3 -  RELEASE  -
|  1> !ri-mp2 aug-cc-pvtz aug-cc-pvtz/c tightscf
|  2> %pal nprocs 16 end
|  3> %maxcore 3800
|  4>
|  5> * xyz 0 1
|  6> C      1.958541   -0.478093    0.193954
|  7> C     -1.985911   -0.370129    0.044281
|  8> C      3.315328   -0.651679   -0.427177
|  9> C     -2.706370   -1.406200   -0.772082
| 10> C     -0.282027    2.350782   -0.151313
| 11> C      0.025654    0.906381    0.152375
| 12> O      1.466249   -1.192700    1.024364
| 13> O     -2.348571    0.063105    1.107404
| 14> O      1.336474    0.624435   -0.316945
| 15> O     -0.847020    0.027067   -0.577278
| 16> H      3.206350   -0.834642   -1.496483
| 17> H      3.901786    0.259171   -0.311364
| 18> H      3.823877   -1.488732    0.040209
| 19> H     -2.793777   -1.084287   -1.808678
| 20> H     -2.130275   -2.332268   -0.762710
| 21> H     -3.688403   -1.585106   -0.345883
| 22> H      0.418059    2.997677    0.375816
| 23> H     -1.291702    2.583448    0.181303
| 24> H     -0.200399    2.536528   -1.221464
| 25> H     -0.053858    0.666591    1.208658
| 26> *
| 27>
| 28>                          ****END OF INPUT****

CARTESIAN COORDINATES (ANGSTROEM)
---------------------------------
  C      1.958541   -0.478093    0.193954
  C     -1.985911   -0.370129    0.044281
  C      3.315328   -0.651679   -0.427177
  C     -2.706370   -1.406200   -0.772082
  C     -0.282027    2.350782   -0.151313
  C      0.025654    0.906381    0.152375
  O      1.466249   -1.192700    1.024364
  O     -2.348571    0.063105    1.107404
  O      1.336474    0.624435   -0.316945
  O     -0.847020    0.027067   -0.577278
  H      3.206350   -0.834642   -1.496483
  H      3.901786    0.259171   -0.311364
  H      3.823877   -1.488732    0.040209
  H     -2.793777   -1.084287   -1.808678
  H     -2.130275   -2.332268   -0.762710
  H     -3.688403   -1.585106   -0.345883
  H      0.418059    2.997677    0.375816
  H     -1.291702    2.583448    0.181303
  H     -0.200399    2.536528   -1.221464
  H     -0.053858    0.666591    1.208658

 Total Charge           Charge          ....    0
 Multiplicity           Mult            ....    1
 Number of Electrons    NEL             ....   78
 Basis Dimension        Dim             ....  690

ORBITAL ENERGIES
----------------

  NO   OCC          E(Eh)            E(eV)
   0   2.0000     -20.611972      -560.8803
   1   2.0000     -20.606480      -560.7308
   2   2.0000     -20.554546      -559.3176
   3   2.0000     -20.548088      -559.1419
   4   2.0000     -11.390598      -309.9539
   5   2.0000     -11.386320      -309.8375
   6   2.0000     -11.358763      -309.0877
   7   2.0000     -11.246884      -306.0433
   8   2.0000     -11.241662      -305.9012
   9   2.0000     -11.229592      -305.5727
  10   2.0000      -1.487810       -40.4854
  11   2.0000      -1.451042       -39.4848
  12   2.0000      -1.380535       -37.5663
  13   2.0000      -1.354408       -36.8553
  14   2.0000      -1.070801       -29.1380
  15   2.0000      -1.022636       -27.8273
  16   2.0000      -1.003445       -27.3051
  17   2.0000      -0.888350       -24.1732
  18   2.0000      -0.811180       -22.0733
  19   2.0000      -0.790362       -21.5069
  20   2.0000      -0.709590       -19.3089
  21   2.0000      -0.698908       -19.0182
  22   2.0000      -0.695395       -18.9227
  23   2.0000      -0.661435       -17.9986
  24   2.0000      -0.652660       -17.7598
  25   2.0000      -0.638874       -17.3846
  26   2.0000      -0.599147       -16.3036
  27   2.0000      -0.587307       -15.9814
  28   2.0000      -0.581247       -15.8165
  29   2.0000      -0.573520       -15.6063
  30   2.0000      -0.568706       -15.4753
  31   2.0000      -0.550560       -14.9815
  32   2.0000      -0.549737       -14.9591
  33   2.0000      -0.529204       -14.4004
  34   2.0000      -0.508178       -13.8282
  35   2.0000      -0.487048       -13.2533
  36   2.0000      -0.470978       -12.8160
  37   2.0000      -0.454748       -12.3743
  38   2.0000      -0.450173       -12.2498
  39   0.0000       0.025574         0.6959
  40   0.0000       0.031933         0.8690
  41   0.0000       0.034150         0.9293
  42   0.0000       0.041311         1.1241
  43   0.0000       0.049564         1.3487

MULLIKEN ATOMIC CHARGES
-----------------------
   0 C :    0.368986
   1 C :    0.463833
   2 C :   -0.667472
   3 C :   -0.658578
   4 C :   -1.138429
   5 C :    0.740826
   6 O :   -0.743834
   7 O :   -0.763404
   8 O :   -0.452306
   9 O :   -0.398528
  10 H :    0.273245
  11 H :    0.283972
  12 H :    0.361287
  13 H :    0.289037
  14 H :    0.288195
  15 H :    0.354802
  16 H :    0.282063
  17 H :    0.337561
  18 H :    0.264841
  19 H :    0.513904
Sum of atomic charges:    0.0000000

LOEWDIN ATOMIC CHARGES
----------------------
   0 C :   -0.800536
   1 C :   -0.815429
   2 C :    0.588540
   3 C :    0.589296
   4 C :    0.601936
   5 C :   -0.519089
   6 O :    0.469818
   7 O :    0.466824
   8 O :    0.589698
   9 O :    0.591990
  10 H :   -0.172715
  11 H :   -0.175499
  12 H :   -0.183547
  13 H :   -0.177590
  14 H :   -0.170747
  15 H :   -0.183545
  16 H :   -0.165810
  17 H :   -0.170733
  18 H :   -0.165980
  19 H :   -0.196884

  Mayer bond orders larger than 0.100000
B(  0-C ,  2-C ) :   0.6909 B(  0-C ,  6-O ) :   1.5964 B(  0-C ,  8-O ) :   1.0340
B(  1-C ,  3-C ) :   0.7432 B(  1-C ,  7-O ) :   1.5137 B(  1-C ,  9-O ) :   1.0457
B(  2-C , 10-H ) :   0.9693 B(  2-C , 11-H ) :   0.9583 B(  2-C , 12-H ) :   0.9052
B(  3-C ,  7-O ) :  -0.1000 B(  3-C , 13-H ) :   0.9561 B(  3-C , 14-H ) :   0.9421
B(  3-C , 15-H ) :   0.9157 B(  4-C ,  5-C ) :   0.7067 B(  4-C , 16-H ) :   0.9761
B(  4-C , 17-H ) :   0.9407 B(  4-C , 18-H ) :   1.0002 B(  5-C ,  8-O ) :   0.5565
B(  5-C ,  9-O ) :   0.5111 B(  5-C , 19-H ) :   0.8344

MP2 TOTAL ENERGY:     -534.691139992 Eh
FINAL SINGLE POINT ENERGY      -534.691139992090

DIPOLE MOMENT
-------------
                                X             Y             Z
Electronic contribution:     -0.58312      -1.42540       2.94083
Nuclear contribution   :      1.18828       1.71491      -4.13089
                        -----------------------------------------
Total Dipole Moment    :      0.60517       0.28952      -1.19007
                        -----------------------------------------
Magnitude (a.u.)       :      1.36613
Magnitude (Debye)      :      3.47242

Rotational constants in cm-1:     0.071268     0.027701     0.023438
Rotational constants in MHz :  2136.556987   830.447820   702.644260

                             ****ORCA TERMINATED NORMALLY****
TOTAL RUN TIME: 0 days 0 hours 11 minutes 8 seconds 376 msec
