                         Program Version 5.0.3 -  RELEASE  -
|  1> !ri-mp2 aug-cc-pvtz aug-cc-pvtz/c tightscf
|  2> %pal nprocs 16 end
|  3>
|  4> * xyz 0 1
|  5> H     -1.638593   -1.153756    0.688314
|  6> H     -1.454271   -0.881074   -1.060827
|  7> C     -1.031076   -0.669148   -0.077087
|  8> H     -0.970288    1.084448    1.225130
|  9> H     -1.528273    1.455561   -0.426021
| 10> C     -0.860191    0.833461    0.164191
| 11> O      0.306808   -1.179852   -0.027728
| 12> O      0.477289    1.074627   -0.266338
| 13> H      1.499157    0.001110    1.176675
| 14> H      2.050598   -0.197573   -0.525731
| 15> C      1.186084   -0.075466    0.125395
| 16> *
| 17>
| 18>                          ****END OF INPUT****

CARTESIAN COORDINATES (ANGSTROEM)
---------------------------------
  H     -1.638593   -1.153756    0.688314
  H     -1.454271   -0.881074   -1.060827
  C     -1.031076   -0.669148   -0.077087
  H     -0.970288    1.084448    1.225130
  H     -1.528273    1.455561   -0.426021
  C     -0.860191    0.833461    0.164191
  O      0.306808   -1.179852   -0.027728
  O      0.477289    1.074627   -0.266338
  H      1.499157    0.001110    1.176675
  H      2.050598   -0.197573   -0.525731
  C      1.186084   -0.075466    0.125395

 Total Charge           Charge          ....    0
 Multiplicity           Mult            ....    1
 Number of Electrons    NEL             ....   40
 Basis Dimension        Dim             ....  368

ORBITAL ENERGIES
----------------

  NO   OCC          E(Eh)            E(eV)
   0   2.0000     -20.571370      -559.7754
   1   2.0000     -20.563252      -559.5545
   2   2.0000     -11.329141      -308.2816
   3   2.0000     -11.287385      -307.1454
   4   2.0000     -11.284141      -307.0571
   5   2.0000      -1.438048       -39.1313
   6   2.0000      -1.331602       -36.2347
   7   2.0000      -1.032395       -28.0929
   8   2.0000      -0.869668       -23.6649
   9   2.0000      -0.853801       -23.2331
  10   2.0000      -0.716772       -19.5043
  11   2.0000      -0.705036       -19.1850
  12   2.0000      -0.637239       -17.3402
  13   2.0000      -0.612224       -16.6595
  14   2.0000      -0.581783       -15.8311
  15   2.0000      -0.566034       -15.4026
  16   2.0000      -0.515641       -14.0313
  17   2.0000      -0.499548       -13.5934
  18   2.0000      -0.447401       -12.1744
  19   2.0000      -0.424985       -11.5644
  20   0.0000       0.029404         0.8001
  21   0.0000       0.038910         1.0588
  22   0.0000       0.040890         1.1127
  23   0.0000       0.043536         1.1847
  24   0.0000       0.057832         1.5737

MULLIKEN ATOMIC CHARGES
-----------------------
   0 H :    0.311475
   1 H :    0.283096
   2 C :   -0.342769
   3 H :    0.291962
   4 H :    0.392969
   5 C :   -0.283710
   6 O :   -0.596988
   7 O :   -0.635324
   8 H :    0.334012
   9 H :    0.414590
  10 C :   -0.169312
Sum of atomic charges:    0.0000000

LOEWDIN ATOMIC CHARGES
----------------------
   0 H :   -0.163550
   1 H :   -0.162964
   2 C :    0.055744
   3 H :   -0.155413
   4 H :   -0.160863
   5 C :    0.047099
   6 O :    0.547703
   7 O :    0.547051
   8 H :   -0.163109
   9 H :   -0.171756
  10 C :   -0.219942

  Mayer bond orders larger than 0.100000
B(  0-H ,  2-C ) :   0.9150 B(  1-H ,  2-C ) :   0.9421 B(  2-C ,  5-C ) :   0.9941
B(  2-C ,  6-O ) :   0.7686 B(  3-H ,  5-C ) :   0.9172 B(  4-H ,  5-C ) :   0.8621
B(  5-C ,  7-O ) :   0.7861 B(  6-O , 10-C ) :   0.8551 B(  7-O , 10-C ) :   0.8841
B(  8-H , 10-C ) :   0.8911 B(  9-H , 10-C ) :   0.8604

MP2 TOTAL ENERGY:     -267.888612821 Eh
FINAL SINGLE POINT ENERGY      -267.888612820726

DIPOLE MOMENT
-------------
                                X             Y             Z
Electronic contribution:      1.54230      -0.17051      -0.77474
Nuclear contribution   :     -2.05791       0.31138       1.08802
                        -----------------------------------------
Total Dipole Moment    :     -0.51561       0.14087       0.31329
                        -----------------------------------------
Magnitude (a.u.)       :      0.61956
Magnitude (Debye)      :      1.57478

Rotational constants in cm-1:     0.260021     0.252143     0.142454
Rotational constants in MHz :  7795.227232  7559.052110  4270.654186

                             ****ORCA TERMINATED NORMALLY****
TOTAL RUN TIME: 0 days 0 hours 1 minutes 58 seconds 20 msec
