                         Program Version 5.0.3 -  RELEASE  -
|  1> !ri-mp2 aug-cc-pvtz aug-cc-pvtz/c tightscf
|  2> %pal nprocs 16 end
|  3>
|  4> * xyz 0 1
|  5> C      0.000000    0.862132    0.000000
|  6> F     -1.305149    0.683741    0.000000
|  7> F      0.270153    2.162974    0.000000
|  8> C      0.934721   -0.068353    0.000000
|  9> H      1.955306    0.288216    0.000000
| 10> C      0.754530   -1.551413    0.000000
| 11> F     -0.579844   -1.931007    0.000000
| 12> H      1.221377   -1.991895    0.885372
| 13> H      1.221377   -1.991895   -0.885372
| 14> *
| 15>
| 16>                          ****END OF INPUT****

CARTESIAN COORDINATES (ANGSTROEM)
---------------------------------
  C      0.000000    0.862132    0.000000
  F     -1.305149    0.683741    0.000000
  F      0.270153    2.162974    0.000000
  C      0.934721   -0.068353    0.000000
  H      1.955306    0.288216    0.000000
  C      0.754530   -1.551413    0.000000
  F     -0.579844   -1.931007    0.000000
  H      1.221377   -1.991895    0.885372
  H      1.221377   -1.991895   -0.885372

 Total Charge           Charge          ....    0
 Multiplicity           Mult            ....    1
 Number of Electrons    NEL             ....   48
 Basis Dimension        Dim             ....  345

ORBITAL ENERGIES
----------------

  NO   OCC          E(Eh)            E(eV)
   0   2.0000     -26.346984      -716.9379
   1   2.0000     -26.346867      -716.9347
   2   2.0000     -26.291444      -715.4266
   3   2.0000     -11.431116      -311.0565
   4   2.0000     -11.337481      -308.5086
   5   2.0000     -11.259829      -306.3955
   6   2.0000      -1.702751       -46.3342
   7   2.0000      -1.637868       -44.5687
   8   2.0000      -1.600933       -43.5636
   9   2.0000      -1.105758       -30.0892
  10   2.0000      -0.971230       -26.4285
  11   2.0000      -0.872497       -23.7419
  12   2.0000      -0.803039       -21.8518
  13   2.0000      -0.763763       -20.7831
  14   2.0000      -0.750998       -20.4357
  15   2.0000      -0.714131       -19.4325
  16   2.0000      -0.708580       -19.2814
  17   2.0000      -0.688738       -18.7415
  18   2.0000      -0.683588       -18.6014
  19   2.0000      -0.661431       -17.9985
  20   2.0000      -0.616580       -16.7780
  21   2.0000      -0.558269       -15.1913
  22   2.0000      -0.550565       -14.9816
  23   2.0000      -0.388600       -10.5743
  24   0.0000       0.024890         0.6773
  25   0.0000       0.040609         1.1050
  26   0.0000       0.041403         1.1266
  27   0.0000       0.059201         1.6109
  28   0.0000       0.090537         2.4636

MULLIKEN ATOMIC CHARGES
-----------------------
   0 C :    0.607112
   1 F :   -0.276787
   2 F :   -0.281217
   3 C :   -0.591324
   4 H :    0.346742
   5 C :    0.034747
   6 F :   -0.463606
   7 H :    0.312166
   8 H :    0.312166
Sum of atomic charges:   -0.0000000

LOEWDIN ATOMIC CHARGES
----------------------
   0 C :   -0.899623
   1 F :    0.503717
   2 F :    0.484754
   3 C :    0.148341
   4 H :   -0.213883
   5 C :   -0.116414
   6 F :    0.450079
   7 H :   -0.178486
   8 H :   -0.178486

  Mayer bond orders larger than 0.100000
B(  0-C ,  1-F ) :   0.8553 B(  0-C ,  2-F ) :   0.7588 B(  0-C ,  3-C ) :   1.6742
B(  1-F ,  3-C ) :   0.1454 B(  3-C ,  4-H ) :   0.9103 B(  3-C ,  5-C ) :   0.8623
B(  5-C ,  6-F ) :   0.6736 B(  5-C ,  7-H ) :   0.9306 B(  5-C ,  8-H ) :   0.9306

MP2 TOTAL ENERGY:     -415.040551342 Eh
FINAL SINGLE POINT ENERGY      -415.040551342164

DIPOLE MOMENT
-------------
                                X             Y             Z
Electronic contribution:     -4.48574       4.02576      -0.00000
Nuclear contribution   :      5.62453      -4.31720       0.00000
                        -----------------------------------------
Total Dipole Moment    :      1.13879      -0.29144      -0.00000
                        -----------------------------------------
Magnitude (a.u.)       :      1.17549
Magnitude (Debye)      :      2.98786

Rotational constants in cm-1:     0.257525     0.078037     0.060569
Rotational constants in MHz :  7720.412477  2339.504460  1815.825362

                             ****ORCA TERMINATED NORMALLY****
TOTAL RUN TIME: 0 days 0 hours 1 minutes 32 seconds 573 msec
