                         Program Version 5.0.3 -  RELEASE  -
|  1> !ri-mp2 aug-cc-pvtz aug-cc-pvtz/c tightscf
|  2> %pal nprocs 16 end
|  3>
|  4> * xyz 0 1
|  5> S      1.653853   -1.466360   -0.041522
|  6> S     -1.653853    1.466359   -0.041519
|  7> N      1.962540    2.243904    0.036069
|  8> N     -1.962540   -2.243904    0.036069
|  9> C      0.678815    0.016108    0.014810
| 10> C     -0.678816   -0.016108    0.014811
| 11> C      1.374141    1.251705    0.022854
| 12> C     -1.374142   -1.251705    0.022855
| 13> H      2.827783   -0.852149    0.185852
| 14> H     -2.827783    0.852148    0.185851
| 15> *
| 16>
| 17>                          ****END OF INPUT****

CARTESIAN COORDINATES (ANGSTROEM)
---------------------------------
  S      1.653853   -1.466360   -0.041522
  S     -1.653853    1.466359   -0.041519
  N      1.962540    2.243904    0.036069
  N     -1.962540   -2.243904    0.036069
  C      0.678815    0.016108    0.014810
  C     -0.678816   -0.016108    0.014811
  C      1.374141    1.251705    0.022854
  C     -1.374142   -1.251705    0.022855
  H      2.827783   -0.852149    0.185852
  H     -2.827783    0.852148    0.185851

 Total Charge           Charge          ....    0
 Multiplicity           Mult            ....    1
 Number of Electrons    NEL             ....   72
 Basis Dimension        Dim             ....  422

ORBITAL ENERGIES
----------------

  NO   OCC          E(Eh)            E(eV)
   0   2.0000     -92.020696     -2504.0104
   1   2.0000     -92.020696     -2504.0104
   2   2.0000     -15.614746      -424.8989
   3   2.0000     -15.614746      -424.8988
   4   2.0000     -11.366057      -309.2861
   5   2.0000     -11.364557      -309.2453
   6   2.0000     -11.313448      -307.8546
   7   2.0000     -11.313448      -307.8546
   8   2.0000      -9.021047      -245.4752
   9   2.0000      -9.021046      -245.4751
  10   2.0000      -6.702146      -182.3747
  11   2.0000      -6.702146      -182.3747
  12   2.0000      -6.701218      -182.3494
  13   2.0000      -6.701218      -182.3494
  14   2.0000      -6.700014      -182.3167
  15   2.0000      -6.700014      -182.3167
  16   2.0000      -1.270131       -34.5620
  17   2.0000      -1.259626       -34.2762
  18   2.0000      -1.187136       -32.3036
  19   2.0000      -1.077823       -29.3291
  20   2.0000      -0.976988       -26.5852
  21   2.0000      -0.940410       -25.5899
  22   2.0000      -0.777590       -21.1593
  23   2.0000      -0.701429       -19.0868
  24   2.0000      -0.611657       -16.6440
  25   2.0000      -0.604317       -16.4443
  26   2.0000      -0.600714       -16.3463
  27   2.0000      -0.591436       -16.0938
  28   2.0000      -0.556927       -15.1548
  29   2.0000      -0.552195       -15.0260
  30   2.0000      -0.531319       -14.4579
  31   2.0000      -0.505301       -13.7499
  32   2.0000      -0.479728       -13.0541
  33   2.0000      -0.466846       -12.7035
  34   2.0000      -0.446051       -12.1377
  35   2.0000      -0.350877        -9.5478
  36   0.0000       0.015056         0.4097
  37   0.0000       0.026923         0.7326
  38   0.0000       0.030260         0.8234
  39   0.0000       0.058431         1.5900
  40   0.0000       0.059156         1.6097

MULLIKEN ATOMIC CHARGES
-----------------------
   0 S :   -0.332131
   1 S :   -0.332132
   2 N :   -0.665931
   3 N :   -0.665931
   4 C :    0.712356
   5 C :    0.712359
   6 C :    0.189647
   7 C :    0.189646
   8 H :    0.096059
   9 H :    0.096059
Sum of atomic charges:    0.0000000

LOEWDIN ATOMIC CHARGES
----------------------
   0 S :    1.362044
   1 S :    1.362046
   2 N :    0.288855
   3 N :    0.288855
   4 C :   -0.712039
   5 C :   -0.712040
   6 C :   -0.392059
   7 C :   -0.392059
   8 H :   -0.546801
   9 H :   -0.546802

  Mayer bond orders larger than 0.100000
B(  0-S ,  4-C ) :   0.6755 B(  0-S ,  8-H ) :   1.0735 B(  1-S ,  5-C ) :   0.6755
B(  1-S ,  9-H ) :   1.0735 B(  2-N ,  5-C ) :   0.1029 B(  2-N ,  6-C ) :   2.1924
B(  3-N ,  4-C ) :   0.1029 B(  3-N ,  7-C ) :   2.1924 B(  4-C ,  5-C ) :   1.6781
B(  4-C ,  6-C ) :   0.6831 B(  5-C ,  7-C ) :   0.6831 B(  6-C ,  7-C ) :   0.3107

MP2 TOTAL ENERGY:    -1058.021748035 Eh
FINAL SINGLE POINT ENERGY     -1058.021748034631

DIPOLE MOMENT
-------------
                                X             Y             Z
Electronic contribution:     -0.00000       0.00000      -0.26716
Nuclear contribution   :      0.00000      -0.00000       0.35632
                        -----------------------------------------
Total Dipole Moment    :     -0.00000      -0.00000       0.08915
                        -----------------------------------------
Magnitude (a.u.)       :      0.08915
Magnitude (Debye)      :      0.22661

Rotational constants in cm-1:     0.053059     0.047272     0.025016
Rotational constants in MHz :  1590.663811  1417.164891   749.974515

                             ****ORCA TERMINATED NORMALLY****
TOTAL RUN TIME: 0 days 0 hours 3 minutes 34 seconds 919 msec
