                         Program Version 5.0.3 -  RELEASE  -
|  1> !ri-mp2 aug-cc-pvtz aug-cc-pvtz/c tightscf
|  2> %pal nprocs 16 end
|  3>
|  4> * xyz 0 1
|  5> C     0.000000     1.361787       0.000000
|  6> C    -1.217446     0.702893       0.000000
|  7> C     1.217446     0.702893       0.000000
|  8> C    -1.179342    -0.680894       0.000000
|  9> C     1.179342    -0.680894       0.000000
| 10> C     0.000000    -1.405786       0.000000
| 11> F    -2.344663    -1.353692       0.000000
| 12> F     2.344663    -1.353692       0.000000
| 13> H    -2.151626     1.242242       0.000000
| 14> H     2.151626     1.242242       0.000000
| 15> F     0.000000     2.707384       0.000000
| 16> H     0.000000    -2.484484       0.000000
| 17> *
| 18>
| 19>                          ****END OF INPUT****

CARTESIAN COORDINATES (ANGSTROEM)
---------------------------------
  C      0.000000    1.361787    0.000000
  C     -1.217446    0.702893    0.000000
  C      1.217446    0.702893    0.000000
  C     -1.179342   -0.680894    0.000000
  C      1.179342   -0.680894    0.000000
  C      0.000000   -1.405786    0.000000
  F     -2.344663   -1.353692    0.000000
  F      2.344663   -1.353692    0.000000
  H     -2.151626    1.242242    0.000000
  H      2.151626    1.242242    0.000000
  F      0.000000    2.707384    0.000000
  H      0.000000   -2.484484    0.000000

 Total Charge           Charge          ....    0
 Multiplicity           Mult            ....    1
 Number of Electrons    NEL             ....   66
 Basis Dimension        Dim             ....  483

ORBITAL ENERGIES
----------------

  NO   OCC          E(Eh)            E(eV)
   0   2.0000     -26.332546      -716.5450
   1   2.0000     -26.332546      -716.5450
   2   2.0000     -26.332546      -716.5450
   3   2.0000     -11.363436      -309.2148
   4   2.0000     -11.363429      -309.2146
   5   2.0000     -11.363429      -309.2146
   6   2.0000     -11.261444      -306.4395
   7   2.0000     -11.261444      -306.4395
   8   2.0000     -11.261407      -306.4385
   9   2.0000      -1.650146       -44.9028
  10   2.0000      -1.649288       -44.8794
  11   2.0000      -1.649288       -44.8794
  12   2.0000      -1.197592       -32.5881
  13   2.0000      -1.058163       -28.7941
  14   2.0000      -1.058163       -28.7941
  15   2.0000      -0.891457       -24.2578
  16   2.0000      -0.891457       -24.2578
  17   2.0000      -0.802565       -21.8389
  18   2.0000      -0.778105       -21.1733
  19   2.0000      -0.723326       -19.6827
  20   2.0000      -0.722024       -19.6473
  21   2.0000      -0.722024       -19.6473
  22   2.0000      -0.717833       -19.5332
  23   2.0000      -0.711201       -19.3528
  24   2.0000      -0.711200       -19.3527
  25   2.0000      -0.667442       -18.1620
  26   2.0000      -0.667441       -18.1620
  27   2.0000      -0.589921       -16.0526
  28   2.0000      -0.575883       -15.6706
  29   2.0000      -0.575883       -15.6706
  30   2.0000      -0.526804       -14.3351
  31   2.0000      -0.368635       -10.0311
  32   2.0000      -0.368635       -10.0311
  33   0.0000       0.029558         0.8043
  34   0.0000       0.036173         0.9843
  35   0.0000       0.036173         0.9843
  36   0.0000       0.071954         1.9580
  37   0.0000       0.071954         1.9580

MULLIKEN ATOMIC CHARGES
-----------------------
   0 C :    0.917840
   1 C :   -0.896836
   2 C :   -0.896837
   3 C :    0.917842
   4 C :    0.917839
   5 C :   -0.896846
   6 F :   -0.447041
   7 F :   -0.447041
   8 H :    0.426040
   9 H :    0.426040
  10 F :   -0.447040
  11 H :    0.426038
Sum of atomic charges:   -0.0000000

LOEWDIN ATOMIC CHARGES
----------------------
   0 C :   -0.526944
   1 C :    0.200335
   2 C :    0.200335
   3 C :   -0.526944
   4 C :   -0.526944
   5 C :    0.200335
   6 F :    0.509338
   7 F :    0.509338
   8 H :   -0.182730
   9 H :   -0.182730
  10 F :    0.509338
  11 H :   -0.182730

  Mayer bond orders larger than 0.100000
B(  0-C ,  1-C ) :   1.1256 B(  0-C ,  2-C ) :   1.1256 B(  0-C ,  3-C ) :  -0.1674
B(  0-C ,  4-C ) :  -0.1674 B(  0-C ,  5-C ) :  -0.1185 B(  0-C , 10-F ) :   0.4831
B(  1-C ,  2-C ) :   0.3103 B(  1-C ,  3-C ) :   1.1256 B(  1-C ,  4-C ) :  -0.1185
B(  1-C ,  5-C ) :   0.3103 B(  1-C ,  6-F ) :   0.1170 B(  1-C ,  8-H ) :   0.7232
B(  1-C , 10-F ) :   0.1170 B(  2-C ,  3-C ) :  -0.1185 B(  2-C ,  4-C ) :   1.1256
B(  2-C ,  5-C ) :   0.3103 B(  2-C ,  7-F ) :   0.1170 B(  2-C ,  9-H ) :   0.7232
B(  2-C , 10-F ) :   0.1170 B(  3-C ,  4-C ) :  -0.1674 B(  3-C ,  5-C ) :   1.1256
B(  3-C ,  6-F ) :   0.4831 B(  4-C ,  5-C ) :   1.1256 B(  4-C ,  7-F ) :   0.4831
B(  5-C ,  6-F ) :   0.1170 B(  5-C ,  7-F ) :   0.1170 B(  5-C , 11-H ) :   0.7232

MP2 TOTAL ENERGY:     -529.154824187 Eh
FINAL SINGLE POINT ENERGY      -529.154824186529

DIPOLE MOMENT
-------------
                                X             Y             Z
Electronic contribution:      0.00000      -0.00000      -0.00000
Nuclear contribution   :      0.00000       0.00000       0.00000
                        -----------------------------------------
Total Dipole Moment    :      0.00000      -0.00000      -0.00000
                        -----------------------------------------
Magnitude (a.u.)       :      0.00000
Magnitude (Debye)      :      0.00001

Rotational constants in cm-1:     0.058690     0.058690     0.029345
Rotational constants in MHz :  1759.495856  1759.495204   879.747765

                             ****ORCA TERMINATED NORMALLY****
TOTAL RUN TIME: 0 days 0 hours 4 minutes 26 seconds 105 msec
