                         Program Version 5.0.3 -  RELEASE  -
|  1> !ri-mp2 aug-cc-pvtz aug-cc-pvtz/c tightscf
|  2> %pal nprocs 16 end
|  3>
|  4> * xyz 0 1
|  5> C     0.225402     0.725379    1.173820
|  6> C    -0.225402    -0.725379    1.173820
|  7> C     0.225402     0.725379   -1.173820
|  8> C    -0.225402    -0.725379   -1.173820
|  9> O    -0.225402     1.393629    0.000000
| 10> O     0.225402    -1.393629    0.000000
| 11> H    -0.194991     1.264433    2.022632
| 12> H     1.320586     0.773781    1.230887
| 13> H     0.194991    -1.264433    2.022632
| 14> H    -1.320586    -0.773781    1.230887
| 15> H     1.320586     0.773781   -1.230887
| 16> H    -0.194991     1.264433   -2.022632
| 17> H    -1.320586    -0.773781   -1.230887
| 18> H     0.194991    -1.264433   -2.022632
| 19> *
| 20>
| 21>                          ****END OF INPUT****

CARTESIAN COORDINATES (ANGSTROEM)
---------------------------------
  C      0.225402    0.725379    1.173820
  C     -0.225402   -0.725379    1.173820
  C      0.225402    0.725379   -1.173820
  C     -0.225402   -0.725379   -1.173820
  O     -0.225402    1.393629    0.000000
  O      0.225402   -1.393629    0.000000
  H     -0.194991    1.264433    2.022632
  H      1.320586    0.773781    1.230887
  H      0.194991   -1.264433    2.022632
  H     -1.320586   -0.773781    1.230887
  H      1.320586    0.773781   -1.230887
  H     -0.194991    1.264433   -2.022632
  H     -1.320586   -0.773781   -1.230887
  H      0.194991   -1.264433   -2.022632

 Total Charge           Charge          ....    0
 Multiplicity           Mult            ....    1
 Number of Electrons    NEL             ....   48
 Basis Dimension        Dim             ....  460

ORBITAL ENERGIES
----------------

  NO   OCC          E(Eh)            E(eV)
   0   2.0000     -20.560518      -559.4801
   1   2.0000     -20.560516      -559.4801
   2   2.0000     -11.277565      -306.8781
   3   2.0000     -11.277545      -306.8776
   4   2.0000     -11.276913      -306.8604
   5   2.0000     -11.276900      -306.8601
   6   2.0000      -1.397140       -38.0181
   7   2.0000      -1.355682       -36.8900
   8   2.0000      -1.047703       -28.5094
   9   2.0000      -0.951589       -25.8941
  10   2.0000      -0.892267       -24.2798
  11   2.0000      -0.795610       -21.6497
  12   2.0000      -0.697019       -18.9669
  13   2.0000      -0.654316       -17.8048
  14   2.0000      -0.649059       -17.6618
  15   2.0000      -0.641167       -17.4470
  16   2.0000      -0.633671       -17.2431
  17   2.0000      -0.553892       -15.0722
  18   2.0000      -0.553578       -15.0636
  19   2.0000      -0.517139       -14.0721
  20   2.0000      -0.513264       -13.9666
  21   2.0000      -0.459250       -12.4968
  22   2.0000      -0.455105       -12.3840
  23   2.0000      -0.397728       -10.8227
  24   0.0000       0.031180         0.8485
  25   0.0000       0.035471         0.9652
  26   0.0000       0.038916         1.0590
  27   0.0000       0.044549         1.2122
  28   0.0000       0.053404         1.4532

MULLIKEN ATOMIC CHARGES
-----------------------
   0 C :   -0.336410
   1 C :   -0.336410
   2 C :   -0.336410
   3 C :   -0.336410
   4 O :   -0.672685
   5 O :   -0.672685
   6 H :    0.398978
   7 H :    0.273774
   8 H :    0.398978
   9 H :    0.273774
  10 H :    0.273774
  11 H :    0.398978
  12 H :    0.273774
  13 H :    0.398978
Sum of atomic charges:    0.0000000

LOEWDIN ATOMIC CHARGES
----------------------
   0 C :    0.033537
   1 C :    0.033537
   2 C :    0.033537
   3 C :    0.033537
   4 O :    0.559422
   5 O :    0.559422
   6 H :   -0.159373
   7 H :   -0.153876
   8 H :   -0.159373
   9 H :   -0.153876
  10 H :   -0.153876
  11 H :   -0.159373
  12 H :   -0.153876
  13 H :   -0.159373

  Mayer bond orders larger than 0.100000
B(  0-C ,  1-C ) :   1.0068 B(  0-C ,  4-O ) :   0.8477 B(  0-C ,  6-H ) :   0.8588
B(  0-C ,  7-H ) :   0.9529 B(  1-C ,  5-O ) :   0.8477 B(  1-C ,  8-H ) :   0.8588
B(  1-C ,  9-H ) :   0.9529 B(  2-C ,  3-C ) :   1.0068 B(  2-C ,  4-O ) :   0.8477
B(  2-C , 10-H ) :   0.9529 B(  2-C , 11-H ) :   0.8588 B(  3-C ,  5-O ) :   0.8477
B(  3-C , 12-H ) :   0.9529 B(  3-C , 13-H ) :   0.8588

MP2 TOTAL ENERGY:     -307.112783971 Eh
FINAL SINGLE POINT ENERGY      -307.112783970964

DIPOLE MOMENT
-------------
                                X             Y             Z
Electronic contribution:     -0.00000       0.00000      -0.00000
Nuclear contribution   :      0.00000       0.00000      -0.00000
                        -----------------------------------------
Total Dipole Moment    :     -0.00000       0.00000      -0.00000
                        -----------------------------------------
Magnitude (a.u.)       :      0.00000
Magnitude (Debye)      :      0.00000

Rotational constants in cm-1:     0.168504     0.156760     0.091074
Rotational constants in MHz :  5051.631311  4699.540632  2730.331908

                             ****ORCA TERMINATED NORMALLY****
TOTAL RUN TIME: 0 days 0 hours 3 minutes 59 seconds 257 msec
