                         Program Version 5.0.3 -  RELEASE  -
|  1> !ri-mp2 aug-cc-pvtz aug-cc-pvtz/c tightscf
|  2> %pal nprocs 16 end
|  3>
|  4> * xyz 0 1
|  5> N     -0.215113    1.497969   -0.037148
|  6> N     -2.925719   -0.543036    0.011247
|  7> N      2.995579   -0.108089    0.011842
|  8> C     -0.435847    0.155615   -0.006082
|  9> C      0.526381   -0.803968   -0.007016
| 10> C     -1.814276   -0.244776   -0.000475
| 11> C      1.891978   -0.450754    0.001475
| 12> H      0.725085    1.844501    0.057268
| 13> H     -0.969933    2.136882    0.130733
| 14> H      0.252209   -1.846001   -0.016996
| 15> *
| 16>
| 17>                          ****END OF INPUT****

CARTESIAN COORDINATES (ANGSTROEM)
---------------------------------
  N     -0.215113    1.497969   -0.037148
  N     -2.925719   -0.543036    0.011247
  N      2.995579   -0.108089    0.011842
  C     -0.435847    0.155615   -0.006082
  C      0.526381   -0.803968   -0.007016
  C     -1.814276   -0.244776   -0.000475
  C      1.891978   -0.450754    0.001475
  H      0.725085    1.844501    0.057268
  H     -0.969933    2.136882    0.130733
  H      0.252209   -1.846001   -0.016996

 Total Charge           Charge          ....    0
 Multiplicity           Mult            ....    1
 Number of Electrons    NEL             ....   48
 Basis Dimension        Dim             ....  391

ORBITAL ENERGIES
----------------

  NO   OCC          E(Eh)            E(eV)
   0   2.0000     -15.630613      -425.3306
   1   2.0000     -15.617396      -424.9709
   2   2.0000     -15.586927      -424.1418
   3   2.0000     -11.383067      -309.7490
   4   2.0000     -11.313397      -307.8532
   5   2.0000     -11.292656      -307.2888
   6   2.0000     -11.291566      -307.2591
   7   2.0000      -1.306399       -35.5489
   8   2.0000      -1.254918       -34.1481
   9   2.0000      -1.235055       -33.6076
  10   2.0000      -1.100811       -29.9546
  11   2.0000      -0.956260       -26.0212
  12   2.0000      -0.802851       -21.8467
  13   2.0000      -0.773756       -21.0550
  14   2.0000      -0.697556       -18.9815
  15   2.0000      -0.662144       -18.0179
  16   2.0000      -0.608365       -16.5544
  17   2.0000      -0.598131       -16.2760
  18   2.0000      -0.572668       -15.5831
  19   2.0000      -0.518139       -14.0993
  20   2.0000      -0.514396       -13.9974
  21   2.0000      -0.497337       -13.5332
  22   2.0000      -0.483433       -13.1549
  23   2.0000      -0.364441        -9.9169
  24   0.0000       0.018629         0.5069
  25   0.0000       0.032106         0.8737
  26   0.0000       0.042001         1.1429
  27   0.0000       0.047344         1.2883
  28   0.0000       0.068211         1.8561

MULLIKEN ATOMIC CHARGES
-----------------------
   0 N :   -0.538377
   1 N :   -0.637379
   2 N :   -0.681625
   3 C :    1.113335
   4 C :   -0.453466
   5 C :    0.131019
   6 C :    0.573209
   7 H :    0.124816
   8 H :    0.111693
   9 H :    0.256775
Sum of atomic charges:   -0.0000000

LOEWDIN ATOMIC CHARGES
----------------------
   0 N :    0.863792
   1 N :    0.299633
   2 N :    0.267100
   3 C :   -0.309734
   4 C :    0.147868
   5 C :   -0.214068
   6 C :   -0.271828
   7 H :   -0.288098
   8 H :   -0.283133
   9 H :   -0.211532

  Mayer bond orders larger than 0.100000
B(  0-N ,  3-C ) :   0.9387 B(  0-N ,  4-C ) :  -0.1477 B(  0-N ,  7-H ) :   1.0556
B(  0-N ,  8-H ) :   1.0775 B(  1-N ,  3-C ) :  -0.2731 B(  1-N ,  4-C ) :   0.1112
B(  1-N ,  5-C ) :   2.3058 B(  2-N ,  3-C ) :   0.1395 B(  2-N ,  6-C ) :   2.1895
B(  3-C ,  4-C ) :   0.9461 B(  3-C ,  5-C ) :   0.6177 B(  4-C ,  5-C ) :   0.1966
B(  4-C ,  6-C ) :   1.0108 B(  4-C ,  9-H ) :   1.0444

MP2 TOTAL ENERGY:     -317.856401939 Eh
FINAL SINGLE POINT ENERGY      -317.856401939016

DIPOLE MOMENT
-------------
                                X             Y             Z
Electronic contribution:     -0.47858      -1.33508      -0.03270
Nuclear contribution   :      0.00630       2.07272       0.16552
                        -----------------------------------------
Total Dipole Moment    :     -0.47228       0.73764       0.13282
                        -----------------------------------------
Magnitude (a.u.)       :      0.88589
Magnitude (Debye)      :      2.25175

Rotational constants in cm-1:     0.288673     0.050177     0.042756
Rotational constants in MHz :  8654.189724  1504.258362  1281.779086

                             ****ORCA TERMINATED NORMALLY****
TOTAL RUN TIME: 0 days 0 hours 2 minutes 42 seconds 320 msec
