                         Program Version 5.0.3 -  RELEASE  -
|  1> !ri-mp2 aug-cc-pvtz aug-cc-pvtz/c tightscf
|  2> %pal nprocs 16 end
|  3>
|  4> * xyz 0 1
|  5> C      0.000000    0.000000    2.379326
|  6> C     -0.540152    1.120038    1.453423
|  7> C      0.540152   -1.120038    1.453423
|  8> C      0.000000    0.780705    0.063279
|  9> C      0.000000   -0.780705    0.063279
| 10> Cl    -0.918814    1.530370   -1.269894
| 11> Cl     1.722064    1.361119   -0.048861
| 12> Cl    -1.722064   -1.361119   -0.048861
| 13> Cl     0.918814   -1.530370   -1.269894
| 14> H      0.795834    0.369632    3.021692
| 15> H     -0.795834   -0.369632    3.021692
| 16> H     -1.626332    1.099741    1.409111
| 17> H     -0.232881    2.118369    1.749841
| 18> H      1.626332   -1.099741    1.409111
| 19> H      0.232881   -2.118369    1.749841
| 20> *
| 21>
| 22>                          ****END OF INPUT****

CARTESIAN COORDINATES (ANGSTROEM)
---------------------------------
  C      0.000000    0.000000    2.379326
  C     -0.540152    1.120038    1.453423
  C      0.540152   -1.120038    1.453423
  C      0.000000    0.780705    0.063279
  C      0.000000   -0.780705    0.063279
  Cl    -0.918814    1.530370   -1.269894
  Cl     1.722064    1.361119   -0.048861
  Cl    -1.722064   -1.361119   -0.048861
  Cl     0.918814   -1.530370   -1.269894
  H      0.795834    0.369632    3.021692
  H     -0.795834   -0.369632    3.021692
  H     -1.626332    1.099741    1.409111
  H     -0.232881    2.118369    1.749841
  H      1.626332   -1.099741    1.409111
  H      0.232881   -2.118369    1.749841

 Total Charge           Charge          ....    0
 Multiplicity           Mult            ....    1
 Number of Electrons    NEL             ....  104
 Basis Dimension        Dim             ....  568

ORBITAL ENERGIES
----------------

  NO   OCC          E(Eh)            E(eV)
   0   2.0000    -104.851720     -2853.1604
   1   2.0000    -104.851720     -2853.1604
   2   2.0000    -104.850805     -2853.1354
   3   2.0000    -104.850805     -2853.1354
   4   2.0000     -11.396003      -310.1010
   5   2.0000     -11.395456      -310.0861
   6   2.0000     -11.261885      -306.4515
   7   2.0000     -11.261876      -306.4512
   8   2.0000     -11.254574      -306.2525
   9   2.0000     -10.575704      -287.7795
  10   2.0000     -10.575703      -287.7795
  11   2.0000     -10.574962      -287.7594
  12   2.0000     -10.574961      -287.7593
  13   2.0000      -8.042475      -218.8469
  14   2.0000      -8.042474      -218.8468
  15   2.0000      -8.041643      -218.8242
  16   2.0000      -8.041643      -218.8242
  17   2.0000      -8.040497      -218.7931
  18   2.0000      -8.040497      -218.7931
  19   2.0000      -8.040450      -218.7918
  20   2.0000      -8.040450      -218.7918
  21   2.0000      -8.039781      -218.7736
  22   2.0000      -8.039780      -218.7735
  23   2.0000      -8.039715      -218.7718
  24   2.0000      -8.039714      -218.7717
  25   2.0000      -1.252360       -34.0784
  26   2.0000      -1.166964       -31.7547
  27   2.0000      -1.107977       -30.1496
  28   2.0000      -1.104515       -30.0554
  29   2.0000      -1.080170       -29.3929
  30   2.0000      -0.989308       -26.9204
  31   2.0000      -0.942943       -25.6588
  32   2.0000      -0.823758       -22.4156
  33   2.0000      -0.753684       -20.5088
  34   2.0000      -0.683200       -18.5908
  35   2.0000      -0.678723       -18.4690
  36   2.0000      -0.646435       -17.5904
  37   2.0000      -0.617662       -16.8074
  38   2.0000      -0.581789       -15.8313
  39   2.0000      -0.564722       -15.3669
  40   2.0000      -0.552970       -15.0471
  41   2.0000      -0.527522       -14.3546
  42   2.0000      -0.523178       -14.2364
  43   2.0000      -0.509761       -13.8713
  44   2.0000      -0.484331       -13.1793
  45   2.0000      -0.476697       -12.9716
  46   2.0000      -0.474599       -12.9145
  47   2.0000      -0.463634       -12.6161
  48   2.0000      -0.457129       -12.4391
  49   2.0000      -0.445440       -12.1210
  50   2.0000      -0.439594       -11.9620
  51   2.0000      -0.433028       -11.7833
  52   0.0000       0.027463         0.7473
  53   0.0000       0.037290         1.0147
  54   0.0000       0.039975         1.0878
  55   0.0000       0.046372         1.2618
  56   0.0000       0.055492         1.5100

MULLIKEN ATOMIC CHARGES
-----------------------
   0 C :   -0.569844
   1 C :   -0.495831
   2 C :   -0.495831
   3 C :    0.792495
   4 C :    0.792495
   5 Cl:   -0.496561
   6 Cl:   -0.443296
   7 Cl:   -0.443296
   8 Cl:   -0.496561
   9 H :    0.283291
  10 H :    0.283291
  11 H :    0.285261
  12 H :    0.359563
  13 H :    0.285261
  14 H :    0.359563
Sum of atomic charges:    0.0000000

LOEWDIN ATOMIC CHARGES
----------------------
   0 C :    0.285200
   1 C :    0.104861
   2 C :    0.104861
   3 C :   -1.568791
   4 C :   -1.568791
   5 Cl:    0.921698
   6 Cl:    0.929314
   7 Cl:    0.929314
   8 Cl:    0.921698
   9 H :   -0.151509
  10 H :   -0.151509
  11 H :   -0.201142
  12 H :   -0.177030
  13 H :   -0.201142
  14 H :   -0.177030

  Mayer bond orders larger than 0.100000
B(  0-C ,  1-C ) :   0.9574 B(  0-C ,  2-C ) :   0.9574 B(  0-C ,  9-H ) :   0.9214
B(  0-C , 10-H ) :   0.9214 B(  1-C ,  3-C ) :   0.8858 B(  1-C , 11-H ) :   0.9658
B(  1-C , 12-H ) :   0.8672 B(  2-C ,  4-C ) :   0.8858 B(  2-C , 13-H ) :   0.9658
B(  2-C , 14-H ) :   0.8672 B(  3-C ,  4-C ) :   1.0485 B(  3-C ,  5-Cl) :   0.4759
B(  3-C ,  6-Cl) :   0.6432 B(  4-C ,  7-Cl) :   0.6432 B(  4-C ,  8-Cl) :   0.4759

MP2 TOTAL ENERGY:    -2032.603902255 Eh
FINAL SINGLE POINT ENERGY     -2032.603902255483

DIPOLE MOMENT
-------------
                                X             Y             Z
Electronic contribution:     -0.00000       0.00000     -13.85958
Nuclear contribution   :      0.00000       0.00000      15.15722
                        -----------------------------------------
Total Dipole Moment    :     -0.00000       0.00000       1.29764
                        -----------------------------------------
Magnitude (a.u.)       :      1.29764
Magnitude (Debye)      :      3.29835

Rotational constants in cm-1:     0.032405     0.026430     0.026381
Rotational constants in MHz :   971.491342   792.349060   790.876633

                             ****ORCA TERMINATED NORMALLY****
TOTAL RUN TIME: 0 days 0 hours 8 minutes 26 seconds 848 msec
