                         Program Version 5.0.3 -  RELEASE  -
|  1> !ri-mp2 aug-cc-pvtz aug-cc-pvtz/c tightscf
|  2> %pal nprocs 16 end
|  3>
|  4> * xyz 0 1
|  5> S      1.269184    0.021994   -0.048659
|  6> N     -0.119168    1.321785   -0.175767
|  7> N      0.137736   -1.247091    0.185652
|  8> N     -1.310755    0.631314    0.167212
|  9> C     -1.144328   -0.729142   -0.328537
| 10> H      0.047793    2.004441    0.559957
| 11> H      0.046503   -1.444294    1.177121
| 12> H     -1.422604    0.577582    1.179868
| 13> H     -1.098328   -0.703317   -1.415165
| 14> H     -1.969031   -1.353519    0.008300
| 15> *
| 16>
| 17>                          ****END OF INPUT****

CARTESIAN COORDINATES (ANGSTROEM)
---------------------------------
  S      1.269184    0.021994   -0.048659
  N     -0.119168    1.321785   -0.175767
  N      0.137736   -1.247091    0.185652
  N     -1.310755    0.631314    0.167212
  C     -1.144328   -0.729142   -0.328537
  H      0.047793    2.004441    0.559957
  H      0.046503   -1.444294    1.177121
  H     -1.422604    0.577582    1.179868
  H     -1.098328   -0.703317   -1.415165
  H     -1.969031   -1.353519    0.008300

 Total Charge           Charge          ....    0
 Multiplicity           Mult            ....    1
 Number of Electrons    NEL             ....   48
 Basis Dimension        Dim             ....  349

ORBITAL ENERGIES
----------------

  NO   OCC          E(Eh)            E(eV)
   0   2.0000     -91.995992     -2503.3382
   1   2.0000     -15.618600      -425.0037
   2   2.0000     -15.602958      -424.5781
   3   2.0000     -15.593143      -424.3110
   4   2.0000     -11.302923      -307.5682
   5   2.0000      -8.990796      -244.6520
   6   2.0000      -6.671542      -181.5419
   7   2.0000      -6.670560      -181.5152
   8   2.0000      -6.668996      -181.4726
   9   2.0000      -1.330260       -36.1982
  10   2.0000      -1.198270       -32.6066
  11   2.0000      -1.069104       -29.0918
  12   2.0000      -0.882560       -24.0157
  13   2.0000      -0.866838       -23.5878
  14   2.0000      -0.735623       -20.0173
  15   2.0000      -0.667206       -18.1556
  16   2.0000      -0.650077       -17.6895
  17   2.0000      -0.584925       -15.9166
  18   2.0000      -0.541420       -14.7328
  19   2.0000      -0.532899       -14.5009
  20   2.0000      -0.492331       -13.3970
  21   2.0000      -0.439412       -11.9570
  22   2.0000      -0.382361       -10.4046
  23   2.0000      -0.335074        -9.1178
  24   0.0000       0.022452         0.6110
  25   0.0000       0.037349         1.0163
  26   0.0000       0.043637         1.1874
  27   0.0000       0.046923         1.2768
  28   0.0000       0.059210         1.6112

MULLIKEN ATOMIC CHARGES
-----------------------
   0 S :    0.029311
   1 N :   -0.347088
   2 N :   -0.410282
   3 N :   -0.299531
   4 C :   -0.058084
   5 H :    0.113927
   6 H :    0.075084
   7 H :    0.080111
   8 H :    0.428862
   9 H :    0.387689
Sum of atomic charges:   -0.0000000

LOEWDIN ATOMIC CHARGES
----------------------
   0 S :    0.932718
   1 N :    0.196543
   2 N :    0.123901
   3 N :    0.345201
   4 C :   -0.072962
   5 H :   -0.443704
   6 H :   -0.430971
   7 H :   -0.326649
   8 H :   -0.171865
   9 H :   -0.152211

  Mayer bond orders larger than 0.100000
B(  0-S ,  1-N ) :   0.8568 B(  0-S ,  2-N ) :   0.9897 B(  1-N ,  3-N ) :   0.7462
B(  1-N ,  5-H ) :   0.9462 B(  2-N ,  4-C ) :   0.7557 B(  2-N ,  6-H ) :   0.9615
B(  3-N ,  4-C ) :   0.7592 B(  3-N ,  7-H ) :   0.9564 B(  4-C ,  8-H ) :   0.8568
B(  4-C ,  9-H ) :   0.8625

MP2 TOTAL ENERGY:     -602.649560234 Eh
FINAL SINGLE POINT ENERGY      -602.649560234374

DIPOLE MOMENT
-------------
                                X             Y             Z
Electronic contribution:      3.85668       0.73783      -0.41019
Nuclear contribution   :     -4.39442      -0.90575       1.49628
                        -----------------------------------------
Total Dipole Moment    :     -0.53774      -0.16792       1.08609
                        -----------------------------------------
Magnitude (a.u.)       :      1.22350
Magnitude (Debye)      :      3.10990

Rotational constants in cm-1:     0.225877     0.157772     0.101589
Rotational constants in MHz :  6771.625243  4729.872662  3045.558855

                             ****ORCA TERMINATED NORMALLY****
TOTAL RUN TIME: 0 days 0 hours 2 minutes 35 seconds 100 msec
