                         Program Version 5.0.3 -  RELEASE  -
|  1> !ri-mp2 aug-cc-pvtz aug-cc-pvtz/c tightscf
|  2> %pal nprocs 16 end
|  3>
|  4> * xyz 0 1
|  5> S     -2.641922   -0.576015    0.000004
|  6> S      2.636269   -0.592371   -0.000006
|  7> O      0.011190   -0.739778   -0.000001
|  8> N     -0.727198    1.331855    0.000004
|  9> C     -1.137706    0.051692    0.000002
| 10> C      1.141741    0.018753   -0.000002
| 11> C      0.712543    1.468811    0.000000
| 12> H     -1.390465    2.086210    0.000006
| 13> H      1.091158    1.983830    0.885264
| 14> H      1.091154    1.983833   -0.885262
| 15> *
| 16>
| 17>                          ****END OF INPUT****

CARTESIAN COORDINATES (ANGSTROEM)
---------------------------------
  S     -2.641922   -0.576015    0.000004
  S      2.636269   -0.592371   -0.000006
  O      0.011190   -0.739778   -0.000001
  N     -0.727198    1.331855    0.000004
  C     -1.137706    0.051692    0.000002
  C      1.141741    0.018753   -0.000002
  C      0.712543    1.468811    0.000000
  H     -1.390465    2.086210    0.000006
  H      1.091158    1.983830    0.885264
  H      1.091154    1.983833   -0.885262

 Total Charge           Charge          ....    0
 Multiplicity           Mult            ....    1
 Number of Electrons    NEL             ....   68
 Basis Dimension        Dim             ....  399

ORBITAL ENERGIES
----------------

  NO   OCC          E(Eh)            E(eV)
   0   2.0000     -91.955867     -2502.2464
   1   2.0000     -91.928382     -2501.4984
   2   2.0000     -20.674027      -562.5689
   3   2.0000     -15.646914      -425.7742
   4   2.0000     -11.433382      -311.1181
   5   2.0000     -11.414236      -310.5972
   6   2.0000     -11.335365      -308.4510
   7   2.0000      -8.958814      -243.7817
   8   2.0000      -8.931805      -243.0468
   9   2.0000      -6.639917      -180.6813
  10   2.0000      -6.638667      -180.6473
  11   2.0000      -6.637397      -180.6128
  12   2.0000      -6.613299      -179.9570
  13   2.0000      -6.611385      -179.9049
  14   2.0000      -6.610580      -179.8830
  15   2.0000      -1.521974       -41.4150
  16   2.0000      -1.305667       -35.5290
  17   2.0000      -1.134137       -30.8614
  18   2.0000      -1.024903       -27.8890
  19   2.0000      -0.978561       -26.6280
  20   2.0000      -0.876722       -23.8568
  21   2.0000      -0.848928       -23.1005
  22   2.0000      -0.727547       -19.7976
  23   2.0000      -0.718930       -19.5631
  24   2.0000      -0.685801       -18.6616
  25   2.0000      -0.632287       -17.2054
  26   2.0000      -0.619775       -16.8649
  27   2.0000      -0.564088       -15.3496
  28   2.0000      -0.549679       -14.9575
  29   2.0000      -0.530237       -14.4285
  30   2.0000      -0.398546       -10.8450
  31   2.0000      -0.376703       -10.2506
  32   2.0000      -0.361746        -9.8436
  33   2.0000      -0.356631        -9.7044
  34   0.0000       0.015072         0.4101
  35   0.0000       0.030271         0.8237
  36   0.0000       0.037845         1.0298
  37   0.0000       0.045210         1.2302
  38   0.0000       0.056928         1.5491

MULLIKEN ATOMIC CHARGES
-----------------------
   0 S :   -0.445600
   1 S :   -0.409886
   2 O :   -0.161346
   3 N :   -0.101393
   4 C :    0.165630
   5 C :    0.221441
   6 C :   -0.047460
   7 H :    0.131945
   8 H :    0.323333
   9 H :    0.323334
Sum of atomic charges:    0.0000000

LOEWDIN ATOMIC CHARGES
----------------------
   0 S :    0.875110
   1 S :    0.964499
   2 O :    0.457802
   3 N :    0.463401
   4 C :   -1.222027
   5 C :   -1.089384
   6 C :    0.116911
   7 H :   -0.271753
   8 H :   -0.147279
   9 H :   -0.147280

  Mayer bond orders larger than 0.100000
B(  0-S ,  4-C ) :   1.7152 B(  1-S ,  5-C ) :   1.7838 B(  2-O ,  4-C ) :   0.9218
B(  2-O ,  5-C ) :   0.9066 B(  3-N ,  4-C ) :   1.2330 B(  3-N ,  6-C ) :   0.8114
B(  3-N ,  7-H ) :   1.0325 B(  4-C ,  6-C ) :  -0.1031 B(  5-C ,  6-C ) :   0.8014
B(  6-C ,  8-H ) :   0.9051 B(  6-C ,  9-H ) :   0.9051

MP2 TOTAL ENERGY:    -1041.095012286 Eh
FINAL SINGLE POINT ENERGY     -1041.095012285622

DIPOLE MOMENT
-------------
                                X             Y             Z
Electronic contribution:     -0.33750      -3.77885      -0.00001
Nuclear contribution   :      0.75554       5.83593       0.00001
                        -----------------------------------------
Total Dipole Moment    :      0.41804       2.05709       0.00000
                        -----------------------------------------
Magnitude (a.u.)       :      2.09913
Magnitude (Debye)      :      5.33557

Rotational constants in cm-1:     0.177338     0.033903     0.028615
Rotational constants in MHz :  5316.463190  1016.397769   857.846776

                             ****ORCA TERMINATED NORMALLY****
TOTAL RUN TIME: 0 days 0 hours 3 minutes 1 seconds 878 msec
