                         Program Version 5.0.3 -  RELEASE  -
|  1> !ri-mp2 aug-cc-pvtz aug-cc-pvtz/c tightscf
|  2> %pal nprocs 16 end
|  3>
|  4> * xyz 0 1
|  5> Cl   -1.920947    0.002248    0.086589
|  6> N    -0.262504    0.015809   -0.439109
|  7> N     0.411868   -1.174015   -0.049153
|  8> N     1.602483   -0.955892    0.169301
|  9> C     0.539461    1.153832    0.050933
| 10> C     1.913135    0.495408    0.023525
| 11> H     0.436411    1.995512   -0.626647
| 12> H     0.234666    1.446107    1.058692
| 13> H     2.588289    0.800194    0.817850
| 14> H     2.418220    0.623228   -0.935934
| 15> *
| 16>
| 17>                          ****END OF INPUT****

CARTESIAN COORDINATES (ANGSTROEM)
---------------------------------
  Cl    -1.920947    0.002248    0.086589
  N     -0.262504    0.015809   -0.439109
  N      0.411868   -1.174015   -0.049153
  N      1.602483   -0.955892    0.169301
  C      0.539461    1.153832    0.050933
  C      1.913135    0.495408    0.023525
  H      0.436411    1.995512   -0.626647
  H      0.234666    1.446107    1.058692
  H      2.588289    0.800194    0.817850
  H      2.418220    0.623228   -0.935934

 Total Charge           Charge          ....    0
 Multiplicity           Mult            ....    1
 Number of Electrons    NEL             ....   54
 Basis Dimension        Dim             ....  372

ORBITAL ENERGIES
----------------

  NO   OCC          E(Eh)            E(eV)
   0   2.0000    -104.872366     -2853.7222
   1   2.0000     -15.681168      -426.7063
   2   2.0000     -15.666849      -426.3166
   3   2.0000     -15.635695      -425.4689
   4   2.0000     -11.293821      -307.3205
   5   2.0000     -11.288891      -307.1863
   6   2.0000     -10.593457      -288.2626
   7   2.0000      -8.060415      -219.3351
   8   2.0000      -8.057955      -219.2681
   9   2.0000      -8.057766      -219.2630
  10   2.0000      -1.444555       -39.3083
  11   2.0000      -1.243685       -33.8424
  12   2.0000      -1.094660       -29.7872
  13   2.0000      -1.049881       -28.5687
  14   2.0000      -0.885353       -24.0917
  15   2.0000      -0.811626       -22.0855
  16   2.0000      -0.713553       -19.4168
  17   2.0000      -0.703085       -19.1319
  18   2.0000      -0.641168       -17.4471
  19   2.0000      -0.591446       -16.0941
  20   2.0000      -0.569468       -15.4960
  21   2.0000      -0.564445       -15.3593
  22   2.0000      -0.539117       -14.6701
  23   2.0000      -0.482458       -13.1283
  24   2.0000      -0.476531       -12.9671
  25   2.0000      -0.428507       -11.6603
  26   2.0000      -0.390920       -10.6375
  27   0.0000       0.024568         0.6685
  28   0.0000       0.036892         1.0039
  29   0.0000       0.039447         1.0734
  30   0.0000       0.054043         1.4706
  31   0.0000       0.070902         1.9293

MULLIKEN ATOMIC CHARGES
-----------------------
   0 Cl:   -0.081093
   1 N :   -0.078516
   2 N :   -0.219790
   3 N :   -0.301509
   4 C :   -0.283539
   5 C :   -0.326457
   6 H :    0.340521
   7 H :    0.324400
   8 H :    0.357350
   9 H :    0.268634
Sum of atomic charges:   -0.0000000

LOEWDIN ATOMIC CHARGES
----------------------
   0 Cl:    0.769063
   1 N :   -0.465340
   2 N :   -0.010766
   3 N :    0.193476
   4 C :    0.051683
   5 C :    0.131128
   6 H :   -0.164052
   7 H :   -0.179310
   8 H :   -0.164971
   9 H :   -0.160911

  Mayer bond orders larger than 0.100000
B(  0-Cl,  1-N ) :   0.9026 B(  1-N ,  2-N ) :   0.6485 B(  1-N ,  4-C ) :   0.6859
B(  2-N ,  3-N ) :   1.1431 B(  2-N ,  5-C ) :   0.1049 B(  3-N ,  5-C ) :   0.6872
B(  4-C ,  5-C ) :   1.0005 B(  4-C ,  6-H ) :   0.8695 B(  4-C ,  7-H ) :   0.9466
B(  5-C ,  8-H ) :   0.8799 B(  5-C ,  9-H ) :   0.9522

MP2 TOTAL ENERGY:     -702.046223268 Eh
FINAL SINGLE POINT ENERGY      -702.046223267775

DIPOLE MOMENT
-------------
                                X             Y             Z
Electronic contribution:     -7.53081      -3.30377      -0.07052
Nuclear contribution   :      8.10736       4.66045       0.18088
                        -----------------------------------------
Total Dipole Moment    :      0.57654       1.35668       0.11035
                        -----------------------------------------
Magnitude (a.u.)       :      1.47822
Magnitude (Debye)      :      3.75735

Rotational constants in cm-1:     0.261951     0.071282     0.058573
Rotational constants in MHz :  7853.083929  2136.982819  1755.966831

                             ****ORCA TERMINATED NORMALLY****
TOTAL RUN TIME: 0 days 0 hours 2 minutes 40 seconds 660 msec
