                         Program Version 5.0.3 -  RELEASE  -
|  1> !ri-mp2 aug-cc-pvtz aug-cc-pvtz/c tightscf
|  2> %pal nprocs 16 end
|  3>
|  4> * xyz 0 1
|  5> C      2.920911   -0.389382    0.000288
|  6> H      2.911727   -0.857297    0.984172
|  7> H      3.712820    0.363693   -0.014052
|  8> H      3.197836   -1.147075   -0.737175
|  9> C      0.524673    0.206787    0.450874
| 10> H      1.523663    0.702405   -1.305710
| 11> C      1.597085    0.217659   -0.335522
| 12> H     -1.130829    1.516651    0.856898
| 13> H     -0.715930    1.362140   -0.864008
| 14> C     -0.765272    0.842040    0.087533
| 15> Cl    -2.101674   -0.407151   -0.091662
| 16> H      0.564791   -0.281572    1.419098
| 17> *
| 18>
| 19>                          ****END OF INPUT****

CARTESIAN COORDINATES (ANGSTROEM)
---------------------------------
  C      2.920911   -0.389382    0.000288
  H      2.911727   -0.857297    0.984172
  H      3.712820    0.363693   -0.014052
  H      3.197836   -1.147075   -0.737175
  C      0.524673    0.206787    0.450874
  H      1.523663    0.702405   -1.305710
  C      1.597085    0.217659   -0.335522
  H     -1.130829    1.516651    0.856898
  H     -0.715930    1.362140   -0.864008
  C     -0.765272    0.842040    0.087533
  Cl    -2.101674   -0.407151   -0.091662
  H      0.564791   -0.281572    1.419098

 Total Charge           Charge          ....    0
 Multiplicity           Mult            ....    1
 Number of Electrons    NEL             ....   48
 Basis Dimension        Dim             ....  395

ORBITAL ENERGIES
----------------

  NO   OCC          E(Eh)            E(eV)
   0   2.0000    -104.816980     -2852.2150
   1   2.0000     -11.298822      -307.4566
   2   2.0000     -11.247504      -306.0601
   3   2.0000     -11.239235      -305.8351
   4   2.0000     -11.231371      -305.6212
   5   2.0000     -10.540905      -286.8326
   6   2.0000      -8.007627      -217.8986
   7   2.0000      -8.005940      -217.8527
   8   2.0000      -8.005904      -217.8517
   9   2.0000      -1.134415       -30.8690
  10   2.0000      -1.074107       -29.2279
  11   2.0000      -0.976509       -26.5722
  12   2.0000      -0.876414       -23.8484
  13   2.0000      -0.768845       -20.9213
  14   2.0000      -0.644976       -17.5507
  15   2.0000      -0.640876       -17.4391
  16   2.0000      -0.581483       -15.8230
  17   2.0000      -0.570222       -15.5165
  18   2.0000      -0.548138       -14.9156
  19   2.0000      -0.526798       -14.3349
  20   2.0000      -0.509442       -13.8626
  21   2.0000      -0.433554       -11.7976
  22   2.0000      -0.429130       -11.6772
  23   2.0000      -0.364574        -9.9206
  24   0.0000       0.028418         0.7733
  25   0.0000       0.035111         0.9554
  26   0.0000       0.037087         1.0092
  27   0.0000       0.045368         1.2345
  28   0.0000       0.054449         1.4816

MULLIKEN ATOMIC CHARGES
-----------------------
   0 C :   -0.767684
   1 H :    0.281683
   2 H :    0.286751
   3 H :    0.290931
   4 C :   -0.358474
   5 H :    0.317566
   6 C :   -0.414708
   7 H :    0.266021
   8 H :    0.296190
   9 C :   -0.191716
  10 Cl:   -0.346425
  11 H :    0.339865
Sum of atomic charges:    0.0000000

LOEWDIN ATOMIC CHARGES
----------------------
   0 C :    0.557839
   1 H :   -0.181681
   2 H :   -0.175928
   3 H :   -0.174834
   4 C :    0.108977
   5 H :   -0.183038
   6 C :    0.196538
   7 H :   -0.248286
   8 H :   -0.252118
   9 C :   -0.265721
  10 Cl:    0.814264
  11 H :   -0.196012

  Mayer bond orders larger than 0.100000
B(  0-C ,  1-H ) :   0.9439 B(  0-C ,  2-H ) :   0.9597 B(  0-C ,  3-H ) :   0.9621
B(  0-C ,  6-C ) :   0.8497 B(  4-C ,  6-C ) :   1.3309 B(  4-C ,  9-C ) :   0.9936
B(  4-C , 11-H ) :   0.9041 B(  5-H ,  6-C ) :   0.9481 B(  7-H ,  9-C ) :   0.9653
B(  8-H ,  9-C ) :   0.9180 B(  9-C , 10-Cl) :   0.7953

MP2 TOTAL ENERGY:     -615.983705888 Eh
FINAL SINGLE POINT ENERGY      -615.983705888371

DIPOLE MOMENT
-------------
                                X             Y             Z
Electronic contribution:    -12.05897      -1.69979      -0.43206
Nuclear contribution   :     13.01232       2.23140       0.46825
                        -----------------------------------------
Total Dipole Moment    :      0.95334       0.53161       0.03619
                        -----------------------------------------
Magnitude (a.u.)       :      1.09215
Magnitude (Debye)      :      2.77602

Rotational constants in cm-1:     0.482032     0.048663     0.046863
Rotational constants in MHz : 14450.968875  1458.875176  1404.906158

                             ****ORCA TERMINATED NORMALLY****
TOTAL RUN TIME: 0 days 0 hours 2 minutes 39 seconds 659 msec
