                         Program Version 5.0.3 -  RELEASE  -
|  1> !ri-mp2 aug-cc-pvtz aug-cc-pvtz/c tightscf
|  2> %pal nprocs 16 end
|  3> %maxcore 3800
|  4>
|  5> * xyz 0 1
|  6> C     -2.143446   -2.929295    0.000000
|  7> C      1.157418    2.955149    0.000000
|  8> C     -0.838198   -2.133417    0.000000
|  9> C     -0.055932    2.033897    0.000000
| 10> C     -1.094835   -0.628266    0.000000
| 11> O      1.157418    0.026179    1.262499
| 12> O      1.157418    0.026179   -1.262499
| 13> S      0.468746    0.293929    0.000000
| 14> H     -1.938473   -3.999896    0.000000
| 15> H     -2.746355   -2.706824    0.882228
| 16> H     -2.746355   -2.706824   -0.882228
| 17> H      0.824711    3.992976    0.000000
| 18> H      1.770380    2.790531    0.884210
| 19> H      1.770380    2.790531   -0.884210
| 20> H     -0.242657   -2.391528   -0.876212
| 21> H     -0.242657   -2.391528    0.876212
| 22> H     -0.670671    2.165871   -0.889878
| 23> H     -0.670671    2.165871    0.889878
| 24> H     -1.638152   -0.309656   -0.890168
| 25> H     -1.638152   -0.309656    0.890168
| 26> *
| 27>
| 28>                          ****END OF INPUT****

CARTESIAN COORDINATES (ANGSTROEM)
---------------------------------
  C     -2.143446   -2.929295    0.000000
  C      1.157418    2.955149    0.000000
  C     -0.838198   -2.133417    0.000000
  C     -0.055932    2.033897    0.000000
  C     -1.094835   -0.628266    0.000000
  O      1.157418    0.026179    1.262499
  O      1.157418    0.026179   -1.262499
  S      0.468746    0.293929    0.000000
  H     -1.938473   -3.999896    0.000000
  H     -2.746355   -2.706824    0.882228
  H     -2.746355   -2.706824   -0.882228
  H      0.824711    3.992976    0.000000
  H      1.770380    2.790531    0.884210
  H      1.770380    2.790531   -0.884210
  H     -0.242657   -2.391528   -0.876212
  H     -0.242657   -2.391528    0.876212
  H     -0.670671    2.165871   -0.889878
  H     -0.670671    2.165871    0.889878
  H     -1.638152   -0.309656   -0.890168
  H     -1.638152   -0.309656    0.890168

 Total Charge           Charge          ....    0
 Multiplicity           Mult            ....    1
 Number of Electrons    NEL             ....   74
 Basis Dimension        Dim             ....  648

ORBITAL ENERGIES
----------------

  NO   OCC          E(Eh)            E(eV)
   0   2.0000     -92.168804     -2508.0407
   1   2.0000     -20.534813      -558.7807
   2   2.0000     -20.534792      -558.7801
   3   2.0000     -11.279250      -306.9240
   4   2.0000     -11.276258      -306.8426
   5   2.0000     -11.242417      -305.9217
   6   2.0000     -11.237905      -305.7989
   7   2.0000     -11.229629      -305.5737
   8   2.0000      -9.139255      -248.6918
   9   2.0000      -6.823599      -185.6796
  10   2.0000      -6.823224      -185.6694
  11   2.0000      -6.823204      -185.6688
  12   2.0000      -1.432318       -38.9754
  13   2.0000      -1.320963       -35.9452
  14   2.0000      -1.100285       -29.9403
  15   2.0000      -1.074943       -29.2507
  16   2.0000      -0.987699       -26.8767
  17   2.0000      -0.907663       -24.6988
  18   2.0000      -0.835919       -22.7465
  19   2.0000      -0.791582       -21.5400
  20   2.0000      -0.689644       -18.7662
  21   2.0000      -0.676228       -18.4011
  22   2.0000      -0.654091       -17.7987
  23   2.0000      -0.649848       -17.6833
  24   2.0000      -0.613516       -16.6946
  25   2.0000      -0.593967       -16.1627
  26   2.0000      -0.573315       -15.6007
  27   2.0000      -0.570728       -15.5303
  28   2.0000      -0.550157       -14.9705
  29   2.0000      -0.528180       -14.3725
  30   2.0000      -0.528121       -14.3709
  31   2.0000      -0.507476       -13.8091
  32   2.0000      -0.498477       -13.5642
  33   2.0000      -0.484014       -13.1707
  34   2.0000      -0.474722       -12.9178
  35   2.0000      -0.457800       -12.4574
  36   2.0000      -0.420616       -11.4455
  37   0.0000       0.022724         0.6184
  38   0.0000       0.028314         0.7705
  39   0.0000       0.035846         0.9754
  40   0.0000       0.037964         1.0331
  41   0.0000       0.049475         1.3463

MULLIKEN ATOMIC CHARGES
-----------------------
   0 C :   -0.973106
   1 C :   -0.945637
   2 C :   -0.507530
   3 C :   -0.666764
   4 C :   -0.565075
   5 O :   -1.082545
   6 O :   -1.082545
   7 S :    2.327027
   8 H :    0.289366
   9 H :    0.272798
  10 H :    0.272798
  11 H :    0.296390
  12 H :    0.305797
  13 H :    0.305797
  14 H :    0.277206
  15 H :    0.277206
  16 H :    0.274022
  17 H :    0.274022
  18 H :    0.325387
  19 H :    0.325387
Sum of atomic charges:   -0.0000000

LOEWDIN ATOMIC CHARGES
----------------------
   0 C :    0.584405
   1 C :    0.550534
   2 C :    0.225600
   3 C :    0.183469
   4 C :    0.192284
   5 O :    0.030704
   6 O :    0.030704
   7 S :    0.288197
   8 H :   -0.168803
   9 H :   -0.169973
  10 H :   -0.169973
  11 H :   -0.171936
  12 H :   -0.176636
  13 H :   -0.176636
  14 H :   -0.156905
  15 H :   -0.156905
  16 H :   -0.187899
  17 H :   -0.187899
  18 H :   -0.181165
  19 H :   -0.181165

  Mayer bond orders larger than 0.100000
B(  0-C ,  2-C ) :   0.8984 B(  0-C ,  8-H ) :   0.9683 B(  0-C ,  9-H ) :   0.9593
B(  0-C , 10-H ) :   0.9593 B(  1-C ,  3-C ) :   0.9090 B(  1-C , 11-H ) :   0.9572
B(  1-C , 12-H ) :   0.9260 B(  1-C , 13-H ) :   0.9260 B(  2-C ,  4-C ) :   0.9363
B(  2-C , 14-H ) :   0.9407 B(  2-C , 15-H ) :   0.9407 B(  3-C ,  7-S ) :   0.8514
B(  3-C , 16-H ) :   0.8952 B(  3-C , 17-H ) :   0.8952 B(  4-C ,  7-S ) :   0.9131
B(  4-C , 18-H ) :   0.8550 B(  4-C , 19-H ) :   0.8550 B(  5-O ,  7-S ) :   1.0972
B(  6-O ,  7-S ) :   1.0972

MP2 TOTAL ENERGY:     -745.271186347 Eh
FINAL SINGLE POINT ENERGY      -745.271186347323

DIPOLE MOMENT
-------------
                                X             Y             Z
Electronic contribution:      6.47480       1.58241       0.00000
Nuclear contribution   :     -8.31222      -0.93704       0.00000
                        -----------------------------------------
Total Dipole Moment    :     -1.83742       0.64537       0.00000
                        -----------------------------------------
Magnitude (a.u.)       :      1.94747
Magnitude (Debye)      :      4.95007

Rotational constants in cm-1:     0.128637     0.029762     0.029080
Rotational constants in MHz :  3856.433105   892.233464   871.807322

                             ****ORCA TERMINATED NORMALLY****
TOTAL RUN TIME: 0 days 0 hours 9 minutes 5 seconds 326 msec
