                         Program Version 5.0.3 -  RELEASE  -
|  1> !ri-mp2 aug-cc-pvtz aug-cc-pvtz/c tightscf
|  2> %pal nprocs 16 end
|  3>
|  4> * xyz 0 1
|  5> Cl    1.561680    1.458583   -0.139280
|  6> S    -0.199332   -0.989403   -0.363561
|  7> O    -3.703891    0.379365   -0.024728
|  8> N    -1.406676   -0.052559    0.379697
|  9> C     1.249977   -0.250731    0.422674
| 10> C    -2.570828    0.137435    0.120568
| 11> C     2.453915   -1.127919    0.131443
| 12> H     1.049046   -0.158737    1.484752
| 13> H     2.308548   -2.119331    0.561143
| 14> H     3.342765   -0.681353    0.571677
| 15> H     2.619862   -1.225756   -0.940992
| 16> *
| 17>
| 18>                          ****END OF INPUT****

CARTESIAN COORDINATES (ANGSTROEM)
---------------------------------
  Cl     1.561680    1.458583   -0.139280
  S     -0.199332   -0.989403   -0.363561
  O     -3.703891    0.379365   -0.024728
  N     -1.406676   -0.052559    0.379697
  C      1.249977   -0.250731    0.422674
  C     -2.570828    0.137435    0.120568
  C      2.453915   -1.127919    0.131443
  H      1.049046   -0.158737    1.484752
  H      2.308548   -2.119331    0.561143
  H      3.342765   -0.681353    0.571677
  H      2.619862   -1.225756   -0.940992

 Total Charge           Charge          ....    0
 Multiplicity           Mult            ....    1
 Number of Electrons    NEL             ....   70
 Basis Dimension        Dim             ....  422

ORBITAL ENERGIES
----------------

  NO   OCC          E(Eh)            E(eV)
   0   2.0000    -104.837638     -2852.7772
   1   2.0000     -92.032443     -2504.3301
   2   2.0000     -20.625222      -561.2408
   3   2.0000     -15.616599      -424.9493
   4   2.0000     -11.417466      -310.6850
   5   2.0000     -11.351617      -308.8932
   6   2.0000     -11.257866      -306.3421
   7   2.0000     -10.561596      -287.3956
   8   2.0000      -9.028182      -245.6693
   9   2.0000      -8.028300      -218.4611
  10   2.0000      -8.026529      -218.4129
  11   2.0000      -8.026480      -218.4116
  12   2.0000      -6.709442      -182.5732
  13   2.0000      -6.707846      -182.5298
  14   2.0000      -6.706612      -182.4962
  15   2.0000      -1.476607       -40.1805
  16   2.0000      -1.291246       -35.1366
  17   2.0000      -1.163686       -31.6655
  18   2.0000      -1.046491       -28.4765
  19   2.0000      -0.992303       -27.0019
  20   2.0000      -0.839564       -22.8457
  21   2.0000      -0.750997       -20.4357
  22   2.0000      -0.710864       -19.3436
  23   2.0000      -0.668567       -18.1926
  24   2.0000      -0.663323       -18.0499
  25   2.0000      -0.642077       -17.4718
  26   2.0000      -0.603078       -16.4106
  27   2.0000      -0.584115       -15.8946
  28   2.0000      -0.551248       -15.0002
  29   2.0000      -0.534836       -14.5536
  30   2.0000      -0.501538       -13.6475
  31   2.0000      -0.466458       -12.6930
  32   2.0000      -0.449644       -12.2354
  33   2.0000      -0.433701       -11.8016
  34   2.0000      -0.362470        -9.8633
  35   0.0000       0.025946         0.7060
  36   0.0000       0.037084         1.0091
  37   0.0000       0.043544         1.1849
  38   0.0000       0.047043         1.2801
  39   0.0000       0.060087         1.6351

MULLIKEN ATOMIC CHARGES
-----------------------
   0 Cl:   -0.376530
   1 S :    0.101080
   2 O :   -0.395737
   3 N :    0.123276
   4 C :    0.277666
   5 C :   -0.062227
   6 C :   -0.910896
   7 H :    0.262032
   8 H :    0.312843
   9 H :    0.339418
  10 H :    0.329076
Sum of atomic charges:    0.0000000

LOEWDIN ATOMIC CHARGES
----------------------
   0 Cl:    0.847310
   1 S :    0.995023
   2 O :    0.367115
   3 N :   -0.175668
   4 C :   -0.945837
   5 C :   -0.614909
   6 C :    0.404317
   7 H :   -0.305214
   8 H :   -0.187705
   9 H :   -0.191267
  10 H :   -0.193166

  Mayer bond orders larger than 0.100000
B(  0-Cl,  4-C ) :   0.8309 B(  1-S ,  3-N ) :   0.8079 B(  1-S ,  4-C ) :   0.9638
B(  2-O ,  3-N ) :  -0.1901 B(  2-O ,  5-C ) :   2.0300 B(  3-N ,  4-C ) :  -0.1263
B(  3-N ,  5-C ) :   1.7637 B(  4-C ,  6-C ) :   0.8873 B(  4-C ,  7-H ) :   0.9338
B(  6-C ,  8-H ) :   0.9079 B(  6-C ,  9-H ) :   0.9342 B(  6-C , 10-H ) :   0.9212

MP2 TOTAL ENERGY:    -1103.687754621 Eh
FINAL SINGLE POINT ENERGY     -1103.687754620909

DIPOLE MOMENT
-------------
                                X             Y             Z
Electronic contribution:     -5.70911       5.06503      -1.53462
Nuclear contribution   :      6.71305      -5.95838       1.80489
                        -----------------------------------------
Total Dipole Moment    :      1.00394      -0.89335       0.27027
                        -----------------------------------------
Magnitude (a.u.)       :      1.37077
Magnitude (Debye)      :      3.48421

Rotational constants in cm-1:     0.116761     0.031020     0.025487
Rotational constants in MHz :  3500.410710   929.966642   764.092185

                             ****ORCA TERMINATED NORMALLY****
TOTAL RUN TIME: 0 days 0 hours 3 minutes 6 seconds 779 msec
