                         Program Version 5.0.3 -  RELEASE  -
|  1> !ri-mp2 aug-cc-pvtz aug-cc-pvtz/c tightscf
|  2> %pal nprocs 16 end
|  3>
|  4> * xyz 0 1
|  5> H     -1.470270    2.051300    0.139796
|  6> C     -0.812779    1.192330    0.058323
|  7> H      0.914318    2.364351   -0.092773
|  8> C      0.501406    1.362711   -0.053276
|  9> H      2.325124    0.404708    0.529666
| 10> H      1.868711    0.112198   -1.129780
| 11> C      1.463386    0.206961   -0.115255
| 12> H      0.675255   -1.115005    1.396505
| 13> H      1.389091   -1.962725    0.036134
| 14> C      0.779659   -1.100064    0.308149
| 15> H     -2.309570   -0.197466   -0.590760
| 16> H     -1.867638   -0.356258    1.088810
| 17> C     -1.454743   -0.170688    0.089051
| 18> H     -0.487677   -1.340668   -1.269513
| 19> N     -0.556988   -1.272562   -0.261434
| 20> *
| 21>
| 22>                          ****END OF INPUT****

CARTESIAN COORDINATES (ANGSTROEM)
---------------------------------
  H     -1.470270    2.051300    0.139796
  C     -0.812779    1.192330    0.058323
  H      0.914318    2.364351   -0.092773
  C      0.501406    1.362711   -0.053276
  H      2.325124    0.404708    0.529666
  H      1.868711    0.112198   -1.129780
  C      1.463386    0.206961   -0.115255
  H      0.675255   -1.115005    1.396505
  H      1.389091   -1.962725    0.036134
  C      0.779659   -1.100064    0.308149
  H     -2.309570   -0.197466   -0.590760
  H     -1.867638   -0.356258    1.088810
  C     -1.454743   -0.170688    0.089051
  H     -0.487677   -1.340668   -1.269513
  N     -0.556988   -1.272562   -0.261434

 Total Charge           Charge          ....    0
 Multiplicity           Mult            ....    1
 Number of Electrons    NEL             ....   46
 Basis Dimension        Dim             ....  483

ORBITAL ENERGIES
----------------

  NO   OCC          E(Eh)            E(eV)
   0   2.0000     -15.539273      -422.8451
   1   2.0000     -11.249519      -306.1150
   2   2.0000     -11.245090      -305.9945
   3   2.0000     -11.224143      -305.4245
   4   2.0000     -11.222843      -305.3891
   5   2.0000     -11.221178      -305.3438
   6   2.0000      -1.211953       -32.9789
   7   2.0000      -1.061629       -28.8884
   8   2.0000      -1.013055       -27.5666
   9   2.0000      -0.871159       -23.7054
  10   2.0000      -0.847370       -23.0581
  11   2.0000      -0.721516       -19.6334
  12   2.0000      -0.676091       -18.3974
  13   2.0000      -0.626142       -17.0382
  14   2.0000      -0.607288       -16.5251
  15   2.0000      -0.578377       -15.7384
  16   2.0000      -0.555911       -15.1271
  17   2.0000      -0.535593       -14.5742
  18   2.0000      -0.519253       -14.1296
  19   2.0000      -0.491998       -13.3879
  20   2.0000      -0.470813       -12.8115
  21   2.0000      -0.362578        -9.8663
  22   2.0000      -0.347275        -9.4498
  23   0.0000       0.029315         0.7977
  24   0.0000       0.035576         0.9681
  25   0.0000       0.038415         1.0453
  26   0.0000       0.039993         1.0883
  27   0.0000       0.052552         1.4300

MULLIKEN ATOMIC CHARGES
-----------------------
   0 H :    0.452198
   1 C :   -0.586456
   2 H :    0.326360
   3 C :   -0.669210
   4 H :    0.316391
   5 H :    0.256430
   6 C :   -0.227165
   7 H :    0.287580
   8 H :    0.285961
   9 C :   -0.464322
  10 H :    0.318462
  11 H :    0.308941
  12 C :   -0.167050
  13 H :    0.017955
  14 N :   -0.456075
Sum of atomic charges:    0.0000000

LOEWDIN ATOMIC CHARGES
----------------------
   0 H :   -0.186661
   1 C :    0.233013
   2 H :   -0.187575
   3 C :    0.222712
   4 H :   -0.155113
   5 H :   -0.152321
   6 C :    0.266894
   7 H :   -0.145903
   8 H :   -0.146774
   9 C :    0.164102
  10 H :   -0.155264
  11 H :   -0.152107
  12 C :    0.142686
  13 H :   -0.310225
  14 N :    0.562537

  Mayer bond orders larger than 0.100000
B(  0-H ,  1-C ) :   0.7074 B(  1-C ,  3-C ) :   1.5564 B(  1-C , 12-C ) :   0.8269
B(  2-H ,  3-C ) :   0.9683 B(  3-C ,  6-C ) :   0.7310 B(  3-C ,  9-C ) :   0.1072
B(  4-H ,  6-C ) :   0.9307 B(  5-H ,  6-C ) :   0.9563 B(  6-C ,  9-C ) :   0.9131
B(  7-H ,  9-C ) :   0.9474 B(  8-H ,  9-C ) :   0.9809 B(  9-C , 14-N ) :   0.9039
B( 10-H , 12-C ) :   0.9483 B( 11-H , 12-C ) :   0.9121 B( 12-C , 14-N ) :   0.8627
B( 13-H , 14-N ) :   0.9649

MP2 TOTAL ENERGY:     -250.146560157 Eh
FINAL SINGLE POINT ENERGY      -250.146560156649

DIPOLE MOMENT
-------------
                                X             Y             Z
Electronic contribution:     -0.86345       0.34927      -0.30427
Nuclear contribution   :      1.07459      -0.04888       0.11073
                        -----------------------------------------
Total Dipole Moment    :      0.21114       0.30039      -0.19354
                        -----------------------------------------
Magnitude (a.u.)       :      0.41506
Magnitude (Debye)      :      1.05499

Rotational constants in cm-1:     0.163363     0.157514     0.087851
Rotational constants in MHz :  4897.485339  4722.141089  2633.711525

                             ****ORCA TERMINATED NORMALLY****
TOTAL RUN TIME: 0 days 0 hours 4 minutes 36 seconds 229 msec
