                         Program Version 5.0.3 -  RELEASE  -
|  1> !ri-mp2 aug-cc-pvtz aug-cc-pvtz/c tightscf
|  2> %pal nprocs 16 end
|  3>
|  4> * xyz 0 1
|  5> C      0.607256   -1.472453    0.000000
|  6> C     -0.720908   -1.347453    0.000000
|  7> C      0.000000    0.838463    0.000000
|  8> C      1.215158   -0.096851    0.000000
|  9> N     -1.101042    0.002861    0.000000
| 10> O     -0.024582    2.048657    0.000000
| 11> H      1.152714   -2.400270    0.000000
| 12> H     -1.477373   -2.115225    0.000000
| 13> H      1.831991    0.113272    0.876531
| 14> H      1.831991    0.113272   -0.876531
| 15> H     -2.044414    0.349438    0.000000
| 16> *
| 17>
| 18>                          ****END OF INPUT****

CARTESIAN COORDINATES (ANGSTROEM)
---------------------------------
  C      0.607256   -1.472453    0.000000
  C     -0.720908   -1.347453    0.000000
  C      0.000000    0.838463    0.000000
  C      1.215158   -0.096851    0.000000
  N     -1.101042    0.002861    0.000000
  O     -0.024582    2.048657    0.000000
  H      1.152714   -2.400270    0.000000
  H     -1.477373   -2.115225    0.000000
  H      1.831991    0.113272    0.876531
  H      1.831991    0.113272   -0.876531
  H     -2.044414    0.349438    0.000000

 Total Charge           Charge          ....    0
 Multiplicity           Mult            ....    1
 Number of Electrons    NEL             ....   44
 Basis Dimension        Dim             ....  391

ORBITAL ENERGIES
----------------

  NO   OCC          E(Eh)            E(eV)
   0   2.0000     -20.528261      -558.6024
   1   2.0000     -15.601234      -424.5311
   2   2.0000     -11.357501      -309.0533
   3   2.0000     -11.288784      -307.1834
   4   2.0000     -11.249473      -306.1137
   5   2.0000     -11.235172      -305.7246
   6   2.0000      -1.390137       -37.8275
   7   2.0000      -1.274843       -34.6902
   8   2.0000      -1.069391       -29.0996
   9   2.0000      -0.976457       -26.5707
  10   2.0000      -0.816105       -22.2074
  11   2.0000      -0.799158       -21.7462
  12   2.0000      -0.707625       -19.2554
  13   2.0000      -0.640218       -17.4212
  14   2.0000      -0.632318       -17.2063
  15   2.0000      -0.608129       -16.5480
  16   2.0000      -0.590638       -16.0721
  17   2.0000      -0.545626       -14.8472
  18   2.0000      -0.540422       -14.7056
  19   2.0000      -0.480348       -13.0709
  20   2.0000      -0.423064       -11.5122
  21   2.0000      -0.330186        -8.9848
  22   0.0000       0.023082         0.6281
  23   0.0000       0.031816         0.8658
  24   0.0000       0.040181         1.0934
  25   0.0000       0.046042         1.2529
  26   0.0000       0.053247         1.4489

MULLIKEN ATOMIC CHARGES
-----------------------
   0 C :   -0.501597
   1 C :   -0.709003
   2 C :    0.203692
   3 C :   -0.147989
   4 N :    0.127129
   5 O :   -0.773849
   6 H :    0.422921
   7 H :    0.684672
   8 H :    0.279455
   9 H :    0.279455
  10 H :    0.135113
Sum of atomic charges:    0.0000000

LOEWDIN ATOMIC CHARGES
----------------------
   0 C :    0.226941
   1 C :    0.118987
   2 C :   -0.645716
   3 C :    0.275260
   4 N :    0.535031
   5 O :    0.419123
   6 H :   -0.193839
   7 H :   -0.167952
   8 H :   -0.150887
   9 H :   -0.150887
  10 H :   -0.266061

  Mayer bond orders larger than 0.100000
B(  0-C ,  1-C ) :   1.4410 B(  0-C ,  2-C ) :   0.1513 B(  0-C ,  3-C ) :   0.8857
B(  0-C ,  4-N ) :  -0.2134 B(  0-C ,  6-H ) :   0.9025 B(  1-C ,  2-C ) :  -0.1864
B(  1-C ,  4-N ) :   0.9513 B(  1-C ,  7-H ) :   0.4128 B(  2-C ,  3-C ) :   0.5717
B(  2-C ,  4-N ) :   0.9991 B(  2-C ,  5-O ) :   1.4723 B(  3-C ,  8-H ) :   0.9275
B(  3-C ,  9-H ) :   0.9275 B(  4-N , 10-H ) :   1.0604

MP2 TOTAL ENERGY:     -284.880748037 Eh
FINAL SINGLE POINT ENERGY      -284.880748037210

DIPOLE MOMENT
-------------
                                X             Y             Z
Electronic contribution:     -1.58865       2.38613       0.00000
Nuclear contribution   :      1.28101      -3.88582       0.00000
                        -----------------------------------------
Total Dipole Moment    :     -0.30764      -1.49968       0.00000
                        -----------------------------------------
Magnitude (a.u.)       :      1.53091
Magnitude (Debye)      :      3.89127

Rotational constants in cm-1:     0.274443     0.124496     0.087014
Rotational constants in MHz :  8227.587162  3732.298684  2608.622808

                             ****ORCA TERMINATED NORMALLY****
TOTAL RUN TIME: 0 days 0 hours 2 minutes 55 seconds 317 msec
