                         Program Version 5.0.3 -  RELEASE  -
|  1> !ri-mp2 aug-cc-pvtz aug-cc-pvtz/c tightscf
|  2> %pal nprocs 16 end
|  3>
|  4> * xyz 0 1
|  5> O      2.708104   -0.570601   -0.088239
|  6> O     -2.779924    0.006037   -0.197353
|  7> N     -0.704809   -0.238358    0.294109
|  8> N      0.460380   -0.985720    0.109260
|  9> N     -1.836329   -0.763921   -0.182698
| 10> C     -0.379980    1.203560    0.320132
| 11> C      1.049525    1.244702   -0.232188
| 12> C      1.565924   -0.183314   -0.071158
| 13> H     -0.441868    1.572185    1.343414
| 14> H     -1.126052    1.719833   -0.277729
| 15> H      1.701720    1.927919    0.304039
| 16> H      1.078298    1.509182   -1.289948
| 17> H      0.514950   -1.886298    0.559549
| 18> *
| 19>
| 20>                          ****END OF INPUT****

CARTESIAN COORDINATES (ANGSTROEM)
---------------------------------
  O      2.708104   -0.570601   -0.088239
  O     -2.779924    0.006037   -0.197353
  N     -0.704809   -0.238358    0.294109
  N      0.460380   -0.985720    0.109260
  N     -1.836329   -0.763921   -0.182698
  C     -0.379980    1.203560    0.320132
  C      1.049525    1.244702   -0.232188
  C      1.565924   -0.183314   -0.071158
  H     -0.441868    1.572185    1.343414
  H     -1.126052    1.719833   -0.277729
  H      1.701720    1.927919    0.304039
  H      1.078298    1.509182   -1.289948
  H      0.514950   -1.886298    0.559549

 Total Charge           Charge          ....    0
 Multiplicity           Mult            ....    1
 Number of Electrons    NEL             ....   60
 Basis Dimension        Dim             ....  483

ORBITAL ENERGIES
----------------

  NO   OCC          E(Eh)            E(eV)
   0   2.0000     -20.605292      -560.6985
   1   2.0000     -20.553263      -559.2827
   2   2.0000     -15.749640      -428.5695
   3   2.0000     -15.683685      -426.7748
   4   2.0000     -15.647657      -425.7944
   5   2.0000     -11.384052      -309.7758
   6   2.0000     -11.309737      -307.7536
   7   2.0000     -11.275205      -306.8139
   8   2.0000      -1.539149       -41.8824
   9   2.0000      -1.426003       -38.8035
  10   2.0000      -1.369600       -37.2687
  11   2.0000      -1.174816       -31.9684
  12   2.0000      -1.109287       -30.1852
  13   2.0000      -0.968600       -26.3569
  14   2.0000      -0.860557       -23.4170
  15   2.0000      -0.846133       -23.0244
  16   2.0000      -0.764189       -20.7946
  17   2.0000      -0.730724       -19.8840
  18   2.0000      -0.695348       -18.9214
  19   2.0000      -0.671931       -18.2842
  20   2.0000      -0.641760       -17.4632
  21   2.0000      -0.627289       -17.0694
  22   2.0000      -0.615998       -16.7622
  23   2.0000      -0.597743       -16.2654
  24   2.0000      -0.581207       -15.8155
  25   2.0000      -0.552278       -15.0282
  26   2.0000      -0.491667       -13.3790
  27   2.0000      -0.449638       -12.2353
  28   2.0000      -0.438426       -11.9302
  29   2.0000      -0.382223       -10.4008
  30   0.0000       0.022987         0.6255
  31   0.0000       0.033370         0.9081
  32   0.0000       0.037184         1.0118
  33   0.0000       0.043803         1.1919
  34   0.0000       0.056612         1.5405

MULLIKEN ATOMIC CHARGES
-----------------------
   0 O :   -0.784984
   1 O :   -0.501867
   2 N :    0.486357
   3 N :   -0.158446
   4 N :   -0.154800
   5 C :   -0.369610
   6 C :   -0.287313
   7 C :    0.386022
   8 H :    0.300183
   9 H :    0.365557
  10 H :    0.293687
  11 H :    0.276892
  12 H :    0.148323
Sum of atomic charges:    0.0000000

LOEWDIN ATOMIC CHARGES
----------------------
   0 O :    0.436988
   1 O :    0.239866
   2 N :   -0.032489
   3 N :    0.456481
   4 N :   -0.136984
   5 C :    0.220634
   6 C :    0.332004
   7 C :   -0.645853
   8 H :   -0.138002
   9 H :   -0.176473
  10 H :   -0.149218
  11 H :   -0.142316
  12 H :   -0.264637

  Mayer bond orders larger than 0.100000
B(  0-O ,  7-C ) :   1.4663 B(  1-O ,  2-N ) :   0.1291 B(  1-O ,  4-N ) :   1.2461
B(  2-N ,  3-N ) :   0.6942 B(  2-N ,  4-N ) :   0.5189 B(  2-N ,  5-C ) :   0.7177
B(  3-N ,  4-N ) :   0.1938 B(  3-N ,  7-C ) :   1.0479 B(  3-N , 12-H ) :   1.0367
B(  5-C ,  6-C ) :   1.0117 B(  5-C ,  8-H ) :   0.9217 B(  5-C ,  9-H ) :   0.8916
B(  6-C ,  7-C ) :   0.6370 B(  6-C , 10-H ) :   0.9453 B(  6-C , 11-H ) :   0.9350

MP2 TOTAL ENERGY:     -431.210823789 Eh
FINAL SINGLE POINT ENERGY      -431.210823788862

DIPOLE MOMENT
-------------
                                X             Y             Z
Electronic contribution:     -1.60762      -3.91150      -0.20248
Nuclear contribution   :      1.67785       4.72137       0.62281
                        -----------------------------------------
Total Dipole Moment    :      0.07023       0.80987       0.42033
                        -----------------------------------------
Magnitude (a.u.)       :      0.91515
Magnitude (Debye)      :      2.32612

Rotational constants in cm-1:     0.192424     0.047237     0.039436
Rotational constants in MHz :  5768.738917  1416.143948  1182.253738

                             ****ORCA TERMINATED NORMALLY****
TOTAL RUN TIME: 0 days 0 hours 4 minutes 57 seconds 616 msec
