                         Program Version 5.0.3 -  RELEASE  -
|  1> !ri-mp2 aug-cc-pvtz aug-cc-pvtz/c tightscf
|  2> %pal nprocs 16 end
|  3> %maxcore 3800
|  4>
|  5> * xyz 0 1
|  6> C      0.024001    1.160298   -0.000002
|  7> C     -0.073857   -1.238567    0.000000
|  8> C     -1.364579    1.212066   -0.000005
|  9> C     -1.455060   -1.181361   -0.000003
| 10> C      0.690181   -0.065845    0.000000
| 11> C     -2.127814    0.046194   -0.000004
| 12> C      2.180603   -0.178189    0.000001
| 13> C     -3.631473    0.095804    0.000006
| 14> C      3.009944    1.089796    0.000003
| 15> O      2.722996   -1.266717    0.000000
| 16> H      0.581498    2.086205   -0.000003
| 17> H      0.442720   -2.187841    0.000000
| 18> H     -1.861326    2.173886   -0.000007
| 19> H     -2.027249   -2.100948   -0.000006
| 20> H     -4.040560   -0.408087    0.877954
| 21> H     -3.997196    1.121343   -0.000134
| 22> H     -4.040584   -0.408339   -0.877785
| 23> H      2.792622    1.698643    0.879269
| 24> H      2.792624    1.698642   -0.879264
| 25> H      4.061815    0.819045    0.000004
| 26> *
| 27>
| 28>                          ****END OF INPUT****

CARTESIAN COORDINATES (ANGSTROEM)
---------------------------------
  C      0.024001    1.160298   -0.000002
  C     -0.073857   -1.238567    0.000000
  C     -1.364579    1.212066   -0.000005
  C     -1.455060   -1.181361   -0.000003
  C      0.690181   -0.065845    0.000000
  C     -2.127814    0.046194   -0.000004
  C      2.180603   -0.178189    0.000001
  C     -3.631473    0.095804    0.000006
  C      3.009944    1.089796    0.000003
  O      2.722996   -1.266717    0.000000
  H      0.581498    2.086205   -0.000003
  H      0.442720   -2.187841    0.000000
  H     -1.861326    2.173886   -0.000007
  H     -2.027249   -2.100948   -0.000006
  H     -4.040560   -0.408087    0.877954
  H     -3.997196    1.121343   -0.000134
  H     -4.040584   -0.408339   -0.877785
  H      2.792622    1.698643    0.879269
  H      2.792624    1.698642   -0.879264
  H      4.061815    0.819045    0.000004

 Total Charge           Charge          ....    0
 Multiplicity           Mult            ....    1
 Number of Electrons    NEL             ....   72
 Basis Dimension        Dim             ....  690

ORBITAL ENERGIES
----------------

  NO   OCC          E(Eh)            E(eV)
   0   2.0000     -20.539472      -558.9074
   1   2.0000     -11.331697      -308.3512
   2   2.0000     -11.258545      -306.3606
   3   2.0000     -11.252255      -306.1894
   4   2.0000     -11.243921      -305.9626
   5   2.0000     -11.242197      -305.9157
   6   2.0000     -11.238826      -305.8240
   7   2.0000     -11.236509      -305.7610
   8   2.0000     -11.233732      -305.6854
   9   2.0000     -11.232161      -305.6426
  10   2.0000      -1.381850       -37.6021
  11   2.0000      -1.169565       -31.8255
  12   2.0000      -1.071052       -29.1448
  13   2.0000      -1.027928       -27.9714
  14   2.0000      -1.006324       -27.3835
  15   2.0000      -0.949638       -25.8410
  16   2.0000      -0.841345       -22.8942
  17   2.0000      -0.834040       -22.6954
  18   2.0000      -0.759698       -20.6724
  19   2.0000      -0.692729       -18.8501
  20   2.0000      -0.659522       -17.9465
  21   2.0000      -0.640601       -17.4316
  22   2.0000      -0.615894       -16.7593
  23   2.0000      -0.603305       -16.4168
  24   2.0000      -0.602701       -16.4003
  25   2.0000      -0.595177       -16.1956
  26   2.0000      -0.586379       -15.9562
  27   2.0000      -0.551706       -15.0127
  28   2.0000      -0.545245       -14.8369
  29   2.0000      -0.517969       -14.0946
  30   2.0000      -0.513025       -13.9601
  31   2.0000      -0.495004       -13.4697
  32   2.0000      -0.483029       -13.1439
  33   2.0000      -0.415397       -11.3035
  34   2.0000      -0.347564        -9.4577
  35   2.0000      -0.337007        -9.1704
  36   0.0000       0.025101         0.6830
  37   0.0000       0.028051         0.7633
  38   0.0000       0.035628         0.9695
  39   0.0000       0.040423         1.1000
  40   0.0000       0.042739         1.1630

MULLIKEN ATOMIC CHARGES
-----------------------
   0 C :   -0.484562
   1 C :   -1.337218
   2 C :   -0.965148
   3 C :   -0.951258
   4 C :    1.794483
   5 C :    1.529917
   6 C :    0.735467
   7 C :   -0.931558
   8 C :   -0.791018
   9 O :   -1.023059
  10 H :    0.127756
  11 H :    0.088055
  12 H :    0.108069
  13 H :    0.361268
  14 H :    0.279880
  15 H :    0.240885
  16 H :    0.279849
  17 H :    0.310037
  18 H :    0.310038
  19 H :    0.318117
Sum of atomic charges:   -0.0000000

LOEWDIN ATOMIC CHARGES
----------------------
   0 C :    0.210581
   1 C :    0.215519
   2 C :    0.230168
   3 C :    0.230521
   4 C :   -0.116012
   5 C :   -0.113408
   6 C :   -0.521327
   7 C :    0.586122
   8 C :    0.577834
   9 O :    0.469471
  10 H :   -0.190968
  11 H :   -0.185896
  12 H :   -0.182054
  13 H :   -0.174061
  14 H :   -0.164497
  15 H :   -0.179100
  16 H :   -0.164501
  17 H :   -0.172688
  18 H :   -0.172688
  19 H :   -0.183016

  Mayer bond orders larger than 0.100000
B(  0-C ,  1-C ) :  -0.2259 B(  0-C ,  2-C ) :   1.2565 B(  0-C ,  3-C ) :  -0.1210
B(  0-C ,  4-C ) :   0.3769 B(  0-C ,  6-C ) :   0.1448 B(  0-C , 10-H ) :   1.4305
B(  0-C , 11-H ) :   0.1048 B(  1-C ,  2-C ) :   0.4110 B(  1-C ,  3-C ) :   1.4630
B(  1-C ,  4-C ) :   0.1650 B(  1-C ,  6-C ) :   0.2435 B(  1-C , 11-H ) :   1.4282
B(  2-C ,  4-C ) :  -0.2046 B(  2-C ,  5-C ) :   0.6473 B(  2-C ,  6-C ) :  -0.1427
B(  2-C , 10-H ) :  -0.1452 B(  2-C , 12-H ) :   1.4127 B(  3-C ,  4-C ) :  -0.1334
B(  3-C ,  5-C ) :   0.7590 B(  3-C ,  7-C ) :   0.1231 B(  3-C , 13-H ) :   0.9614
B(  4-C ,  6-C ) :   0.5395 B(  4-C ,  7-C ) :   0.1436 B(  4-C ,  9-O ) :   0.1129
B(  4-C , 10-H ) :  -0.1681 B(  4-C , 11-H ) :  -0.2109 B(  4-C , 13-H ) :  -0.1064
B(  5-C ,  6-C ) :   0.1426 B(  5-C ,  7-C ) :   0.3221 B(  5-C , 11-H ) :  -0.1162
B(  5-C , 12-H ) :  -0.1240 B(  5-C , 14-H ) :  -0.1246 B(  5-C , 16-H ) :  -0.1246
B(  6-C ,  8-C ) :   0.8761 B(  6-C ,  9-O ) :   0.8277 B(  6-C , 13-H ) :   0.1378
B(  7-C , 14-H ) :   1.0252 B(  7-C , 15-H ) :   1.0252 B(  7-C , 16-H ) :   1.0252
B(  8-C , 17-H ) :   0.9611 B(  8-C , 18-H ) :   0.9611 B(  8-C , 19-H ) :   0.9221
B(  9-O , 11-H ) :   0.1652

MP2 TOTAL ENERGY:     -423.361572104 Eh
FINAL SINGLE POINT ENERGY      -423.361572103838

DIPOLE MOMENT
-------------
                                X             Y             Z
Electronic contribution:      4.23771      -3.43110      -0.00002
Nuclear contribution   :     -5.29355       4.50736       0.00003
                        -----------------------------------------
Total Dipole Moment    :     -1.05584       1.07625       0.00001
                        -----------------------------------------
Magnitude (a.u.)       :      1.50769
Magnitude (Debye)      :      3.83224

Rotational constants in cm-1:     0.121522     0.026191     0.021720
Rotational constants in MHz :  3643.141170   785.174056   651.137067

                             ****ORCA TERMINATED NORMALLY****
TOTAL RUN TIME: 0 days 0 hours 14 minutes 12 seconds 811 msec
