                         Program Version 5.0.3 -  RELEASE  -
|  1> !ri-mp2 aug-cc-pvtz aug-cc-pvtz/c tightscf
|  2> %pal nprocs 16 end
|  3> %maxcore 3800
|  4>
|  5> * xyz 0 1
|  6> C     -3.718906    0.008129   -0.494379
|  7> C     -2.699428    0.209382    0.331599
|  8> C      3.687893   -0.207825   -0.120495
|  9> C     -1.396675   -0.530695    0.303389
| 10> C      2.358809    0.545407   -0.139559
| 11> C     -0.186173    0.386338    0.074430
| 12> C      1.148183   -0.358947    0.093708
| 13> H     -4.631597    0.584270   -0.421349
| 14> H     -3.677416   -0.743766   -1.273896
| 15> H     -2.790163    0.977233    1.096030
| 16> H      3.716728   -0.976298   -0.895791
| 17> H      3.846764   -0.703368    0.839542
| 18> H      4.530129    0.464536   -0.289388
| 19> H     -1.260508   -1.052629    1.257535
| 20> H     -1.428811   -1.300599   -0.471834
| 21> H      2.244636    1.058481   -1.099103
| 22> H      2.373926    1.330018    0.622906
| 23> H     -0.176694    1.167721    0.841095
| 24> H     -0.305655    0.900978   -0.883282
| 25> H      1.134469   -1.144791   -0.669046
| 26> H      1.261978   -0.872523    1.054419
| 27> *
| 28>
| 29>                          ****END OF INPUT****

CARTESIAN COORDINATES (ANGSTROEM)
---------------------------------
  C     -3.718906    0.008129   -0.494379
  C     -2.699428    0.209382    0.331599
  C      3.687893   -0.207825   -0.120495
  C     -1.396675   -0.530695    0.303389
  C      2.358809    0.545407   -0.139559
  C     -0.186173    0.386338    0.074430
  C      1.148183   -0.358947    0.093708
  H     -4.631597    0.584270   -0.421349
  H     -3.677416   -0.743766   -1.273896
  H     -2.790163    0.977233    1.096030
  H      3.716728   -0.976298   -0.895791
  H      3.846764   -0.703368    0.839542
  H      4.530129    0.464536   -0.289388
  H     -1.260508   -1.052629    1.257535
  H     -1.428811   -1.300599   -0.471834
  H      2.244636    1.058481   -1.099103
  H      2.373926    1.330018    0.622906
  H     -0.176694    1.167721    0.841095
  H     -0.305655    0.900978   -0.883282
  H      1.134469   -1.144791   -0.669046
  H      1.261978   -0.872523    1.054419

 Total Charge           Charge          ....    0
 Multiplicity           Mult            ....    1
 Number of Electrons    NEL             ....   56
 Basis Dimension        Dim             ....  644

ORBITAL ENERGIES
----------------

  NO   OCC          E(Eh)            E(eV)
   0   2.0000     -11.229625      -305.5736
   1   2.0000     -11.222720      -305.3857
   2   2.0000     -11.218252      -305.2641
   3   2.0000     -11.216840      -305.2257
   4   2.0000     -11.215960      -305.2018
   5   2.0000     -11.215645      -305.1932
   6   2.0000     -11.210328      -305.0485
   7   2.0000      -1.094564       -29.7846
   8   2.0000      -1.057447       -28.7746
   9   2.0000      -0.997234       -27.1361
  10   2.0000      -0.918710       -24.9994
  11   2.0000      -0.830930       -22.6108
  12   2.0000      -0.788916       -21.4675
  13   2.0000      -0.754046       -20.5186
  14   2.0000      -0.655685       -17.8421
  15   2.0000      -0.630091       -17.1456
  16   2.0000      -0.602618       -16.3981
  17   2.0000      -0.587100       -15.9758
  18   2.0000      -0.566832       -15.4243
  19   2.0000      -0.556369       -15.1396
  20   2.0000      -0.524182       -14.2637
  21   2.0000      -0.508988       -13.8503
  22   2.0000      -0.492405       -13.3990
  23   2.0000      -0.477436       -12.9917
  24   2.0000      -0.464342       -12.6354
  25   2.0000      -0.462043       -12.5728
  26   2.0000      -0.452001       -12.2996
  27   2.0000      -0.357823        -9.7369
  28   0.0000       0.030679         0.8348
  29   0.0000       0.032739         0.8909
  30   0.0000       0.035876         0.9762
  31   0.0000       0.037353         1.0164
  32   0.0000       0.046242         1.2583

MULLIKEN ATOMIC CHARGES
-----------------------
   0 C :   -1.053202
   1 C :   -0.266446
   2 C :   -0.991320
   3 C :   -0.036328
   4 C :   -0.509023
   5 C :   -0.467474
   6 C :   -0.307239
   7 H :    0.507547
   8 H :    0.219074
   9 H :    0.188490
  10 H :    0.264543
  11 H :    0.268235
  12 H :    0.276963
  13 H :    0.249607
  14 H :    0.166859
  15 H :    0.233466
  16 H :    0.236294
  17 H :    0.230193
  18 H :    0.270584
  19 H :    0.255318
  20 H :    0.263856
Sum of atomic charges:   -0.0000000

LOEWDIN ATOMIC CHARGES
----------------------
   0 C :    0.523178
   1 C :    0.178994
   2 C :    0.578092
   3 C :    0.245332
   4 C :    0.256755
   5 C :    0.272713
   6 C :    0.267521
   7 H :   -0.231088
   8 H :   -0.222813
   9 H :   -0.183804
  10 H :   -0.171636
  11 H :   -0.171681
  12 H :   -0.174202
  13 H :   -0.147354
  14 H :   -0.156486
  15 H :   -0.147880
  16 H :   -0.148020
  17 H :   -0.143356
  18 H :   -0.140961
  19 H :   -0.141176
  20 H :   -0.142125

  Mayer bond orders larger than 0.100000
B(  0-C ,  1-C ) :   1.3608 B(  0-C ,  7-H ) :   0.6461 B(  0-C ,  8-H ) :   1.1433
B(  1-C ,  3-C ) :   0.6726 B(  1-C ,  9-H ) :   1.1415 B(  2-C ,  4-C ) :   0.9241
B(  2-C , 10-H ) :   0.9663 B(  2-C , 11-H ) :   0.9611 B(  2-C , 12-H ) :   0.9859
B(  3-C ,  5-C ) :   0.9940 B(  3-C , 13-H ) :   0.9646 B(  3-C , 14-H ) :   0.9943
B(  4-C ,  6-C ) :   0.9124 B(  4-C , 15-H ) :   0.9686 B(  4-C , 16-H ) :   0.9661
B(  5-C ,  6-C ) :   0.9435 B(  5-C , 17-H ) :   0.9544 B(  5-C , 18-H ) :   0.9512
B(  6-C , 19-H ) :   0.9489 B(  6-C , 20-H ) :   0.9366

MP2 TOTAL ENERGY:     -274.533768119 Eh
FINAL SINGLE POINT ENERGY      -274.533768119279

DIPOLE MOMENT
-------------
                                X             Y             Z
Electronic contribution:     -5.00257       0.33822       0.36014
Nuclear contribution   :      5.18184      -0.33284      -0.31294
                        -----------------------------------------
Total Dipole Moment    :      0.17927       0.00539       0.04720
                        -----------------------------------------
Magnitude (a.u.)       :      0.18546
Magnitude (Debye)      :      0.47139

Rotational constants in cm-1:     0.401717     0.025922     0.025606
Rotational constants in MHz : 12043.176971   777.132273   767.649174

                             ****ORCA TERMINATED NORMALLY****
TOTAL RUN TIME: 0 days 0 hours 7 minutes 36 seconds 106 msec
