                         Program Version 5.0.3 -  RELEASE  -
|  1> !ri-mp2 aug-cc-pvtz aug-cc-pvtz/c tightscf
|  2> %pal nprocs 16 end
|  3> %maxcore 3800
|  4>
|  5> * xyz 0 1
|  6> C     -0.013713   -2.140034    0.000000
|  7> C     -1.206232   -1.434267    0.000000
|  8> C      1.188364   -1.448980    0.000000
|  9> C     -1.219337   -0.039134    0.000000
| 10> C      1.211026   -0.056326    0.000000
| 11> C      0.000000    0.658904    0.000000
| 12> C     -2.548821    0.677092    0.000000
| 13> C      2.533357    0.666411    0.000000
| 14> C      0.040515    2.167409    0.000000
| 15> H     -0.020953   -3.222033    0.000000
| 16> H     -2.147129   -1.970109    0.000000
| 17> H      2.124223   -1.993715    0.000000
| 18> H     -2.669919    1.314846    0.878141
| 19> H     -2.669919    1.314846   -0.878141
| 20> H     -3.368212   -0.040077    0.000000
| 21> H      2.643869    1.309810   -0.876251
| 22> H      2.643869    1.309810    0.876251
| 23> H      3.361993   -0.039937    0.000000
| 24> H      0.571159    2.550206   -0.875359
| 25> H     -0.951091    2.609692    0.000000
| 26> H      0.571159    2.550206    0.875359
| 27> *
| 28>
| 29>                          ****END OF INPUT****

CARTESIAN COORDINATES (ANGSTROEM)
---------------------------------
  C     -0.013713   -2.140034    0.000000
  C     -1.206232   -1.434267    0.000000
  C      1.188364   -1.448980    0.000000
  C     -1.219337   -0.039134    0.000000
  C      1.211026   -0.056326    0.000000
  C      0.000000    0.658904    0.000000
  C     -2.548821    0.677092    0.000000
  C      2.533357    0.666411    0.000000
  C      0.040515    2.167409    0.000000
  H     -0.020953   -3.222033    0.000000
  H     -2.147129   -1.970109    0.000000
  H      2.124223   -1.993715    0.000000
  H     -2.669919    1.314846    0.878141
  H     -2.669919    1.314846   -0.878141
  H     -3.368212   -0.040077    0.000000
  H      2.643869    1.309810   -0.876251
  H      2.643869    1.309810    0.876251
  H      3.361993   -0.039937    0.000000
  H      0.571159    2.550206   -0.875359
  H     -0.951091    2.609692    0.000000
  H      0.571159    2.550206    0.875359

 Total Charge           Charge          ....    0
 Multiplicity           Mult            ....    1
 Number of Electrons    NEL             ....   66
 Basis Dimension        Dim             ....  690

ORBITAL ENERGIES
----------------

  NO   OCC          E(Eh)            E(eV)
   0   2.0000     -11.233937      -305.6910
   1   2.0000     -11.232936      -305.6637
   2   2.0000     -11.230713      -305.6032
   3   2.0000     -11.222850      -305.3893
   4   2.0000     -11.219855      -305.3078
   5   2.0000     -11.219632      -305.3017
   6   2.0000     -11.219124      -305.2879
   7   2.0000     -11.218825      -305.2798
   8   2.0000     -11.218716      -305.2768
   9   2.0000      -1.155909       -31.4539
  10   2.0000      -1.053560       -28.6688
  11   2.0000      -1.045515       -28.4499
  12   2.0000      -0.966875       -26.3100
  13   2.0000      -0.921571       -25.0772
  14   2.0000      -0.908548       -24.7228
  15   2.0000      -0.785507       -21.3747
  16   2.0000      -0.779964       -21.2239
  17   2.0000      -0.667323       -18.1588
  18   2.0000      -0.655393       -17.8342
  19   2.0000      -0.603080       -16.4106
  20   2.0000      -0.595989       -16.2177
  21   2.0000      -0.566258       -15.4087
  22   2.0000      -0.558369       -15.1940
  23   2.0000      -0.556909       -15.1543
  24   2.0000      -0.550604       -14.9827
  25   2.0000      -0.544359       -14.8128
  26   2.0000      -0.539795       -14.6886
  27   2.0000      -0.519242       -14.1293
  28   2.0000      -0.471817       -12.8388
  29   2.0000      -0.470564       -12.8047
  30   2.0000      -0.468769       -12.7558
  31   2.0000      -0.316570        -8.6143
  32   2.0000      -0.314196        -8.5497
  33   0.0000       0.029905         0.8137
  34   0.0000       0.032028         0.8715
  35   0.0000       0.032997         0.8979
  36   0.0000       0.043110         1.1731
  37   0.0000       0.043582         1.1859

MULLIKEN ATOMIC CHARGES
-----------------------
   0 C :   -0.262376
   1 C :   -0.648359
   2 C :   -0.667579
   3 C :    0.618187
   4 C :    0.555318
   5 C :    0.452302
   6 C :   -0.855978
   7 C :   -0.932017
   8 C :   -1.040172
   9 H :    0.789753
  10 H :   -0.059670
  11 H :   -0.094216
  12 H :    0.234559
  13 H :    0.234559
  14 H :    0.218719
  15 H :    0.250086
  16 H :    0.250086
  17 H :    0.212123
  18 H :    0.247377
  19 H :    0.249920
  20 H :    0.247377
Sum of atomic charges:    0.0000000

LOEWDIN ATOMIC CHARGES
----------------------
   0 C :    0.199809
   1 C :    0.208509
   2 C :    0.210381
   3 C :   -0.089259
   4 C :   -0.097628
   5 C :   -0.063249
   6 C :    0.573745
   7 C :    0.576576
   8 C :    0.582425
   9 H :   -0.184344
  10 H :   -0.186352
  11 H :   -0.185114
  12 H :   -0.164669
  13 H :   -0.164669
  14 H :   -0.181464
  15 H :   -0.166730
  16 H :   -0.166730
  17 H :   -0.178855
  18 H :   -0.162334
  19 H :   -0.197715
  20 H :   -0.162334

  Mayer bond orders larger than 0.100000
B(  0-C ,  1-C ) :   0.7290 B(  0-C ,  2-C ) :   0.8754 B(  0-C ,  3-C ) :   0.3770
B(  0-C ,  4-C ) :   0.3872 B(  0-C ,  9-H ) :   0.2262 B(  0-C , 10-H ) :  -0.2157
B(  0-C , 11-H ) :  -0.1712 B(  1-C ,  2-C ) :  -0.1600 B(  1-C ,  3-C ) :   0.3657
B(  1-C ,  4-C ) :   0.2309 B(  1-C , 10-H ) :   1.8083 B(  1-C , 11-H ) :   0.1786
B(  2-C ,  4-C ) :   0.6668 B(  2-C ,  5-C ) :  -0.1235 B(  2-C , 10-H ) :   0.2077
B(  2-C , 11-H ) :   1.7895 B(  3-C ,  4-C ) :   0.4228 B(  3-C ,  5-C ) :   1.0196
B(  3-C ,  6-C ) :   0.3666 B(  3-C , 10-H ) :  -0.2486 B(  4-C ,  5-C ) :   1.1585
B(  4-C ,  7-C ) :   0.2883 B(  4-C , 11-H ) :  -0.2233 B(  4-C , 15-H ) :  -0.1222
B(  4-C , 16-H ) :  -0.1222 B(  5-C ,  6-C ) :   0.3123 B(  5-C ,  7-C ) :   0.3949
B(  5-C ,  8-C ) :   0.5452 B(  5-C ,  9-H ) :   0.1125 B(  5-C , 17-H ) :   0.1076
B(  6-C , 12-H ) :   1.0173 B(  6-C , 13-H ) :   1.0173 B(  6-C , 14-H ) :   1.0664
B(  7-C , 15-H ) :   1.0286 B(  7-C , 16-H ) :   1.0286 B(  7-C , 17-H ) :   1.0564
B(  8-C , 18-H ) :   1.0393 B(  8-C , 19-H ) :   0.9861 B(  8-C , 20-H ) :   1.0393
B(  9-H , 10-H ) :  -0.1477 B(  9-H , 11-H ) :  -0.1569 B( 10-H , 11-H ) :   0.1519

MP2 TOTAL ENERGY:     -349.433021418 Eh
FINAL SINGLE POINT ENERGY      -349.433021418252

DIPOLE MOMENT
-------------
                                X             Y             Z
Electronic contribution:     -0.08731      -5.58499      -0.00000
Nuclear contribution   :      0.09183       5.87155       0.00000
                        -----------------------------------------
Total Dipole Moment    :      0.00452       0.28656      -0.00000
                        -----------------------------------------
Magnitude (a.u.)       :      0.28659
Magnitude (Debye)      :      0.72846

Rotational constants in cm-1:     0.074219     0.057776     0.033079
Rotational constants in MHz :  2225.030689  1732.088551   991.691191

                             ****ORCA TERMINATED NORMALLY****
TOTAL RUN TIME: 0 days 0 hours 13 minutes 59 seconds 469 msec
