                         Program Version 5.0.3 -  RELEASE  -
|  1> !ri-mp2 aug-cc-pvtz aug-cc-pvtz/c tightscf
|  2> %pal nprocs 16 end
|  3>
|  4> * xyz 0 1
|  5> F      0.936726   -0.752395    1.002357
|  6> F      1.646645    0.548458   -0.624816
|  7> O     -1.587352   -0.834466   -0.382371
|  8> O     -0.934596    1.174393    0.623606
|  9> C     -0.691510    0.252835   -0.394390
| 10> C      0.702183   -0.374100   -0.292984
| 11> H     -0.754108    0.816515   -1.328274
| 12> H      0.817745   -1.249022   -0.931294
| 13> H     -2.484848   -0.486276   -0.414125
| 14> H     -0.717580    0.762386    1.470180
| 15> *
| 16>
| 17>                          ****END OF INPUT****

CARTESIAN COORDINATES (ANGSTROEM)
---------------------------------
  F      0.936726   -0.752395    1.002357
  F      1.646645    0.548458   -0.624816
  O     -1.587352   -0.834466   -0.382371
  O     -0.934596    1.174393    0.623606
  C     -0.691510    0.252835   -0.394390
  C      0.702183   -0.374100   -0.292984
  H     -0.754108    0.816515   -1.328274
  H      0.817745   -1.249022   -0.931294
  H     -2.484848   -0.486276   -0.414125
  H     -0.717580    0.762386    1.470180

 Total Charge           Charge          ....    0
 Multiplicity           Mult            ....    1
 Number of Electrons    NEL             ....   50
 Basis Dimension        Dim             ....  368

ORBITAL ENERGIES
----------------

  NO   OCC          E(Eh)            E(eV)
   0   2.0000     -26.321435      -716.2427
   1   2.0000     -26.318782      -716.1705
   2   2.0000     -20.592182      -560.3418
   3   2.0000     -20.589862      -560.2786
   4   2.0000     -11.416205      -310.6507
   5   2.0000     -11.366822      -309.3069
   6   2.0000      -1.667955       -45.3874
   7   2.0000      -1.607280       -43.7363
   8   2.0000      -1.438336       -39.1391
   9   2.0000      -1.361445       -37.0468
  10   2.0000      -1.028975       -27.9998
  11   2.0000      -0.891817       -24.2676
  12   2.0000      -0.795767       -21.6539
  13   2.0000      -0.787827       -21.4379
  14   2.0000      -0.765569       -20.8322
  15   2.0000      -0.728924       -19.8350
  16   2.0000      -0.686067       -18.6688
  17   2.0000      -0.666935       -18.1482
  18   2.0000      -0.640451       -17.4276
  19   2.0000      -0.637298       -17.3418
  20   2.0000      -0.626849       -17.0574
  21   2.0000      -0.591120       -16.0852
  22   2.0000      -0.520504       -14.1636
  23   2.0000      -0.515713       -14.0333
  24   2.0000      -0.485481       -13.2106
  25   0.0000       0.026936         0.7330
  26   0.0000       0.039524         1.0755
  27   0.0000       0.043630         1.1872
  28   0.0000       0.048209         1.3118
  29   0.0000       0.087911         2.3922

MULLIKEN ATOMIC CHARGES
-----------------------
   0 F :   -0.468505
   1 F :   -0.452140
   2 O :   -0.571012
   3 O :   -0.588709
   4 C :    0.521975
   5 C :    0.442805
   6 H :    0.402467
   7 H :    0.382492
   8 H :    0.151061
   9 H :    0.179566
Sum of atomic charges:   -0.0000000

LOEWDIN ATOMIC CHARGES
----------------------
   0 F :    0.482740
   1 F :    0.482667
   2 O :    0.815360
   3 O :    0.824148
   4 C :   -0.536990
   5 C :   -0.749594
   6 H :   -0.162366
   7 H :   -0.179159
   8 H :   -0.477342
   9 H :   -0.499464

  Mayer bond orders larger than 0.100000
B(  0-F ,  5-C ) :   0.7110 B(  1-F ,  5-C ) :   0.7324 B(  2-O ,  4-C ) :   0.7021
B(  2-O ,  8-H ) :   1.0042 B(  3-O ,  4-C ) :   0.7537 B(  3-O ,  9-H ) :   0.9737
B(  4-C ,  5-C ) :   0.9322 B(  4-C ,  6-H ) :   0.8568 B(  5-C ,  7-H ) :   0.8784

MP2 TOTAL ENERGY:     -428.180418205 Eh
FINAL SINGLE POINT ENERGY      -428.180418205435

DIPOLE MOMENT
-------------
                                X             Y             Z
Electronic contribution:      4.80226      -0.27431       1.10423
Nuclear contribution   :     -5.48766       0.04824      -1.50610
                        -----------------------------------------
Total Dipole Moment    :     -0.68541      -0.22607      -0.40187
                        -----------------------------------------
Magnitude (a.u.)       :      0.82607
Magnitude (Debye)      :      2.09970

Rotational constants in cm-1:     0.171807     0.091483     0.085367
Rotational constants in MHz :  5150.632329  2742.596312  2559.240255

                             ****ORCA TERMINATED NORMALLY****
TOTAL RUN TIME: 0 days 0 hours 2 minutes 34 seconds 168 msec
