                         Program Version 5.0.3 -  RELEASE  -
|  1> !ri-mp2 aug-cc-pvtz aug-cc-pvtz/c tightscf
|  2> %pal nprocs 16 end
|  3>
|  4> * xyz 0 1
|  5> N      0.000000    1.125330    0.353534
|  6> N      0.000000    0.000000    1.049856
|  7> N      0.000000   -1.125330    0.353534
|  8> C      0.000000   -0.700907   -0.908175
|  9> C      0.000000    0.700907   -0.908175
| 10> H      0.000000    0.000000    2.055597
| 11> H      0.000000   -1.396879   -1.727982
| 12> H      0.000000    1.396879   -1.727982
| 13> *
| 14>
| 15>                          ****END OF INPUT****

CARTESIAN COORDINATES (ANGSTROEM)
---------------------------------
  N      0.000000    1.125330    0.353534
  N      0.000000    0.000000    1.049856
  N      0.000000   -1.125330    0.353534
  C      0.000000   -0.700907   -0.908175
  C      0.000000    0.700907   -0.908175
  H      0.000000    0.000000    2.055597
  H      0.000000   -1.396879   -1.727982
  H      0.000000    1.396879   -1.727982

 Total Charge           Charge          ....    0
 Multiplicity           Mult            ....    1
 Number of Electrons    NEL             ....   36
 Basis Dimension        Dim             ....  299

ORBITAL ENERGIES
----------------

  NO   OCC          E(Eh)            E(eV)
   0   2.0000     -15.685270      -426.8179
   1   2.0000     -15.620801      -425.0636
   2   2.0000     -15.620741      -425.0620
   3   2.0000     -11.268586      -306.6338
   4   2.0000     -11.267414      -306.6019
   5   2.0000      -1.454384       -39.5758
   6   2.0000      -1.198294       -32.6072
   7   2.0000      -1.110250       -30.2114
   8   2.0000      -0.864244       -23.5173
   9   2.0000      -0.844416       -22.9777
  10   2.0000      -0.751737       -20.4558
  11   2.0000      -0.653883       -17.7931
  12   2.0000      -0.629783       -17.1373
  13   2.0000      -0.622650       -16.9432
  14   2.0000      -0.507344       -13.8055
  15   2.0000      -0.478757       -13.0276
  16   2.0000      -0.404083       -10.9957
  17   2.0000      -0.382013       -10.3951
  18   0.0000       0.029278         0.7967
  19   0.0000       0.036187         0.9847
  20   0.0000       0.041240         1.1222
  21   0.0000       0.084042         2.2869
  22   0.0000       0.086487         2.3534

MULLIKEN ATOMIC CHARGES
-----------------------
   0 N :   -0.525183
   1 N :    0.391528
   2 N :   -0.525183
   3 C :   -0.367707
   4 C :   -0.367707
   5 H :    0.197538
   6 H :    0.598357
   7 H :    0.598357
Sum of atomic charges:    0.0000000

LOEWDIN ATOMIC CHARGES
----------------------
   0 N :    0.293269
   1 N :    0.126887
   2 N :    0.293269
   3 C :   -0.013505
   4 C :   -0.013505
   5 H :   -0.270835
   6 H :   -0.207790
   7 H :   -0.207790

  Mayer bond orders larger than 0.100000
B(  0-N ,  1-N ) :   0.7384 B(  0-N ,  4-C ) :   1.3932 B(  1-N ,  2-N ) :   0.7384
B(  1-N ,  5-H ) :   1.0631 B(  2-N ,  3-C ) :   1.3932 B(  3-C ,  4-C ) :   1.1847
B(  3-C ,  6-H ) :   0.6408 B(  4-C ,  7-H ) :   0.6408

MP2 TOTAL ENERGY:     -241.806794220 Eh
FINAL SINGLE POINT ENERGY      -241.806794220018

DIPOLE MOMENT
-------------
                                X             Y             Z
Electronic contribution:     -0.00000      -0.00000       1.23421
Nuclear contribution   :      0.00000       0.00000      -1.36074
                        -----------------------------------------
Total Dipole Moment    :     -0.00000      -0.00000      -0.12653
                        -----------------------------------------
Magnitude (a.u.)       :      0.12653
Magnitude (Debye)      :      0.32162

Rotational constants in cm-1:     0.344005     0.329180     0.168215
Rotational constants in MHz : 10313.019640  9868.555937  5042.946761

                             ****ORCA TERMINATED NORMALLY****
TOTAL RUN TIME: 0 days 0 hours 1 minutes 31 seconds 550 msec
