                         Program Version 5.0.3 -  RELEASE  -
|  1> !ri-mp2 aug-cc-pvtz aug-cc-pvtz/c tightscf
|  2> %pal nprocs 16 end
|  3>
|  4> * xyz 0 1
|  5> C      0.604942    1.720376    0.000000
|  6> C      0.606915    3.019337    0.000000
|  7> C      0.604942    0.411180    0.000000
|  8> C     -0.604954   -0.411180    0.000000
|  9> C     -0.604953   -1.720376    0.000000
| 10> C     -0.606912   -3.019337    0.000000
| 11> H      0.608735    3.586335    0.924515
| 12> H      0.608735    3.586335   -0.924515
| 13> H      1.556375   -0.110823    0.000000
| 14> H     -1.556386    0.110823    0.000000
| 15> H     -0.608669   -3.586335   -0.924515
| 16> H     -0.608669   -3.586335    0.924515
| 17> *
| 18>
| 19>                          ****END OF INPUT****

CARTESIAN COORDINATES (ANGSTROEM)
---------------------------------
  C      0.604942    1.720376    0.000000
  C      0.606915    3.019337    0.000000
  C      0.604942    0.411180    0.000000
  C     -0.604954   -0.411180    0.000000
  C     -0.604953   -1.720376    0.000000
  C     -0.606912   -3.019337    0.000000
  H      0.608735    3.586335    0.924515
  H      0.608735    3.586335   -0.924515
  H      1.556375   -0.110823    0.000000
  H     -1.556386    0.110823    0.000000
  H     -0.608669   -3.586335   -0.924515
  H     -0.608669   -3.586335    0.924515

 Total Charge           Charge          ....    0
 Multiplicity           Mult            ....    1
 Number of Electrons    NEL             ....   42
 Basis Dimension        Dim             ....  414

ORBITAL ENERGIES
----------------

  NO   OCC          E(Eh)            E(eV)
   0   2.0000     -11.258851      -306.3689
   1   2.0000     -11.258846      -306.3688
   2   2.0000     -11.251354      -306.1649
   3   2.0000     -11.250566      -306.1435
   4   2.0000     -11.240104      -305.8588
   5   2.0000     -11.240104      -305.8588
   6   2.0000      -1.115189       -30.3458
   7   2.0000      -1.063445       -28.9378
   8   2.0000      -0.996875       -27.1264
   9   2.0000      -0.920334       -25.0436
  10   2.0000      -0.727796       -19.8043
  11   2.0000      -0.715891       -19.4804
  12   2.0000      -0.655939       -17.8490
  13   2.0000      -0.629464       -17.1286
  14   2.0000      -0.612103       -16.6562
  15   2.0000      -0.608592       -16.5606
  16   2.0000      -0.574242       -15.6259
  17   2.0000      -0.448137       -12.1944
  18   2.0000      -0.393421       -10.7055
  19   2.0000      -0.377276       -10.2662
  20   2.0000      -0.323401        -8.8002
  21   0.0000       0.029354         0.7988
  22   0.0000       0.032824         0.8932
  23   0.0000       0.040797         1.1101
  24   0.0000       0.042027         1.1436
  25   0.0000       0.050100         1.3633

MULLIKEN ATOMIC CHARGES
-----------------------
   0 C :    1.049159
   1 C :   -1.033391
   2 C :   -0.787824
   3 C :   -0.787809
   4 C :    1.049155
   5 C :   -1.033390
   6 H :    0.365248
   7 H :    0.365248
   8 H :    0.041557
   9 H :    0.041554
  10 H :    0.365247
  11 H :    0.365247
Sum of atomic charges:    0.0000000

LOEWDIN ATOMIC CHARGES
----------------------
   0 C :    0.114670
   1 C :    0.469650
   2 C :    0.108296
   3 C :    0.108296
   4 C :    0.114670
   5 C :    0.469650
   6 H :   -0.241930
   7 H :   -0.241930
   8 H :   -0.208756
   9 H :   -0.208757
  10 H :   -0.241930
  11 H :   -0.241930

  Mayer bond orders larger than 0.100000
B(  0-C ,  1-C ) :   1.5806 B(  0-C ,  2-C ) :   1.1924 B(  0-C ,  3-C ) :   0.1101
B(  0-C ,  8-H ) :  -0.1433 B(  1-C ,  2-C ) :  -0.2007 B(  1-C ,  6-H ) :   0.9362
B(  1-C ,  7-H ) :   0.9362 B(  1-C ,  8-H ) :  -0.1089 B(  2-C ,  3-C ) :   0.9318
B(  2-C ,  4-C ) :   0.1101 B(  2-C ,  8-H ) :   1.4835 B(  2-C ,  9-H ) :   0.1183
B(  3-C ,  4-C ) :   1.1924 B(  3-C ,  5-C ) :  -0.2007 B(  3-C ,  8-H ) :   0.1183
B(  3-C ,  9-H ) :   1.4835 B(  4-C ,  5-C ) :   1.5806 B(  4-C ,  9-H ) :  -0.1433
B(  5-C ,  9-H ) :  -0.1089 B(  5-C , 10-H ) :   0.9362 B(  5-C , 11-H ) :   0.9362
B(  8-H ,  9-H ) :   0.1843

MP2 TOTAL ENERGY:     -231.606528976 Eh
FINAL SINGLE POINT ENERGY      -231.606528975667

DIPOLE MOMENT
-------------
                                X             Y             Z
Electronic contribution:     -0.00008       0.00000       0.00000
Nuclear contribution   :      0.00012       0.00000       0.00000
                        -----------------------------------------
Total Dipole Moment    :      0.00004       0.00000       0.00000
                        -----------------------------------------
Magnitude (a.u.)       :      0.00004
Magnitude (Debye)      :      0.00010

Rotational constants in cm-1:     1.094018     0.045521     0.044498
Rotational constants in MHz : 32797.823596  1364.679694  1334.001773

                             ****ORCA TERMINATED NORMALLY****
TOTAL RUN TIME: 0 days 0 hours 2 minutes 41 seconds 186 msec
