                         Program Version 5.0.3 -  RELEASE  -
|  1> !ri-mp2 aug-cc-pvtz aug-cc-pvtz/c tightscf
|  2> %pal nprocs 16 end
|  3>
|  4> * xyz 0 1
|  5> C      4.107657   -0.250205   -0.215211
|  6> C      2.717325   -0.521399    0.356513
|  7> C      1.636426    0.390420   -0.225173
|  8> C      0.242168    0.120079    0.340479
|  9> C     -0.829692    1.038232   -0.244879
| 10> C     -2.225201    0.823188    0.309411
| 11> Cl    -2.919780   -0.797045   -0.154599
| 12> H      4.124179   -0.394646   -1.297420
| 13> H      4.854124   -0.916596    0.218969
| 14> H      4.423588    0.775876   -0.015423
| 15> H      2.443823   -1.564425    0.172169
| 16> H      2.740755   -0.402685    1.443977
| 17> H      1.613418    0.271434   -1.313552
| 18> H      1.909906    1.435111   -0.040928
| 19> H      0.262024    0.239696    1.428936
| 20> H     -0.032215   -0.919987    0.150936
| 21> H     -0.857119    0.939470   -1.332660
| 22> H     -0.568928    2.082139   -0.035424
| 23> H     -2.240983    0.846311    1.396326
| 24> H     -2.928401    1.556175   -0.074565
| 25> *
| 26>
| 27>                          ****END OF INPUT****

CARTESIAN COORDINATES (ANGSTROEM)
---------------------------------
  C      4.107657   -0.250205   -0.215211
  C      2.717325   -0.521399    0.356513
  C      1.636426    0.390420   -0.225173
  C      0.242168    0.120079    0.340479
  C     -0.829692    1.038232   -0.244879
  C     -2.225201    0.823188    0.309411
  Cl    -2.919780   -0.797045   -0.154599
  H      4.124179   -0.394646   -1.297420
  H      4.854124   -0.916596    0.218969
  H      4.423588    0.775876   -0.015423
  H      2.443823   -1.564425    0.172169
  H      2.740755   -0.402685    1.443977
  H      1.613418    0.271434   -1.313552
  H      1.909906    1.435111   -0.040928
  H      0.262024    0.239696    1.428936
  H     -0.032215   -0.919987    0.150936
  H     -0.857119    0.939470   -1.332660
  H     -0.568928    2.082139   -0.035424
  H     -2.240983    0.846311    1.396326
  H     -2.928401    1.556175   -0.074565

 Total Charge           Charge          ....    0
 Multiplicity           Mult            ....    1
 Number of Electrons    NEL             ....   66
 Basis Dimension        Dim             ....  625

ORBITAL ENERGIES
----------------

  NO   OCC          E(Eh)            E(eV)
   0   2.0000    -104.816900     -2852.2128
   1   2.0000     -11.293019      -307.2987
   2   2.0000     -11.235821      -305.7422
   3   2.0000     -11.221828      -305.3615
   4   2.0000     -11.219806      -305.3064
   5   2.0000     -11.218908      -305.2820
   6   2.0000     -11.212110      -305.0970
   7   2.0000     -10.540951      -286.8339
   8   2.0000      -8.007714      -217.9010
   9   2.0000      -8.006062      -217.8560
  10   2.0000      -8.006032      -217.8552
  11   2.0000      -1.133174       -30.8352
  12   2.0000      -1.081886       -29.4396
  13   2.0000      -1.028601       -27.9897
  14   2.0000      -0.957207       -26.0469
  15   2.0000      -0.873220       -23.7615
  16   2.0000      -0.804801       -21.8997
  17   2.0000      -0.792581       -21.5672
  18   2.0000      -0.660207       -17.9651
  19   2.0000      -0.635177       -17.2841
  20   2.0000      -0.617219       -16.7954
  21   2.0000      -0.594310       -16.1720
  22   2.0000      -0.564591       -15.3633
  23   2.0000      -0.555336       -15.1114
  24   2.0000      -0.542895       -14.7729
  25   2.0000      -0.511472       -13.9179
  26   2.0000      -0.496585       -13.5128
  27   2.0000      -0.478410       -13.0182
  28   2.0000      -0.469080       -12.7643
  29   2.0000      -0.466117       -12.6837
  30   2.0000      -0.460432       -12.5290
  31   2.0000      -0.428090       -11.6489
  32   2.0000      -0.425249       -11.5716
  33   0.0000       0.028275         0.7694
  34   0.0000       0.030964         0.8426
  35   0.0000       0.035217         0.9583
  36   0.0000       0.040362         1.0983
  37   0.0000       0.047815         1.3011

MULLIKEN ATOMIC CHARGES
-----------------------
   0 C :   -0.997939
   1 C :   -0.490611
   2 C :   -0.328315
   3 C :   -0.385684
   4 C :   -0.454320
   5 C :   -0.310022
   6 Cl:   -0.386076
   7 H :    0.264589
   8 H :    0.276978
   9 H :    0.265902
  10 H :    0.236108
  11 H :    0.237421
  12 H :    0.261089
  13 H :    0.258199
  14 H :    0.239585
  15 H :    0.294414
  16 H :    0.293944
  17 H :    0.229984
  18 H :    0.233562
  19 H :    0.261194
Sum of atomic charges:   -0.0000000

LOEWDIN ATOMIC CHARGES
----------------------
   0 C :    0.578852
   1 C :    0.258121
   2 C :    0.267937
   3 C :    0.251209
   4 C :    0.189596
   5 C :   -0.229569
   6 Cl:    0.865997
   7 H :   -0.171280
   8 H :   -0.173765
   9 H :   -0.171581
  10 H :   -0.147005
  11 H :   -0.147633
  12 H :   -0.140855
  13 H :   -0.141752
  14 H :   -0.142074
  15 H :   -0.166701
  16 H :   -0.157206
  17 H :   -0.147417
  18 H :   -0.235587
  19 H :   -0.239287

  Mayer bond orders larger than 0.100000
B(  0-C ,  1-C ) :   0.9335 B(  0-C ,  7-H ) :   0.9663 B(  0-C ,  8-H ) :   0.9867
B(  0-C ,  9-H ) :   0.9628 B(  1-C ,  2-C ) :   0.9072 B(  1-C , 10-H ) :   0.9672
B(  1-C , 11-H ) :   0.9663 B(  2-C ,  3-C ) :   0.9480 B(  2-C , 12-H ) :   0.9410
B(  2-C , 13-H ) :   0.9444 B(  3-C ,  4-C ) :   0.9128 B(  3-C , 14-H ) :   0.9652
B(  3-C , 15-H ) :   0.9497 B(  4-C ,  5-C ) :   1.0135 B(  4-C , 16-H ) :   0.9305
B(  4-C , 17-H ) :   0.9561 B(  5-C ,  6-Cl) :   0.7142 B(  5-C , 18-H ) :   0.9757
B(  5-C , 19-H ) :   0.9831

MP2 TOTAL ENERGY:     -695.657915158 Eh
FINAL SINGLE POINT ENERGY      -695.657915157975

DIPOLE MOMENT
-------------
                                X             Y             Z
Electronic contribution:    -19.97270      -4.46665      -0.74420
Nuclear contribution   :     20.47130       5.22863       0.94799
                        -----------------------------------------
Total Dipole Moment    :      0.49860       0.76198       0.20379
                        -----------------------------------------
Magnitude (a.u.)       :      0.93313
Magnitude (Debye)      :      2.37184

Rotational constants in cm-1:     0.202957     0.020945     0.019798
Rotational constants in MHz :  6084.506732   627.914244   593.521199

                             ****ORCA TERMINATED NORMALLY****
TOTAL RUN TIME: 0 days 0 hours 7 minutes 34 seconds 543 msec
