                         Program Version 5.0.3 -  RELEASE  -
|  1> !ri-mp2 aug-cc-pvtz aug-cc-pvtz/c tightscf
|  2> %pal nprocs 16 end
|  3>
|  4> * xyz 0 1
|  5> S     0.596501   -1.254311   -0.215908
|  6> N    -0.521489    0.078464   -0.630668
|  7> N     0.161630    1.335417   -0.521980
|  8> N    -2.690102    0.007425    0.617646
|  9> C     1.600362   -0.083701    0.655744
| 10> C     1.269049    1.169256    0.363538
| 11> C    -1.667835    0.056671    0.083610
| 12> H     0.450648    1.618461   -1.455320
| 13> H     2.392643   -0.412715    1.306776
| 14> H     1.752966    2.060731    0.730728
| 15> *
| 16>
| 17>                          ****END OF INPUT****

CARTESIAN COORDINATES (ANGSTROEM)
---------------------------------
  S      0.596501   -1.254311   -0.215908
  N     -0.521489    0.078464   -0.630668
  N      0.161630    1.335417   -0.521980
  N     -2.690102    0.007425    0.617646
  C      1.600362   -0.083701    0.655744
  C      1.269049    1.169256    0.363538
  C     -1.667835    0.056671    0.083610
  H      0.450648    1.618461   -1.455320
  H      2.392643   -0.412715    1.306776
  H      1.752966    2.060731    0.730728

 Total Charge           Charge          ....    0
 Multiplicity           Mult            ....    1
 Number of Electrons    NEL             ....   58
 Basis Dimension        Dim             ....  395

ORBITAL ENERGIES
----------------

  NO   OCC          E(Eh)            E(eV)
   0   2.0000     -92.029400     -2504.2473
   1   2.0000     -15.681925      -426.7269
   2   2.0000     -15.645213      -425.7279
   3   2.0000     -15.566401      -423.5833
   4   2.0000     -11.305336      -307.6338
   5   2.0000     -11.302901      -307.5676
   6   2.0000     -11.293316      -307.3068
   7   2.0000      -9.026153      -245.6141
   8   2.0000      -6.707052      -182.5082
   9   2.0000      -6.705910      -182.4771
  10   2.0000      -6.704529      -182.4395
  11   2.0000      -1.380691       -37.5705
  12   2.0000      -1.224209       -33.3124
  13   2.0000      -1.145366       -31.1670
  14   2.0000      -1.099356       -29.9150
  15   2.0000      -0.938810       -25.5463
  16   2.0000      -0.821909       -22.3653
  17   2.0000      -0.770201       -20.9582
  18   2.0000      -0.728331       -19.8189
  19   2.0000      -0.672734       -18.3060
  20   2.0000      -0.625681       -17.0256
  21   2.0000      -0.577020       -15.7015
  22   2.0000      -0.559286       -15.2189
  23   2.0000      -0.537634       -14.6298
  24   2.0000      -0.505109       -13.7447
  25   2.0000      -0.465836       -12.6760
  26   2.0000      -0.448202       -12.1962
  27   2.0000      -0.418297       -11.3824
  28   2.0000      -0.342778        -9.3275
  29   0.0000       0.019903         0.5416
  30   0.0000       0.029799         0.8109
  31   0.0000       0.037132         1.0104
  32   0.0000       0.061858         1.6832
  33   0.0000       0.062903         1.7117

MULLIKEN ATOMIC CHARGES
-----------------------
   0 S :   -0.032055
   1 N :    0.124394
   2 N :   -0.215309
   3 N :   -0.518472
   4 C :   -0.386434
   5 C :   -0.372899
   6 C :    0.266017
   7 H :    0.098930
   8 H :    0.480154
   9 H :    0.555673
Sum of atomic charges:   -0.0000000

LOEWDIN ATOMIC CHARGES
----------------------
   0 S :    1.107864
   1 N :   -0.240105
   2 N :    0.366316
   3 N :    0.224358
   4 C :   -0.182159
   5 C :   -0.010577
   6 C :   -0.513588
   7 H :   -0.306639
   8 H :   -0.260982
   9 H :   -0.184488

  Mayer bond orders larger than 0.100000
B(  0-S ,  1-N ) :   0.8694 B(  0-S ,  4-C ) :   1.0224 B(  1-N ,  2-N ) :   0.7628
B(  1-N ,  6-C ) :   0.9787 B(  2-N ,  5-C ) :   0.9134 B(  2-N ,  7-H ) :   1.0010
B(  3-N ,  6-C ) :   2.5453 B(  4-C ,  5-C ) :   1.5451 B(  4-C ,  8-H ) :   0.7831
B(  5-C ,  9-H ) :   0.6700

MP2 TOTAL ENERGY:     -677.475215968 Eh
FINAL SINGLE POINT ENERGY      -677.475215967651

DIPOLE MOMENT
-------------
                                X             Y             Z
Electronic contribution:     -2.13485      -2.79113      -0.97388
Nuclear contribution   :      4.39028       3.19023       0.56391
                        -----------------------------------------
Total Dipole Moment    :      2.25543       0.39910      -0.40997
                        -----------------------------------------
Magnitude (a.u.)       :      2.32687
Magnitude (Debye)      :      5.91443

Rotational constants in cm-1:     0.133462     0.071161     0.054644
Rotational constants in MHz :  4001.086701  2133.347500  1638.176507

                             ****ORCA TERMINATED NORMALLY****
TOTAL RUN TIME: 0 days 0 hours 3 minutes 1 seconds 507 msec
