                         Program Version 5.0.3 -  RELEASE  -
|  1> !ri-mp2 aug-cc-pvtz aug-cc-pvtz/c tightscf
|  2> %pal nprocs 16 end
|  3>
|  4> * xyz 0 1
|  5> C      0.000000    0.000000    1.245285
|  6> C      0.000000    1.281625    0.433521
|  7> C      0.000000   -1.281625    0.433521
|  8> Cl    -1.529889    1.476800   -0.530841
|  9> Cl     1.529889   -1.476800   -0.530841
| 10> H      0.878901    0.017822    1.895082
| 11> H     -0.878901   -0.017822    1.895082
| 12> H      0.056209    2.153738    1.077110
| 13> H      0.813369    1.306239   -0.284878
| 14> H     -0.813369   -1.306239   -0.284878
| 15> H     -0.056209   -2.153738    1.077110
| 16> *
| 17>
| 18>                          ****END OF INPUT****

CARTESIAN COORDINATES (ANGSTROEM)
---------------------------------
  C      0.000000    0.000000    1.245285
  C      0.000000    1.281625    0.433521
  C      0.000000   -1.281625    0.433521
  Cl    -1.529889    1.476800   -0.530841
  Cl     1.529889   -1.476800   -0.530841
  H      0.878901    0.017822    1.895082
  H     -0.878901   -0.017822    1.895082
  H      0.056209    2.153738    1.077110
  H      0.813369    1.306239   -0.284878
  H     -0.813369   -1.306239   -0.284878
  H     -0.056209   -2.153738    1.077110

 Total Charge           Charge          ....    0
 Multiplicity           Mult            ....    1
 Number of Electrons    NEL             ....   58
 Basis Dimension        Dim             ....  376

ORBITAL ENERGIES
----------------

  NO   OCC          E(Eh)            E(eV)
   0   2.0000    -104.827679     -2852.5062
   1   2.0000    -104.827679     -2852.5062
   2   2.0000     -11.303050      -307.5716
   3   2.0000     -11.303043      -307.5714
   4   2.0000     -11.259930      -306.3983
   5   2.0000     -10.551771      -287.1283
   6   2.0000     -10.551771      -287.1283
   7   2.0000      -8.018541      -218.1956
   8   2.0000      -8.018541      -218.1956
   9   2.0000      -8.016866      -218.1500
  10   2.0000      -8.016865      -218.1500
  11   2.0000      -8.016824      -218.1489
  12   2.0000      -8.016823      -218.1489
  13   2.0000      -1.159439       -31.5499
  14   2.0000      -1.119397       -30.4603
  15   2.0000      -1.027652       -27.9638
  16   2.0000      -0.919316       -25.0159
  17   2.0000      -0.815057       -22.1788
  18   2.0000      -0.671598       -18.2751
  19   2.0000      -0.663605       -18.0576
  20   2.0000      -0.599167       -16.3042
  21   2.0000      -0.570736       -15.5305
  22   2.0000      -0.560552       -15.2534
  23   2.0000      -0.520377       -14.1602
  24   2.0000      -0.501123       -13.6363
  25   2.0000      -0.446860       -12.1597
  26   2.0000      -0.443103       -12.0575
  27   2.0000      -0.435124       -11.8403
  28   2.0000      -0.434282       -11.8174
  29   0.0000       0.027534         0.7492
  30   0.0000       0.034466         0.9379
  31   0.0000       0.043992         1.1971
  32   0.0000       0.045642         1.2420
  33   0.0000       0.059791         1.6270

MULLIKEN ATOMIC CHARGES
-----------------------
   0 C :   -0.395516
   1 C :   -0.311631
   2 C :   -0.311631
   3 Cl:   -0.355631
   4 Cl:   -0.355631
   5 H :    0.303182
   6 H :    0.303182
   7 H :    0.262927
   8 H :    0.298911
   9 H :    0.298911
  10 H :    0.262927
Sum of atomic charges:   -0.0000000

LOEWDIN ATOMIC CHARGES
----------------------
   0 C :    0.100166
   1 C :   -0.260691
   2 C :   -0.260691
   3 Cl:    0.877056
   4 Cl:    0.877056
   5 H :   -0.166120
   6 H :   -0.166120
   7 H :   -0.237905
   8 H :   -0.262422
   9 H :   -0.262422
  10 H :   -0.237905

  Mayer bond orders larger than 0.100000
B(  0-C ,  1-C ) :   0.9443 B(  0-C ,  2-C ) :   0.9443 B(  0-C ,  5-H ) :   0.9058
B(  0-C ,  6-H ) :   0.9058 B(  1-C ,  3-Cl) :   0.7858 B(  1-C ,  7-H ) :   0.9664
B(  1-C ,  8-H ) :   0.9210 B(  2-C ,  4-Cl) :   0.7858 B(  2-C ,  9-H ) :   0.9210
B(  2-C , 10-H ) :   0.9664

MP2 TOTAL ENERGY:    -1037.105423274 Eh
FINAL SINGLE POINT ENERGY     -1037.105423273733

DIPOLE MOMENT
-------------
                                X             Y             Z
Electronic contribution:      0.00000      -0.00000      -5.65621
Nuclear contribution   :     -0.00000       0.00000       6.64590
                        -----------------------------------------
Total Dipole Moment    :      0.00000      -0.00000       0.98969
                        -----------------------------------------
Magnitude (a.u.)       :      0.98969
Magnitude (Debye)      :      2.51559

Rotational constants in cm-1:     0.207103     0.044864     0.042224
Rotational constants in MHz :  6208.778173  1344.994869  1265.829094

                             ****ORCA TERMINATED NORMALLY****
TOTAL RUN TIME: 0 days 0 hours 2 minutes 37 seconds 391 msec
