                         Program Version 5.0.3 -  RELEASE  -
|  1> !ri-mp2 aug-cc-pvtz aug-cc-pvtz/c tightscf
|  2> %pal nprocs 16 end
|  3>
|  4> * xyz 0 1
|  5> C      0.143509    2.259213   -0.972760
|  6> C     -0.143509   -2.259213   -0.972760
|  7> C     -0.493542    1.494787   -0.095250
|  8> C      0.493542   -1.494787   -0.095250
|  9> C      0.143509    0.758656    1.044302
| 10> C     -0.143509   -0.758656    1.044302
| 11> H     -0.382876    2.769274   -1.768280
| 12> H      1.216623    2.403065   -0.926974
| 13> H      0.382876   -2.769274   -1.768280
| 14> H     -1.216623   -2.403065   -0.926974
| 15> H     -1.570475    1.377799   -0.187498
| 16> H      1.570475   -1.377799   -0.187498
| 17> H     -0.232692    1.168727    1.987200
| 18> H      1.222919    0.929600    1.037802
| 19> H     -1.222919   -0.929600    1.037802
| 20> H      0.232692   -1.168727    1.987200
| 21> *
| 22>
| 23>                          ****END OF INPUT****

CARTESIAN COORDINATES (ANGSTROEM)
---------------------------------
  C      0.143509    2.259213   -0.972760
  C     -0.143509   -2.259213   -0.972760
  C     -0.493542    1.494787   -0.095250
  C      0.493542   -1.494787   -0.095250
  C      0.143509    0.758656    1.044302
  C     -0.143509   -0.758656    1.044302
  H     -0.382876    2.769274   -1.768280
  H      1.216623    2.403065   -0.926974
  H      0.382876   -2.769274   -1.768280
  H     -1.216623   -2.403065   -0.926974
  H     -1.570475    1.377799   -0.187498
  H      1.570475   -1.377799   -0.187498
  H     -0.232692    1.168727    1.987200
  H      1.222919    0.929600    1.037802
  H     -1.222919   -0.929600    1.037802
  H      0.232692   -1.168727    1.987200

 Total Charge           Charge          ....    0
 Multiplicity           Mult            ....    1
 Number of Electrons    NEL             ....   46
 Basis Dimension        Dim             ....  506

ORBITAL ENERGIES
----------------

  NO   OCC          E(Eh)            E(eV)
   0   2.0000     -11.230398      -305.5947
   1   2.0000     -11.230305      -305.5921
   2   2.0000     -11.229643      -305.5741
   3   2.0000     -11.229167      -305.5612
   4   2.0000     -11.216592      -305.2190
   5   2.0000     -11.216591      -305.2190
   6   2.0000      -1.098813       -29.9002
   7   2.0000      -1.047304       -28.4986
   8   2.0000      -0.974853       -26.5271
   9   2.0000      -0.866552       -23.5801
  10   2.0000      -0.761210       -20.7136
  11   2.0000      -0.754383       -20.5278
  12   2.0000      -0.644329       -17.5331
  13   2.0000      -0.632639       -17.2150
  14   2.0000      -0.598650       -16.2901
  15   2.0000      -0.597461       -16.2578
  16   2.0000      -0.555308       -15.1107
  17   2.0000      -0.522650       -14.2220
  18   2.0000      -0.506378       -13.7792
  19   2.0000      -0.479314       -13.0428
  20   2.0000      -0.475617       -12.9422
  21   2.0000      -0.360543        -9.8109
  22   2.0000      -0.358712        -9.7611
  23   0.0000       0.030534         0.8309
  24   0.0000       0.034888         0.9494
  25   0.0000       0.036541         0.9943
  26   0.0000       0.038411         1.0452
  27   0.0000       0.052969         1.4414

MULLIKEN ATOMIC CHARGES
-----------------------
   0 C :   -1.111672
   1 C :   -1.111672
   2 C :   -0.149375
   3 C :   -0.149375
   4 C :   -0.166812
   5 C :   -0.166812
   6 H :    0.522412
   7 H :    0.212352
   8 H :    0.522412
   9 H :    0.212352
  10 H :    0.211275
  11 H :    0.211275
  12 H :    0.280217
  13 H :    0.201603
  14 H :    0.201603
  15 H :    0.280217
Sum of atomic charges:   -0.0000000

LOEWDIN ATOMIC CHARGES
----------------------
   0 C :    0.524761
   1 C :    0.524761
   2 C :    0.173584
   3 C :    0.173584
   4 C :    0.244175
   5 C :    0.244175
   6 H :   -0.228600
   7 H :   -0.220897
   8 H :   -0.228600
   9 H :   -0.220897
  10 H :   -0.181585
  11 H :   -0.181585
  12 H :   -0.150803
  13 H :   -0.160634
  14 H :   -0.160634
  15 H :   -0.150803

  Mayer bond orders larger than 0.100000
B(  0-C ,  2-C ) :   1.3202 B(  0-C ,  6-H ) :   0.6140 B(  0-C ,  7-H ) :   1.1686
B(  1-C ,  3-C ) :   1.3202 B(  1-C ,  8-H ) :   0.6140 B(  1-C ,  9-H ) :   1.1686
B(  2-C ,  4-C ) :   0.6939 B(  2-C , 10-H ) :   1.0816 B(  3-C ,  5-C ) :   0.6939
B(  3-C , 11-H ) :   1.0816 B(  4-C ,  5-C ) :   1.0610 B(  4-C , 12-H ) :   0.9436
B(  4-C , 13-H ) :   0.9957 B(  5-C , 14-H ) :   0.9957 B(  5-C , 15-H ) :   0.9436

MP2 TOTAL ENERGY:     -234.081928256 Eh
FINAL SINGLE POINT ENERGY      -234.081928255822

DIPOLE MOMENT
-------------
                                X             Y             Z
Electronic contribution:      0.00000      -0.00000      -0.09578
Nuclear contribution   :      0.00000      -0.00000       0.29920
                        -----------------------------------------
Total Dipole Moment    :      0.00000      -0.00000       0.20342
                        -----------------------------------------
Magnitude (a.u.)       :      0.20342
Magnitude (Debye)      :      0.51706

Rotational constants in cm-1:     0.197356     0.069159     0.057514
Rotational constants in MHz :  5916.572271  2073.336162  1724.232335

                             ****ORCA TERMINATED NORMALLY****
TOTAL RUN TIME: 0 days 0 hours 4 minutes 41 seconds 959 msec
