                         Program Version 5.0.3 -  RELEASE  -
|  1> !ri-mp2 aug-cc-pvtz aug-cc-pvtz/c tightscf
|  2> %pal nprocs 16 end
|  3>
|  4> * xyz 0 1
|  5> O     -1.918563   -0.173683   -0.195389
|  6> H     -2.312775    0.187830    0.609427
|  7> O     -0.661485   -0.686944    0.324121
|  8> C      1.651684   -0.787137    0.026852
|  9> H      1.820412   -0.777766    1.104424
| 10> H      1.554045   -1.821145   -0.300398
| 11> H      2.523590   -0.349504   -0.459304
| 12> C      0.487776    1.469705    0.103519
| 13> H      0.672394    1.540668    1.177022
| 14> H      1.301951    1.974955   -0.418152
| 15> H     -0.436230    1.995634   -0.131444
| 16> C      0.408750    0.013954   -0.330908
| 17> H      0.227738   -0.044785   -1.408201
| 18> *
| 19>
| 20>                          ****END OF INPUT****

CARTESIAN COORDINATES (ANGSTROEM)
---------------------------------
  O     -1.918563   -0.173683   -0.195389
  H     -2.312775    0.187830    0.609427
  O     -0.661485   -0.686944    0.324121
  C      1.651684   -0.787137    0.026852
  H      1.820412   -0.777766    1.104424
  H      1.554045   -1.821145   -0.300398
  H      2.523590   -0.349504   -0.459304
  C      0.487776    1.469705    0.103519
  H      0.672394    1.540668    1.177022
  H      1.301951    1.974955   -0.418152
  H     -0.436230    1.995634   -0.131444
  C      0.408750    0.013954   -0.330908
  H      0.227738   -0.044785   -1.408201

 Total Charge           Charge          ....    0
 Multiplicity           Mult            ....    1
 Number of Electrons    NEL             ....   42
 Basis Dimension        Dim             ....  414

ORBITAL ENERGIES
----------------

  NO   OCC          E(Eh)            E(eV)
   0   2.0000     -20.618391      -561.0549
   1   2.0000     -20.617206      -561.0227
   2   2.0000     -11.286411      -307.1189
   3   2.0000     -11.220025      -305.3124
   4   2.0000     -11.218505      -305.2710
   5   2.0000      -1.464364       -39.8474
   6   2.0000      -1.226989       -33.3881
   7   2.0000      -1.036496       -28.2045
   8   2.0000      -0.944618       -25.7044
   9   2.0000      -0.802989       -21.8504
  10   2.0000      -0.717820       -19.5329
  11   2.0000      -0.655994       -17.8505
  12   2.0000      -0.636041       -17.3076
  13   2.0000      -0.621703       -16.9174
  14   2.0000      -0.551296       -15.0015
  15   2.0000      -0.548553       -14.9269
  16   2.0000      -0.535345       -14.5675
  17   2.0000      -0.519364       -14.1326
  18   2.0000      -0.493112       -13.4183
  19   2.0000      -0.476666       -12.9707
  20   2.0000      -0.440004       -11.9731
  21   0.0000       0.029943         0.8148
  22   0.0000       0.036341         0.9889
  23   0.0000       0.040548         1.1034
  24   0.0000       0.042218         1.1488
  25   0.0000       0.057904         1.5756

MULLIKEN ATOMIC CHARGES
-----------------------
   0 O :   -0.352199
   1 H :    0.233560
   2 O :   -0.505561
   3 C :   -0.982317
   4 H :    0.284189
   5 H :    0.288608
   6 H :    0.308117
   7 C :   -1.004255
   8 H :    0.287644
   9 H :    0.281325
  10 H :    0.296439
  11 C :    0.518341
  12 H :    0.346109
Sum of atomic charges:    0.0000000

LOEWDIN ATOMIC CHARGES
----------------------
   0 O :    0.581875
   1 H :   -0.551428
   2 O :    0.363079
   3 C :    0.569526
   4 H :   -0.169149
   5 H :   -0.171428
   6 H :   -0.169346
   7 C :    0.572076
   8 H :   -0.168838
   9 H :   -0.169585
  10 H :   -0.184727
  11 C :   -0.347877
  12 H :   -0.154175

  Mayer bond orders larger than 0.100000
B(  0-O ,  1-H ) :   0.9686 B(  0-O ,  2-O ) :   0.8550 B(  2-O , 11-C ) :   0.5412
B(  3-C ,  4-H ) :   0.9438 B(  3-C ,  5-H ) :   0.9495 B(  3-C ,  6-H ) :   0.9436
B(  3-C , 11-C ) :   0.7914 B(  7-C ,  8-H ) :   0.9239 B(  7-C ,  9-H ) :   0.9537
B(  7-C , 10-H ) :   0.9451 B(  7-C , 11-C ) :   0.8408 B( 11-C , 12-H ) :   0.9253

MP2 TOTAL ENERGY:     -269.020745440 Eh
FINAL SINGLE POINT ENERGY      -269.020745440494

DIPOLE MOMENT
-------------
                                X             Y             Z
Electronic contribution:     -5.13453      -2.20504       0.02614
Nuclear contribution   :      5.50474       2.79082       0.18182
                        -----------------------------------------
Total Dipole Moment    :      0.37022       0.58578       0.20796
                        -----------------------------------------
Magnitude (a.u.)       :      0.72350
Magnitude (Debye)      :      1.83898

Rotational constants in cm-1:     0.259713     0.127247     0.094202
Rotational constants in MHz :  7785.990381  3814.782296  2824.113219

                             ****ORCA TERMINATED NORMALLY****
TOTAL RUN TIME: 0 days 0 hours 2 minutes 27 seconds 936 msec
