                         Program Version 5.0.3 -  RELEASE  -
|  1> !ri-mp2 aug-cc-pvtz aug-cc-pvtz/c tightscf
|  2> %pal nprocs 16 end
|  3>
|  4> * xyz 0 1
|  5> C     -2.312498   -2.277578    0.000000
|  6> C     -1.228339   -1.763422    0.000000
|  7> C      1.311092    2.604422    0.000000
|  8> C      0.077794   -1.116147    0.000000
|  9> C      1.378741    1.078321    0.000000
| 10> C      0.000000    0.420250    0.000000
| 11> H     -3.268709   -2.737512    0.000000
| 12> H      2.308010    3.046780    0.000000
| 13> H      0.783276    2.975425    0.880761
| 14> H      0.783276    2.975425   -0.880761
| 15> H      0.642365   -1.452734    0.874593
| 16> H      0.642365   -1.452734   -0.874593
| 17> H      1.941609    0.738131   -0.874478
| 18> H      1.941609    0.738131    0.874478
| 19> H     -0.567271    0.747005    0.874792
| 20> H     -0.567271    0.747005   -0.874792
| 21> *
| 22>
| 23>                          ****END OF INPUT****

CARTESIAN COORDINATES (ANGSTROEM)
---------------------------------
  C     -2.312498   -2.277578    0.000000
  C     -1.228339   -1.763422    0.000000
  C      1.311092    2.604422    0.000000
  C      0.077794   -1.116147    0.000000
  C      1.378741    1.078321    0.000000
  C      0.000000    0.420250    0.000000
  H     -3.268709   -2.737512    0.000000
  H      2.308010    3.046780    0.000000
  H      0.783276    2.975425    0.880761
  H      0.783276    2.975425   -0.880761
  H      0.642365   -1.452734    0.874593
  H      0.642365   -1.452734   -0.874593
  H      1.941609    0.738131   -0.874478
  H      1.941609    0.738131    0.874478
  H     -0.567271    0.747005    0.874792
  H     -0.567271    0.747005   -0.874792

 Total Charge           Charge          ....    0
 Multiplicity           Mult            ....    1
 Number of Electrons    NEL             ....   46
 Basis Dimension        Dim             ....  506

ORBITAL ENERGIES
----------------

  NO   OCC          E(Eh)            E(eV)
   0   2.0000     -11.249310      -306.1093
   1   2.0000     -11.229848      -305.5797
   2   2.0000     -11.227600      -305.5185
   3   2.0000     -11.224251      -305.4274
   4   2.0000     -11.215660      -305.1936
   5   2.0000     -11.215294      -305.1837
   6   2.0000      -1.097068       -29.8527
   7   2.0000      -1.039437       -28.2845
   8   2.0000      -0.977041       -26.5866
   9   2.0000      -0.884696       -24.0738
  10   2.0000      -0.802733       -21.8435
  11   2.0000      -0.715534       -19.4707
  12   2.0000      -0.654179       -17.8011
  13   2.0000      -0.632016       -17.1980
  14   2.0000      -0.594725       -16.1833
  15   2.0000      -0.590322       -16.0635
  16   2.0000      -0.538418       -14.6511
  17   2.0000      -0.515292       -14.0218
  18   2.0000      -0.491557       -13.3760
  19   2.0000      -0.478393       -13.0177
  20   2.0000      -0.473280       -12.8786
  21   2.0000      -0.382111       -10.3978
  22   2.0000      -0.381062       -10.3692
  23   0.0000       0.029793         0.8107
  24   0.0000       0.032694         0.8896
  25   0.0000       0.037686         1.0255
  26   0.0000       0.040087         1.0908
  27   0.0000       0.045983         1.2513

MULLIKEN ATOMIC CHARGES
-----------------------
   0 C :   -1.736044
   1 C :    1.141216
   2 C :   -0.983921
   3 C :   -0.389207
   4 C :   -0.472580
   5 C :   -0.364652
   6 H :    0.479601
   7 H :    0.270888
   8 H :    0.271329
   9 H :    0.271329
  10 H :    0.221783
  11 H :    0.221783
  12 H :    0.269123
  13 H :    0.269123
  14 H :    0.265116
  15 H :    0.265116
Sum of atomic charges:    0.0000000

LOEWDIN ATOMIC CHARGES
----------------------
   0 C :    0.394295
   1 C :    0.021135
   2 C :    0.580798
   3 C :    0.204133
   4 C :    0.255426
   5 C :    0.261989
   6 H :   -0.307350
   7 H :   -0.173126
   8 H :   -0.170419
   9 H :   -0.170419
  10 H :   -0.157871
  11 H :   -0.157871
  12 H :   -0.147505
  13 H :   -0.147505
  14 H :   -0.142856
  15 H :   -0.142856

  Mayer bond orders larger than 0.100000
B(  0-C ,  1-C ) :   0.1321 B(  0-C ,  6-H ) :   0.9984 B(  1-C ,  3-C ) :   0.9454
B(  1-C ,  6-H ) :  -0.1624 B(  2-C ,  4-C ) :   0.9004 B(  2-C ,  7-H ) :   0.9908
B(  2-C ,  8-H ) :   0.9559 B(  2-C ,  9-H ) :   0.9559 B(  3-C ,  5-C ) :   1.0577
B(  3-C , 10-H ) :   0.9668 B(  3-C , 11-H ) :   0.9668 B(  4-C ,  5-C ) :   0.8776
B(  4-C , 12-H ) :   0.9378 B(  4-C , 13-H ) :   0.9378 B(  5-C , 14-H ) :   0.9324
B(  5-C , 15-H ) :   0.9324

MP2 TOTAL ENERGY:     -234.072320007 Eh
FINAL SINGLE POINT ENERGY      -234.072320007192

DIPOLE MOMENT
-------------
                                X             Y             Z
Electronic contribution:     -4.58418      -6.42466      -0.00000
Nuclear contribution   :      4.87902       6.65180       0.00000
                        -----------------------------------------
Total Dipole Moment    :      0.29484       0.22714      -0.00000
                        -----------------------------------------
Magnitude (a.u.)       :      0.37219
Magnitude (Debye)      :      0.94602

Rotational constants in cm-1:     0.501982     0.043919     0.041620
Rotational constants in MHz : 15049.053286  1316.662662  1247.742536

                             ****ORCA TERMINATED NORMALLY****
TOTAL RUN TIME: 0 days 0 hours 4 minutes 15 seconds 797 msec
