                         Program Version 5.0.3 -  RELEASE  -
|  1> !ri-mp2 aug-cc-pvtz aug-cc-pvtz/c tightscf
|  2> %pal nprocs 16 end
|  3>
|  4> * xyz 0 1
|  5> C     -0.721870    0.249030    0.685981
|  6> C      0.721870   -0.249030    0.685981
|  7> C     -1.761587   -0.853628    0.754122
|  8> C      1.761587    0.853628    0.754122
|  9> Cl    -1.761587   -1.906934   -0.730679
| 10> Cl     1.761587    1.906934   -0.730679
| 11> H     -0.904673    0.868385   -0.192246
| 12> H     -0.885885    0.888194    1.561267
| 13> H      0.904673   -0.868385   -0.192246
| 14> H      0.885885   -0.888194    1.561267
| 15> H     -1.591489   -1.527110    1.590678
| 16> H     -2.766336   -0.447769    0.821230
| 17> H      1.591489    1.527110    1.590678
| 18> H      2.766336    0.447769    0.821230
| 19> *
| 20>
| 21>                          ****END OF INPUT****

CARTESIAN COORDINATES (ANGSTROEM)
---------------------------------
  C     -0.721870    0.249030    0.685981
  C      0.721870   -0.249030    0.685981
  C     -1.761587   -0.853628    0.754122
  C      1.761587    0.853628    0.754122
  Cl    -1.761587   -1.906934   -0.730679
  Cl     1.761587    1.906934   -0.730679
  H     -0.904673    0.868385   -0.192246
  H     -0.885885    0.888194    1.561267
  H      0.904673   -0.868385   -0.192246
  H      0.885885   -0.888194    1.561267
  H     -1.591489   -1.527110    1.590678
  H     -2.766336   -0.447769    0.821230
  H      1.591489    1.527110    1.590678
  H      2.766336    0.447769    0.821230

 Total Charge           Charge          ....    0
 Multiplicity           Mult            ....    1
 Number of Electrons    NEL             ....   66
 Basis Dimension        Dim             ....  468

ORBITAL ENERGIES
----------------

  NO   OCC          E(Eh)            E(eV)
   0   2.0000    -104.823060     -2852.3805
   1   2.0000    -104.823060     -2852.3805
   2   2.0000     -11.300609      -307.5052
   3   2.0000     -11.300607      -307.5052
   4   2.0000     -11.246217      -306.0251
   5   2.0000     -11.245599      -306.0083
   6   2.0000     -10.547116      -287.0016
   7   2.0000     -10.547116      -287.0016
   8   2.0000      -8.013885      -218.0689
   9   2.0000      -8.013885      -218.0689
  10   2.0000      -8.012202      -218.0231
  11   2.0000      -8.012202      -218.0231
  12   2.0000      -8.012174      -218.0223
  13   2.0000      -8.012174      -218.0223
  14   2.0000      -1.149909       -31.2906
  15   2.0000      -1.127025       -30.6679
  16   2.0000      -1.050330       -28.5809
  17   2.0000      -0.967791       -26.3349
  18   2.0000      -0.866112       -23.5681
  19   2.0000      -0.806206       -21.9380
  20   2.0000      -0.670186       -18.2367
  21   2.0000      -0.643981       -17.5236
  22   2.0000      -0.629228       -17.1222
  23   2.0000      -0.605974       -16.4894
  24   2.0000      -0.551642       -15.0110
  25   2.0000      -0.538862       -14.6632
  26   2.0000      -0.525356       -14.2957
  27   2.0000      -0.498198       -13.5567
  28   2.0000      -0.488825       -13.3016
  29   2.0000      -0.437434       -11.9032
  30   2.0000      -0.435287       -11.8448
  31   2.0000      -0.434269       -11.8171
  32   2.0000      -0.430036       -11.7019
  33   0.0000       0.024708         0.6723
  34   0.0000       0.031891         0.8678
  35   0.0000       0.038370         1.0441
  36   0.0000       0.044247         1.2040
  37   0.0000       0.058451         1.5905

MULLIKEN ATOMIC CHARGES
-----------------------
   0 C :   -0.421377
   1 C :   -0.421377
   2 C :   -0.311317
   3 C :   -0.311317
   4 Cl:   -0.373670
   5 Cl:   -0.373670
   6 H :    0.343536
   7 H :    0.257239
   8 H :    0.343536
   9 H :    0.257239
  10 H :    0.236845
  11 H :    0.268744
  12 H :    0.236845
  13 H :    0.268744
Sum of atomic charges:    0.0000000

LOEWDIN ATOMIC CHARGES
----------------------
   0 C :    0.163325
   1 C :    0.163325
   2 C :   -0.233324
   3 C :   -0.233324
   4 Cl:    0.875748
   5 Cl:    0.875748
   6 H :   -0.182263
   7 H :   -0.149711
   8 H :   -0.182263
   9 H :   -0.149711
  10 H :   -0.236308
  11 H :   -0.237467
  12 H :   -0.236308
  13 H :   -0.237467

  Mayer bond orders larger than 0.100000
B(  0-C ,  1-C ) :   0.8833 B(  0-C ,  2-C ) :   0.9761 B(  0-C ,  6-H ) :   0.9067
B(  0-C ,  7-H ) :   0.9422 B(  1-C ,  3-C ) :   0.9761 B(  1-C ,  8-H ) :   0.9067
B(  1-C ,  9-H ) :   0.9422 B(  2-C ,  4-Cl) :   0.7544 B(  2-C , 10-H ) :   0.9668
B(  2-C , 11-H ) :   0.9696 B(  3-C ,  5-Cl) :   0.7544 B(  3-C , 12-H ) :   0.9668
B(  3-C , 13-H ) :   0.9696

MP2 TOTAL ENERGY:    -1076.329741871 Eh
FINAL SINGLE POINT ENERGY     -1076.329741871235

DIPOLE MOMENT
-------------
                                X             Y             Z
Electronic contribution:     -0.00000      -0.00000      -8.02696
Nuclear contribution   :      0.00000       0.00000       9.41992
                        -----------------------------------------
Total Dipole Moment    :     -0.00000      -0.00000       1.39296
                        -----------------------------------------
Magnitude (a.u.)       :      1.39296
Magnitude (Debye)      :      3.54063

Rotational constants in cm-1:     0.158543     0.027370     0.025671
Rotational constants in MHz :  4753.004283   820.533060   769.597810

                             ****ORCA TERMINATED NORMALLY****
TOTAL RUN TIME: 0 days 0 hours 3 minutes 50 seconds 4 msec
