                         Program Version 5.0.3 -  RELEASE  -
|  1> !ri-mp2 aug-cc-pvtz aug-cc-pvtz/c tightscf
|  2> %pal nprocs 16 end
|  3>
|  4> * xyz 0 1
|  5> C      0.000000    0.672790   -1.380599
|  6> C      0.000000   -0.672790   -1.380599
|  7> C      0.000000    0.000000    0.812326
|  8> N      0.000000    1.085426   -0.051191
|  9> N      0.000000   -1.085426   -0.051191
| 10> O      0.000000    0.000000    2.030042
| 11> H      0.000000    1.365081   -2.201042
| 12> H      0.000000   -1.365081   -2.201042
| 13> H      0.000000    2.030184    0.285825
| 14> H      0.000000   -2.030184    0.285825
| 15> *
| 16>
| 17>                          ****END OF INPUT****

CARTESIAN COORDINATES (ANGSTROEM)
---------------------------------
  C      0.000000    0.672790   -1.380599
  C      0.000000   -0.672790   -1.380599
  C      0.000000    0.000000    0.812326
  N      0.000000    1.085426   -0.051191
  N      0.000000   -1.085426   -0.051191
  O      0.000000    0.000000    2.030042
  H      0.000000    1.365081   -2.201042
  H      0.000000   -1.365081   -2.201042
  H      0.000000    2.030184    0.285825
  H      0.000000   -2.030184    0.285825

 Total Charge           Charge          ....    0
 Multiplicity           Mult            ....    1
 Number of Electrons    NEL             ....   44
 Basis Dimension        Dim             ....  368

ORBITAL ENERGIES
----------------

  NO   OCC          E(Eh)            E(eV)
   0   2.0000     -20.508874      -558.0748
   1   2.0000     -15.608022      -424.7159
   2   2.0000     -15.607995      -424.7151
   3   2.0000     -11.377310      -309.5923
   4   2.0000     -11.280027      -306.9452
   5   2.0000     -11.278416      -306.9013
   6   2.0000      -1.398899       -38.0660
   7   2.0000      -1.309014       -35.6201
   8   2.0000      -1.202656       -32.7259
   9   2.0000      -1.018773       -27.7222
  10   2.0000      -0.865281       -23.5455
  11   2.0000      -0.838805       -22.8250
  12   2.0000      -0.730658       -19.8822
  13   2.0000      -0.674207       -18.3461
  14   2.0000      -0.640769       -17.4362
  15   2.0000      -0.631045       -17.1716
  16   2.0000      -0.615888       -16.7592
  17   2.0000      -0.608699       -16.5635
  18   2.0000      -0.486287       -13.2325
  19   2.0000      -0.461214       -12.5503
  20   2.0000      -0.436669       -11.8824
  21   2.0000      -0.309830        -8.4309
  22   0.0000       0.022349         0.6081
  23   0.0000       0.028823         0.7843
  24   0.0000       0.041538         1.1303
  25   0.0000       0.051408         1.3989
  26   0.0000       0.070366         1.9147

MULLIKEN ATOMIC CHARGES
-----------------------
   0 C :   -0.434877
   1 C :   -0.434877
   2 C :    0.031850
   3 N :    0.049019
   4 N :    0.049019
   5 O :   -0.713759
   6 H :    0.574490
   7 H :    0.574490
   8 H :    0.152323
   9 H :    0.152323
Sum of atomic charges:    0.0000000

LOEWDIN ATOMIC CHARGES
----------------------
   0 C :    0.117225
   1 C :    0.117225
   2 C :   -0.784108
   3 N :    0.528485
   4 N :    0.528485
   5 O :    0.383046
   6 H :   -0.182848
   7 H :   -0.182848
   8 H :   -0.262330
   9 H :   -0.262330

  Mayer bond orders larger than 0.100000
B(  0-C ,  1-C ) :   1.5342 B(  0-C ,  2-C ) :  -0.1376 B(  0-C ,  3-N ) :   0.9695
B(  0-C ,  4-N ) :  -0.1318 B(  0-C ,  6-H ) :   0.6878 B(  1-C ,  2-C ) :  -0.1376
B(  1-C ,  3-N ) :  -0.1318 B(  1-C ,  4-N ) :   0.9695 B(  1-C ,  7-H ) :   0.6878
B(  2-C ,  3-N ) :   1.0703 B(  2-C ,  4-N ) :   1.0703 B(  2-C ,  5-O ) :   1.6793
B(  3-N ,  4-N ) :  -0.1134 B(  3-N ,  8-H ) :   1.0745 B(  4-N ,  9-H ) :   1.0745

MP2 TOTAL ENERGY:     -300.941386274 Eh
FINAL SINGLE POINT ENERGY      -300.941386274360

DIPOLE MOMENT
-------------
                                X             Y             Z
Electronic contribution:     -0.00000      -0.00000       2.01267
Nuclear contribution   :      0.00000       0.00000      -3.73384
                        -----------------------------------------
Total Dipole Moment    :     -0.00000      -0.00000      -1.72117
                        -----------------------------------------
Magnitude (a.u.)       :      1.72117
Magnitude (Debye)      :      4.37486

Rotational constants in cm-1:     0.301330     0.130194     0.090913
Rotational constants in MHz :  9033.650716  3903.110376  2725.514956

                             ****ORCA TERMINATED NORMALLY****
TOTAL RUN TIME: 0 days 0 hours 2 minutes 40 seconds 724 msec
