                         Program Version 5.0.3 -  RELEASE  -
|  1> !ri-mp2 aug-cc-pvtz aug-cc-pvtz/c tightscf
|  2> %pal nprocs 16 end
|  3>
|  4> * xyz 0 1
|  5> C    -0.985328     0.000000    0.000000
|  6> C     0.985328     0.000000    0.000000
|  7> O     0.000000     1.035861    0.000000
|  8> O     0.000000    -1.035861    0.000000
|  9> H    -1.603663     0.000000    0.903194
| 10> H     1.603663     0.000000    0.903194
| 11> H    -1.603663     0.000000   -0.903194
| 12> H     1.603663     0.000000   -0.903194
| 13> *
| 14>
| 15>                          ****END OF INPUT****

CARTESIAN COORDINATES (ANGSTROEM)
---------------------------------
  C     -0.985328    0.000000    0.000000
  C      0.985328    0.000000    0.000000
  O      0.000000    1.035861    0.000000
  O      0.000000   -1.035861    0.000000
  H     -1.603663    0.000000    0.903194
  H      1.603663    0.000000    0.903194
  H     -1.603663    0.000000   -0.903194
  H      1.603663    0.000000   -0.903194

 Total Charge           Charge          ....    0
 Multiplicity           Mult            ....    1
 Number of Electrons    NEL             ....   32
 Basis Dimension        Dim             ....  276

ORBITAL ENERGIES
----------------

  NO   OCC          E(Eh)            E(eV)
   0   2.0000     -20.575786      -559.8956
   1   2.0000     -20.575751      -559.8947
   2   2.0000     -11.348181      -308.7997
   3   2.0000     -11.348180      -308.7997
   4   2.0000      -1.483420       -40.3659
   5   2.0000      -1.299848       -35.3707
   6   2.0000      -0.975948       -26.5569
   7   2.0000      -0.820370       -22.3234
   8   2.0000      -0.733475       -19.9589
   9   2.0000      -0.707121       -19.2417
  10   2.0000      -0.670354       -18.2413
  11   2.0000      -0.596790       -16.2395
  12   2.0000      -0.554216       -15.0810
  13   2.0000      -0.511867       -13.9286
  14   2.0000      -0.500232       -13.6120
  15   2.0000      -0.417645       -11.3647
  16   0.0000       0.030933         0.8417
  17   0.0000       0.038592         1.0501
  18   0.0000       0.041036         1.1166
  19   0.0000       0.057640         1.5685
  20   0.0000       0.069853         1.9008

MULLIKEN ATOMIC CHARGES
-----------------------
   0 C :   -0.059641
   1 C :   -0.059641
   2 O :   -0.667422
   3 O :   -0.667422
   4 H :    0.363531
   5 H :    0.363531
   6 H :    0.363531
   7 H :    0.363531
Sum of atomic charges:    0.0000000

LOEWDIN ATOMIC CHARGES
----------------------
   0 C :   -0.186938
   1 C :   -0.186938
   2 O :    0.517422
   3 O :    0.517422
   4 H :   -0.165242
   5 H :   -0.165242
   6 H :   -0.165242
   7 H :   -0.165242

  Mayer bond orders larger than 0.100000
B(  0-C ,  1-C ) :   0.3225 B(  0-C ,  2-O ) :   0.8195 B(  0-C ,  3-O ) :   0.8195
B(  0-C ,  4-H ) :   0.8476 B(  0-C ,  6-H ) :   0.8476 B(  1-C ,  2-O ) :   0.8195
B(  1-C ,  3-O ) :   0.8195 B(  1-C ,  5-H ) :   0.8476 B(  1-C ,  7-H ) :   0.8476

MP2 TOTAL ENERGY:     -228.635058528 Eh
FINAL SINGLE POINT ENERGY      -228.635058527875

DIPOLE MOMENT
-------------
                                X             Y             Z
Electronic contribution:     -0.00000      -0.00000      -0.00000
Nuclear contribution   :      0.00000       0.00000       0.00000
                        -----------------------------------------
Total Dipole Moment    :     -0.00000      -0.00000      -0.00000
                        -----------------------------------------
Magnitude (a.u.)       :      0.00000
Magnitude (Debye)      :      0.00000

Rotational constants in cm-1:     0.455850     0.448065     0.247813
Rotational constants in MHz : 13666.052908 13432.636718  7429.252580

                             ****ORCA TERMINATED NORMALLY****
TOTAL RUN TIME: 0 days 0 hours 1 minutes 19 seconds 844 msec
