                         Program Version 5.0.3 -  RELEASE  -
|  1> !ri-mp2 aug-cc-pvtz aug-cc-pvtz/c tightscf
|  2> %pal nprocs 16 end
|  3>
|  4> * xyz 0 1
|  5> C      0.000000    0.000000   -1.307744
|  6> N      0.000000    1.191556   -0.712170
|  7> N      0.000000   -1.191556   -0.712170
|  8> C      0.000000   -1.180628    0.620975
|  9> C      0.000000    1.180628    0.620975
| 10> C      0.000000    0.000000    1.349488
| 11> H      0.000000    0.000000    2.429940
| 12> H      0.000000    0.000000   -2.391534
| 13> H      0.000000   -2.145739    1.114908
| 14> H      0.000000    2.145739    1.114908
| 15> *
| 16>
| 17>                          ****END OF INPUT****

CARTESIAN COORDINATES (ANGSTROEM)
---------------------------------
  C      0.000000    0.000000   -1.307744
  N      0.000000    1.191556   -0.712170
  N      0.000000   -1.191556   -0.712170
  C      0.000000   -1.180628    0.620975
  C      0.000000    1.180628    0.620975
  C      0.000000    0.000000    1.349488
  H      0.000000    0.000000    2.429940
  H      0.000000    0.000000   -2.391534
  H      0.000000   -2.145739    1.114908
  H      0.000000    2.145739    1.114908

 Total Charge           Charge          ....    0
 Multiplicity           Mult            ....    1
 Number of Electrons    NEL             ....   42
 Basis Dimension        Dim             ....  368

ORBITAL ENERGIES
----------------

  NO   OCC          E(Eh)            E(eV)
   0   2.0000     -15.575426      -423.8289
   1   2.0000     -15.575401      -423.8282
   2   2.0000     -11.315022      -307.8974
   3   2.0000     -11.300575      -307.5043
   4   2.0000     -11.300562      -307.5039
   5   2.0000     -11.250489      -306.1414
   6   2.0000      -1.316602       -35.8266
   7   2.0000      -1.198664       -32.6173
   8   2.0000      -1.077640       -29.3241
   9   2.0000      -0.897559       -24.4238
  10   2.0000      -0.893541       -24.3145
  11   2.0000      -0.741476       -20.1766
  12   2.0000      -0.704872       -19.1805
  13   2.0000      -0.652685       -17.7605
  14   2.0000      -0.597743       -16.2654
  15   2.0000      -0.589051       -16.0289
  16   2.0000      -0.579727       -15.7752
  17   2.0000      -0.474729       -12.9180
  18   2.0000      -0.424621       -11.5545
  19   2.0000      -0.416496       -11.3334
  20   2.0000      -0.379519       -10.3272
  21   0.0000       0.025135         0.6840
  22   0.0000       0.034774         0.9462
  23   0.0000       0.039721         1.0809
  24   0.0000       0.048986         1.3330
  25   0.0000       0.070113         1.9079

MULLIKEN ATOMIC CHARGES
-----------------------
   0 C :   -0.566895
   1 N :   -0.388014
   2 N :   -0.388014
   3 C :   -0.381697
   4 C :   -0.381697
   5 C :   -0.150738
   6 H :    0.357434
   7 H :    0.576472
   8 H :    0.661574
   9 H :    0.661574
Sum of atomic charges:   -0.0000000

LOEWDIN ATOMIC CHARGES
----------------------
   0 C :   -0.176620
   1 N :    0.366266
   2 N :    0.366266
   3 C :    0.003568
   4 C :    0.003568
   5 C :    0.201754
   6 H :   -0.194189
   7 H :   -0.203906
   8 H :   -0.183353
   9 H :   -0.183353

  Mayer bond orders larger than 0.100000
B(  0-C ,  1-N ) :   1.3208 B(  0-C ,  2-N ) :   1.3208 B(  0-C ,  3-C ) :  -0.1522
B(  0-C ,  4-C ) :  -0.1522 B(  0-C ,  7-H ) :   0.6256 B(  1-N ,  4-C ) :   1.1264
B(  1-N ,  5-C ) :  -0.1508 B(  2-N ,  3-C ) :   1.1264 B(  2-N ,  5-C ) :  -0.1508
B(  3-C ,  4-C ) :   0.2263 B(  3-C ,  5-C ) :   1.0343 B(  3-C ,  8-H ) :   0.4828
B(  4-C ,  5-C ) :   1.0343 B(  4-C ,  9-H ) :   0.4828 B(  5-C ,  6-H ) :   0.9161

MP2 TOTAL ENERGY:     -263.812351948 Eh
FINAL SINGLE POINT ENERGY      -263.812351947579

DIPOLE MOMENT
-------------
                                X             Y             Z
Electronic contribution:      0.00000       0.00000      -1.28622
Nuclear contribution   :      0.00000       0.00000       2.22569
                        -----------------------------------------
Total Dipole Moment    :      0.00000       0.00000       0.93947
                        -----------------------------------------
Magnitude (a.u.)       :      0.93947
Magnitude (Debye)      :      2.38795

Rotational constants in cm-1:     0.210599     0.204235     0.103684
Rotational constants in MHz :  6313.612540  6122.817961  3108.375852

                             ****ORCA TERMINATED NORMALLY****
TOTAL RUN TIME: 0 days 0 hours 2 minutes 38 seconds 250 msec
