                         Program Version 5.0.3 -  RELEASE  -
|  1> !ri-mp2 aug-cc-pvtz aug-cc-pvtz/c tightscf
|  2> %pal nprocs 16 end
|  3>
|  4> * xyz 0 1
|  5> C     0.000000     1.292045       0.000000
|  6> N     1.184015     0.683592       0.000000
|  7> N    -1.184015     0.683592       0.000000
|  8> C     1.118944    -0.646022       0.000000
|  9> C    -1.118944    -0.646022       0.000000
| 10> N     0.000000    -1.367183       0.000000
| 11> H     0.000000     2.376108       0.000000
| 12> H    -2.057770    -1.188054       0.000000
| 13> H     2.057770    -1.188054       0.000000
| 14> *
| 15>
| 16>                          ****END OF INPUT****

CARTESIAN COORDINATES (ANGSTROEM)
---------------------------------
  C      0.000000    1.292045    0.000000
  N      1.184015    0.683592    0.000000
  N     -1.184015    0.683592    0.000000
  C      1.118944   -0.646022    0.000000
  C     -1.118944   -0.646022    0.000000
  N      0.000000   -1.367183    0.000000
  H      0.000000    2.376108    0.000000
  H     -2.057770   -1.188054    0.000000
  H      2.057770   -1.188054    0.000000

 Total Charge           Charge          ....    0
 Multiplicity           Mult            ....    1
 Number of Electrons    NEL             ....   42
 Basis Dimension        Dim             ....  345

ORBITAL ENERGIES
----------------

  NO   OCC          E(Eh)            E(eV)
   0   2.0000     -15.587518      -424.1579
   1   2.0000     -15.587517      -424.1579
   2   2.0000     -15.587479      -424.1569
   3   2.0000     -11.342163      -308.6359
   4   2.0000     -11.342163      -308.6359
   5   2.0000     -11.342151      -308.6356
   6   2.0000      -1.367724       -37.2176
   7   2.0000      -1.218867       -33.1671
   8   2.0000      -1.218867       -33.1671
   9   2.0000      -0.934463       -25.4280
  10   2.0000      -0.934463       -25.4280
  11   2.0000      -0.764511       -20.8034
  12   2.0000      -0.749609       -20.3979
  13   2.0000      -0.617813       -16.8115
  14   2.0000      -0.617813       -16.8115
  15   2.0000      -0.614897       -16.7322
  16   2.0000      -0.577391       -15.7116
  17   2.0000      -0.441808       -12.0222
  18   2.0000      -0.441808       -12.0222
  19   2.0000      -0.441195       -12.0055
  20   2.0000      -0.441195       -12.0055
  21   0.0000       0.028661         0.7799
  22   0.0000       0.038311         1.0425
  23   0.0000       0.038311         1.0425
  24   0.0000       0.063708         1.7336
  25   0.0000       0.075945         2.0666

MULLIKEN ATOMIC CHARGES
-----------------------
   0 C :   -0.298432
   1 N :   -0.301163
   2 N :   -0.301163
   3 C :   -0.298429
   4 C :   -0.298429
   5 N :   -0.301164
   6 H :    0.599594
   7 H :    0.599593
   8 H :    0.599593
Sum of atomic charges:   -0.0000000

LOEWDIN ATOMIC CHARGES
----------------------
   0 C :   -0.176530
   1 N :    0.368960
   2 N :    0.368960
   3 C :   -0.176529
   4 C :   -0.176529
   5 N :    0.368961
   6 H :   -0.192431
   7 H :   -0.192431
   8 H :   -0.192431

  Mayer bond orders larger than 0.100000
B(  0-C ,  1-N ) :   1.1704 B(  0-C ,  2-N ) :   1.1704 B(  0-C ,  3-C ) :  -0.1487
B(  0-C ,  4-C ) :  -0.1487 B(  0-C ,  6-H ) :   0.6020 B(  1-N ,  3-C ) :   1.1704
B(  2-N ,  4-C ) :   1.1704 B(  3-C ,  4-C ) :  -0.1487 B(  3-C ,  5-N ) :   1.1704
B(  3-C ,  8-H ) :   0.6020 B(  4-C ,  5-N ) :   1.1704 B(  4-C ,  7-H ) :   0.6020

MP2 TOTAL ENERGY:     -279.850304020 Eh
FINAL SINGLE POINT ENERGY      -279.850304020468

DIPOLE MOMENT
-------------
                                X             Y             Z
Electronic contribution:     -0.00000      -0.00000      -0.00000
Nuclear contribution   :      0.00000      -0.00000       0.00000
                        -----------------------------------------
Total Dipole Moment    :     -0.00000      -0.00000      -0.00000
                        -----------------------------------------
Magnitude (a.u.)       :      0.00000
Magnitude (Debye)      :      0.00000

Rotational constants in cm-1:     0.216441     0.216441     0.108221
Rotational constants in MHz :  6488.742963  6488.742506  3244.371367

                             ****ORCA TERMINATED NORMALLY****
TOTAL RUN TIME: 0 days 0 hours 2 minutes 36 seconds 722 msec
