                         Program Version 5.0.3 -  RELEASE  -
|  1> !ri-mp2 aug-cc-pvtz aug-cc-pvtz/c tightscf
|  2> %pal nprocs 16 end
|  3>
|  4> * xyz 0 1
|  5> C      2.223779   -0.070950        0.000000
|  6> C      1.362423    1.015554        0.000000
|  7> C      0.000000    0.733827        0.000000
|  8> C     -0.501452   -0.584713        0.000000
|  9> N     -1.888696   -0.569217        0.000000
| 10> C     -2.211130    0.692186        0.000000
| 11> N     -1.126415    1.533371        0.000000
| 12> C      0.383372   -1.663536        0.000000
| 13> C      1.741213   -1.390393        0.000000
| 14> H      3.291494    0.100590        0.000000
| 15> H      1.739293    2.029395        0.000000
| 16> H     -3.218802    1.076717        0.000000
| 17> H     -1.153964    2.537179        0.000000
| 18> H      0.008732   -2.677482        0.000000
| 19> H      2.449793   -2.207335        0.000000
| 20> *
| 21>
| 22>                          ****END OF INPUT****

CARTESIAN COORDINATES (ANGSTROEM)
---------------------------------
  C      2.223779   -0.070950    0.000000
  C      1.362423    1.015554    0.000000
  C      0.000000    0.733827    0.000000
  C     -0.501452   -0.584713    0.000000
  N     -1.888696   -0.569217    0.000000
  C     -2.211130    0.692186    0.000000
  N     -1.126415    1.533371    0.000000
  C      0.383372   -1.663536    0.000000
  C      1.741213   -1.390393    0.000000
  H      3.291494    0.100590    0.000000
  H      1.739293    2.029395    0.000000
  H     -3.218802    1.076717    0.000000
  H     -1.153964    2.537179    0.000000
  H      0.008732   -2.677482    0.000000
  H      2.449793   -2.207335    0.000000

 Total Charge           Charge          ....    0
 Multiplicity           Mult            ....    1
 Number of Electrons    NEL             ....   62
 Basis Dimension        Dim             ....  552

ORBITAL ENERGIES
----------------

  NO   OCC          E(Eh)            E(eV)
   0   2.0000     -15.621368      -425.0790
   1   2.0000     -15.551468      -423.1770
   2   2.0000     -11.315476      -307.9098
   3   2.0000     -11.273521      -306.7681
   4   2.0000     -11.253712      -306.2291
   5   2.0000     -11.239933      -305.8541
   6   2.0000     -11.234164      -305.6972
   7   2.0000     -11.232097      -305.6409
   8   2.0000     -11.227493      -305.5156
   9   2.0000      -1.347456       -36.6661
  10   2.0000      -1.180945       -32.1351
  11   2.0000      -1.139363       -31.0037
  12   2.0000      -1.012740       -27.5581
  13   2.0000      -1.003202       -27.2985
  14   2.0000      -0.858446       -23.3595
  15   2.0000      -0.838197       -22.8085
  16   2.0000      -0.815141       -22.1811
  17   2.0000      -0.741606       -20.1801
  18   2.0000      -0.685285       -18.6476
  19   2.0000      -0.664696       -18.0873
  20   2.0000      -0.614819       -16.7301
  21   2.0000      -0.613360       -16.6904
  22   2.0000      -0.605395       -16.4736
  23   2.0000      -0.583173       -15.8689
  24   2.0000      -0.522572       -14.2199
  25   2.0000      -0.512989       -13.9592
  26   2.0000      -0.477045       -12.9810
  27   2.0000      -0.437937       -11.9169
  28   2.0000      -0.431904       -11.7527
  29   2.0000      -0.316426        -8.6104
  30   2.0000      -0.306076        -8.3287
  31   0.0000       0.020202         0.5497
  32   0.0000       0.029752         0.8096
  33   0.0000       0.036153         0.9838
  34   0.0000       0.044533         1.2118
  35   0.0000       0.050390         1.3712

MULLIKEN ATOMIC CHARGES
-----------------------
   0 C :   -0.465122
   1 C :   -1.125651
   2 C :    0.952582
   3 C :    1.476851
   4 N :   -0.737969
   5 C :   -0.992180
   6 N :   -0.135838
   7 C :   -0.828792
   8 C :   -0.555963
   9 H :    0.529843
  10 H :    0.313120
  11 H :    0.644371
  12 H :    0.025878
  13 H :    0.325265
  14 H :    0.573604
Sum of atomic charges:   -0.0000000

LOEWDIN ATOMIC CHARGES
----------------------
   0 C :    0.181737
   1 C :    0.232649
   2 C :   -0.225598
   3 C :   -0.326937
   4 N :    0.393469
   5 C :   -0.054796
   6 N :    0.557279
   7 C :    0.224165
   8 C :    0.185038
   9 H :   -0.191792
  10 H :   -0.184525
  11 H :   -0.170215
  12 H :   -0.248467
  13 H :   -0.178132
  14 H :   -0.193874

  Mayer bond orders larger than 0.100000
B(  0-C ,  1-C ) :   1.5191 B(  0-C ,  2-C ) :  -0.2452 B(  0-C ,  7-C ) :  -0.1110
B(  0-C ,  8-C ) :   1.2176 B(  0-C ,  9-H ) :   0.6680 B(  1-C ,  2-C ) :   0.3495
B(  1-C ,  3-C ) :   0.1207 B(  1-C ,  6-N ) :  -0.1549 B(  1-C ,  7-C ) :   0.1413
B(  1-C ,  8-C ) :   0.1463 B(  1-C ,  9-H ) :  -0.1560 B(  1-C , 10-H ) :   1.0245
B(  2-C ,  3-C ) :   1.3566 B(  2-C ,  4-N ) :   0.1390 B(  2-C ,  5-C ) :  -0.1596
B(  2-C ,  6-N ) :   0.7901 B(  3-C ,  4-N ) :  -0.2620 B(  3-C ,  5-C ) :  -0.2221
B(  3-C ,  6-N ) :  -0.3300 B(  3-C ,  7-C ) :   0.5610 B(  3-C ,  8-C ) :  -0.1031
B(  3-C ,  9-H ) :   0.1016 B(  4-N ,  5-C ) :   1.7543 B(  4-N ,  6-N ) :  -0.1165
B(  5-C ,  6-N ) :   1.2554 B(  5-C , 11-H ) :   0.4931 B(  6-N , 12-H ) :   1.2182
B(  7-C ,  8-C ) :   1.3844 B(  7-C , 13-H ) :   1.0438 B(  7-C , 14-H ) :  -0.1341
B(  8-C ,  9-H ) :  -0.1305 B(  8-C , 14-H ) :   0.5459

MP2 TOTAL ENERGY:     -379.122969927 Eh
FINAL SINGLE POINT ENERGY      -379.122969927164

DIPOLE MOMENT
-------------
                                X             Y             Z
Electronic contribution:     -2.94027       0.55405      -0.00000
Nuclear contribution   :      3.05430       0.85229       0.00000
                        -----------------------------------------
Total Dipole Moment    :      0.11403       1.40634      -0.00000
                        -----------------------------------------
Magnitude (a.u.)       :      1.41096
Magnitude (Debye)      :      3.58637

Rotational constants in cm-1:     0.132099     0.056169     0.039411
Rotational constants in MHz :  3960.220564  1683.916020  1181.523294

                             ****ORCA TERMINATED NORMALLY****
TOTAL RUN TIME: 0 days 0 hours 6 minutes 58 seconds 125 msec
