                         Program Version 5.0.3 -  RELEASE  -
|  1> !ri-mp2 aug-cc-pvtz aug-cc-pvtz/c tightscf
|  2> %pal nprocs 16 end
|  3>
|  4> * xyz 0 1
|  5> Cl     1.571721   -0.909942    0.008496
|  6> N     -1.173896    0.820814   -0.448314
|  7> N     -1.762173   -0.193172   -0.081847
|  8> N     -2.396372   -1.096686    0.152096
|  9> C     -0.060470    1.285982    0.393333
| 10> C      1.295650    0.872078   -0.145488
| 11> H     -0.103030    2.376437    0.375286
| 12> H     -0.177806    0.958752    1.427891
| 13> H      2.090432    1.359964    0.413029
| 14> H      1.387147    1.108808   -1.201250
| 15> *
| 16>
| 17>                          ****END OF INPUT****

CARTESIAN COORDINATES (ANGSTROEM)
---------------------------------
  Cl     1.571721   -0.909942    0.008496
  N     -1.173896    0.820814   -0.448314
  N     -1.762173   -0.193172   -0.081847
  N     -2.396372   -1.096686    0.152096
  C     -0.060470    1.285982    0.393333
  C      1.295650    0.872078   -0.145488
  H     -0.103030    2.376437    0.375286
  H     -0.177806    0.958752    1.427891
  H      2.090432    1.359964    0.413029
  H      1.387147    1.108808   -1.201250

 Total Charge           Charge          ....    0
 Multiplicity           Mult            ....    1
 Number of Electrons    NEL             ....   54
 Basis Dimension        Dim             ....  372

ORBITAL ENERGIES
----------------

  NO   OCC          E(Eh)            E(eV)
   0   2.0000    -104.833242     -2852.6575
   1   2.0000     -15.785437      -429.5436
   2   2.0000     -15.668111      -426.3510
   3   2.0000     -15.610839      -424.7925
   4   2.0000     -11.309292      -307.7415
   5   2.0000     -11.300654      -307.5064
   6   2.0000     -10.557330      -287.2796
   7   2.0000      -8.024120      -218.3474
   8   2.0000      -8.022391      -218.3004
   9   2.0000      -8.022346      -218.2991
  10   2.0000      -1.510173       -41.0939
  11   2.0000      -1.299981       -35.3743
  12   2.0000      -1.145362       -31.1669
  13   2.0000      -1.032775       -28.1032
  14   2.0000      -0.884534       -24.0694
  15   2.0000      -0.755386       -20.5551
  16   2.0000      -0.716332       -19.4924
  17   2.0000      -0.705050       -19.1854
  18   2.0000      -0.677409       -18.4332
  19   2.0000      -0.628068       -17.0906
  20   2.0000      -0.619990       -16.8708
  21   2.0000      -0.582205       -15.8426
  22   2.0000      -0.524258       -14.2658
  23   2.0000      -0.454786       -12.3754
  24   2.0000      -0.445767       -12.1299
  25   2.0000      -0.439431       -11.9575
  26   2.0000      -0.384027       -10.4499
  27   0.0000       0.025543         0.6951
  28   0.0000       0.038573         1.0496
  29   0.0000       0.042632         1.1601
  30   0.0000       0.049214         1.3392
  31   0.0000       0.073638         2.0038

MULLIKEN ATOMIC CHARGES
-----------------------
   0 Cl:   -0.333310
   1 N :   -0.856242
   2 N :    1.314870
   3 N :   -0.826369
   4 C :   -0.262454
   5 C :   -0.300565
   6 H :    0.333656
   7 H :    0.362967
   8 H :    0.284991
   9 H :    0.282456
Sum of atomic charges:    0.0000000

LOEWDIN ATOMIC CHARGES
----------------------
   0 Cl:    0.878070
   1 N :    0.203861
   2 N :   -0.255461
   3 N :    0.286367
   4 C :   -0.005778
   5 C :   -0.268062
   6 H :   -0.175384
   7 H :   -0.181640
   8 H :   -0.240376
   9 H :   -0.241598

  Mayer bond orders larger than 0.100000
B(  0-Cl,  5-C ) :   0.7827 B(  1-N ,  2-N ) :   0.8548 B(  1-N ,  3-N ) :   0.4973
B(  1-N ,  4-C ) :   0.7909 B(  2-N ,  3-N ) :   1.3440 B(  4-C ,  5-C ) :   0.9877
B(  4-C ,  6-H ) :   0.8998 B(  4-C ,  7-H ) :   0.8868 B(  5-C ,  8-H ) :   0.9208
B(  5-C ,  9-H ) :   0.9275

MP2 TOTAL ENERGY:     -702.092254677 Eh
FINAL SINGLE POINT ENERGY      -702.092254676861

DIPOLE MOMENT
-------------
                                X             Y             Z
Electronic contribution:     -0.45224      -5.79204      -0.59285
Nuclear contribution   :      0.88113       6.82624       0.96159
                        -----------------------------------------
Total Dipole Moment    :      0.42889       1.03420       0.36874
                        -----------------------------------------
Magnitude (a.u.)       :      1.17877
Magnitude (Debye)      :      2.99619

Rotational constants in cm-1:     0.163124     0.063194     0.047913
Rotational constants in MHz :  4890.341066  1894.515256  1436.383820

                             ****ORCA TERMINATED NORMALLY****
TOTAL RUN TIME: 0 days 0 hours 2 minutes 40 seconds 304 msec
