                         Program Version 5.0.3 -  RELEASE  -
|  1> !ri-mp2 aug-cc-pvtz aug-cc-pvtz/c tightscf
|  2> %pal nprocs 16 end
|  3>
|  4> * xyz 0 1
|  5> N      0.000000    1.355099   -0.047558
|  6> N      0.000000    0.655407   -1.178699
|  7> N      0.000000   -0.655407   -1.178699
|  8> N      0.000000   -1.355099   -0.047558
|  9> C      0.000000   -0.693285    1.096489
| 10> C      0.000000    0.693285    1.096489
| 11> H      0.000000   -1.283068    2.004868
| 12> H      0.000000    1.283068    2.004868
| 13> *
| 14>
| 15>                          ****END OF INPUT****

CARTESIAN COORDINATES (ANGSTROEM)
---------------------------------
  N      0.000000    1.355099   -0.047558
  N      0.000000    0.655407   -1.178699
  N      0.000000   -0.655407   -1.178699
  N      0.000000   -1.355099   -0.047558
  C      0.000000   -0.693285    1.096489
  C      0.000000    0.693285    1.096489
  H      0.000000   -1.283068    2.004868
  H      0.000000    1.283068    2.004868

 Total Charge           Charge          ....    0
 Multiplicity           Mult            ....    1
 Number of Electrons    NEL             ....   42
 Basis Dimension        Dim             ....  322

ORBITAL ENERGIES
----------------

  NO   OCC          E(Eh)            E(eV)
   0   2.0000     -15.681393      -426.7124
   1   2.0000     -15.680439      -426.6864
   2   2.0000     -15.656772      -426.0424
   3   2.0000     -15.656754      -426.0419
   4   2.0000     -11.330469      -308.3177
   5   2.0000     -11.329204      -308.2833
   6   2.0000      -1.463140       -39.8141
   7   2.0000      -1.305229       -35.5171
   8   2.0000      -1.210930       -32.9511
   9   2.0000      -0.986262       -26.8375
  10   2.0000      -0.985683       -26.8218
  11   2.0000      -0.788116       -21.4457
  12   2.0000      -0.754095       -20.5200
  13   2.0000      -0.693140       -18.8613
  14   2.0000      -0.650591       -17.7035
  15   2.0000      -0.602420       -16.3927
  16   2.0000      -0.549651       -14.9568
  17   2.0000      -0.483413       -13.1543
  18   2.0000      -0.463159       -12.6032
  19   2.0000      -0.446214       -12.1421
  20   2.0000      -0.433877       -11.8064
  21   0.0000       0.018561         0.5051
  22   0.0000       0.033837         0.9208
  23   0.0000       0.036701         0.9987
  24   0.0000       0.054790         1.4909
  25   0.0000       0.070337         1.9140

MULLIKEN ATOMIC CHARGES
-----------------------
   0 N :   -0.338538
   1 N :   -0.049712
   2 N :   -0.049712
   3 N :   -0.338538
   4 C :   -0.205672
   5 C :   -0.205672
   6 H :    0.593922
   7 H :    0.593922
Sum of atomic charges:    0.0000000

LOEWDIN ATOMIC CHARGES
----------------------
   0 N :    0.184931
   1 N :    0.008233
   2 N :    0.008233
   3 N :    0.184931
   4 C :   -0.003624
   5 C :   -0.003624
   6 H :   -0.189540
   7 H :   -0.189540

  Mayer bond orders larger than 0.100000
B(  0-N ,  1-N ) :   0.5543 B(  0-N ,  2-N ) :   0.1537 B(  0-N ,  5-C ) :   1.2210
B(  1-N ,  2-N ) :   0.7919 B(  1-N ,  3-N ) :   0.1537 B(  2-N ,  3-N ) :   0.5543
B(  3-N ,  4-C ) :   1.2210 B(  4-C ,  5-C ) :   1.1886 B(  4-C ,  6-H ) :   0.6211
B(  5-C ,  7-H ) :   0.6211

MP2 TOTAL ENERGY:     -295.785328020 Eh
FINAL SINGLE POINT ENERGY      -295.785328020248

DIPOLE MOMENT
-------------
                                X             Y             Z
Electronic contribution:      0.00000      -0.00000      -1.96274
Nuclear contribution   :      0.00000       0.00000       3.84019
                        -----------------------------------------
Total Dipole Moment    :      0.00000      -0.00000       1.87744
                        -----------------------------------------
Magnitude (a.u.)       :      1.87744
Magnitude (Debye)      :      4.77208

Rotational constants in cm-1:     0.222465     0.215184     0.109382
Rotational constants in MHz :  6669.330867  6451.065423  3279.191329

                             ****ORCA TERMINATED NORMALLY****
TOTAL RUN TIME: 0 days 0 hours 1 minutes 53 seconds 41 msec
