                         Program Version 5.0.3 -  RELEASE  -
|  1> !ri-mp2 aug-cc-pvtz aug-cc-pvtz/c tightscf
|  2> %pal nprocs 16 end
|  3>
|  4> * xyz 0 1
|  5> N      0.515491    1.391494   -0.213362
|  6> H     -0.258480    1.947494    0.128733
|  7> H      1.364140    1.866364    0.068915
|  8> N     -2.061342   -0.127690    0.037236
|  9> H     -2.181732    0.757797   -0.436282
| 10> H     -2.220834    0.015135    1.026891
| 11> C     -0.749795   -0.711690   -0.229148
| 12> H     -0.747392   -1.729706    0.168410
| 13> H     -0.635640   -0.788418   -1.312659
| 14> C      1.758237   -0.700957   -0.022941
| 15> H      1.744056   -1.722779    0.358287
| 16> H      1.887491   -0.735988   -1.105935
| 17> H      2.629221   -0.200050    0.404284
| 18> C      0.469629    0.030604    0.335268
| 19> H      0.371697    0.035781    1.433164
| 20> *
| 21>
| 22>                          ****END OF INPUT****

CARTESIAN COORDINATES (ANGSTROEM)
---------------------------------
  N      0.515491    1.391494   -0.213362
  H     -0.258480    1.947494    0.128733
  H      1.364140    1.866364    0.068915
  N     -2.061342   -0.127690    0.037236
  H     -2.181732    0.757797   -0.436282
  H     -2.220834    0.015135    1.026891
  C     -0.749795   -0.711690   -0.229148
  H     -0.747392   -1.729706    0.168410
  H     -0.635640   -0.788418   -1.312659
  C      1.758237   -0.700957   -0.022941
  H      1.744056   -1.722779    0.358287
  H      1.887491   -0.735988   -1.105935
  H      2.629221   -0.200050    0.404284
  C      0.469629    0.030604    0.335268
  H      0.371697    0.035781    1.433164

 Total Charge           Charge          ....    0
 Multiplicity           Mult            ....    1
 Number of Electrons    NEL             ....   42
 Basis Dimension        Dim             ....  460

ORBITAL ENERGIES
----------------

  NO   OCC          E(Eh)            E(eV)
   0   2.0000     -15.540355      -422.8746
   1   2.0000     -15.537749      -422.8036
   2   2.0000     -11.252477      -306.1955
   3   2.0000     -11.241932      -305.9085
   4   2.0000     -11.213854      -305.1445
   5   2.0000      -1.200181       -32.6586
   6   2.0000      -1.154820       -31.4243
   7   2.0000      -1.006092       -27.3772
   8   2.0000      -0.900989       -24.5172
   9   2.0000      -0.785908       -21.3856
  10   2.0000      -0.682674       -18.5765
  11   2.0000      -0.661365       -17.9967
  12   2.0000      -0.628733       -17.1087
  13   2.0000      -0.606819       -16.5124
  14   2.0000      -0.544994       -14.8300
  15   2.0000      -0.525701       -14.3051
  16   2.0000      -0.518161       -14.0999
  17   2.0000      -0.501104       -13.6357
  18   2.0000      -0.495830       -13.4922
  19   2.0000      -0.400104       -10.8874
  20   2.0000      -0.375718       -10.2238
  21   0.0000       0.026732         0.7274
  22   0.0000       0.036329         0.9886
  23   0.0000       0.038623         1.0510
  24   0.0000       0.041709         1.1350
  25   0.0000       0.056721         1.5435

MULLIKEN ATOMIC CHARGES
-----------------------
   0 N :   -0.681585
   1 H :    0.094133
   2 H :    0.087312
   3 N :   -0.657724
   4 H :    0.093470
   5 H :    0.088517
   6 C :   -0.225902
   7 H :    0.276679
   8 H :    0.280172
   9 C :   -1.047479
  10 H :    0.285945
  11 H :    0.288603
  12 H :    0.259715
  13 C :    0.560539
  14 H :    0.297605
Sum of atomic charges:    0.0000000

LOEWDIN ATOMIC CHARGES
----------------------
   0 N :    0.850996
   1 H :   -0.333763
   2 H :   -0.324424
   3 N :    0.841286
   4 H :   -0.336790
   5 H :   -0.324778
   6 C :    0.155238
   7 H :   -0.153384
   8 H :   -0.149115
   9 C :    0.579230
  10 H :   -0.167260
  11 H :   -0.162846
  12 H :   -0.168462
  13 C :   -0.172132
  14 H :   -0.133797

  Mayer bond orders larger than 0.100000
B(  0-N ,  1-H ) :   0.9904 B(  0-N ,  2-H ) :   1.0022 B(  0-N ,  6-C ) :   0.1428
B(  0-N , 13-C ) :   0.4162 B(  3-N ,  4-H ) :   1.0317 B(  3-N ,  5-H ) :   0.9909
B(  3-N ,  6-C ) :   0.6147 B(  6-C ,  7-H ) :   0.9590 B(  6-C ,  8-H ) :   0.9751
B(  6-C , 13-C ) :   0.7658 B(  9-C , 10-H ) :   0.9559 B(  9-C , 11-H ) :   0.9614
B(  9-C , 12-H ) :   0.9967 B(  9-C , 13-C ) :   0.7600 B( 13-C , 14-H ) :   0.8759

MP2 TOTAL ENERGY:     -229.384602415 Eh
FINAL SINGLE POINT ENERGY      -229.384602415043

DIPOLE MOMENT
-------------
                                X             Y             Z
Electronic contribution:     -1.67346       0.93985      -0.10483
Nuclear contribution   :      2.06804      -0.58202       0.77975
                        -----------------------------------------
Total Dipole Moment    :      0.39458       0.35784       0.67492
                        -----------------------------------------
Magnitude (a.u.)       :      0.85980
Magnitude (Debye)      :      2.18545

Rotational constants in cm-1:     0.264809     0.115847     0.088413
Rotational constants in MHz :  7938.769574  3472.999486  2650.568036

                             ****ORCA TERMINATED NORMALLY****
TOTAL RUN TIME: 0 days 0 hours 3 minutes 35 seconds 818 msec
