                         Program Version 5.0.3 -  RELEASE  -
|  1> !ri-mp2 aug-cc-pvtz aug-cc-pvtz/c tightscf
|  2> %pal nprocs 16 end
|  3>
|  4> * xyz 0 1
|  5> N      1.990811   -0.622856   -0.629420
|  6> H      1.931431    0.145537   -1.286847
|  7> H      2.964238   -0.880555   -0.536839
|  8> C     -2.421072   -0.350244   -0.096681
|  9> H     -3.045807   -1.165912   -0.462671
| 10> H     -2.766459   -0.095407    0.908123
| 11> H     -2.614499    0.507889   -0.743569
| 12> N      0.014105    1.506798   -0.328520
| 13> H      0.497986    2.259825    0.146270
| 14> H     -0.921393    1.837328   -0.524861
| 15> C     -0.946476   -0.754688   -0.096316
| 16> H     -0.829081   -1.675676    0.479986
| 17> H     -0.616481   -0.980777   -1.110214
| 18> C      1.427116   -0.214502    0.656216
| 19> H      2.012213    0.572109    1.158562
| 20> H      1.424096   -1.077830    1.325625
| 21> C     -0.009887    0.295010    0.507813
| 22> H     -0.368749    0.512414    1.525817
| 23> *
| 24>
| 25>                          ****END OF INPUT****

CARTESIAN COORDINATES (ANGSTROEM)
---------------------------------
  N      1.990811   -0.622856   -0.629420
  H      1.931431    0.145537   -1.286847
  H      2.964238   -0.880555   -0.536839
  C     -2.421072   -0.350244   -0.096681
  H     -3.045807   -1.165912   -0.462671
  H     -2.766459   -0.095407    0.908123
  H     -2.614499    0.507889   -0.743569
  N      0.014105    1.506798   -0.328520
  H      0.497986    2.259825    0.146270
  H     -0.921393    1.837328   -0.524861
  C     -0.946476   -0.754688   -0.096316
  H     -0.829081   -1.675676    0.479986
  H     -0.616481   -0.980777   -1.110214
  C      1.427116   -0.214502    0.656216
  H      2.012213    0.572109    1.158562
  H      1.424096   -1.077830    1.325625
  C     -0.009887    0.295010    0.507813
  H     -0.368749    0.512414    1.525817

 Total Charge           Charge          ....    0
 Multiplicity           Mult            ....    1
 Number of Electrons    NEL             ....   50
 Basis Dimension        Dim             ....  552

ORBITAL ENERGIES
----------------

  NO   OCC          E(Eh)            E(eV)
   0   2.0000     -15.537861      -422.8067
   1   2.0000     -15.526925      -422.5091
   2   2.0000     -11.249526      -306.1152
   3   2.0000     -11.241663      -305.9012
   4   2.0000     -11.211054      -305.0683
   5   2.0000     -11.209218      -305.0183
   6   2.0000      -1.197259       -32.5791
   7   2.0000      -1.148559       -31.2539
   8   2.0000      -1.031123       -28.0583
   9   2.0000      -0.947953       -25.7951
  10   2.0000      -0.849407       -23.1136
  11   2.0000      -0.762918       -20.7601
  12   2.0000      -0.677425       -18.4337
  13   2.0000      -0.662677       -18.0324
  14   2.0000      -0.616757       -16.7828
  15   2.0000      -0.603476       -16.4214
  16   2.0000      -0.575522       -15.6608
  17   2.0000      -0.562259       -15.2998
  18   2.0000      -0.539345       -14.6763
  19   2.0000      -0.511384       -13.9155
  20   2.0000      -0.479498       -13.0478
  21   2.0000      -0.473675       -12.8894
  22   2.0000      -0.461362       -12.5543
  23   2.0000      -0.391241       -10.6462
  24   2.0000      -0.376585       -10.2474
  25   0.0000       0.028255         0.7689
  26   0.0000       0.034734         0.9452
  27   0.0000       0.038134         1.0377
  28   0.0000       0.038341         1.0433
  29   0.0000       0.053429         1.4539

MULLIKEN ATOMIC CHARGES
-----------------------
   0 N :   -0.611394
   1 H :    0.114525
   2 H :    0.067346
   3 C :   -0.965299
   4 H :    0.263650
   5 H :    0.262660
   6 H :    0.279546
   7 N :   -0.701194
   8 H :    0.059442
   9 H :    0.129013
  10 C :   -0.500287
  11 H :    0.238511
  12 H :    0.312795
  13 C :   -0.275934
  14 H :    0.221302
  15 H :    0.249081
  16 C :    0.506828
  17 H :    0.349409
Sum of atomic charges:    0.0000000

LOEWDIN ATOMIC CHARGES
----------------------
   0 N :    0.842236
   1 H :   -0.338802
   2 H :   -0.325920
   3 C :    0.584452
   4 H :   -0.170474
   5 H :   -0.167700
   6 H :   -0.181461
   7 N :    0.862822
   8 H :   -0.313177
   9 H :   -0.342546
  10 C :    0.271630
  11 H :   -0.145699
  12 H :   -0.152159
  13 C :    0.153541
  14 H :   -0.145341
  15 H :   -0.152335
  16 C :   -0.147889
  17 H :   -0.131177

  Mayer bond orders larger than 0.100000
B(  0-N ,  1-H ) :   0.9797 B(  0-N ,  2-H ) :   1.0189 B(  0-N , 13-C ) :   0.6944
B(  3-C ,  4-H ) :   1.0104 B(  3-C ,  5-H ) :   0.9569 B(  3-C ,  6-H ) :   0.9488
B(  3-C , 10-C ) :   0.8349 B(  7-N ,  8-H ) :   1.0316 B(  7-N ,  9-H ) :   0.9278
B(  7-N , 10-C ) :   0.1338 B(  7-N , 16-C ) :   0.3224 B( 10-C , 11-H ) :   0.9725
B( 10-C , 12-H ) :   0.9356 B( 10-C , 16-C ) :   0.8368 B( 13-C , 14-H ) :   1.0138
B( 13-C , 15-H ) :   0.9848 B( 13-C , 16-C ) :   0.8472 B( 16-C , 17-H ) :   0.8644

MP2 TOTAL ENERGY:     -268.609365242 Eh
FINAL SINGLE POINT ENERGY      -268.609365242004

DIPOLE MOMENT
-------------
                                X             Y             Z
Electronic contribution:      2.49361       0.50486      -0.39383
Nuclear contribution   :     -2.47210      -0.03820       0.93075
                        -----------------------------------------
Total Dipole Moment    :      0.02151       0.46665       0.53692
                        -----------------------------------------
Magnitude (a.u.)       :      0.71170
Magnitude (Debye)      :      1.80900

Rotational constants in cm-1:     0.187212     0.072518     0.062478
Rotational constants in MHz :  5612.463384  2174.023664  1873.050621

                             ****ORCA TERMINATED NORMALLY****
TOTAL RUN TIME: 0 days 0 hours 5 minutes 34 seconds 762 msec
