                         Program Version 5.0.3 -  RELEASE  -
|  1> !ri-mp2 aug-cc-pvtz aug-cc-pvtz/c tightscf
|  2> %pal nprocs 16 end
|  3>
|  4> * xyz 0 1
|  5> O      0.000000    0.000000    1.185426
|  6> C      0.000000    1.126270    0.321884
|  7> C      0.000000   -1.126270    0.321884
|  8> O     -0.368242   -0.630282   -0.948481
|  9> O      0.368242    0.630282   -0.948481
| 10> H     -0.997388    1.574227    0.297170
| 11> H      0.997388   -1.574227    0.297170
| 12> H      0.765842    1.843110    0.617669
| 13> H     -0.765842   -1.843110    0.617669
| 14> *
| 15>
| 16>                          ****END OF INPUT****

CARTESIAN COORDINATES (ANGSTROEM)
---------------------------------
  O      0.000000    0.000000    1.185426
  C      0.000000    1.126270    0.321884
  C      0.000000   -1.126270    0.321884
  O     -0.368242   -0.630282   -0.948481
  O      0.368242    0.630282   -0.948481
  H     -0.997388    1.574227    0.297170
  H      0.997388   -1.574227    0.297170
  H      0.765842    1.843110    0.617669
  H     -0.765842   -1.843110    0.617669

 Total Charge           Charge          ....    0
 Multiplicity           Mult            ....    1
 Number of Electrons    NEL             ....   40
 Basis Dimension        Dim             ....  322

ORBITAL ENERGIES
----------------

  NO   OCC          E(Eh)            E(eV)
   0   2.0000     -20.645836      -561.8018
   1   2.0000     -20.645549      -561.7939
   2   2.0000     -20.587429      -560.2124
   3   2.0000     -11.351983      -308.9032
   4   2.0000     -11.351966      -308.9027
   5   2.0000      -1.533395       -41.7258
   6   2.0000      -1.378154       -37.5015
   7   2.0000      -1.264414       -34.4065
   8   2.0000      -0.938948       -25.5501
   9   2.0000      -0.894736       -24.3470
  10   2.0000      -0.749512       -20.3953
  11   2.0000      -0.738125       -20.0854
  12   2.0000      -0.671738       -18.2789
  13   2.0000      -0.650899       -17.7119
  14   2.0000      -0.601100       -16.3568
  15   2.0000      -0.581365       -15.8197
  16   2.0000      -0.547759       -14.9053
  17   2.0000      -0.539408       -14.6780
  18   2.0000      -0.464927       -12.6513
  19   2.0000      -0.453633       -12.3440
  20   0.0000       0.030192         0.8216
  21   0.0000       0.038555         1.0491
  22   0.0000       0.040388         1.0990
  23   0.0000       0.055305         1.5049
  24   0.0000       0.074191         2.0188

MULLIKEN ATOMIC CHARGES
-----------------------
   0 O :   -0.550339
   1 C :   -0.038777
   2 C :   -0.038777
   3 O :   -0.411503
   4 O :   -0.411503
   5 H :    0.322471
   6 H :    0.322471
   7 H :    0.402978
   8 H :    0.402978
Sum of atomic charges:    0.0000000

LOEWDIN ATOMIC CHARGES
----------------------
   0 O :    0.530585
   1 C :   -0.254546
   2 C :   -0.254546
   3 O :    0.340743
   4 O :    0.340743
   5 H :   -0.174152
   6 H :   -0.174152
   7 H :   -0.177337
   8 H :   -0.177337

  Mayer bond orders larger than 0.100000
B(  0-O ,  1-C ) :   0.8278 B(  0-O ,  2-C ) :   0.8278 B(  1-C ,  2-C ) :   0.1702
B(  1-C ,  4-O ) :   0.8011 B(  1-C ,  5-H ) :   0.9129 B(  1-C ,  7-H ) :   0.8364
B(  2-C ,  3-O ) :   0.8011 B(  2-C ,  6-H ) :   0.9129 B(  2-C ,  8-H ) :   0.8364
B(  3-O ,  4-O ) :   0.8719

MP2 TOTAL ENERGY:     -303.702971837 Eh
FINAL SINGLE POINT ENERGY      -303.702971836669

DIPOLE MOMENT
-------------
                                X             Y             Z
Electronic contribution:      0.00000      -0.00000      -1.31886
Nuclear contribution   :      0.00000       0.00000       1.79627
                        -----------------------------------------
Total Dipole Moment    :      0.00000      -0.00000       0.47741
                        -----------------------------------------
Magnitude (a.u.)       :      0.47741
Magnitude (Debye)      :      1.21349

Rotational constants in cm-1:     0.275687     0.269488     0.152242
Rotational constants in MHz :  8264.889395  8079.053836  4564.098199

                             ****ORCA TERMINATED NORMALLY****
TOTAL RUN TIME: 0 days 0 hours 1 minutes 36 seconds 663 msec
