                         Program Version 5.0.3 -  RELEASE  -
|  1> !ri-mp2 aug-cc-pvtz aug-cc-pvtz/c tightscf
|  2> %pal nprocs 16 end
|  3>
|  4> * xyz 0 1
|  5> C     -0.016408   -1.487716    0.709392
|  6> C     -0.016408   -1.487716   -0.709392
|  7> C     -0.016408   -0.174043    1.115752
|  8> C     -0.016408   -0.174043   -1.115752
|  9> C      0.066679    2.069240    0.000000
| 10> N     -0.023110    0.623459    0.000000
| 11> H     -0.026850   -2.347321    1.357432
| 12> H     -0.026850   -2.347321   -1.357432
| 13> H     -0.017376    0.257756    2.101616
| 14> H     -0.017376    0.257756   -2.101616
| 15> H     -0.430683    2.466938    0.882657
| 16> H      1.105307    2.406717    0.000000
| 17> H     -0.430683    2.466938   -0.882657
| 18> *
| 19>
| 20>                          ****END OF INPUT****

CARTESIAN COORDINATES (ANGSTROEM)
---------------------------------
  C     -0.016408   -1.487716    0.709392
  C     -0.016408   -1.487716   -0.709392
  C     -0.016408   -0.174043    1.115752
  C     -0.016408   -0.174043   -1.115752
  C      0.066679    2.069240    0.000000
  N     -0.023110    0.623459    0.000000
  H     -0.026850   -2.347321    1.357432
  H     -0.026850   -2.347321   -1.357432
  H     -0.017376    0.257756    2.101616
  H     -0.017376    0.257756   -2.101616
  H     -0.430683    2.466938    0.882657
  H      1.105307    2.406717    0.000000
  H     -0.430683    2.466938   -0.882657

 Total Charge           Charge          ....    0
 Multiplicity           Mult            ....    1
 Number of Electrons    NEL             ....   44
 Basis Dimension        Dim             ....  437

ORBITAL ENERGIES
----------------

  NO   OCC          E(Eh)            E(eV)
   0   2.0000     -15.605034      -424.6346
   1   2.0000     -11.272356      -306.7364
   2   2.0000     -11.246010      -306.0195
   3   2.0000     -11.245969      -306.0184
   4   2.0000     -11.205699      -304.9226
   5   2.0000     -11.204637      -304.8937
   6   2.0000      -1.299442       -35.3596
   7   2.0000      -1.073267       -29.2051
   8   2.0000      -0.974996       -26.5310
   9   2.0000      -0.934505       -25.4292
  10   2.0000      -0.773256       -21.0414
  11   2.0000      -0.751140       -20.4396
  12   2.0000      -0.709345       -19.3023
  13   2.0000      -0.634029       -17.2528
  14   2.0000      -0.604416       -16.4470
  15   2.0000      -0.572306       -15.5732
  16   2.0000      -0.563346       -15.3294
  17   2.0000      -0.528969       -14.3940
  18   2.0000      -0.525131       -14.2895
  19   2.0000      -0.521562       -14.1924
  20   2.0000      -0.334089        -9.0910
  21   2.0000      -0.294658        -8.0180
  22   0.0000       0.026987         0.7343
  23   0.0000       0.035820         0.9747
  24   0.0000       0.038024         1.0347
  25   0.0000       0.044893         1.2216
  26   0.0000       0.049659         1.3513

MULLIKEN ATOMIC CHARGES
-----------------------
   0 C :   -0.682896
   1 C :   -0.682896
   2 C :   -0.603874
   3 C :   -0.603874
   4 C :   -0.925152
   5 N :    0.279542
   6 H :    0.421324
   7 H :    0.421324
   8 H :    0.681187
   9 H :    0.681187
  10 H :    0.348613
  11 H :    0.316901
  12 H :    0.348613
Sum of atomic charges:    0.0000000

LOEWDIN ATOMIC CHARGES
----------------------
   0 C :    0.171941
   1 C :    0.171941
   2 C :    0.105290
   3 C :    0.105290
   4 C :    0.517902
   5 N :    0.168971
   6 H :   -0.201949
   7 H :   -0.201949
   8 H :   -0.176288
   9 H :   -0.176288
  10 H :   -0.164917
  11 H :   -0.155031
  12 H :   -0.164917

  Mayer bond orders larger than 0.100000
B(  0-C ,  1-C ) :   1.4594 B(  0-C ,  2-C ) :   1.0960 B(  0-C ,  5-N ) :  -0.2028
B(  0-C ,  6-H ) :   0.9819 B(  1-C ,  3-C ) :   1.0960 B(  1-C ,  5-N ) :  -0.2028
B(  1-C ,  7-H ) :   0.9819 B(  2-C ,  3-C ) :   0.1991 B(  2-C ,  5-N ) :   1.0818
B(  2-C ,  8-H ) :   0.4858 B(  3-C ,  5-N ) :   1.0818 B(  3-C ,  9-H ) :   0.4858
B(  4-C ,  5-N ) :   0.8923 B(  4-C , 10-H ) :   0.9023 B(  4-C , 11-H ) :   0.9346
B(  4-C , 12-H ) :   0.9023

MP2 TOTAL ENERGY:     -248.967240938 Eh
FINAL SINGLE POINT ENERGY      -248.967240937843

DIPOLE MOMENT
-------------
                                X             Y             Z
Electronic contribution:     -0.13968      -2.37310       0.00000
Nuclear contribution   :      0.15826       3.22432       0.00000
                        -----------------------------------------
Total Dipole Moment    :      0.01857       0.85122       0.00000
                        -----------------------------------------
Magnitude (a.u.)       :      0.85142
Magnitude (Debye)      :      2.16415

Rotational constants in cm-1:     0.291608     0.118987     0.085906
Rotational constants in MHz :  8742.184540  3567.131373  2575.388630

                             ****ORCA TERMINATED NORMALLY****
TOTAL RUN TIME: 0 days 0 hours 2 minutes 57 seconds 380 msec
