                         Program Version 5.0.3 -  RELEASE  -
|  1> !ri-mp2 aug-cc-pvtz aug-cc-pvtz/c tightscf
|  2> %pal nprocs 16 end
|  3> %maxcore 3800
|  4>
|  5> * xyz 0 1
|  6> O     -2.016926   -1.216020   -0.772187
|  7> O     -1.054020   -0.153372   -1.018473
|  8> C     -0.594460    0.399667    0.242789
|  9> C     -1.748089    1.091571    0.961695
| 10> C      0.047512   -0.692223    1.111646
| 11> C      1.271993   -1.337332    0.459293
| 12> C      2.312818   -0.289435    0.056807
| 13> C      1.699456    0.775969   -0.855005
| 14> C      0.461929    1.417906   -0.220985
| 15> H     -2.812365   -0.822759   -1.154034
| 16> H     -2.514347    0.371918    1.247143
| 17> H     -2.198490    1.849073    0.318379
| 18> H     -1.393009    1.581890    1.868465
| 19> H      0.337697   -0.229451    2.059796
| 20> H     -0.704912   -1.445089    1.346701
| 21> H      0.955390   -1.894817   -0.424991
| 22> H      1.710071   -2.062943    1.147967
| 23> H      3.159370   -0.767676   -0.440398
| 24> H      2.711283    0.189455    0.958403
| 25> H      1.423587    0.321303   -1.808390
| 26> H      2.433947    1.553119   -1.077801
| 27> H     -0.005539    2.120714   -0.913867
| 28> H      0.757931    1.993648    0.660473
| 29> *
| 30>
| 31>                          ****END OF INPUT****

CARTESIAN COORDINATES (ANGSTROEM)
---------------------------------
  O     -2.016926   -1.216020   -0.772187
  O     -1.054020   -0.153372   -1.018473
  C     -0.594460    0.399667    0.242789
  C     -1.748089    1.091571    0.961695
  C      0.047512   -0.692223    1.111646
  C      1.271993   -1.337332    0.459293
  C      2.312818   -0.289435    0.056807
  C      1.699456    0.775969   -0.855005
  C      0.461929    1.417906   -0.220985
  H     -2.812365   -0.822759   -1.154034
  H     -2.514347    0.371918    1.247143
  H     -2.198490    1.849073    0.318379
  H     -1.393009    1.581890    1.868465
  H      0.337697   -0.229451    2.059796
  H     -0.704912   -1.445089    1.346701
  H      0.955390   -1.894817   -0.424991
  H      1.710071   -2.062943    1.147967
  H      3.159370   -0.767676   -0.440398
  H      2.711283    0.189455    0.958403
  H      1.423587    0.321303   -1.808390
  H      2.433947    1.553119   -1.077801
  H     -0.005539    2.120714   -0.913867
  H      0.757931    1.993648    0.660473

 Total Charge           Charge          ....    0
 Multiplicity           Mult            ....    1
 Number of Electrons    NEL             ....   72
 Basis Dimension        Dim             ....  736

ORBITAL ENERGIES
----------------

  NO   OCC          E(Eh)            E(eV)
   0   2.0000     -20.615517      -560.9767
   1   2.0000     -20.612618      -560.8979
   2   2.0000     -11.286961      -307.1338
   3   2.0000     -11.219914      -305.3094
   4   2.0000     -11.214925      -305.1736
   5   2.0000     -11.213422      -305.1327
   6   2.0000     -11.212480      -305.1071
   7   2.0000     -11.211793      -305.0884
   8   2.0000     -11.209672      -305.0307
   9   2.0000      -1.460155       -39.7328
  10   2.0000      -1.227511       -33.4023
  11   2.0000      -1.099222       -29.9113
  12   2.0000      -1.023015       -27.8377
  13   2.0000      -1.004816       -27.3424
  14   2.0000      -0.926377       -25.2080
  15   2.0000      -0.839189       -22.8355
  16   2.0000      -0.799543       -21.7567
  17   2.0000      -0.741928       -20.1889
  18   2.0000      -0.705683       -19.2026
  19   2.0000      -0.664028       -18.0691
  20   2.0000      -0.629654       -17.1338
  21   2.0000      -0.625448       -17.0193
  22   2.0000      -0.601784       -16.3754
  23   2.0000      -0.586347       -15.9553
  24   2.0000      -0.575839       -15.6694
  25   2.0000      -0.546249       -14.8642
  26   2.0000      -0.536580       -14.6011
  27   2.0000      -0.527114       -14.3435
  28   2.0000      -0.519258       -14.1297
  29   2.0000      -0.495469       -13.4824
  30   2.0000      -0.484957       -13.1964
  31   2.0000      -0.476460       -12.9651
  32   2.0000      -0.462398       -12.5825
  33   2.0000      -0.447924       -12.1886
  34   2.0000      -0.426198       -11.5974
  35   2.0000      -0.418068       -11.3762
  36   0.0000       0.028086         0.7643
  37   0.0000       0.032956         0.8968
  38   0.0000       0.035116         0.9556
  39   0.0000       0.037559         1.0220
  40   0.0000       0.049673         1.3517

MULLIKEN ATOMIC CHARGES
-----------------------
   0 O :   -0.397951
   1 O :   -0.716375
   2 C :    2.299075
   3 C :   -1.496846
   4 C :   -0.748024
   5 C :   -0.550199
   6 C :   -0.476518
   7 C :   -0.546232
   8 C :   -0.855164
   9 H :    0.197056
  10 H :    0.261752
  11 H :    0.220768
  12 H :    0.229300
  13 H :    0.273261
  14 H :    0.318892
  15 H :    0.162016
  16 H :    0.334121
  17 H :    0.282122
  18 H :    0.133793
  19 H :    0.180880
  20 H :    0.325344
  21 H :    0.328986
  22 H :    0.239944
Sum of atomic charges:   -0.0000000

LOEWDIN ATOMIC CHARGES
----------------------
   0 O :    0.598145
   1 O :    0.398558
   2 C :   -0.580426
   3 C :    0.584184
   4 C :    0.290183
   5 C :    0.298516
   6 C :    0.293258
   7 C :    0.297958
   8 C :    0.286713
   9 H :   -0.543402
  10 H :   -0.173246
  11 H :   -0.160810
  12 H :   -0.160255
  13 H :   -0.137811
  14 H :   -0.156328
  15 H :   -0.143461
  16 H :   -0.141070
  17 H :   -0.142283
  18 H :   -0.141220
  19 H :   -0.148108
  20 H :   -0.142048
  21 H :   -0.139703
  22 H :   -0.137343

  Mayer bond orders larger than 0.100000
B(  0-O ,  1-O ) :   0.9033 B(  0-O ,  2-C ) :  -0.2912 B(  0-O ,  9-H ) :   0.9985
B(  1-O ,  3-C ) :   0.1144 B(  1-O ,  4-C ) :   0.1593 B(  1-O ,  8-C ) :   0.2414
B(  2-C ,  3-C ) :   0.2214 B(  2-C ,  4-C ) :   0.8197 B(  2-C ,  8-C ) :   0.4805
B(  2-C , 12-H ) :  -0.1267 B(  3-C , 10-H ) :   1.0360 B(  3-C , 11-H ) :   1.1097
B(  3-C , 12-H ) :   1.0989 B(  4-C ,  5-C ) :   0.9566 B(  4-C ,  6-C ) :   0.1189
B(  4-C ,  8-C ) :   0.1559 B(  4-C , 13-H ) :   0.9694 B(  4-C , 14-H ) :   0.9121
B(  5-C ,  6-C ) :   0.8586 B(  5-C , 15-H ) :   1.0678 B(  5-C , 16-H ) :   0.8947
B(  6-C ,  7-C ) :   0.8499 B(  6-C ,  8-C ) :   0.1237 B(  6-C , 17-H ) :   0.9362
B(  6-C , 18-H ) :   1.0236 B(  7-C ,  8-C ) :   1.0023 B(  7-C , 19-H ) :   1.0518
B(  7-C , 20-H ) :   0.9011 B(  8-C , 21-H ) :   0.9243 B(  8-C , 22-H ) :   1.0559

MP2 TOTAL ENERGY:     -424.739663080 Eh
FINAL SINGLE POINT ENERGY      -424.739663079708

DIPOLE MOMENT
-------------
                                X             Y             Z
Electronic contribution:     -4.17180      -2.34709      -3.56526
Nuclear contribution   :      3.95962       2.84263       3.90500
                        -----------------------------------------
Total Dipole Moment    :     -0.21218       0.49554       0.33974
                        -----------------------------------------
Magnitude (a.u.)       :      0.63719
Magnitude (Debye)      :      1.61960

Rotational constants in cm-1:     0.078870     0.044111     0.039672
Rotational constants in MHz :  2364.464359  1322.425775  1189.324418

                             ****ORCA TERMINATED NORMALLY****
TOTAL RUN TIME: 0 days 0 hours 16 minutes 39 seconds 582 msec
