                         Program Version 5.0.3 -  RELEASE  -
|  1> !ri-mp2 aug-cc-pvtz aug-cc-pvtz/c tightscf
|  2> %pal nprocs 16 end
|  3>
|  4> * xyz 0 1
|  5> C      0.645337   -1.483107    0.000000
|  6> C      1.115639   -0.197648    0.000000
|  7> C     -1.077575   -0.225768    0.000000
|  8> C     -0.022919    2.058005    0.000000
|  9> N     -0.726800   -1.489807    0.000000
| 10> N      0.000000    0.608310    0.000000
| 11> H      1.214722   -2.396921    0.000000
| 12> H      2.111503    0.208433    0.000000
| 13> H     -2.087758    0.150798    0.000000
| 14> H      0.471699    2.452768    0.887470
| 15> H      0.471699    2.452768   -0.887470
| 16> H     -1.057157    2.393731    0.000000
| 17> *
| 18>
| 19>                          ****END OF INPUT****

CARTESIAN COORDINATES (ANGSTROEM)
---------------------------------
  C      0.645337   -1.483107    0.000000
  C      1.115639   -0.197648    0.000000
  C     -1.077575   -0.225768    0.000000
  C     -0.022919    2.058005    0.000000
  N     -0.726800   -1.489807    0.000000
  N      0.000000    0.608310    0.000000
  H      1.214722   -2.396921    0.000000
  H      2.111503    0.208433    0.000000
  H     -2.087758    0.150798    0.000000
  H      0.471699    2.452768    0.887470
  H      0.471699    2.452768   -0.887470
  H     -1.057157    2.393731    0.000000

 Total Charge           Charge          ....    0
 Multiplicity           Mult            ....    1
 Number of Electrons    NEL             ....   44
 Basis Dimension        Dim             ....  414

ORBITAL ENERGIES
----------------

  NO   OCC          E(Eh)            E(eV)
   0   2.0000     -15.621250      -425.0758
   1   2.0000     -15.539349      -422.8472
   2   2.0000     -11.289926      -307.2145
   3   2.0000     -11.285457      -307.0929
   4   2.0000     -11.253750      -306.2301
   5   2.0000     -11.239501      -305.8424
   6   2.0000      -1.344151       -36.5762
   7   2.0000      -1.182912       -32.1887
   8   2.0000      -1.014115       -27.5955
   9   2.0000      -0.967297       -26.3215
  10   2.0000      -0.805490       -21.9185
  11   2.0000      -0.784801       -21.3555
  12   2.0000      -0.720595       -19.6084
  13   2.0000      -0.651272       -17.7220
  14   2.0000      -0.619786       -16.8652
  15   2.0000      -0.591140       -16.0857
  16   2.0000      -0.575343       -15.6559
  17   2.0000      -0.557876       -15.1806
  18   2.0000      -0.552896       -15.0451
  19   2.0000      -0.430949       -11.7267
  20   2.0000      -0.383268       -10.4292
  21   2.0000      -0.317009        -8.6262
  22   0.0000       0.022571         0.6142
  23   0.0000       0.034268         0.9325
  24   0.0000       0.040756         1.1090
  25   0.0000       0.041440         1.1276
  26   0.0000       0.051467         1.4005

MULLIKEN ATOMIC CHARGES
-----------------------
   0 C :   -0.287735
   1 C :   -0.853053
   2 C :   -0.455336
   3 C :   -0.863405
   4 N :   -0.683012
   5 N :    0.363788
   6 H :    0.582300
   7 H :    0.531561
   8 H :    0.635479
   9 H :    0.327077
  10 H :    0.327077
  11 H :    0.375259
Sum of atomic charges:   -0.0000000

LOEWDIN ATOMIC CHARGES
----------------------
   0 C :   -0.010627
   1 C :    0.109104
   2 C :   -0.092389
   3 C :    0.524914
   4 N :    0.340239
   5 N :    0.174535
   6 H :   -0.207392
   7 H :   -0.179017
   8 H :   -0.175379
   9 H :   -0.157618
  10 H :   -0.157618
  11 H :   -0.168753

  Mayer bond orders larger than 0.100000
B(  0-C ,  1-C ) :   1.5343 B(  0-C ,  2-C ) :  -0.1402 B(  0-C ,  4-N ) :   0.8717
B(  0-C ,  5-N ) :  -0.1996 B(  0-C ,  6-H ) :   0.6638 B(  1-C ,  3-C ) :  -0.1139
B(  1-C ,  4-N ) :   0.1114 B(  1-C ,  5-N ) :   1.0316 B(  1-C ,  7-H ) :   0.7621
B(  2-C ,  4-N ) :   1.3008 B(  2-C ,  5-N ) :   1.2106 B(  2-C ,  8-H ) :   0.5409
B(  3-C ,  5-N ) :   0.8366 B(  3-C ,  9-H ) :   0.9317 B(  3-C , 10-H ) :   0.9317
B(  3-C , 11-H ) :   0.8588 B(  4-N ,  5-N ) :  -0.1624

MP2 TOTAL ENERGY:     -265.013353778 Eh
FINAL SINGLE POINT ENERGY      -265.013353777935

DIPOLE MOMENT
-------------
                                X             Y             Z
Electronic contribution:     -0.73005      -3.67697      -0.00000
Nuclear contribution   :      1.12766       5.29028       0.00000
                        -----------------------------------------
Total Dipole Moment    :      0.39761       1.61332      -0.00000
                        -----------------------------------------
Magnitude (a.u.)       :      1.66159
Magnitude (Debye)      :      4.22343

Rotational constants in cm-1:     0.307477     0.120703     0.088116
Rotational constants in MHz :  9217.937616  3618.574322  2641.641924

                             ****ORCA TERMINATED NORMALLY****
TOTAL RUN TIME: 0 days 0 hours 2 minutes 37 seconds 192 msec
