                         Program Version 5.0.3 -  RELEASE  -
|  1> !ri-mp2 aug-cc-pvtz aug-cc-pvtz/c tightscf
|  2> %pal nprocs 16 end
|  3>
|  4> * xyz 0 1
|  5> O     -1.482146   -1.542331    0.230188
|  6> O     -0.780161    0.943861    1.241654
|  7> O     -0.288525    1.618368   -0.871586
|  8> O      2.697279    0.071265    0.337982
|  9> N      0.716696   -0.999336   -0.393493
| 10> C     -0.677117   -0.691619   -0.564145
| 11> C     -1.055012    0.730034   -0.123074
| 12> C      1.681516   -0.387203   -0.003450
| 13> H     -1.203672   -2.453161    0.090455
| 14> H     -1.228041    0.256337    1.750743
| 15> H     -0.405482    2.503660   -0.509998
| 16> H     -0.919496   -0.810808   -1.623032
| 17> H     -2.128076    0.862744   -0.315611
| 18> *
| 19>
| 20>                          ****END OF INPUT****

CARTESIAN COORDINATES (ANGSTROEM)
---------------------------------
  O     -1.482146   -1.542331    0.230188
  O     -0.780161    0.943861    1.241654
  O     -0.288525    1.618368   -0.871586
  O      2.697279    0.071265    0.337982
  N      0.716696   -0.999336   -0.393493
  C     -0.677117   -0.691619   -0.564145
  C     -1.055012    0.730034   -0.123074
  C      1.681516   -0.387203   -0.003450
  H     -1.203672   -2.453161    0.090455
  H     -1.228041    0.256337    1.750743
  H     -0.405482    2.503660   -0.509998
  H     -0.919496   -0.810808   -1.623032
  H     -2.128076    0.862744   -0.315611

 Total Charge           Charge          ....    0
 Multiplicity           Mult            ....    1
 Number of Electrons    NEL             ....   62
 Basis Dimension        Dim             ....  483

ORBITAL ENERGIES
----------------

  NO   OCC          E(Eh)            E(eV)
   0   2.0000     -20.609236      -560.8058
   1   2.0000     -20.594805      -560.4131
   2   2.0000     -20.588343      -560.2373
   3   2.0000     -20.582615      -560.0814
   4   2.0000     -15.585515      -424.1034
   5   2.0000     -11.403636      -310.3087
   6   2.0000     -11.359624      -309.1111
   7   2.0000     -11.358920      -309.0919
   8   2.0000      -1.463473       -39.8231
   9   2.0000      -1.442453       -39.2511
  10   2.0000      -1.404063       -38.2065
  11   2.0000      -1.354893       -36.8685
  12   2.0000      -1.267907       -34.5015
  13   2.0000      -1.019536       -27.7430
  14   2.0000      -0.890720       -24.2377
  15   2.0000      -0.788436       -21.4544
  16   2.0000      -0.751193       -20.4410
  17   2.0000      -0.733583       -19.9618
  18   2.0000      -0.728725       -19.8296
  19   2.0000      -0.698401       -19.0045
  20   2.0000      -0.663406       -18.0522
  21   2.0000      -0.641759       -17.4631
  22   2.0000      -0.626337       -17.0435
  23   2.0000      -0.595711       -16.2101
  24   2.0000      -0.577998       -15.7281
  25   2.0000      -0.560484       -15.2515
  26   2.0000      -0.521437       -14.1890
  27   2.0000      -0.506557       -13.7841
  28   2.0000      -0.486644       -13.2423
  29   2.0000      -0.440049       -11.9743
  30   2.0000      -0.429975       -11.7002
  31   0.0000       0.024616         0.6698
  32   0.0000       0.033850         0.9211
  33   0.0000       0.038932         1.0594
  34   0.0000       0.045609         1.2411
  35   0.0000       0.056223         1.5299

MULLIKEN ATOMIC CHARGES
-----------------------
   0 O :   -0.598778
   1 O :   -0.628309
   2 O :   -0.583902
   3 O :   -0.461622
   4 N :   -0.089978
   5 C :    0.660767
   6 C :    0.510244
   7 C :   -0.046317
   8 H :    0.155088
   9 H :    0.186207
  10 H :    0.154589
  11 H :    0.366233
  12 H :    0.375778
Sum of atomic charges:    0.0000000

LOEWDIN ATOMIC CHARGES
----------------------
   0 O :    0.827813
   1 O :    0.831533
   2 O :    0.830728
   3 O :    0.396942
   4 N :    0.314854
   5 C :   -0.447251
   6 C :   -0.543374
   7 C :   -0.480298
   8 H :   -0.474843
   9 H :   -0.495407
  10 H :   -0.465765
  11 H :   -0.152688
  12 H :   -0.142244

  Mayer bond orders larger than 0.100000
B(  0-O ,  5-C ) :   0.7012 B(  0-O ,  8-H ) :   1.0035 B(  1-O ,  6-C ) :   0.6661
B(  1-O ,  9-H ) :   0.9875 B(  2-O ,  6-C ) :   0.7929 B(  2-O , 10-H ) :   1.0200
B(  3-O ,  4-N ) :  -0.1491 B(  3-O ,  7-C ) :   1.9462 B(  4-N ,  5-C ) :   0.3736
B(  4-N ,  7-C ) :   1.9106 B(  5-C ,  6-C ) :   0.9664 B(  5-C ,  7-C ) :  -0.1630
B(  5-C , 11-H ) :   0.9102 B(  6-C , 12-H ) :   0.8936

MP2 TOTAL ENERGY:     -472.255611142 Eh
FINAL SINGLE POINT ENERGY      -472.255611141676

DIPOLE MOMENT
-------------
                                X             Y             Z
Electronic contribution:      4.48441      -0.69956       0.34714
Nuclear contribution   :     -5.74815       0.36192      -0.58179
                        -----------------------------------------
Total Dipole Moment    :     -1.26374      -0.33764      -0.23465
                        -----------------------------------------
Magnitude (a.u.)       :      1.32895
Magnitude (Debye)      :      3.37793

Rotational constants in cm-1:     0.089729     0.059630     0.045932
Rotational constants in MHz :  2690.015900  1787.651242  1376.995947

                             ****ORCA TERMINATED NORMALLY****
TOTAL RUN TIME: 0 days 0 hours 3 minutes 49 seconds 337 msec
