                         Program Version 5.0.3 -  RELEASE  -
|  1> !ri-mp2 aug-cc-pvtz aug-cc-pvtz/c tightscf
|  2> %pal nprocs 16 end
|  3>
|  4> * xyz 0 1
|  5> F      2.208132    0.011420        0.000000
|  6> N     -2.522866   -0.216097        0.000001
|  7> C     -0.054551    0.505268        0.000000
|  8> C      0.934896   -0.381578        0.000000
|  9> C     -1.412545    0.093056        0.000000
| 10> H      0.158393    1.565950        0.000001
| 11> H      0.821683   -1.456525        0.000000
| 12> *
| 13>
| 14>                          ****END OF INPUT****

CARTESIAN COORDINATES (ANGSTROEM)
---------------------------------
  F      2.208132    0.011420    0.000000
  N     -2.522866   -0.216097    0.000001
  C     -0.054551    0.505268    0.000000
  C      0.934896   -0.381578    0.000000
  C     -1.412545    0.093056    0.000000
  H      0.158393    1.565950    0.000001
  H      0.821683   -1.456525    0.000000

 Total Charge           Charge          ....    0
 Multiplicity           Mult            ....    1
 Number of Electrons    NEL             ....   36
 Basis Dimension        Dim             ....  276

ORBITAL ENERGIES
----------------

  NO   OCC          E(Eh)            E(eV)
   0   2.0000     -26.355706      -717.1752
   1   2.0000     -15.584988      -424.0891
   2   2.0000     -11.384570      -309.7899
   3   2.0000     -11.298751      -307.4547
   4   2.0000     -11.290976      -307.2431
   5   2.0000      -1.674605       -45.5683
   6   2.0000      -1.236803       -33.6551
   7   2.0000      -1.118812       -30.4444
   8   2.0000      -0.913648       -24.8616
   9   2.0000      -0.805871       -21.9289
  10   2.0000      -0.756895       -20.5962
  11   2.0000      -0.734122       -19.9765
  12   2.0000      -0.686799       -18.6887
  13   2.0000      -0.615039       -16.7361
  14   2.0000      -0.570900       -15.5350
  15   2.0000      -0.532430       -14.4882
  16   2.0000      -0.481844       -13.1116
  17   2.0000      -0.404687       -11.0121
  18   0.0000       0.025963         0.7065
  19   0.0000       0.033111         0.9010
  20   0.0000       0.061149         1.6639
  21   0.0000       0.065224         1.7748
  22   0.0000       0.083032         2.2594

MULLIKEN ATOMIC CHARGES
-----------------------
   0 F :   -0.391184
   1 N :   -0.564603
   2 C :   -0.160627
   3 C :   -0.341413
   4 C :    0.341343
   5 H :    0.484955
   6 H :    0.631528
Sum of atomic charges:    0.0000000

LOEWDIN ATOMIC CHARGES
----------------------
   0 F :    0.488820
   1 N :    0.254524
   2 C :    0.107093
   3 C :   -0.162028
   4 C :   -0.286019
   5 H :   -0.208442
   6 H :   -0.193949

  Mayer bond orders larger than 0.100000
B(  0-F ,  3-C ) :   0.9198 B(  1-N ,  2-C ) :  -0.1452 B(  1-N ,  4-C ) :   2.3798
B(  2-C ,  3-C ) :   1.6570 B(  2-C ,  4-C ) :   1.0423 B(  2-C ,  5-H ) :   0.7520
B(  3-C ,  6-H ) :   0.5237

MP2 TOTAL ENERGY:     -269.628643738 Eh
FINAL SINGLE POINT ENERGY      -269.628643738084

DIPOLE MOMENT
-------------
                                X             Y             Z
Electronic contribution:      2.30103      -0.01975      -0.00000
Nuclear contribution   :     -1.15656       0.09218       0.00000
                        -----------------------------------------
Total Dipole Moment    :      1.14447       0.07244      -0.00000
                        -----------------------------------------
Magnitude (a.u.)       :      1.14676
Magnitude (Debye)      :      2.91483

Rotational constants in cm-1:     1.655734     0.077695     0.074212
Rotational constants in MHz : 49637.654004  2329.230334  2224.830888

                             ****ORCA TERMINATED NORMALLY****
TOTAL RUN TIME: 0 days 0 hours 1 minutes 30 seconds 742 msec
