                         Program Version 5.0.3 -  RELEASE  -
|  1> !ri-mp2 aug-cc-pvtz aug-cc-pvtz/c tightscf
|  2> %pal nprocs 16 end
|  3>
|  4> * xyz 0 1
|  5> N     0.000000    1.086138    0.759003
|  6> C     0.000000    0.000000    1.598098
|  7> S     0.000000    0.000000    3.259399
|  8> C     0.000000    0.701967   -0.573500
|  9> C     0.000000    1.422352   -1.756178
| 10> C     0.000000    0.697607   -2.946432
| 11> C     0.000000   -0.697607   -2.946432
| 12> C     0.000000   -1.422352   -1.756178
| 13> C     0.000000   -0.701967   -0.573500
| 14> N     0.000000   -1.086138    0.759003
| 15> H     0.000000    2.023318    1.120645
| 16> H     0.000000    2.503243   -1.758725
| 17> H     0.000000    1.228712   -3.887766
| 18> H     0.000000   -1.228712   -3.887766
| 19> H     0.000000   -2.503243   -1.758725
| 20> H     0.000000   -2.023318    1.120645
| 21> *
| 22>
| 23>                          ****END OF INPUT****

CARTESIAN COORDINATES (ANGSTROEM)
---------------------------------
  N      0.000000    1.086138    0.759003
  C      0.000000    0.000000    1.598098
  S      0.000000    0.000000    3.259399
  C      0.000000    0.701967   -0.573500
  C      0.000000    1.422352   -1.756178
  C      0.000000    0.697607   -2.946432
  C      0.000000   -0.697607   -2.946432
  C      0.000000   -1.422352   -1.756178
  C      0.000000   -0.701967   -0.573500
  N      0.000000   -1.086138    0.759003
  H      0.000000    2.023318    1.120645
  H      0.000000    2.503243   -1.758725
  H      0.000000    1.228712   -3.887766
  H      0.000000   -1.228712   -3.887766
  H      0.000000   -2.503243   -1.758725
  H      0.000000   -2.023318    1.120645

 Total Charge           Charge          ....    0
 Multiplicity           Mult            ....    1
 Number of Electrons    NEL             ....   78
 Basis Dimension        Dim             ....  602

ORBITAL ENERGIES
----------------

  NO   OCC          E(Eh)            E(eV)
   0   2.0000     -91.895780     -2500.6113
   1   2.0000     -15.633808      -425.4175
   2   2.0000     -15.633779      -425.4168
   3   2.0000     -11.382972      -309.7464
   4   2.0000     -11.302290      -307.5509
   5   2.0000     -11.301105      -307.5187
   6   2.0000     -11.260720      -306.4198
   7   2.0000     -11.260707      -306.4194
   8   2.0000     -11.252946      -306.2082
   9   2.0000     -11.251736      -306.1753
  10   2.0000      -8.898771      -242.1479
  11   2.0000      -6.580437      -179.0628
  12   2.0000      -6.578329      -179.0054
  13   2.0000      -6.577797      -178.9910
  14   2.0000      -1.384994       -37.6876
  15   2.0000      -1.231427       -33.5088
  16   2.0000      -1.170623       -31.8543
  17   2.0000      -1.054064       -28.6825
  18   2.0000      -1.039349       -28.2821
  19   2.0000      -0.958837       -26.0913
  20   2.0000      -0.897793       -24.4302
  21   2.0000      -0.855507       -23.2795
  22   2.0000      -0.830720       -22.6050
  23   2.0000      -0.751110       -20.4387
  24   2.0000      -0.728595       -19.8261
  25   2.0000      -0.686070       -18.6689
  26   2.0000      -0.653652       -17.7868
  27   2.0000      -0.650832       -17.7101
  28   2.0000      -0.635051       -17.2806
  29   2.0000      -0.627723       -17.0812
  30   2.0000      -0.547468       -14.8974
  31   2.0000      -0.527849       -14.3635
  32   2.0000      -0.521711       -14.1965
  33   2.0000      -0.508957       -13.8494
  34   2.0000      -0.495659       -13.4876
  35   2.0000      -0.377826       -10.2812
  36   2.0000      -0.348836        -9.4923
  37   2.0000      -0.329787        -8.9740
  38   2.0000      -0.291978        -7.9451
  39   0.0000       0.021801         0.5932
  40   0.0000       0.025437         0.6922
  41   0.0000       0.031853         0.8668
  42   0.0000       0.043205         1.1757
  43   0.0000       0.053572         1.4578

MULLIKEN ATOMIC CHARGES
-----------------------
   0 N :   -0.072846
   1 C :   -0.323383
   2 S :   -0.682953
   3 C :    1.252032
   4 C :   -1.210214
   5 C :   -0.460999
   6 C :   -0.460990
   7 C :   -1.210229
   8 C :    1.252025
   9 N :   -0.072848
  10 H :    0.069556
  11 H :    0.385732
  12 H :    0.539910
  13 H :    0.539909
  14 H :    0.385739
  15 H :    0.069558
Sum of atomic charges:    0.0000000

LOEWDIN ATOMIC CHARGES
----------------------
   0 N :    0.507195
   1 C :   -1.036421
   2 S :    0.803147
   3 C :   -0.202914
   4 C :    0.245775
   5 C :    0.191965
   6 C :    0.191965
   7 C :    0.245775
   8 C :   -0.202914
   9 N :    0.507195
  10 H :   -0.260470
  11 H :   -0.177015
  12 H :   -0.187899
  13 H :   -0.187899
  14 H :   -0.177015
  15 H :   -0.260470

  Mayer bond orders larger than 0.100000
B(  0-N ,  1-C ) :   1.3964 B(  0-N ,  3-C ) :   0.5457 B(  0-N ,  4-C ) :  -0.1586
B(  0-N ,  8-C ) :  -0.1887 B(  0-N ,  9-N ) :  -0.2260 B(  0-N , 10-H ) :   1.2024
B(  1-C ,  2-S ) :   1.4774 B(  1-C ,  3-C ) :  -0.2760 B(  1-C ,  8-C ) :  -0.2760
B(  1-C ,  9-N ) :   1.3964 B(  3-C ,  4-C ) :   0.4990 B(  3-C ,  5-C ) :  -0.2212
B(  3-C ,  8-C ) :   1.3542 B(  3-C ,  9-N ) :  -0.1887 B(  3-C , 10-H ) :  -0.1084
B(  4-C ,  5-C ) :   1.4722 B(  4-C ,  7-C ) :   0.2250 B(  4-C , 11-H ) :   0.9142
B(  4-C , 12-H ) :  -0.1555 B(  5-C ,  6-C ) :   1.2214 B(  5-C , 12-H ) :   0.6140
B(  5-C , 13-H ) :  -0.1110 B(  6-C ,  7-C ) :   1.4722 B(  6-C ,  8-C ) :  -0.2212
B(  6-C , 12-H ) :  -0.1110 B(  6-C , 13-H ) :   0.6140 B(  7-C ,  8-C ) :   0.4990
B(  7-C ,  9-N ) :  -0.1586 B(  7-C , 13-H ) :  -0.1555 B(  7-C , 14-H ) :   0.9141
B(  8-C ,  9-N ) :   0.5457 B(  8-C , 15-H ) :  -0.1084 B(  9-N , 15-H ) :   1.2024

MP2 TOTAL ENERGY:     -776.864183197 Eh
FINAL SINGLE POINT ENERGY      -776.864183197079

DIPOLE MOMENT
-------------
                                X             Y             Z
Electronic contribution:     -0.00000      -0.00000       6.89855
Nuclear contribution   :      0.00000      -0.00000      -8.91755
                        -----------------------------------------
Total Dipole Moment    :     -0.00000      -0.00000      -2.01901
                        -----------------------------------------
Magnitude (a.u.)       :      2.01901
Magnitude (Debye)      :      5.13190

Rotational constants in cm-1:     0.130575     0.023523     0.019933
Rotational constants in MHz :  3914.530299   705.214284   597.561756

                             ****ORCA TERMINATED NORMALLY****
TOTAL RUN TIME: 0 days 0 hours 10 minutes 24 seconds 893 msec
