                         Program Version 5.0.3 -  RELEASE  -
|  1> !ri-mp2 aug-cc-pvtz aug-cc-pvtz/c tightscf
|  2> %pal nprocs 16 end
|  3>
|  4> * xyz 0 1
|  5> S     -0.941719   -0.587939    0.768936
|  6> S      1.669768    0.756964    0.287950
|  7> N     -3.415090   -0.760915   -0.639976
|  8> N      2.817085   -1.701635   -0.585142
|  9> C     -0.056728    0.618916   -0.342704
| 10> C     -2.408367   -0.687899   -0.075952
| 11> C      2.320508   -0.717745   -0.238832
| 12> C     -0.677159    2.004219   -0.337138
| 13> H     -0.021035    0.185721   -1.337080
| 14> H     -1.717428    1.940023   -0.652532
| 15> H     -0.647908    2.449729    0.656902
| 16> H     -0.145903    2.653030   -1.033882
| 17> *
| 18>
| 19>                          ****END OF INPUT****

CARTESIAN COORDINATES (ANGSTROEM)
---------------------------------
  S     -0.941719   -0.587939    0.768936
  S      1.669768    0.756964    0.287950
  N     -3.415090   -0.760915   -0.639976
  N      2.817085   -1.701635   -0.585142
  C     -0.056728    0.618916   -0.342704
  C     -2.408367   -0.687899   -0.075952
  C      2.320508   -0.717745   -0.238832
  C     -0.677159    2.004219   -0.337138
  H     -0.021035    0.185721   -1.337080
  H     -1.717428    1.940023   -0.652532
  H     -0.647908    2.449729    0.656902
  H     -0.145903    2.653030   -1.033882

 Total Charge           Charge          ....    0
 Multiplicity           Mult            ....    1
 Number of Electrons    NEL             ....   74
 Basis Dimension        Dim             ....  468

ORBITAL ENERGIES
----------------

  NO   OCC          E(Eh)            E(eV)
   0   2.0000     -92.048329     -2504.7624
   1   2.0000     -92.038984     -2504.5081
   2   2.0000     -15.603142      -424.5831
   3   2.0000     -15.599423      -424.4819
   4   2.0000     -11.366763      -309.3053
   5   2.0000     -11.315250      -307.9036
   6   2.0000     -11.312240      -307.8217
   7   2.0000     -11.275497      -306.8219
   8   2.0000      -9.047726      -246.2011
   9   2.0000      -9.038266      -245.9437
  10   2.0000      -6.729077      -183.1075
  11   2.0000      -6.727547      -183.0659
  12   2.0000      -6.726623      -183.0407
  13   2.0000      -6.719567      -182.8487
  14   2.0000      -6.717947      -182.8046
  15   2.0000      -6.716961      -182.7778
  16   2.0000      -1.250990       -34.0412
  17   2.0000      -1.246782       -33.9267
  18   2.0000      -1.166753       -31.7490
  19   2.0000      -1.058847       -28.8127
  20   2.0000      -1.024777       -27.8856
  21   2.0000      -0.873973       -23.7820
  22   2.0000      -0.736393       -20.0383
  23   2.0000      -0.707647       -19.2561
  24   2.0000      -0.645347       -17.5608
  25   2.0000      -0.615745       -16.7553
  26   2.0000      -0.603809       -16.4305
  27   2.0000      -0.580299       -15.7907
  28   2.0000      -0.570661       -15.5285
  29   2.0000      -0.557411       -15.1679
  30   2.0000      -0.548374       -14.9220
  31   2.0000      -0.539127       -14.6704
  32   2.0000      -0.532783       -14.4978
  33   2.0000      -0.483476       -13.1561
  34   2.0000      -0.467299       -12.7159
  35   2.0000      -0.410051       -11.1581
  36   2.0000      -0.404666       -11.0115
  37   0.0000       0.021162         0.5758
  38   0.0000       0.034419         0.9366
  39   0.0000       0.043698         1.1891
  40   0.0000       0.045112         1.2275
  41   0.0000       0.054725         1.4891

MULLIKEN ATOMIC CHARGES
-----------------------
   0 S :    0.085369
   1 S :    0.047218
   2 N :   -0.461944
   3 N :   -0.456407
   4 C :    0.147446
   5 C :    0.218479
   6 C :    0.180327
   7 C :   -1.013151
   8 H :    0.275771
   9 H :    0.334016
  10 H :    0.335254
  11 H :    0.307622
Sum of atomic charges:   -0.0000000

LOEWDIN ATOMIC CHARGES
----------------------
   0 S :    1.131057
   1 S :    1.137825
   2 N :    0.156645
   3 N :    0.153677
   4 C :   -0.686264
   5 C :   -0.760576
   6 C :   -0.762604
   7 C :    0.445888
   8 H :   -0.268031
   9 H :   -0.187496
  10 H :   -0.183502
  11 H :   -0.176620

  Mayer bond orders larger than 0.100000
B(  0-S ,  4-C ) :   0.8853 B(  0-S ,  5-C ) :   1.0432 B(  1-S ,  4-C ) :   0.9126
B(  1-S ,  6-C ) :   1.0368 B(  2-N ,  5-C ) :   2.4669 B(  3-N ,  6-C ) :   2.4366
B(  4-C ,  7-C ) :   0.8650 B(  4-C ,  8-H ) :   0.8956 B(  7-C ,  9-H ) :   0.9171
B(  7-C , 10-H ) :   0.9184 B(  7-C , 11-H ) :   0.9231

MP2 TOTAL ENERGY:    -1059.229778686 Eh
FINAL SINGLE POINT ENERGY     -1059.229778685538

DIPOLE MOMENT
-------------
                                X             Y             Z
Electronic contribution:      2.73328      -5.22246       2.66708
Nuclear contribution   :     -2.46542       6.94726      -2.31908
                        -----------------------------------------
Total Dipole Moment    :      0.26785       1.72480       0.34800
                        -----------------------------------------
Magnitude (a.u.)       :      1.77983
Magnitude (Debye)      :      4.52397

Rotational constants in cm-1:     0.084816     0.029318     0.024251
Rotational constants in MHz :  2542.709765   878.920708   727.036126

                             ****ORCA TERMINATED NORMALLY****
TOTAL RUN TIME: 0 days 0 hours 4 minutes 8 seconds 155 msec
