                         Program Version 5.0.3 -  RELEASE  -
|  1> !ri-mp2 aug-cc-pvtz aug-cc-pvtz/c tightscf
|  2> %pal nprocs 16 end
|  3>
|  4> * xyz 0 1
|  5> O     -0.475052   -0.494394    1.113221
|  6> O     -0.475052   -0.494394   -1.113221
|  7> C     -0.475052    0.274157    2.299349
|  8> C     -0.475052    0.274157   -2.299349
|  9> C      0.108864    0.139234    0.000000
| 10> C      1.624653   -0.011059    0.000000
| 11> H      0.536031    0.457395    2.678474
| 12> H      0.536031    0.457395   -2.678474
| 13> H     -1.025623   -0.297309    3.043115
| 14> H     -1.025623   -0.297309   -3.043115
| 15> H     -0.974551    1.238607    2.149797
| 16> H     -0.974551    1.238607   -2.149797
| 17> H     -0.175109    1.205677    0.000000
| 18> H      1.876897   -1.070780    0.000000
| 19> H      2.063428    0.459549   -0.880282
| 20> H      2.063428    0.459549    0.880282
| 21> *
| 22>
| 23>                          ****END OF INPUT****

CARTESIAN COORDINATES (ANGSTROEM)
---------------------------------
  O     -0.475052   -0.494394    1.113221
  O     -0.475052   -0.494394   -1.113221
  C     -0.475052    0.274157    2.299349
  C     -0.475052    0.274157   -2.299349
  C      0.108864    0.139234    0.000000
  C      1.624653   -0.011059    0.000000
  H      0.536031    0.457395    2.678474
  H      0.536031    0.457395   -2.678474
  H     -1.025623   -0.297309    3.043115
  H     -1.025623   -0.297309   -3.043115
  H     -0.974551    1.238607    2.149797
  H     -0.974551    1.238607   -2.149797
  H     -0.175109    1.205677    0.000000
  H      1.876897   -1.070780    0.000000
  H      2.063428    0.459549   -0.880282
  H      2.063428    0.459549    0.880282

 Total Charge           Charge          ....    0
 Multiplicity           Mult            ....    1
 Number of Electrons    NEL             ....   50
 Basis Dimension        Dim             ....  506

ORBITAL ENERGIES
----------------

  NO   OCC          E(Eh)            E(eV)
   0   2.0000     -20.555706      -559.3492
   1   2.0000     -20.555695      -559.3489
   2   2.0000     -11.333331      -308.3956
   3   2.0000     -11.273169      -306.7585
   4   2.0000     -11.273168      -306.7585
   5   2.0000     -11.216306      -305.2112
   6   2.0000      -1.411475       -38.4082
   7   2.0000      -1.343315       -36.5535
   8   2.0000      -1.020030       -27.7564
   9   2.0000      -0.947027       -25.7699
  10   2.0000      -0.912743       -24.8370
  11   2.0000      -0.817074       -22.2337
  12   2.0000      -0.690716       -18.7953
  13   2.0000      -0.683687       -18.6041
  14   2.0000      -0.657778       -17.8990
  15   2.0000      -0.625874       -17.0309
  16   2.0000      -0.592002       -16.1092
  17   2.0000      -0.568755       -15.4766
  18   2.0000      -0.568351       -15.4656
  19   2.0000      -0.545292       -14.8381
  20   2.0000      -0.527703       -14.3595
  21   2.0000      -0.496162       -13.5013
  22   2.0000      -0.471216       -12.8224
  23   2.0000      -0.441067       -12.0020
  24   2.0000      -0.414163       -11.2700
  25   0.0000       0.027987         0.7616
  26   0.0000       0.036388         0.9902
  27   0.0000       0.038525         1.0483
  28   0.0000       0.042128         1.1464
  29   0.0000       0.052983         1.4417

MULLIKEN ATOMIC CHARGES
-----------------------
   0 O :   -0.650745
   1 O :   -0.650745
   2 C :   -0.869311
   3 C :   -0.869311
   4 C :    0.733491
   5 C :   -1.004733
   6 H :    0.347956
   7 H :    0.347956
   8 H :    0.331349
   9 H :    0.331349
  10 H :    0.342904
  11 H :    0.342904
  12 H :    0.433272
  13 H :    0.264429
  14 H :    0.284617
  15 H :    0.284617
Sum of atomic charges:    0.0000000

LOEWDIN ATOMIC CHARGES
----------------------
   0 O :    0.564157
   1 O :    0.564157
   2 C :    0.320840
   3 C :    0.320840
   4 C :   -0.575460
   5 C :    0.590211
   6 H :   -0.184256
   7 H :   -0.184256
   8 H :   -0.184994
   9 H :   -0.184994
  10 H :   -0.178649
  11 H :   -0.178649
  12 H :   -0.159958
  13 H :   -0.164304
  14 H :   -0.182342
  15 H :   -0.182342

  Mayer bond orders larger than 0.100000
B(  0-O ,  2-C ) :   1.0465 B(  0-O ,  4-C ) :   0.5455 B(  0-O ,  5-C ) :   0.1122
B(  1-O ,  3-C ) :   1.0465 B(  1-O ,  4-C ) :   0.5455 B(  1-O ,  5-C ) :   0.1122
B(  2-C ,  6-H ) :   0.8743 B(  2-C ,  8-H ) :   0.9579 B(  2-C , 10-H ) :   0.8682
B(  3-C ,  7-H ) :   0.8743 B(  3-C ,  9-H ) :   0.9579 B(  3-C , 11-H ) :   0.8682
B(  4-C ,  5-C ) :   0.8986 B(  4-C , 12-H ) :   0.9082 B(  5-C , 13-H ) :   0.9459
B(  5-C , 14-H ) :   0.9398 B(  5-C , 15-H ) :   0.9398

MP2 TOTAL ENERGY:     -308.304811468 Eh
FINAL SINGLE POINT ENERGY      -308.304811468170

DIPOLE MOMENT
-------------
                                X             Y             Z
Electronic contribution:     -2.56323      -3.00252       0.00000
Nuclear contribution   :      3.00645       3.99675       0.00000
                        -----------------------------------------
Total Dipole Moment    :      0.44323       0.99423       0.00000
                        -----------------------------------------
Magnitude (a.u.)       :      1.08855
Magnitude (Debye)      :      2.76688

Rotational constants in cm-1:     0.217194     0.074275     0.061978
Rotational constants in MHz :  6511.303208  2226.721596  1858.047473

                             ****ORCA TERMINATED NORMALLY****
TOTAL RUN TIME: 0 days 0 hours 4 minutes 21 seconds 194 msec
