                         Program Version 5.0.3 -  RELEASE  -
|  1> !ri-mp2 aug-cc-pvtz aug-cc-pvtz/c tightscf
|  2> %pal nprocs 16 end
|  3>
|  4> * xyz 0 1
|  5> N      0.000000    1.067552        0.000000
|  6> N     -1.127818    0.334603        0.000000
|  7> N     -0.769838   -0.912161        0.000000
|  8> C      0.589795   -0.989098        0.000000
|  9> C      1.100389    0.282255        0.000000
| 10> H     -0.062722    2.071574        0.000000
| 11> H      1.103956   -1.933077        0.000000
| 12> H      2.101258    0.672603        0.000000
| 13> *
| 14>
| 15>                          ****END OF INPUT****

CARTESIAN COORDINATES (ANGSTROEM)
---------------------------------
  N      0.000000    1.067552    0.000000
  N     -1.127818    0.334603    0.000000
  N     -0.769838   -0.912161    0.000000
  C      0.589795   -0.989098    0.000000
  C      1.100389    0.282255    0.000000
  H     -0.062722    2.071574    0.000000
  H      1.103956   -1.933077    0.000000
  H      2.101258    0.672603    0.000000

 Total Charge           Charge          ....    0
 Multiplicity           Mult            ....    1
 Number of Electrons    NEL             ....   36
 Basis Dimension        Dim             ....  299

ORBITAL ENERGIES
----------------

  NO   OCC          E(Eh)            E(eV)
   0   2.0000     -15.664338      -426.2483
   1   2.0000     -15.645653      -425.7399
   2   2.0000     -15.600695      -424.5165
   3   2.0000     -11.291710      -307.2630
   4   2.0000     -11.259350      -306.3825
   5   2.0000      -1.443772       -39.2870
   6   2.0000      -1.207153       -32.8483
   7   2.0000      -1.088049       -29.6073
   8   2.0000      -0.874359       -23.7925
   9   2.0000      -0.840249       -22.8643
  10   2.0000      -0.770147       -20.9568
  11   2.0000      -0.644645       -17.5417
  12   2.0000      -0.637741       -17.3538
  13   2.0000      -0.622096       -16.9281
  14   2.0000      -0.518425       -14.1071
  15   2.0000      -0.444567       -12.0973
  16   2.0000      -0.424433       -11.5494
  17   2.0000      -0.365043        -9.9333
  18   0.0000       0.019830         0.5396
  19   0.0000       0.034763         0.9459
  20   0.0000       0.042377         1.1531
  21   0.0000       0.077852         2.1185
  22   0.0000       0.088999         2.4218

MULLIKEN ATOMIC CHARGES
-----------------------
   0 N :    0.293448
   1 N :   -0.449660
   2 N :   -0.274741
   3 C :   -0.301817
   4 C :   -0.589884
   5 H :    0.159466
   6 H :    0.589631
   7 H :    0.573556
Sum of atomic charges:    0.0000000

LOEWDIN ATOMIC CHARGES
----------------------
   0 N :    0.311298
   1 N :    0.113714
   2 N :    0.146317
   3 C :   -0.018963
   4 C :    0.099922
   5 H :   -0.261558
   6 H :   -0.212186
   7 H :   -0.178544

  Mayer bond orders larger than 0.100000
B(  0-N ,  1-N ) :   0.8718 B(  0-N ,  3-C ) :  -0.2220 B(  0-N ,  4-C ) :   1.1717
B(  0-N ,  5-H ) :   1.0656 B(  1-N ,  2-N ) :   1.0479 B(  1-N ,  3-C ) :   0.1836
B(  1-N ,  4-C ) :   0.1165 B(  2-N ,  3-C ) :   1.0661 B(  3-C ,  4-C ) :   1.4325
B(  3-C ,  6-H ) :   0.6431 B(  4-C ,  7-H ) :   0.6863

MP2 TOTAL ENERGY:     -241.799455260 Eh
FINAL SINGLE POINT ENERGY      -241.799455259658

DIPOLE MOMENT
-------------
                                X             Y             Z
Electronic contribution:     -1.59469       0.22154      -0.00000
Nuclear contribution   :      3.06532       0.79681       0.00000
                        -----------------------------------------
Total Dipole Moment    :      1.47064       1.01835      -0.00000
                        -----------------------------------------
Magnitude (a.u.)       :      1.78880
Magnitude (Debye)      :      4.54677

Rotational constants in cm-1:     0.336974     0.331922     0.167214
Rotational constants in MHz : 10102.218102  9950.761505  5012.958920

                             ****ORCA TERMINATED NORMALLY****
TOTAL RUN TIME: 0 days 0 hours 1 minutes 32 seconds 186 msec
