                         Program Version 5.0.3 -  RELEASE  -
|  1> !ri-mp2 aug-cc-pvtz aug-cc-pvtz/c tightscf
|  2> %pal nprocs 16 end
|  3>
|  4> * xyz 0 1
|  5> C      0.000000    0.430631        0.000000
|  6> C     -0.704353   -0.686847        0.000000
|  7> F      1.314791    0.500587        0.000000
|  8> F     -0.554822    1.630861        0.000000
|  9> F     -0.092517   -1.882156        0.000000
| 10> H     -1.780948   -0.706341        0.000000
| 11> *
| 12>
| 13>                          ****END OF INPUT****

CARTESIAN COORDINATES (ANGSTROEM)
---------------------------------
  C      0.000000    0.430631    0.000000
  C     -0.704353   -0.686847    0.000000
  F      1.314791    0.500587    0.000000
  F     -0.554822    1.630861    0.000000
  F     -0.092517   -1.882156    0.000000
  H     -1.780948   -0.706341    0.000000

 Total Charge           Charge          ....    0
 Multiplicity           Mult            ....    1
 Number of Electrons    NEL             ....   40
 Basis Dimension        Dim             ....  253

ORBITAL ENERGIES
----------------

  NO   OCC          E(Eh)            E(eV)
   0   2.0000     -26.363291      -717.3816
   1   2.0000     -26.362633      -717.3637
   2   2.0000     -26.333090      -716.5598
   3   2.0000     -11.439011      -311.2713
   4   2.0000     -11.345392      -308.7238
   5   2.0000      -1.716892       -46.7190
   6   2.0000      -1.656006       -45.0622
   7   2.0000      -1.645420       -44.7742
   8   2.0000      -1.086639       -29.5690
   9   2.0000      -0.900970       -24.5166
  10   2.0000      -0.823060       -22.3966
  11   2.0000      -0.810708       -22.0605
  12   2.0000      -0.780449       -21.2371
  13   2.0000      -0.733459       -19.9584
  14   2.0000      -0.710506       -19.3339
  15   2.0000      -0.704223       -19.1629
  16   2.0000      -0.698576       -19.0092
  17   2.0000      -0.679355       -18.4862
  18   2.0000      -0.610734       -16.6189
  19   2.0000      -0.399994       -10.8844
  20   0.0000       0.028798         0.7836
  21   0.0000       0.057218         1.5570
  22   0.0000       0.076344         2.0774
  23   0.0000       0.081010         2.2044
  24   0.0000       0.101252         2.7552

MULLIKEN ATOMIC CHARGES
-----------------------
   0 C :    0.641506
   1 C :   -0.327086
   2 F :   -0.232435
   3 F :   -0.288878
   4 F :   -0.401833
   5 H :    0.608727
Sum of atomic charges:   -0.0000000

LOEWDIN ATOMIC CHARGES
----------------------
   0 C :   -0.948180
   1 C :   -0.236719
   2 F :    0.493642
   3 F :    0.482556
   4 F :    0.449305
   5 H :   -0.240603

  Mayer bond orders larger than 0.100000
B(  0-C ,  1-C ) :   1.7836 B(  0-C ,  2-F ) :   0.8439 B(  0-C ,  3-F ) :   0.9001
B(  1-C ,  4-F ) :   0.9040 B(  1-C ,  5-H ) :   0.5772

MP2 TOTAL ENERGY:     -375.805937062 Eh
FINAL SINGLE POINT ENERGY      -375.805937061727

DIPOLE MOMENT
-------------
                                X             Y             Z
Electronic contribution:      1.64645       0.92487       0.00000
Nuclear contribution   :     -2.23482      -0.87240       0.00000
                        -----------------------------------------
Total Dipole Moment    :     -0.58837       0.05247       0.00000
                        -----------------------------------------
Magnitude (a.u.)       :      0.59071
Magnitude (Debye)      :      1.50146

Rotational constants in cm-1:     0.354520     0.128330     0.094223
Rotational constants in MHz : 10628.237852  3847.234141  2824.731349

                             ****ORCA TERMINATED NORMALLY****
TOTAL RUN TIME: 0 days 0 hours 1 minutes 5 seconds 999 msec
