                         Program Version 5.0.3 -  RELEASE  -
|  1> !ri-mp2 aug-cc-pvtz aug-cc-pvtz/c tightscf
|  2> %pal nprocs 16 end
|  3>
|  4> * xyz 0 1
|  5> S      0.000000    0.000000    3.335105
|  6> C      0.000000    0.000000    1.696705
|  7> S      0.000000    1.461876    0.723589
|  8> C      0.000039    0.699784   -0.860302
|  9> C      0.000068    1.401474   -2.063160
| 10> C      0.000035    0.696981   -3.258264
| 11> C     -0.000035   -0.696981   -3.258264
| 12> C     -0.000068   -1.401474   -2.063160
| 13> C     -0.000039   -0.699784   -0.860302
| 14> S      0.000000   -1.461876    0.723589
| 15> H      0.000110    2.482729   -2.063133
| 16> H      0.000064    1.236910   -4.194881
| 17> H     -0.000064   -1.236910   -4.194881
| 18> H     -0.000110   -2.482729   -2.063133
| 19> *
| 20>
| 21>                          ****END OF INPUT****

CARTESIAN COORDINATES (ANGSTROEM)
---------------------------------
  S      0.000000    0.000000    3.335105
  C      0.000000    0.000000    1.696705
  S      0.000000    1.461876    0.723589
  C      0.000039    0.699784   -0.860302
  C      0.000068    1.401474   -2.063160
  C      0.000035    0.696981   -3.258264
  C     -0.000035   -0.696981   -3.258264
  C     -0.000068   -1.401474   -2.063160
  C     -0.000039   -0.699784   -0.860302
  S      0.000000   -1.461876    0.723589
  H      0.000110    2.482729   -2.063133
  H      0.000064    1.236910   -4.194881
  H     -0.000064   -1.236910   -4.194881
  H     -0.000110   -2.482729   -2.063133

 Total Charge           Charge          ....    0
 Multiplicity           Mult            ....    1
 Number of Electrons    NEL             ....   94
 Basis Dimension        Dim             ....  564

ORBITAL ENERGIES
----------------

  NO   OCC          E(Eh)            E(eV)
   0   2.0000     -92.015749     -2503.8758
   1   2.0000     -92.015749     -2503.8758
   2   2.0000     -91.932896     -2501.6213
   3   2.0000     -11.384687      -309.7931
   4   2.0000     -11.304130      -307.6010
   5   2.0000     -11.302939      -307.5686
   6   2.0000     -11.270704      -306.6914
   7   2.0000     -11.270692      -306.6911
   8   2.0000     -11.264177      -306.5138
   9   2.0000     -11.262963      -306.4808
  10   2.0000      -9.015744      -245.3309
  11   2.0000      -9.015733      -245.3306
  12   2.0000      -8.935327      -243.1426
  13   2.0000      -6.696624      -182.2244
  14   2.0000      -6.696621      -182.2243
  15   2.0000      -6.695735      -182.2002
  16   2.0000      -6.695733      -182.2002
  17   2.0000      -6.694899      -182.1775
  18   2.0000      -6.694897      -182.1774
  19   2.0000      -6.616476      -180.0435
  20   2.0000      -6.615067      -180.0051
  21   2.0000      -6.613982      -179.9756
  22   2.0000      -1.219890       -33.1949
  23   2.0000      -1.149138       -31.2696
  24   2.0000      -1.077684       -29.3253
  25   2.0000      -1.054521       -28.6950
  26   2.0000      -0.999229       -27.1904
  27   2.0000      -0.952073       -25.9072
  28   2.0000      -0.852442       -23.1961
  29   2.0000      -0.831256       -22.6196
  30   2.0000      -0.754019       -20.5179
  31   2.0000      -0.695528       -18.9263
  32   2.0000      -0.667824       -18.1724
  33   2.0000      -0.656745       -17.8709
  34   2.0000      -0.627846       -17.0846
  35   2.0000      -0.582587       -15.8530
  36   2.0000      -0.576497       -15.6873
  37   2.0000      -0.548633       -14.9291
  38   2.0000      -0.531961       -14.4754
  39   2.0000      -0.509331       -13.8596
  40   2.0000      -0.504054       -13.7160
  41   2.0000      -0.478216       -13.0129
  42   2.0000      -0.439892       -11.9701
  43   2.0000      -0.398952       -10.8560
  44   2.0000      -0.350183        -9.5290
  45   2.0000      -0.343268        -9.3408
  46   2.0000      -0.308252        -8.3880
  47   0.0000       0.021724         0.5911
  48   0.0000       0.028121         0.7652
  49   0.0000       0.036448         0.9918
  50   0.0000       0.040901         1.1130
  51   0.0000       0.048295         1.3142

MULLIKEN ATOMIC CHARGES
-----------------------
   0 S :   -0.506445
   1 C :    0.310292
   2 S :   -0.324217
   3 C :    0.704788
   4 C :   -1.043952
   5 C :   -0.201954
   6 C :   -0.201963
   7 C :   -1.043969
   8 C :    0.704779
   9 S :   -0.324217
  10 H :    0.467951
  11 H :    0.495475
  12 H :    0.495477
  13 H :    0.467956
Sum of atomic charges:   -0.0000000

LOEWDIN ATOMIC CHARGES
----------------------
   0 S :    0.713843
   1 C :   -1.705951
   2 S :    1.140986
   3 C :   -0.599021
   4 C :    0.132885
   5 C :    0.194415
   6 C :    0.194415
   7 C :    0.132885
   8 C :   -0.599021
   9 S :    1.140986
  10 H :   -0.190923
  11 H :   -0.182287
  12 H :   -0.182287
  13 H :   -0.190923

  Mayer bond orders larger than 0.100000
B(  0-S ,  1-C ) :   1.5893 B(  1-C ,  2-S ) :   1.0806 B(  1-C ,  9-S ) :   1.0806
B(  2-S ,  3-C ) :   0.4889 B(  2-S ,  8-C ) :   0.2038 B(  3-C ,  4-C ) :   1.0046
B(  3-C ,  7-C ) :   0.1152 B(  3-C ,  8-C ) :   1.3502 B(  3-C ,  9-S ) :   0.2038
B(  4-C ,  5-C ) :   1.2071 B(  4-C ,  7-C ) :   0.1115 B(  4-C ,  8-C ) :   0.1152
B(  4-C , 10-H ) :   0.7549 B(  4-C , 11-H ) :  -0.1120 B(  5-C ,  6-C ) :   0.9171
B(  5-C , 11-H ) :   0.7892 B(  6-C ,  7-C ) :   1.2071 B(  6-C , 12-H ) :   0.7892
B(  7-C ,  8-C ) :   1.0046 B(  7-C , 12-H ) :  -0.1120 B(  7-C , 13-H ) :   0.7549
B(  8-C ,  9-S ) :   0.4889

MP2 TOTAL ENERGY:    -1461.762771392 Eh
FINAL SINGLE POINT ENERGY     -1461.762771391629

DIPOLE MOMENT
-------------
                                X             Y             Z
Electronic contribution:     -0.00000      -0.00000      10.00448
Nuclear contribution   :      0.00000       0.00000     -12.13104
                        -----------------------------------------
Total Dipole Moment    :     -0.00000      -0.00000      -2.12655
                        -----------------------------------------
Magnitude (a.u.)       :      2.12655
Magnitude (Debye)      :      5.40527

Rotational constants in cm-1:     0.075542     0.019997     0.015812
Rotational constants in MHz :  2264.693010   599.498394   474.018538

                             ****ORCA TERMINATED NORMALLY****
TOTAL RUN TIME: 0 days 0 hours 9 minutes 33 seconds 183 msec
