                         Program Version 5.0.3 -  RELEASE  -
|  1> !ri-mp2 aug-cc-pvtz aug-cc-pvtz/c tightscf
|  2> %pal nprocs 16 end
|  3>
|  4> * xyz 0 1
|  5> S     1.472597     3.116152    0.000000
|  6> S    -1.472597    -3.116152    0.000000
|  7> C     1.472597     1.273536    0.000000
|  8> C    -1.472597    -1.273536    0.000000
|  9> C     0.034763     0.765028    0.000000
| 10> C    -0.034763    -0.765028    0.000000
| 11> H     2.807152     3.283532    0.000000
| 12> H    -2.807152    -3.283532    0.000000
| 13> H    -0.487695     1.156420    0.876726
| 14> H    -0.487695     1.156420   -0.876726
| 15> H     0.487695    -1.156420    0.876726
| 16> H     0.487695    -1.156420   -0.876726
| 17> H    -2.001588    -0.922653   -0.884650
| 18> H    -2.001588    -0.922653    0.884650
| 19> H     2.001588     0.922653   -0.884650
| 20> H     2.001588     0.922653    0.884650
| 21> *
| 22>
| 23>                          ****END OF INPUT****

CARTESIAN COORDINATES (ANGSTROEM)
---------------------------------
  S      1.472597    3.116152    0.000000
  S     -1.472597   -3.116152    0.000000
  C      1.472597    1.273536    0.000000
  C     -1.472597   -1.273536    0.000000
  C      0.034763    0.765028    0.000000
  C     -0.034763   -0.765028    0.000000
  H      2.807152    3.283532    0.000000
  H     -2.807152   -3.283532    0.000000
  H     -0.487695    1.156420    0.876726
  H     -0.487695    1.156420   -0.876726
  H      0.487695   -1.156420    0.876726
  H      0.487695   -1.156420   -0.876726
  H     -2.001588   -0.922653   -0.884650
  H     -2.001588   -0.922653    0.884650
  H      2.001588    0.922653   -0.884650
  H      2.001588    0.922653    0.884650

 Total Charge           Charge          ....    0
 Multiplicity           Mult            ....    1
 Number of Electrons    NEL             ....   66
 Basis Dimension        Dim             ....  514

ORBITAL ENERGIES
----------------

  NO   OCC          E(Eh)            E(eV)
   0   2.0000     -91.953928     -2502.1936
   1   2.0000     -91.953928     -2502.1936
   2   2.0000     -11.266728      -306.5833
   3   2.0000     -11.266726      -306.5832
   4   2.0000     -11.240592      -305.8720
   5   2.0000     -11.239987      -305.8556
   6   2.0000      -8.954772      -243.6717
   7   2.0000      -8.954772      -243.6717
   8   2.0000      -6.636100      -180.5775
   9   2.0000      -6.636100      -180.5774
  10   2.0000      -6.635117      -180.5507
  11   2.0000      -6.635117      -180.5507
  12   2.0000      -6.634095      -180.5229
  13   2.0000      -6.634095      -180.5229
  14   2.0000      -1.110743       -30.2249
  15   2.0000      -1.055229       -28.7143
  16   2.0000      -0.979136       -26.6436
  17   2.0000      -0.900117       -24.4934
  18   2.0000      -0.823434       -22.4068
  19   2.0000      -0.809827       -22.0365
  20   2.0000      -0.672828       -18.3086
  21   2.0000      -0.616596       -16.7784
  22   2.0000      -0.615825       -16.7574
  23   2.0000      -0.579160       -15.7597
  24   2.0000      -0.554710       -15.0944
  25   2.0000      -0.537523       -14.6267
  26   2.0000      -0.510715       -13.8973
  27   2.0000      -0.490626       -13.3506
  28   2.0000      -0.478305       -13.0154
  29   2.0000      -0.454214       -12.3598
  30   2.0000      -0.444961       -12.1080
  31   2.0000      -0.359137        -9.7726
  32   2.0000      -0.358780        -9.7629
  33   0.0000       0.029407         0.8002
  34   0.0000       0.030453         0.8287
  35   0.0000       0.039183         1.0662
  36   0.0000       0.040501         1.1021
  37   0.0000       0.047314         1.2875

MULLIKEN ATOMIC CHARGES
-----------------------
   0 S :   -0.331778
   1 S :   -0.331778
   2 C :   -0.433277
   3 C :   -0.433277
   4 C :   -0.384890
   5 C :   -0.384890
   6 H :    0.034417
   7 H :    0.034417
   8 H :    0.293138
   9 H :    0.293138
  10 H :    0.293138
  11 H :    0.293138
  12 H :    0.264626
  13 H :    0.264626
  14 H :    0.264626
  15 H :    0.264626
Sum of atomic charges:    0.0000000

LOEWDIN ATOMIC CHARGES
----------------------
   0 S :    1.269384
   1 S :    1.269384
   2 C :   -0.097456
   3 C :   -0.097456
   4 C :    0.172124
   5 C :    0.172124
   6 H :   -0.587471
   7 H :   -0.587471
   8 H :   -0.160182
   9 H :   -0.160182
  10 H :   -0.160182
  11 H :   -0.160182
  12 H :   -0.218108
  13 H :   -0.218108
  14 H :   -0.218108
  15 H :   -0.218108

  Mayer bond orders larger than 0.100000
B(  0-S ,  2-C ) :   0.9894 B(  0-S ,  6-H ) :   1.1265 B(  1-S ,  3-C ) :   0.9894
B(  1-S ,  7-H ) :   1.1265 B(  2-C ,  4-C ) :   1.0566 B(  2-C , 14-H ) :   0.9338
B(  2-C , 15-H ) :   0.9338 B(  3-C ,  5-C ) :   1.0566 B(  3-C , 12-H ) :   0.9338
B(  3-C , 13-H ) :   0.9338 B(  4-C ,  5-C ) :   0.8051 B(  4-C ,  8-H ) :   0.9219
B(  4-C ,  9-H ) :   0.9219 B(  5-C , 10-H ) :   0.9219 B(  5-C , 11-H ) :   0.9219

MP2 TOTAL ENERGY:     -953.523410229 Eh
FINAL SINGLE POINT ENERGY      -953.523410228510

DIPOLE MOMENT
-------------
                                X             Y             Z
Electronic contribution:     -0.00000      -0.00000      -0.00000
Nuclear contribution   :      0.00000       0.00000       0.00000
                        -----------------------------------------
Total Dipole Moment    :     -0.00000      -0.00000      -0.00000
                        -----------------------------------------
Magnitude (a.u.)       :      0.00000
Magnitude (Debye)      :      0.00000

Rotational constants in cm-1:     0.479630     0.018571     0.018119
Rotational constants in MHz : 14378.932993   556.743990   543.197344

                             ****ORCA TERMINATED NORMALLY****
TOTAL RUN TIME: 0 days 0 hours 4 minutes 57 seconds 129 msec
