                         Program Version 5.0.3 -  RELEASE  -
|  1> !ri-mp2 aug-cc-pvtz aug-cc-pvtz/c tightscf
|  2> %pal nprocs 16 end
|  3>
|  4> * xyz 0 1
|  5> F     -0.174377   -1.959003   -0.132114
|  6> F     -2.700777   -1.150004   -0.078605
|  7> O      2.821157    0.734982   -0.401394
|  8> O      2.306279   -1.197619    0.437397
|  9> N      2.021435   -0.091571    0.012142
| 10> C      0.601826    0.299791    0.013607
| 11> C     -0.410428   -0.657728   -0.033324
| 12> C     -1.733657   -0.226270   -0.015537
| 13> C      0.291444    1.653903    0.071365
| 14> C     -2.054339    1.114433    0.058602
| 15> C     -1.032431    2.057202    0.104097
| 16> H      1.101788    2.365330    0.093910
| 17> H     -3.095956    1.401601    0.074126
| 18> H     -1.273459    3.108243    0.162559
| 19> *
| 20>
| 21>                          ****END OF INPUT****

CARTESIAN COORDINATES (ANGSTROEM)
---------------------------------
  F     -0.174377   -1.959003   -0.132114
  F     -2.700777   -1.150004   -0.078605
  O      2.821157    0.734982   -0.401394
  O      2.306279   -1.197619    0.437397
  N      2.021435   -0.091571    0.012142
  C      0.601826    0.299791    0.013607
  C     -0.410428   -0.657728   -0.033324
  C     -1.733657   -0.226270   -0.015537
  C      0.291444    1.653903    0.071365
  C     -2.054339    1.114433    0.058602
  C     -1.032431    2.057202    0.104097
  H      1.101788    2.365330    0.093910
  H     -3.095956    1.401601    0.074126
  H     -1.273459    3.108243    0.162559

 Total Charge           Charge          ....    0
 Multiplicity           Mult            ....    1
 Number of Electrons    NEL             ....   80
 Basis Dimension        Dim             ....  575

ORBITAL ENERGIES
----------------

  NO   OCC          E(Eh)            E(eV)
   0   2.0000     -26.351438      -717.0591
   1   2.0000     -26.345944      -716.9096
   2   2.0000     -20.617852      -561.0403
   3   2.0000     -20.614509      -560.9493
   4   2.0000     -15.870778      -431.8658
   5   2.0000     -11.388611      -309.8998
   6   2.0000     -11.370492      -309.4068
   7   2.0000     -11.339349      -308.5594
   8   2.0000     -11.294385      -307.3358
   9   2.0000     -11.293140      -307.3020
  10   2.0000     -11.285193      -307.0857
  11   2.0000      -1.678063       -45.6624
  12   2.0000      -1.659835       -45.1664
  13   2.0000      -1.622642       -44.1543
  14   2.0000      -1.415937       -38.5296
  15   2.0000      -1.225729       -33.3538
  16   2.0000      -1.118983       -30.4491
  17   2.0000      -1.072774       -29.1917
  18   2.0000      -0.989555       -26.9272
  19   2.0000      -0.900637       -24.5076
  20   2.0000      -0.879999       -23.9460
  21   2.0000      -0.810677       -22.0596
  22   2.0000      -0.790016       -21.4974
  23   2.0000      -0.780928       -21.2501
  24   2.0000      -0.751288       -20.4436
  25   2.0000      -0.738920       -20.1070
  26   2.0000      -0.733452       -19.9582
  27   2.0000      -0.724162       -19.7054
  28   2.0000      -0.715389       -19.4667
  29   2.0000      -0.692991       -18.8572
  30   2.0000      -0.690992       -18.8029
  31   2.0000      -0.634479       -17.2651
  32   2.0000      -0.587898       -15.9975
  33   2.0000      -0.583103       -15.8670
  34   2.0000      -0.553133       -15.0515
  35   2.0000      -0.510757       -13.8984
  36   2.0000      -0.506614       -13.7857
  37   2.0000      -0.465102       -12.6561
  38   2.0000      -0.400642       -10.9020
  39   2.0000      -0.380279       -10.3479
  40   0.0000       0.018891         0.5140
  41   0.0000       0.026967         0.7338
  42   0.0000       0.031177         0.8484
  43   0.0000       0.041845         1.1387
  44   0.0000       0.063249         1.7211

MULLIKEN ATOMIC CHARGES
-----------------------
   0 F :   -0.404772
   1 F :   -0.486464
   2 O :   -0.654572
   3 O :   -0.620160
   4 N :    0.682454
   5 C :    0.685229
   6 C :    0.391864
   7 C :    0.676503
   8 C :   -0.717547
   9 C :   -0.642084
  10 C :   -0.418426
  11 H :    0.535564
  12 H :    0.459791
  13 H :    0.512618
Sum of atomic charges:   -0.0000000

LOEWDIN ATOMIC CHARGES
----------------------
   0 F :    0.542759
   1 F :    0.519187
   2 O :    0.394137
   3 O :    0.399872
   4 N :   -0.714956
   5 C :   -0.222565
   6 C :   -0.500285
   7 C :   -0.506723
   8 C :    0.201556
   9 C :    0.212425
  10 C :    0.211168
  11 H :   -0.191420
  12 H :   -0.168564
  13 H :   -0.176591

  Mayer bond orders larger than 0.100000
B(  0-F ,  1-F ) :   0.1049 B(  0-F ,  5-C ) :   0.2066 B(  0-F ,  6-C ) :   0.3004
B(  0-F ,  7-C ) :   0.1009 B(  1-F ,  6-C ) :   0.1257 B(  1-F ,  7-C ) :   0.3326
B(  1-F ,  9-C ) :   0.1193 B(  1-F , 12-H ) :   0.1438 B(  2-O ,  3-O ) :   0.1074
B(  2-O ,  4-N ) :   1.1924 B(  2-O ,  5-C ) :   0.1372 B(  3-O ,  4-N ) :   1.2112
B(  4-N ,  5-C ) :   1.0834 B(  4-N ,  6-C ) :  -0.1321 B(  4-N ,  8-C ) :  -0.1642
B(  5-C ,  6-C ) :   0.9719 B(  5-C ,  8-C ) :   0.7812 B(  5-C , 10-C ) :  -0.1967
B(  6-C ,  7-C ) :   1.2205 B(  6-C ,  8-C ) :   0.2288 B(  6-C ,  9-C ) :   0.1641
B(  7-C ,  9-C ) :   1.2163 B(  7-C , 10-C ) :  -0.1379 B(  7-C , 12-H ) :  -0.1327
B(  8-C ,  9-C ) :   0.1487 B(  8-C , 10-C ) :   1.1658 B(  8-C , 11-H ) :   0.5768
B(  9-C , 10-C ) :   1.2675 B(  9-C , 12-H ) :   0.6506 B( 10-C , 13-H ) :   0.7363

MP2 TOTAL ENERGY:     -634.237253261 Eh
FINAL SINGLE POINT ENERGY      -634.237253261194

DIPOLE MOMENT
-------------
                                X             Y             Z
Electronic contribution:     -1.17340      -7.85045      -0.43102
Nuclear contribution   :     -0.31681       9.38525       0.50935
                        -----------------------------------------
Total Dipole Moment    :     -1.49021       1.53479       0.07833
                        -----------------------------------------
Magnitude (a.u.)       :      2.14066
Magnitude (Debye)      :      5.44114

Rotational constants in cm-1:     0.065324     0.031509     0.021604
Rotational constants in MHz :  1958.367466   944.630315   647.666569

                             ****ORCA TERMINATED NORMALLY****
TOTAL RUN TIME: 0 days 0 hours 8 minutes 11 seconds 703 msec
