                         Program Version 5.0.3 -  RELEASE  -
|  1> !ri-mp2 aug-cc-pvtz aug-cc-pvtz/c tightscf
|  2> %pal nprocs 16 end
|  3> %maxcore 3800
|  4>
|  5> * xyz 0 1
|  6> C      1.134283   -0.569029        0.000000
|  7> C      1.016492   -1.932922        0.000000
|  8> C     -0.261594   -2.526193        0.000000
|  9> C     -1.387179   -1.747660        0.000000
| 10> C     -2.441560    0.487066        0.000000
| 11> C     -2.335638    1.852213        0.000000
| 12> C     -1.064302    2.461445        0.000000
| 13> C      0.074645    1.699051        0.000000
| 14> C      0.000000    0.285851        0.000000
| 15> C     -1.289332   -0.336021        0.000000
| 16> Cl     2.747884    0.124724        0.000000
| 17> H      1.904173   -2.548108        0.000000
| 18> H     -0.340512   -3.604770        0.000000
| 19> H     -2.369483   -2.201792        0.000000
| 20> H     -3.414600    0.012616        0.000000
| 21> H     -3.225734    2.466898        0.000000
| 22> H     -0.988024    3.540457        0.000000
| 23> H      1.045261    2.171590        0.000000
| 24> *
| 25>
| 26>                          ****END OF INPUT****

CARTESIAN COORDINATES (ANGSTROEM)
---------------------------------
  C      1.134283   -0.569029    0.000000
  C      1.016492   -1.932922    0.000000
  C     -0.261594   -2.526193    0.000000
  C     -1.387179   -1.747660    0.000000
  C     -2.441560    0.487066    0.000000
  C     -2.335638    1.852213    0.000000
  C     -1.064302    2.461445    0.000000
  C      0.074645    1.699051    0.000000
  C      0.000000    0.285851    0.000000
  C     -1.289332   -0.336021    0.000000
  Cl     2.747884    0.124724    0.000000
  H      1.904173   -2.548108    0.000000
  H     -0.340512   -3.604770    0.000000
  H     -2.369483   -2.201792    0.000000
  H     -3.414600    0.012616    0.000000
  H     -3.225734    2.466898    0.000000
  H     -0.988024    3.540457    0.000000
  H      1.045261    2.171590    0.000000

 Total Charge           Charge          ....    0
 Multiplicity           Mult            ....    1
 Number of Electrons    NEL             ....   84
 Basis Dimension        Dim             ....  671

ORBITAL ENERGIES
----------------

  NO   OCC          E(Eh)            E(eV)
   0   2.0000    -104.841467     -2852.8814
   1   2.0000     -11.306595      -307.6681
   2   2.0000     -11.260336      -306.4093
   3   2.0000     -11.256700      -306.3104
   4   2.0000     -11.250233      -306.1344
   5   2.0000     -11.247874      -306.0702
   6   2.0000     -11.245979      -306.0186
   7   2.0000     -11.244905      -305.9894
   8   2.0000     -11.243720      -305.9572
   9   2.0000     -11.242917      -305.9353
  10   2.0000     -11.241750      -305.9036
  11   2.0000     -10.565072      -287.4902
  12   2.0000      -8.031925      -218.5598
  13   2.0000      -8.030119      -218.5107
  14   2.0000      -8.030097      -218.5101
  15   2.0000      -1.202929       -32.7334
  16   2.0000      -1.145387       -31.1676
  17   2.0000      -1.110618       -30.2215
  18   2.0000      -1.040300       -28.3080
  19   2.0000      -1.023404       -27.8482
  20   2.0000      -0.981055       -26.6959
  21   2.0000      -0.863771       -23.5044
  22   2.0000      -0.853890       -23.2355
  23   2.0000      -0.805995       -21.9322
  24   2.0000      -0.721106       -19.6223
  25   2.0000      -0.704615       -19.1735
  26   2.0000      -0.691556       -18.8182
  27   2.0000      -0.628546       -17.1036
  28   2.0000      -0.620303       -16.8793
  29   2.0000      -0.602475       -16.3942
  30   2.0000      -0.588319       -16.0090
  31   2.0000      -0.576679       -15.6922
  32   2.0000      -0.561034       -15.2665
  33   2.0000      -0.536339       -14.5945
  34   2.0000      -0.507124       -13.7995
  35   2.0000      -0.494649       -13.4601
  36   2.0000      -0.488617       -13.2959
  37   2.0000      -0.454078       -12.3561
  38   2.0000      -0.451601       -12.2887
  39   2.0000      -0.384448       -10.4614
  40   2.0000      -0.332328        -9.0431
  41   2.0000      -0.297259        -8.0888
  42   0.0000       0.027146         0.7387
  43   0.0000       0.029416         0.8005
  44   0.0000       0.034844         0.9482
  45   0.0000       0.042931         1.1682
  46   0.0000       0.046513         1.2657

MULLIKEN ATOMIC CHARGES
-----------------------
   0 C :    0.475834
   1 C :   -0.692941
   2 C :   -0.297073
   3 C :   -0.991831
   4 C :   -1.203939
   5 C :   -0.408899
   6 C :   -0.406227
   7 C :   -1.489229
   8 C :    1.243457
   9 C :    1.784272
  10 Cl:   -0.551082
  11 H :    0.421792
  12 H :    0.603759
  13 H :    0.212897
  14 H :    0.077868
  15 H :    0.588589
  16 H :    0.526045
  17 H :    0.106710
Sum of atomic charges:    0.0000000

LOEWDIN ATOMIC CHARGES
----------------------
   0 C :   -0.701130
   1 C :    0.107493
   2 C :    0.198442
   3 C :    0.221120
   4 C :    0.222116
   5 C :    0.207717
   6 C :    0.206994
   7 C :    0.187598
   8 C :   -0.186014
   9 C :   -0.122866
  10 Cl:    0.998709
  11 H :   -0.205850
  12 H :   -0.182673
  13 H :   -0.176635
  14 H :   -0.177498
  15 H :   -0.182972
  16 H :   -0.182972
  17 H :   -0.231580

  Mayer bond orders larger than 0.100000
B(  0-C ,  1-C ) :   1.3475 B(  0-C ,  5-C ) :   0.1250 B(  0-C ,  7-C ) :   0.6049
B(  0-C ,  8-C ) :   0.6872 B(  0-C ,  9-C ) :   0.2614 B(  0-C , 11-H ) :  -0.1106
B(  1-C ,  2-C ) :   0.8429 B(  1-C ,  9-C ) :  -0.1637 B(  1-C , 11-H ) :   0.9655
B(  2-C ,  3-C ) :   1.0322 B(  2-C ,  9-C ) :   0.1125 B(  2-C , 12-H ) :   0.6067
B(  2-C , 13-H ) :  -0.1891 B(  3-C ,  4-C ) :   0.5340 B(  3-C ,  7-C ) :  -0.1322
B(  3-C ,  8-C ) :   0.1178 B(  3-C ,  9-C ) :  -0.2665 B(  3-C , 11-H ) :   0.1990
B(  3-C , 12-H ) :  -0.1292 B(  3-C , 13-H ) :   1.3226 B(  4-C ,  5-C ) :   1.1557
B(  4-C ,  7-C ) :   0.1436 B(  4-C ,  8-C ) :  -0.2434 B(  4-C , 14-H ) :   1.6150
B(  4-C , 15-H ) :  -0.2251 B(  5-C ,  6-C ) :   1.0003 B(  5-C ,  8-C ) :  -0.1480
B(  5-C ,  9-C ) :   0.1875 B(  5-C , 14-H ) :  -0.1087 B(  5-C , 15-H ) :   0.5724
B(  6-C ,  7-C ) :   1.3245 B(  6-C ,  8-C ) :   0.1393 B(  6-C , 16-H ) :   0.7039
B(  7-C ,  8-C ) :  -0.2277 B(  7-C ,  9-C ) :  -0.2571 B(  7-C , 16-H ) :  -0.2234
B(  7-C , 17-H ) :   1.7582 B(  8-C ,  9-C ) :   0.6757 B(  8-C , 10-Cl) :   0.4297
B(  8-C , 13-H ) :   0.1070 B(  8-C , 15-H ) :   0.1148 B(  8-C , 16-H ) :  -0.1074
B(  8-C , 17-H ) :  -0.1175 B(  9-C , 11-H ) :  -0.1541 B(  9-C , 13-H ) :  -0.1817
B(  9-C , 15-H ) :  -0.1113 B(  9-C , 17-H ) :  -0.1874 B( 10-Cl, 17-H ) :  -0.1233

MP2 TOTAL ENERGY:     -844.195262879 Eh
FINAL SINGLE POINT ENERGY      -844.195262879028

DIPOLE MOMENT
-------------
                                X             Y             Z
Electronic contribution:     10.24458       0.13412       0.00000
Nuclear contribution   :    -10.98182      -0.33134       0.00000
                        -----------------------------------------
Total Dipole Moment    :     -0.73724      -0.19722       0.00000
                        -----------------------------------------
Magnitude (a.u.)       :      0.76316
Magnitude (Debye)      :      1.93980

Rotational constants in cm-1:     0.050990     0.030256     0.018989
Rotational constants in MHz :  1528.635971   907.042743   569.261519

                             ****ORCA TERMINATED NORMALLY****
TOTAL RUN TIME: 0 days 0 hours 15 minutes 5 seconds 588 msec
