                         Program Version 5.0.3 -  RELEASE  -
|  1> !ri-mp2 aug-cc-pvtz aug-cc-pvtz/c tightscf
|  2> %pal nprocs 16 end
|  3>
|  4> * xyz 0 1
|  5> N      0.000000    1.188502    0.658697
|  6> N      0.000000    1.188502   -0.658697
|  7> C      0.000000    0.000000   -1.262286
|  8> N      0.000000   -1.188502   -0.658697
|  9> N      0.000000   -1.188502    0.658697
| 10> C      0.000000    0.000000    1.262286
| 11> H      0.000000    0.000000   -2.343802
| 12> H      0.000000    0.000000    2.343802
| 13> *
| 14>
| 15>                          ****END OF INPUT****

CARTESIAN COORDINATES (ANGSTROEM)
---------------------------------
  N      0.000000    1.188502    0.658697
  N      0.000000    1.188502   -0.658697
  C      0.000000    0.000000   -1.262286
  N      0.000000   -1.188502   -0.658697
  N      0.000000   -1.188502    0.658697
  C      0.000000    0.000000    1.262286
  H      0.000000    0.000000   -2.343802
  H      0.000000    0.000000    2.343802

 Total Charge           Charge          ....    0
 Multiplicity           Mult            ....    1
 Number of Electrons    NEL             ....   42
 Basis Dimension        Dim             ....  322

ORBITAL ENERGIES
----------------

  NO   OCC          E(Eh)            E(eV)
   0   2.0000     -15.662301      -426.1929
   1   2.0000     -15.662262      -426.1918
   2   2.0000     -15.661392      -426.1681
   3   2.0000     -15.661390      -426.1681
   4   2.0000     -11.339643      -308.5674
   5   2.0000     -11.339611      -308.5665
   6   2.0000      -1.444946       -39.3190
   7   2.0000      -1.340124       -36.4666
   8   2.0000      -1.193319       -32.4719
   9   2.0000      -1.027099       -27.9488
  10   2.0000      -0.962979       -26.2040
  11   2.0000      -0.794925       -21.6310
  12   2.0000      -0.753472       -20.5030
  13   2.0000      -0.700469       -19.0607
  14   2.0000      -0.650466       -17.7001
  15   2.0000      -0.566773       -15.4227
  16   2.0000      -0.533093       -14.5062
  17   2.0000      -0.529515       -14.4088
  18   2.0000      -0.499615       -13.5952
  19   2.0000      -0.435230       -11.8432
  20   2.0000      -0.418456       -11.3868
  21   0.0000       0.026085         0.7098
  22   0.0000       0.028526         0.7762
  23   0.0000       0.034433         0.9370
  24   0.0000       0.058816         1.6005
  25   0.0000       0.073623         2.0034

MULLIKEN ATOMIC CHARGES
-----------------------
   0 N :   -0.196935
   1 N :   -0.196935
   2 C :   -0.248189
   3 N :   -0.196935
   4 N :   -0.196935
   5 C :   -0.248189
   6 H :    0.642060
   7 H :    0.642060
Sum of atomic charges:    0.0000000

LOEWDIN ATOMIC CHARGES
----------------------
   0 N :    0.198445
   1 N :    0.198445
   2 C :   -0.183834
   3 N :    0.198445
   4 N :    0.198445
   5 C :   -0.183834
   6 H :   -0.213056
   7 H :   -0.213056

  Mayer bond orders larger than 0.100000
B(  0-N ,  1-N ) :   0.4665 B(  0-N ,  5-C ) :   1.3495 B(  1-N ,  2-C ) :   1.3495
B(  2-C ,  3-N ) :   1.3495 B(  2-C ,  6-H ) :   0.5112 B(  3-N ,  4-N ) :   0.4665
B(  4-N ,  5-C ) :   1.3495 B(  5-C ,  7-H ) :   0.5112

MP2 TOTAL ENERGY:     -295.806424049 Eh
FINAL SINGLE POINT ENERGY      -295.806424049432

DIPOLE MOMENT
-------------
                                X             Y             Z
Electronic contribution:     -0.00000      -0.00000       0.00000
Nuclear contribution   :      0.00000       0.00000      -0.00000
                        -----------------------------------------
Total Dipole Moment    :     -0.00000      -0.00000       0.00000
                        -----------------------------------------
Magnitude (a.u.)       :      0.00000
Magnitude (Debye)      :      0.00000

Rotational constants in cm-1:     0.228857     0.213006     0.110324
Rotational constants in MHz :  6860.969039  6385.760853  3307.420613

                             ****ORCA TERMINATED NORMALLY****
TOTAL RUN TIME: 0 days 0 hours 1 minutes 46 seconds 405 msec
