                         Program Version 5.0.3 -  RELEASE  -
|  1> !ri-mp2 aug-cc-pvtz aug-cc-pvtz/c tightscf
|  2> %pal nprocs 16 end
|  3>
|  4> * xyz 0 1
|  5> S     -0.684744    1.213061   -0.000080
|  6> S      1.377318   -1.154886    0.000075
|  7> N     -1.268379   -1.298952    0.000129
|  8> N      2.990519    1.193133   -0.000175
|  9> C     -0.269821   -0.479529    0.000045
| 10> C     -2.349814    0.743056   -0.000014
| 11> C     -2.455845   -0.611093    0.000096
| 12> C      2.305403    0.262740   -0.000076
| 13> H     -3.132667    1.481541   -0.000061
| 14> H     -3.383034   -1.162635    0.000156
| 15> *
| 16>
| 17>                          ****END OF INPUT****

CARTESIAN COORDINATES (ANGSTROEM)
---------------------------------
  S     -0.684744    1.213061   -0.000080
  S      1.377318   -1.154886    0.000075
  N     -1.268379   -1.298952    0.000129
  N      2.990519    1.193133   -0.000175
  C     -0.269821   -0.479529    0.000045
  C     -2.349814    0.743056   -0.000014
  C     -2.455845   -0.611093    0.000096
  C      2.305403    0.262740   -0.000076
  H     -3.132667    1.481541   -0.000061
  H     -3.383034   -1.162635    0.000156

 Total Charge           Charge          ....    0
 Multiplicity           Mult            ....    1
 Number of Electrons    NEL             ....   72
 Basis Dimension        Dim             ....  422

ORBITAL ENERGIES
----------------

  NO   OCC          E(Eh)            E(eV)
   0   2.0000     -92.050355     -2504.8175
   1   2.0000     -92.026272     -2504.1622
   2   2.0000     -15.601818      -424.5471
   3   2.0000     -15.599659      -424.4883
   4   2.0000     -11.371455      -309.4330
   5   2.0000     -11.313464      -307.8550
   6   2.0000     -11.293854      -307.3214
   7   2.0000     -11.288895      -307.1865
   8   2.0000      -9.049198      -246.2412
   9   2.0000      -9.026126      -245.6134
  10   2.0000      -6.730514      -183.1466
  11   2.0000      -6.729057      -183.1070
  12   2.0000      -6.727980      -183.0776
  13   2.0000      -6.706915      -182.5044
  14   2.0000      -6.706309      -182.4880
  15   2.0000      -6.705489      -182.4656
  16   2.0000      -1.319860       -35.9152
  17   2.0000      -1.248266       -33.9671
  18   2.0000      -1.108206       -30.1558
  19   2.0000      -1.092780       -29.7361
  20   2.0000      -0.999770       -27.2051
  21   2.0000      -0.835279       -22.7291
  22   2.0000      -0.781270       -21.2594
  23   2.0000      -0.726794       -19.7771
  24   2.0000      -0.665594       -18.1117
  25   2.0000      -0.618734       -16.8366
  26   2.0000      -0.606943       -16.5158
  27   2.0000      -0.585350       -15.9282
  28   2.0000      -0.559117       -15.2143
  29   2.0000      -0.542742       -14.7688
  30   2.0000      -0.528144       -14.3715
  31   2.0000      -0.491245       -13.3674
  32   2.0000      -0.454174       -12.3587
  33   2.0000      -0.442178       -12.0323
  34   2.0000      -0.410382       -11.1671
  35   2.0000      -0.347381        -9.4527
  36   0.0000       0.023482         0.6390
  37   0.0000       0.035226         0.9585
  38   0.0000       0.049704         1.3525
  39   0.0000       0.067713         1.8426
  40   0.0000       0.069081         1.8798

MULLIKEN ATOMIC CHARGES
-----------------------
   0 S :    0.013616
   1 S :    0.033325
   2 N :   -0.298322
   3 N :   -0.451849
   4 C :    0.403945
   5 C :   -0.419634
   6 C :   -0.595826
   7 C :    0.269591
   8 H :    0.492893
   9 H :    0.552262
Sum of atomic charges:   -0.0000000

LOEWDIN ATOMIC CHARGES
----------------------
   0 S :    1.228510
   1 S :    1.126950
   2 N :    0.193070
   3 N :    0.151246
   4 C :   -1.117792
   5 C :   -0.193654
   6 C :   -0.120574
   7 C :   -0.799465
   8 H :   -0.265126
   9 H :   -0.203165

  Mayer bond orders larger than 0.100000
B(  0-S ,  4-C ) :   1.1073 B(  0-S ,  5-C ) :   1.1566 B(  1-S ,  4-C ) :   0.7940
B(  1-S ,  7-C ) :   1.0138 B(  2-N ,  4-C ) :   1.4360 B(  2-N ,  5-C ) :  -0.1445
B(  2-N ,  6-C ) :   0.9675 B(  3-N ,  7-C ) :   2.4902 B(  5-C ,  6-C ) :   1.3294
B(  5-C ,  8-H ) :   0.7819 B(  6-C ,  9-H ) :   0.6872

MP2 TOTAL ENERGY:    -1058.044653417 Eh
FINAL SINGLE POINT ENERGY     -1058.044653416968

DIPOLE MOMENT
-------------
                                X             Y             Z
Electronic contribution:      4.84002      -0.44897      -0.00004
Nuclear contribution   :     -6.20690       0.30097       0.00009
                        -----------------------------------------
Total Dipole Moment    :     -1.36688      -0.14800       0.00005
                        -----------------------------------------
Magnitude (a.u.)       :      1.37487
Magnitude (Debye)      :      3.49465

Rotational constants in cm-1:     0.111058     0.037607     0.028094
Rotational constants in MHz :  3329.422402  1127.430092   842.229132

                             ****ORCA TERMINATED NORMALLY****
TOTAL RUN TIME: 0 days 0 hours 4 minutes 17 seconds 662 msec
