                         Program Version 5.0.3 -  RELEASE  -
|  1> !ri-mp2 aug-cc-pvtz aug-cc-pvtz/c tightscf
|  2> %pal nprocs 16 end
|  3>
|  4> * xyz 0 1
|  5> C      1.223728    0.268149        0.000000
|  6> C      1.156706   -1.073788        0.000000
|  7> C     -1.203480   -0.921610        0.000000
|  8> C      0.000000    1.076085        0.000000
|  9> N     -1.223091    0.359317        0.000000
| 10> N     -0.072567   -1.688836        0.000000
| 11> O      0.011892    2.291393        0.000000
| 12> H      2.174691    0.778052        0.000000
| 13> H      2.019381   -1.723884        0.000000
| 14> H     -2.135162   -1.480194        0.000000
| 15> H     -0.146168   -2.691497        0.000000
| 16> *
| 17>
| 18>                          ****END OF INPUT****

CARTESIAN COORDINATES (ANGSTROEM)
---------------------------------
  C      1.223728    0.268149    0.000000
  C      1.156706   -1.073788    0.000000
  C     -1.203480   -0.921610    0.000000
  C      0.000000    1.076085    0.000000
  N     -1.223091    0.359317    0.000000
  N     -0.072567   -1.688836    0.000000
  O      0.011892    2.291393    0.000000
  H      2.174691    0.778052    0.000000
  H      2.019381   -1.723884    0.000000
  H     -2.135162   -1.480194    0.000000
  H     -0.146168   -2.691497    0.000000

 Total Charge           Charge          ....    0
 Multiplicity           Mult            ....    1
 Number of Electrons    NEL             ....   50
 Basis Dimension        Dim             ....  414

ORBITAL ENERGIES
----------------

  NO   OCC          E(Eh)            E(eV)
   0   2.0000     -20.512988      -558.1868
   1   2.0000     -15.649913      -425.8558
   2   2.0000     -15.564453      -423.5303
   3   2.0000     -11.354553      -308.9731
   4   2.0000     -11.344101      -308.6887
   5   2.0000     -11.322174      -308.0920
   6   2.0000     -11.247503      -306.0601
   7   2.0000      -1.375775       -37.4367
   8   2.0000      -1.339028       -36.4368
   9   2.0000      -1.209869       -32.9222
  10   2.0000      -1.083193       -29.4752
  11   2.0000      -0.914395       -24.8820
  12   2.0000      -0.881960       -23.9993
  13   2.0000      -0.800805       -21.7910
  14   2.0000      -0.732993       -19.9457
  15   2.0000      -0.689026       -18.7494
  16   2.0000      -0.646266       -17.5858
  17   2.0000      -0.627039       -17.0626
  18   2.0000      -0.612972       -16.6798
  19   2.0000      -0.586350       -15.9554
  20   2.0000      -0.529172       -14.3995
  21   2.0000      -0.460845       -12.5402
  22   2.0000      -0.436810       -11.8862
  23   2.0000      -0.406438       -11.0597
  24   2.0000      -0.353322        -9.6144
  25   0.0000       0.008501         0.2313
  26   0.0000       0.026437         0.7194
  27   0.0000       0.038297         1.0421
  28   0.0000       0.052759         1.4356
  29   0.0000       0.056994         1.5509

MULLIKEN ATOMIC CHARGES
-----------------------
   0 C :   -0.280305
   1 C :   -0.418381
   2 C :   -0.452251
   3 C :    0.465964
   4 N :   -0.257375
   5 N :   -0.023333
   6 O :   -0.771086
   7 H :    0.352347
   8 H :    0.697738
   9 H :    0.616060
  10 H :    0.070624
Sum of atomic charges:    0.0000000

LOEWDIN ATOMIC CHARGES
----------------------
   0 C :    0.208140
   1 C :    0.125184
   2 C :   -0.073298
   3 C :   -0.780269
   4 N :    0.374021
   5 N :    0.525839
   6 O :    0.403618
   7 H :   -0.198789
   8 H :   -0.157968
   9 H :   -0.164003
  10 H :   -0.262474

  Mayer bond orders larger than 0.100000
B(  0-C ,  1-C ) :   1.2741 B(  0-C ,  3-C ) :   0.8863 B(  0-C ,  5-N ) :  -0.1892
B(  0-C ,  7-H ) :   0.8895 B(  1-C ,  2-C ) :  -0.2349 B(  1-C ,  3-C ) :   0.1894
B(  1-C ,  5-N ) :   0.9797 B(  1-C ,  8-H ) :   0.3993 B(  2-C ,  4-N ) :   1.3923
B(  2-C ,  5-N ) :   1.1735 B(  2-C ,  9-H ) :   0.5508 B(  3-C ,  4-N ) :   0.8366
B(  3-C ,  6-O ) :   1.4122 B(  4-N ,  6-O ) :  -0.1304 B(  5-N , 10-H ) :   1.1073

MP2 TOTAL ENERGY:     -338.944926477 Eh
FINAL SINGLE POINT ENERGY      -338.944926477304

DIPOLE MOMENT
-------------
                                X             Y             Z
Electronic contribution:     -1.20970       1.70546       0.00000
Nuclear contribution   :      1.86199      -4.97346       0.00000
                        -----------------------------------------
Total Dipole Moment    :      0.65230      -3.26800       0.00000
                        -----------------------------------------
Magnitude (a.u.)       :      3.33246
Magnitude (Debye)      :      8.47045

Rotational constants in cm-1:     0.196156     0.095008     0.064006
Rotational constants in MHz :  5880.623868  2848.261055  1918.865020

                             ****ORCA TERMINATED NORMALLY****
TOTAL RUN TIME: 0 days 0 hours 2 minutes 59 seconds 330 msec
