                         Program Version 5.0.3 -  RELEASE  -
|  1> !ri-mp2 aug-cc-pvtz aug-cc-pvtz/c tightscf
|  2> %pal nprocs 16 end
|  3>
|  4> * xyz 0 1
|  5> N      0.000000    1.144299   -0.704266
|  6> N      0.000000    0.000000   -1.359116
|  7> N      0.000000   -1.144299   -0.704266
|  8> C      0.000000   -1.104612    0.629854
|  9> N      0.000000    0.000000    1.362678
| 10> C      0.000000    1.104612    0.629854
| 11> H      0.000000   -2.061100    1.138272
| 12> H      0.000000    2.061100    1.138272
| 13> *
| 14>
| 15>                          ****END OF INPUT****

CARTESIAN COORDINATES (ANGSTROEM)
---------------------------------
  N      0.000000    1.144299   -0.704266
  N      0.000000    0.000000   -1.359116
  N      0.000000   -1.144299   -0.704266
  C      0.000000   -1.104612    0.629854
  N      0.000000    0.000000    1.362678
  C      0.000000    1.104612    0.629854
  H      0.000000   -2.061100    1.138272
  H      0.000000    2.061100    1.138272

 Total Charge           Charge          ....    0
 Multiplicity           Mult            ....    1
 Number of Electrons    NEL             ....   42
 Basis Dimension        Dim             ....  322

ORBITAL ENERGIES
----------------

  NO   OCC          E(Eh)            E(eV)
   0   2.0000     -15.702072      -427.2751
   1   2.0000     -15.638938      -425.5571
   2   2.0000     -15.638896      -425.5560
   3   2.0000     -15.621989      -425.0959
   4   2.0000     -11.358211      -309.0726
   5   2.0000     -11.358206      -309.0725
   6   2.0000      -1.452602       -39.5273
   7   2.0000      -1.290402       -35.1136
   8   2.0000      -1.246013       -33.9057
   9   2.0000      -1.008048       -27.4304
  10   2.0000      -0.967466       -26.3261
  11   2.0000      -0.792856       -21.5747
  12   2.0000      -0.769949       -20.9514
  13   2.0000      -0.651099       -17.7173
  14   2.0000      -0.640926       -17.4405
  15   2.0000      -0.624566       -16.9953
  16   2.0000      -0.553600       -15.0642
  17   2.0000      -0.485746       -13.2178
  18   2.0000      -0.465850       -12.6764
  19   2.0000      -0.455731       -12.4011
  20   2.0000      -0.433607       -11.7990
  21   0.0000       0.025708         0.6995
  22   0.0000       0.034336         0.9343
  23   0.0000       0.040676         1.1068
  24   0.0000       0.061722         1.6795
  25   0.0000       0.064809         1.7635

MULLIKEN ATOMIC CHARGES
-----------------------
   0 N :   -0.231012
   1 N :   -0.053768
   2 N :   -0.231012
   3 C :   -0.255413
   4 N :   -0.175035
   5 C :   -0.255413
   6 H :    0.600827
   7 H :    0.600827
Sum of atomic charges:   -0.0000000

LOEWDIN ATOMIC CHARGES
----------------------
   0 N :    0.184772
   1 N :    0.025849
   2 N :    0.184772
   3 C :   -0.185524
   4 N :    0.368472
   5 C :   -0.185524
   6 H :   -0.196409
   7 H :   -0.196409

  Mayer bond orders larger than 0.100000
B(  0-N ,  1-N ) :   0.7518 B(  0-N ,  5-C ) :   1.2811 B(  1-N ,  2-N ) :   0.7518
B(  2-N ,  3-C ) :   1.2811 B(  3-C ,  4-N ) :   1.2377 B(  3-C ,  5-C ) :  -0.1891
B(  3-C ,  6-H ) :   0.5865 B(  4-N ,  5-C ) :   1.2377 B(  5-C ,  7-H ) :   0.5865

MP2 TOTAL ENERGY:     -295.816371301 Eh
FINAL SINGLE POINT ENERGY      -295.816371301483

DIPOLE MOMENT
-------------
                                X             Y             Z
Electronic contribution:      0.00000       0.00000      -1.12563
Nuclear contribution   :      0.00000       0.00000       2.18021
                        -----------------------------------------
Total Dipole Moment    :      0.00000       0.00000       1.05458
                        -----------------------------------------
Magnitude (a.u.)       :      1.05458
Magnitude (Debye)      :      2.68053

Rotational constants in cm-1:     0.226104     0.216518     0.110604
Rotational constants in MHz :  6778.412643  6491.050980  3315.810140

                             ****ORCA TERMINATED NORMALLY****
TOTAL RUN TIME: 0 days 0 hours 1 minutes 55 seconds 885 msec
