                         Program Version 5.0.3 -  RELEASE  -
|  1> !ri-mp2 aug-cc-pvtz aug-cc-pvtz/c tightscf
|  2> %pal nprocs 16 end
|  3>
|  4> * xyz 0 1
|  5> Cl     2.615902   -0.172641   -0.000080
|  6> O     -0.165508   -1.237912    0.000142
|  7> N     -2.509366    0.187022   -0.000312
|  8> N     -3.469270   -0.391475   -0.000476
|  9> C     -0.149899   -0.026948    0.000164
| 10> C     -1.350968    0.797979   -0.000120
| 11> C      1.130742    0.811941    0.000604
| 12> H     -1.378265    1.874748   -0.000193
| 13> H      1.151566    1.448971   -0.881951
| 14> H      1.151625    1.447808    0.884002
| 15> *
| 16>
| 17>                          ****END OF INPUT****

CARTESIAN COORDINATES (ANGSTROEM)
---------------------------------
  Cl     2.615902   -0.172641   -0.000080
  O     -0.165508   -1.237912    0.000142
  N     -2.509366    0.187022   -0.000312
  N     -3.469270   -0.391475   -0.000476
  C     -0.149899   -0.026948    0.000164
  C     -1.350968    0.797979   -0.000120
  C      1.130742    0.811941    0.000604
  H     -1.378265    1.874748   -0.000193
  H      1.151566    1.448971   -0.881951
  H      1.151625    1.447808    0.884002

 Total Charge           Charge          ....    0
 Multiplicity           Mult            ....    1
 Number of Electrons    NEL             ....   60
 Basis Dimension        Dim             ....  395

ORBITAL ENERGIES
----------------

  NO   OCC          E(Eh)            E(eV)
   0   2.0000    -104.834640     -2852.6956
   1   2.0000     -20.553304      -559.2838
   2   2.0000     -15.778766      -429.3621
   3   2.0000     -15.714369      -427.6097
   4   2.0000     -11.361020      -309.1491
   5   2.0000     -11.316594      -307.9402
   6   2.0000     -11.294112      -307.3284
   7   2.0000     -10.558426      -287.3094
   8   2.0000      -8.025312      -218.3799
   9   2.0000      -8.023352      -218.3265
  10   2.0000      -8.023345      -218.3263
  11   2.0000      -1.514608       -41.2146
  12   2.0000      -1.401356       -38.1328
  13   2.0000      -1.168923       -31.8080
  14   2.0000      -1.143098       -31.1053
  15   2.0000      -0.991619       -26.9833
  16   2.0000      -0.845066       -22.9954
  17   2.0000      -0.758173       -20.6309
  18   2.0000      -0.720827       -19.6147
  19   2.0000      -0.707451       -19.2507
  20   2.0000      -0.699105       -19.0236
  21   2.0000      -0.655759       -17.8441
  22   2.0000      -0.640743       -17.4355
  23   2.0000      -0.601920       -16.3791
  24   2.0000      -0.554809       -15.0971
  25   2.0000      -0.535863       -14.5816
  26   2.0000      -0.455707       -12.4004
  27   2.0000      -0.444153       -12.0860
  28   2.0000      -0.434413       -11.8210
  29   2.0000      -0.362103        -9.8533
  30   0.0000       0.019733         0.5370
  31   0.0000       0.039537         1.0758
  32   0.0000       0.039895         1.0856
  33   0.0000       0.060139         1.6365
  34   0.0000       0.071881         1.9560

MULLIKEN ATOMIC CHARGES
-----------------------
   0 Cl:   -0.283332
   1 O :   -0.750542
   2 N :    0.569086
   3 N :   -0.785528
   4 C :    0.722118
   5 C :   -0.355247
   6 C :   -0.226644
   7 H :    0.523235
   8 H :    0.293415
   9 H :    0.293440
Sum of atomic charges:    0.0000000

LOEWDIN ATOMIC CHARGES
----------------------
   0 Cl:    0.916281
   1 O :    0.417624
   2 N :   -0.003015
   3 N :    0.373186
   4 C :   -0.696535
   5 C :    0.035207
   6 C :   -0.318832
   7 H :   -0.229532
   8 H :   -0.247209
   9 H :   -0.247176

  Mayer bond orders larger than 0.100000
B(  0-Cl,  6-C ) :   0.8883 B(  1-O ,  4-C ) :   1.2895 B(  2-N ,  3-N ) :   1.3584
B(  2-N ,  4-C ) :  -0.1250 B(  2-N ,  5-C ) :   1.2527 B(  3-N ,  5-C ) :  -0.1425
B(  4-C ,  5-C ) :   0.9176 B(  4-C ,  6-C ) :   0.9631 B(  5-C ,  7-H ) :   0.6347
B(  6-C ,  8-H ) :   0.9275 B(  6-C ,  9-H ) :   0.9274

MP2 TOTAL ENERGY:     -759.985488127 Eh
FINAL SINGLE POINT ENERGY      -759.985488127157

DIPOLE MOMENT
-------------
                                X             Y             Z
Electronic contribution:      1.91835      -2.96058      -0.00158
Nuclear contribution   :     -2.71458       4.75160       0.00187
                        -----------------------------------------
Total Dipole Moment    :     -0.79622       1.79103       0.00030
                        -----------------------------------------
Magnitude (a.u.)       :      1.96004
Magnitude (Debye)      :      4.98202

Rotational constants in cm-1:     0.318562     0.031018     0.028416
Rotational constants in MHz :  9550.234795   929.909184   851.888089

                             ****ORCA TERMINATED NORMALLY****
TOTAL RUN TIME: 0 days 0 hours 3 minutes 4 seconds 136 msec
