                         Program Version 5.0.3 -  RELEASE  -
|  1> !ri-mp2 aug-cc-pvtz aug-cc-pvtz/c tightscf
|  2> %pal nprocs 16 end
|  3>
|  4> * xyz 0 1
|  5> C      0.396947   -0.334365    0.000000
|  6> C     -0.354044    1.033767    0.000000
|  7> F      1.717331   -0.069343    0.000000
|  8> Cl    -0.012320   -1.251697    1.466556
|  9> Cl    -0.012320   -1.251697   -1.466556
| 10> F     -1.674751    0.856796    0.000000
| 11> F     -0.012320    1.737455    1.082744
| 12> F     -0.012320    1.737455   -1.082744
| 13> *
| 14>
| 15>                          ****END OF INPUT****

CARTESIAN COORDINATES (ANGSTROEM)
---------------------------------
  C      0.396947   -0.334365    0.000000
  C     -0.354044    1.033767    0.000000
  F      1.717331   -0.069343    0.000000
  Cl    -0.012320   -1.251697    1.466556
  Cl    -0.012320   -1.251697   -1.466556
  F     -1.674751    0.856796    0.000000
  F     -0.012320    1.737455    1.082744
  F     -0.012320    1.737455   -1.082744

 Total Charge           Charge          ....    0
 Multiplicity           Mult            ....    1
 Number of Electrons    NEL             ....   82
 Basis Dimension        Dim             ....  376

ORBITAL ENERGIES
----------------

  NO   OCC          E(Eh)            E(eV)
   0   2.0000    -104.887954     -2854.1463
   1   2.0000    -104.887954     -2854.1463
   2   2.0000     -26.373183      -717.6508
   3   2.0000     -26.370883      -717.5882
   4   2.0000     -26.370861      -717.5876
   5   2.0000     -26.370329      -717.5731
   6   2.0000     -11.553430      -314.3848
   7   2.0000     -11.503159      -313.0169
   8   2.0000     -10.612078      -288.7693
   9   2.0000     -10.612069      -288.7691
  10   2.0000      -8.078870      -219.8372
  11   2.0000      -8.078870      -219.8372
  12   2.0000      -8.076674      -219.7775
  13   2.0000      -8.076672      -219.7774
  14   2.0000      -8.076645      -219.7767
  15   2.0000      -8.076644      -219.7767
  16   2.0000      -1.765133       -48.0317
  17   2.0000      -1.695207       -46.1289
  18   2.0000      -1.669172       -45.4205
  19   2.0000      -1.667272       -45.3688
  20   2.0000      -1.229580       -33.4586
  21   2.0000      -1.139165       -30.9983
  22   2.0000      -1.044469       -28.4214
  23   2.0000      -0.930328       -25.3155
  24   2.0000      -0.859987       -23.4014
  25   2.0000      -0.856437       -23.3048
  26   2.0000      -0.850048       -23.1310
  27   2.0000      -0.771657       -20.9978
  28   2.0000      -0.757501       -20.6127
  29   2.0000      -0.737070       -20.0567
  30   2.0000      -0.732160       -19.9231
  31   2.0000      -0.713871       -19.4254
  32   2.0000      -0.695237       -18.9184
  33   2.0000      -0.694547       -18.8996
  34   2.0000      -0.680022       -18.5043
  35   2.0000      -0.605047       -16.4642
  36   2.0000      -0.592793       -16.1307
  37   2.0000      -0.522992       -14.2313
  38   2.0000      -0.502779       -13.6813
  39   2.0000      -0.501464       -13.6455
  40   2.0000      -0.479839       -13.0571
  41   0.0000       0.052694         1.4339
  42   0.0000       0.064275         1.7490
  43   0.0000       0.065386         1.7793
  44   0.0000       0.076187         2.0732
  45   0.0000       0.091279         2.4838

MULLIKEN ATOMIC CHARGES
-----------------------
   0 C :    0.644887
   1 C :    1.275247
   2 F :   -0.415199
   3 Cl:   -0.207038
   4 Cl:   -0.207038
   5 F :   -0.363311
   6 F :   -0.363773
   7 F :   -0.363773
Sum of atomic charges:   -0.0000000

LOEWDIN ATOMIC CHARGES
----------------------
   0 C :   -1.967368
   1 C :   -1.722769
   2 F :    0.404157
   3 Cl:    0.902496
   4 Cl:    0.902496
   5 F :    0.491581
   6 F :    0.494703
   7 F :    0.494703

  Mayer bond orders larger than 0.100000
B(  0-C ,  1-C ) :   0.9430 B(  0-C ,  2-F ) :   0.6793 B(  0-C ,  3-Cl) :   0.9609
B(  0-C ,  4-Cl) :   0.9609 B(  1-C ,  5-F ) :   0.8062 B(  1-C ,  6-F ) :   0.8144
B(  1-C ,  7-F ) :   0.8144

MP2 TOTAL ENERGY:    -1394.436921541 Eh
FINAL SINGLE POINT ENERGY     -1394.436921541470

DIPOLE MOMENT
-------------
                                X             Y             Z
Electronic contribution:     -0.10427       0.26759       0.00000
Nuclear contribution   :      0.01580      -0.56582       0.00000
                        -----------------------------------------
Total Dipole Moment    :     -0.08848      -0.29823       0.00000
                        -----------------------------------------
Magnitude (a.u.)       :      0.31107
Magnitude (Debye)      :      0.79068

Rotational constants in cm-1:     0.055917     0.045967     0.036699
Rotational constants in MHz :  1676.340067  1378.048398  1100.198162

                             ****ORCA TERMINATED NORMALLY****
TOTAL RUN TIME: 0 days 0 hours 2 minutes 4 seconds 796 msec
