                         Program Version 5.0.3 -  RELEASE  -
|  1> !ri-mp2 aug-cc-pvtz aug-cc-pvtz/c tightscf
|  2> %pal nprocs 16 end
|  3>
|  4> * xyz 0 1
|  5> Cl     1.969671   -1.392624   -0.227155
|  6> Cl    -2.726372   -0.166639   -0.549480
|  7> O      1.299667    1.497740    1.060977
|  8> O      1.142038    1.750743   -1.088218
|  9> N      1.039851    1.108331   -0.061878
| 10> C      0.528061   -0.332445   -0.214217
| 11> C     -0.425033   -0.704823    0.900645
| 12> C     -1.706486    0.113665    0.924971
| 13> H      0.086211   -0.366790   -1.201970
| 14> H     -0.662786   -1.761718    0.786146
| 15> H      0.086276   -0.577124    1.855350
| 16> H     -2.317628   -0.174091    1.774333
| 17> H     -1.520016    1.182620    0.971618
| 18> *
| 19>
| 20>                          ****END OF INPUT****

CARTESIAN COORDINATES (ANGSTROEM)
---------------------------------
  Cl     1.969671   -1.392624   -0.227155
  Cl    -2.726372   -0.166639   -0.549480
  O      1.299667    1.497740    1.060977
  O      1.142038    1.750743   -1.088218
  N      1.039851    1.108331   -0.061878
  C      0.528061   -0.332445   -0.214217
  C     -0.425033   -0.704823    0.900645
  C     -1.706486    0.113665    0.924971
  H      0.086211   -0.366790   -1.201970
  H     -0.662786   -1.761718    0.786146
  H      0.086276   -0.577124    1.855350
  H     -2.317628   -0.174091    1.774333
  H     -1.520016    1.182620    0.971618

 Total Charge           Charge          ....    0
 Multiplicity           Mult            ....    1
 Number of Electrons    NEL             ....   80
 Basis Dimension        Dim             ....  491

ORBITAL ENERGIES
----------------

  NO   OCC          E(Eh)            E(eV)
   0   2.0000    -104.873699     -2853.7584
   1   2.0000    -104.846906     -2853.0294
   2   2.0000     -20.627433      -561.3010
   3   2.0000     -20.624049      -561.2089
   4   2.0000     -15.868292      -431.7982
   5   2.0000     -11.390362      -309.9475
   6   2.0000     -11.326301      -308.2043
   7   2.0000     -11.287311      -307.1433
   8   2.0000     -10.597438      -288.3709
   9   2.0000     -10.570931      -287.6497
  10   2.0000      -8.064259      -219.4396
  11   2.0000      -8.062253      -219.3851
  12   2.0000      -8.062146      -219.3822
  13   2.0000      -8.037709      -218.7172
  14   2.0000      -8.035971      -218.6699
  15   2.0000      -8.035924      -218.6686
  16   2.0000      -1.630174       -44.3593
  17   2.0000      -1.426328       -38.8124
  18   2.0000      -1.213036       -33.0084
  19   2.0000      -1.156260       -31.4634
  20   2.0000      -1.070423       -29.1277
  21   2.0000      -1.013547       -27.5800
  22   2.0000      -0.904051       -24.6005
  23   2.0000      -0.840388       -22.8681
  24   2.0000      -0.776807       -21.1380
  25   2.0000      -0.748956       -20.3801
  26   2.0000      -0.742347       -20.2003
  27   2.0000      -0.682978       -18.5848
  28   2.0000      -0.659831       -17.9549
  29   2.0000      -0.620789       -16.8925
  30   2.0000      -0.589666       -16.0456
  31   2.0000      -0.570739       -15.5306
  32   2.0000      -0.533502       -14.5173
  33   2.0000      -0.521744       -14.1974
  34   2.0000      -0.515816       -14.0361
  35   2.0000      -0.488392       -13.2898
  36   2.0000      -0.476209       -12.9583
  37   2.0000      -0.470356       -12.7990
  38   2.0000      -0.457316       -12.4442
  39   2.0000      -0.455486       -12.3944
  40   0.0000       0.025055         0.6818
  41   0.0000       0.036528         0.9940
  42   0.0000       0.042161         1.1473
  43   0.0000       0.046491         1.2651
  44   0.0000       0.053748         1.4626

MULLIKEN ATOMIC CHARGES
-----------------------
   0 Cl:   -0.368251
   1 Cl:   -0.355392
   2 O :   -0.705786
   3 O :   -0.728273
   4 N :    1.006840
   5 C :    0.300195
   6 C :   -0.362913
   7 C :   -0.304998
   8 H :    0.315555
   9 H :    0.365788
  10 H :    0.283223
  11 H :    0.264870
  12 H :    0.289141
Sum of atomic charges:    0.0000000

LOEWDIN ATOMIC CHARGES
----------------------
   0 Cl:    1.000139
   1 Cl:    0.901935
   2 O :    0.385348
   3 O :    0.391254
   4 N :   -0.771429
   5 C :   -0.678343
   6 C :    0.100252
   7 C :   -0.238528
   8 H :   -0.266291
   9 H :   -0.177018
  10 H :   -0.177921
  11 H :   -0.229536
  12 H :   -0.239863

  Mayer bond orders larger than 0.100000
B(  0-Cl,  5-C ) :   0.6918 B(  1-Cl,  7-C ) :   0.7755 B(  2-O ,  3-O ) :   0.1661
B(  2-O ,  4-N ) :   1.0928 B(  2-O ,  5-C ) :   0.1016 B(  3-O ,  4-N ) :   1.0902
B(  4-N ,  5-C ) :   0.8998 B(  5-C ,  6-C ) :   0.9339 B(  5-C ,  8-H ) :   0.8841
B(  6-C ,  7-C ) :   0.9556 B(  6-C ,  9-H ) :   0.8798 B(  6-C , 10-H ) :   0.9373
B(  7-C , 11-H ) :   0.9617 B(  7-C , 12-H ) :   0.9238

MP2 TOTAL ENERGY:    -1241.334776544 Eh
FINAL SINGLE POINT ENERGY     -1241.334776544094

DIPOLE MOMENT
-------------
                                X             Y             Z
Electronic contribution:      2.41136      -1.53884      -4.35470
Nuclear contribution   :     -3.04399       0.56241       5.03639
                        -----------------------------------------
Total Dipole Moment    :     -0.63263      -0.97642       0.68169
                        -----------------------------------------
Magnitude (a.u.)       :      1.34845
Magnitude (Debye)      :      3.42749

Rotational constants in cm-1:     0.063899     0.028459     0.024177
Rotational constants in MHz :  1915.657937   853.179509   724.800223

                             ****ORCA TERMINATED NORMALLY****
TOTAL RUN TIME: 0 days 0 hours 5 minutes 28 seconds 583 msec
