                         Program Version 5.0.3 -  RELEASE  -
|  1> !ri-mp2 aug-cc-pvtz aug-cc-pvtz/c tightscf
|  2> %pal nprocs 16 end
|  3>
|  4> * xyz 0 1
|  5> S     -1.212773   -1.207584    0.003315
|  6> S      2.042508   -0.178536   -0.008928
|  7> N     -1.534033    1.415066   -0.011441
|  8> C     -0.689942    0.359550    0.002786
|  9> C      0.740967    0.774182    0.022682
| 10> H     -1.200704    2.364588   -0.016085
| 11> H     -2.525891    1.249315   -0.027968
| 12> H      0.882911    1.856177    0.061139
| 13> *
| 14>
| 15>                          ****END OF INPUT****

CARTESIAN COORDINATES (ANGSTROEM)
---------------------------------
  S     -1.212773   -1.207584    0.003315
  S      2.042508   -0.178536   -0.008928
  N     -1.534033    1.415066   -0.011441
  C     -0.689942    0.359550    0.002786
  C      0.740967    0.774182    0.022682
  H     -1.200704    2.364588   -0.016085
  H     -2.525891    1.249315   -0.027968
  H      0.882911    1.856177    0.061139

 Total Charge           Charge          ....    0
 Multiplicity           Mult            ....    1
 Number of Electrons    NEL             ....   54
 Basis Dimension        Dim             ....  307

ORBITAL ENERGIES
----------------

  NO   OCC          E(Eh)            E(eV)
   0   2.0000     -91.974356     -2502.7495
   1   2.0000     -91.918430     -2501.2276
   2   2.0000     -15.627641      -425.2497
   3   2.0000     -11.371737      -309.4407
   4   2.0000     -11.338480      -308.5357
   5   2.0000      -8.975800      -244.2439
   6   2.0000      -8.921199      -242.7582
   7   2.0000      -6.656165      -181.1235
   8   2.0000      -6.656095      -181.1215
   9   2.0000      -6.653968      -181.0637
  10   2.0000      -6.602382      -179.6599
  11   2.0000      -6.601035      -179.6233
  12   2.0000      -6.599960      -179.5940
  13   2.0000      -1.288014       -35.0486
  14   2.0000      -1.102350       -29.9965
  15   2.0000      -1.000623       -27.2283
  16   2.0000      -0.889710       -24.2102
  17   2.0000      -0.777250       -21.1500
  18   2.0000      -0.729704       -19.8563
  19   2.0000      -0.684556       -18.6277
  20   2.0000      -0.564334       -15.3563
  21   2.0000      -0.553500       -15.0615
  22   2.0000      -0.526265       -14.3204
  23   2.0000      -0.431410       -11.7393
  24   2.0000      -0.369283       -10.0487
  25   2.0000      -0.344839        -9.3836
  26   2.0000      -0.339432        -9.2364
  27   0.0000      -0.008550        -0.2327
  28   0.0000       0.016106         0.4383
  29   0.0000       0.035472         0.9652
  30   0.0000       0.051046         1.3890
  31   0.0000       0.068716         1.8699

MULLIKEN ATOMIC CHARGES
-----------------------
   0 S :   -0.395712
   1 S :   -0.216114
   2 N :   -0.344765
   3 C :    0.498820
   4 C :   -0.143509
   5 H :    0.123853
   6 H :    0.140856
   7 H :    0.336570
Sum of atomic charges:    0.0000000

LOEWDIN ATOMIC CHARGES
----------------------
   0 S :    0.863370
   1 S :    0.985707
   2 N :    0.750175
   3 C :   -1.068111
   4 C :   -0.603087
   5 H :   -0.307292
   6 H :   -0.308451
   7 H :   -0.312312

  Mayer bond orders larger than 0.100000
B(  0-S ,  3-C ) :   1.5483 B(  1-S ,  4-C ) :   1.7498 B(  2-N ,  3-C ) :   1.1457
B(  2-N ,  4-C ) :  -0.1556 B(  2-N ,  5-H ) :   1.0590 B(  2-N ,  6-H ) :   1.0335
B(  3-C ,  4-C ) :   0.8170 B(  4-C ,  7-H ) :   0.8503

MP2 TOTAL ENERGY:     -927.921201561 Eh
FINAL SINGLE POINT ENERGY      -927.921201561194

DIPOLE MOMENT
-------------
                                X             Y             Z
Electronic contribution:      2.38432      -3.37975      -0.01818
Nuclear contribution   :     -2.77547       5.32393       0.01658
                        -----------------------------------------
Total Dipole Moment    :     -0.39115       1.94418      -0.00160
                        -----------------------------------------
Magnitude (a.u.)       :      1.98314
Magnitude (Debye)      :      5.04074

Rotational constants in cm-1:     0.177751     0.071755     0.051124
Rotational constants in MHz :  5328.841955  2151.173168  1532.664707

                             ****ORCA TERMINATED NORMALLY****
TOTAL RUN TIME: 0 days 0 hours 1 minutes 19 seconds 664 msec
