                         Program Version 5.0.3 -  RELEASE  -
|  1> !ri-mp2 aug-cc-pvtz aug-cc-pvtz/c tightscf
|  2> %pal nprocs 16 end
|  3>
|  4> * xyz 0 1
|  5> C      0.000000    0.000000    0.603507
|  6> C      0.000000    0.000000   -0.603507
|  7> C      0.000000    0.000000    1.966164
|  8> C      0.000000    0.000000   -1.966164
|  9> N      0.000000    0.000000    3.122257
| 10> N      0.000000    0.000000   -3.122257
| 11> *
| 12>
| 13>                          ****END OF INPUT****

CARTESIAN COORDINATES (ANGSTROEM)
---------------------------------
  C      0.000000    0.000000    0.603507
  C      0.000000    0.000000   -0.603507
  C      0.000000    0.000000    1.966164
  C      0.000000    0.000000   -1.966164
  N      0.000000    0.000000    3.122257
  N      0.000000    0.000000   -3.122257

 Total Charge           Charge          ....    0
 Multiplicity           Mult            ....    1
 Number of Electrons    NEL             ....   38
 Basis Dimension        Dim             ....  276

ORBITAL ENERGIES
----------------

  NO   OCC          E(Eh)            E(eV)
   0   2.0000     -15.639283      -425.5665
   1   2.0000     -15.639283      -425.5665
   2   2.0000     -11.352902      -308.9282
   3   2.0000     -11.349229      -308.8282
   4   2.0000     -11.338512      -308.5366
   5   2.0000     -11.338503      -308.5364
   6   2.0000      -1.279933       -34.8288
   7   2.0000      -1.276800       -34.7435
   8   2.0000      -1.148465       -31.2513
   9   2.0000      -0.990023       -26.9399
  10   2.0000      -0.884568       -24.0703
  11   2.0000      -0.619434       -16.8557
  12   2.0000      -0.617508       -16.8032
  13   2.0000      -0.601066       -16.3558
  14   2.0000      -0.601066       -16.3558
  15   2.0000      -0.546141       -14.8613
  16   2.0000      -0.546141       -14.8613
  17   2.0000      -0.442313       -12.0360
  18   2.0000      -0.442313       -12.0360
  19   0.0000       0.015398         0.4190
  20   0.0000       0.015398         0.4190
  21   0.0000       0.039428         1.0729
  22   0.0000       0.050855         1.3838
  23   0.0000       0.067280         1.8308

MULLIKEN ATOMIC CHARGES
-----------------------
   0 C :    0.409674
   1 C :    0.409674
   2 C :    0.097231
   3 C :    0.097231
   4 N :   -0.506905
   5 N :   -0.506905
Sum of atomic charges:   -0.0000000

LOEWDIN ATOMIC CHARGES
----------------------
   0 C :    0.003079
   1 C :    0.003079
   2 C :   -0.295416
   3 C :   -0.295416
   4 N :    0.292338
   5 N :    0.292338

  Mayer bond orders larger than 0.100000
B(  0-C ,  1-C ) :   1.3560 B(  0-C ,  3-C ) :   0.5531 B(  0-C ,  4-N ) :   0.5918
B(  0-C ,  5-N ) :  -0.2667 B(  1-C ,  2-C ) :   0.5531 B(  1-C ,  4-N ) :  -0.2667
B(  1-C ,  5-N ) :   0.5918 B(  2-C ,  3-C ) :   0.8059 B(  2-C ,  4-N ) :   1.9450
B(  2-C ,  5-N ) :  -0.1700 B(  3-C ,  4-N ) :  -0.1700 B(  3-C ,  5-N ) :   1.9450

MP2 TOTAL ENERGY:     -261.333841147 Eh
FINAL SINGLE POINT ENERGY      -261.333841146699

DIPOLE MOMENT
-------------
                                X             Y             Z
Electronic contribution:     -0.00000      -0.00000      -0.00000
Nuclear contribution   :      0.00000       0.00000       0.00000
                        -----------------------------------------
Total Dipole Moment    :     -0.00000      -0.00000      -0.00000
                        -----------------------------------------
Magnitude (a.u.)       :      0.00000
Magnitude (Debye)      :      0.00000

Rotational constants in cm-1:     0.000000     0.044989     0.044989
Rotational constants in MHz :     0.000000  1348.729749  1348.729749

                             ****ORCA TERMINATED NORMALLY****
TOTAL RUN TIME: 0 days 0 hours 0 minutes 44 seconds 955 msec
