                         Program Version 5.0.3 -  RELEASE  -
|  1> !ri-mp2 aug-cc-pvtz aug-cc-pvtz/c tightscf
|  2> %pal nprocs 16 end
|  3>
|  4> * xyz 0 1
|  5> C     -2.271210   -0.667396    0.006455
|  6> C     -1.340708   -1.693820    0.003564
|  7> C     -1.847275    0.658049   -0.000251
|  8> C      0.022067   -1.392654   -0.001131
|  9> C     -0.492758    0.980526   -0.008667
| 10> C      0.445302   -0.071805   -0.005646
| 11> C      2.767671   -0.660845    0.004342
| 12> N     -0.043263    2.295390   -0.074695
| 13> O      1.756422    0.332204    0.000731
| 14> H     -3.329530   -0.889156    0.012129
| 15> H     -1.659536   -2.726611    0.006451
| 16> H     -2.575105    1.460127   -0.006553
| 17> H      0.743830   -2.195462    0.001739
| 18> H      2.710088   -1.289626   -0.887662
| 19> H      2.704278   -1.291535    0.894876
| 20> H      3.714636   -0.127595    0.007528
| 21> H     -0.670523    2.990656    0.293401
| 22> H      0.914787    2.431518    0.203116
| 23> *
| 24>
| 25>                          ****END OF INPUT****

CARTESIAN COORDINATES (ANGSTROEM)
---------------------------------
  C     -2.271210   -0.667396    0.006455
  C     -1.340708   -1.693820    0.003564
  C     -1.847275    0.658049   -0.000251
  C      0.022067   -1.392654   -0.001131
  C     -0.492758    0.980526   -0.008667
  C      0.445302   -0.071805   -0.005646
  C      2.767671   -0.660845    0.004342
  N     -0.043263    2.295390   -0.074695
  O      1.756422    0.332204    0.000731
  H     -3.329530   -0.889156    0.012129
  H     -1.659536   -2.726611    0.006451
  H     -2.575105    1.460127   -0.006553
  H      0.743830   -2.195462    0.001739
  H      2.710088   -1.289626   -0.887662
  H      2.704278   -1.291535    0.894876
  H      3.714636   -0.127595    0.007528
  H     -0.670523    2.990656    0.293401
  H      0.914787    2.431518    0.203116

 Total Charge           Charge          ....    0
 Multiplicity           Mult            ....    1
 Number of Electrons    NEL             ....   66
 Basis Dimension        Dim             ....  621

ORBITAL ENERGIES
----------------

  NO   OCC          E(Eh)            E(eV)
   0   2.0000     -20.584210      -560.1248
   1   2.0000     -15.556015      -423.3007
   2   2.0000     -11.288160      -307.1665
   3   2.0000     -11.284655      -307.0711
   4   2.0000     -11.270529      -306.6867
   5   2.0000     -11.228806      -305.5514
   6   2.0000     -11.223906      -305.4180
   7   2.0000     -11.221895      -305.3633
   8   2.0000     -11.220255      -305.3187
   9   2.0000      -1.407577       -38.3021
  10   2.0000      -1.216336       -33.0982
  11   2.0000      -1.124804       -30.6075
  12   2.0000      -1.012872       -27.5616
  13   2.0000      -0.993395       -27.0317
  14   2.0000      -0.938668       -25.5425
  15   2.0000      -0.825628       -22.4665
  16   2.0000      -0.807431       -21.9713
  17   2.0000      -0.718222       -19.5438
  18   2.0000      -0.697861       -18.9898
  19   2.0000      -0.674577       -18.3562
  20   2.0000      -0.655727       -17.8432
  21   2.0000      -0.627449       -17.0738
  22   2.0000      -0.616772       -16.7832
  23   2.0000      -0.598160       -16.2767
  24   2.0000      -0.574876       -15.6432
  25   2.0000      -0.543298       -14.7839
  26   2.0000      -0.532310       -14.4849
  27   2.0000      -0.502657       -13.6780
  28   2.0000      -0.487661       -13.2699
  29   2.0000      -0.477562       -12.9951
  30   2.0000      -0.444346       -12.0913
  31   2.0000      -0.324467        -8.8292
  32   2.0000      -0.281946        -7.6721
  33   0.0000       0.027607         0.7512
  34   0.0000       0.031955         0.8695
  35   0.0000       0.034422         0.9367
  36   0.0000       0.044542         1.2121
  37   0.0000       0.047454         1.2913

MULLIKEN ATOMIC CHARGES
-----------------------
   0 C :   -0.655327
   1 C :   -0.582146
   2 C :   -0.921327
   3 C :   -0.604373
   4 C :    1.069828
   5 C :    1.051299
   6 C :   -0.969908
   7 N :   -0.775018
   8 O :   -0.746833
   9 H :    0.542295
  10 H :    0.373438
  11 H :    0.425719
  12 H :    0.515995
  13 H :    0.381115
  14 H :    0.366498
  15 H :    0.343529
  16 H :    0.047474
  17 H :    0.137742
Sum of atomic charges:    0.0000000

LOEWDIN ATOMIC CHARGES
----------------------
   0 C :    0.175435
   1 C :    0.179496
   2 C :    0.208282
   3 C :    0.193997
   4 C :   -0.233100
   5 C :   -0.348132
   6 C :    0.343431
   7 N :    0.852211
   8 O :    0.577551
   9 H :   -0.189370
  10 H :   -0.193022
  11 H :   -0.182939
  12 H :   -0.206520
  13 H :   -0.173617
  14 H :   -0.174229
  15 H :   -0.180834
  16 H :   -0.308331
  17 H :   -0.340310

  Mayer bond orders larger than 0.100000
B(  0-C ,  1-C ) :   1.2813 B(  0-C ,  2-C ) :   1.3063 B(  0-C ,  3-C ) :   0.1614
B(  0-C ,  9-H ) :   0.5630 B(  0-C , 10-H ) :  -0.1103 B(  1-C ,  3-C ) :   1.1137
B(  1-C ,  4-C ) :   0.1589 B(  1-C ,  5-C ) :  -0.3802 B(  1-C , 10-H ) :   0.9235
B(  2-C ,  4-C ) :   0.7304 B(  2-C ,  5-C ) :  -0.1277 B(  2-C , 11-H ) :   0.8302
B(  3-C ,  5-C ) :   1.0398 B(  3-C ,  8-O ) :  -0.3808 B(  3-C , 10-H ) :  -0.1093
B(  3-C , 12-H ) :   0.5806 B(  4-C ,  5-C ) :   1.0666 B(  4-C ,  7-N ) :   0.2811
B(  4-C ,  8-O ) :   0.2459 B(  5-C ,  8-O ) :   0.3973 B(  5-C ,  9-H ) :   0.1091
B(  6-C ,  8-O ) :   1.0842 B(  6-C , 13-H ) :   0.8528 B(  6-C , 14-H ) :   0.8664
B(  6-C , 15-H ) :   0.9578 B(  7-N , 16-H ) :   1.1681 B(  7-N , 17-H ) :   1.0522

MP2 TOTAL ENERGY:     -401.356796322 Eh
FINAL SINGLE POINT ENERGY      -401.356796321648

DIPOLE MOMENT
-------------
                                X             Y             Z
Electronic contribution:     -2.15996       1.56463      -0.16438
Nuclear contribution   :      2.59708      -1.62946       0.52800
                        -----------------------------------------
Total Dipole Moment    :      0.43712      -0.06484       0.36362
                        -----------------------------------------
Magnitude (a.u.)       :      0.57227
Magnitude (Debye)      :      1.45460

Rotational constants in cm-1:     0.086028     0.051973     0.032625
Rotational constants in MHz :  2579.048836  1558.125171   978.075782

                             ****ORCA TERMINATED NORMALLY****
TOTAL RUN TIME: 0 days 0 hours 9 minutes 0 seconds 716 msec
