                         Program Version 5.0.3 -  RELEASE  -
|  1> !ri-mp2 aug-cc-pvtz aug-cc-pvtz/c tightscf
|  2> %pal nprocs 16 end
|  3>
|  4> * xyz 0 1
|  5> C     -1.465797    0.872297    0.156005
|  6> C     -1.620855   -0.609455    0.335459
|  7> C     -0.276897    1.302884   -0.242595
|  8> C     -0.393911   -1.261059   -0.306555
|  9> O      1.765599   -0.030829    0.858773
| 10> S      0.967718    0.002094   -0.419379
| 11> H     -2.288404    1.542755    0.376595
| 12> H     -1.699412   -0.844109    1.400319
| 13> H     -2.540491   -0.970774   -0.129233
| 14> H      0.033910    2.327308   -0.379703
| 15> H      0.024673   -2.096585    0.248885
| 16> H     -0.593786   -1.573461   -1.330850
| 17> *
| 18>
| 19>                          ****END OF INPUT****

CARTESIAN COORDINATES (ANGSTROEM)
---------------------------------
  C     -1.465797    0.872297    0.156005
  C     -1.620855   -0.609455    0.335459
  C     -0.276897    1.302884   -0.242595
  C     -0.393911   -1.261059   -0.306555
  O      1.765599   -0.030829    0.858773
  S      0.967718    0.002094   -0.419379
  H     -2.288404    1.542755    0.376595
  H     -1.699412   -0.844109    1.400319
  H     -2.540491   -0.970774   -0.129233
  H      0.033910    2.327308   -0.379703
  H      0.024673   -2.096585    0.248885
  H     -0.593786   -1.573461   -1.330850

 Total Charge           Charge          ....    0
 Multiplicity           Mult            ....    1
 Number of Electrons    NEL             ....   54
 Basis Dimension        Dim             ....  418

ORBITAL ENERGIES
----------------

  NO   OCC          E(Eh)            E(eV)
   0   2.0000     -92.069580     -2505.3406
   1   2.0000     -20.501576      -557.8762
   2   2.0000     -11.271459      -306.7120
   3   2.0000     -11.270856      -306.6956
   4   2.0000     -11.264143      -306.5129
   5   2.0000     -11.260364      -306.4101
   6   2.0000      -9.055343      -246.4084
   7   2.0000      -6.736937      -183.3214
   8   2.0000      -6.736648      -183.3135
   9   2.0000      -6.735391      -183.2793
  10   2.0000      -1.325742       -36.0753
  11   2.0000      -1.147433       -31.2232
  12   2.0000      -1.011153       -27.5149
  13   2.0000      -0.970043       -26.3962
  14   2.0000      -0.817186       -22.2368
  15   2.0000      -0.762581       -20.7509
  16   2.0000      -0.697403       -18.9773
  17   2.0000      -0.660951       -17.9854
  18   2.0000      -0.588557       -16.0155
  19   2.0000      -0.563035       -15.3210
  20   2.0000      -0.558021       -15.1845
  21   2.0000      -0.550555       -14.9814
  22   2.0000      -0.532828       -14.4990
  23   2.0000      -0.524310       -14.2672
  24   2.0000      -0.412031       -11.2119
  25   2.0000      -0.393131       -10.6977
  26   2.0000      -0.365955        -9.9581
  27   0.0000       0.022579         0.6144
  28   0.0000       0.033303         0.9062
  29   0.0000       0.036714         0.9990
  30   0.0000       0.043525         1.1844
  31   0.0000       0.050746         1.3809

MULLIKEN ATOMIC CHARGES
-----------------------
   0 C :   -0.529075
   1 C :   -0.304093
   2 C :   -0.421805
   3 C :   -0.448065
   4 O :   -0.934735
   5 S :    0.580287
   6 H :    0.383929
   7 H :    0.300035
   8 H :    0.302596
   9 H :    0.523253
  10 H :    0.275501
  11 H :    0.272172
Sum of atomic charges:    0.0000000

LOEWDIN ATOMIC CHARGES
----------------------
   0 C :    0.147748
   1 C :    0.216291
   2 C :    0.019947
   3 C :    0.133320
   4 O :   -0.208714
   5 S :    0.835430
   6 H :   -0.173601
   7 H :   -0.149444
   8 H :   -0.155710
   9 H :   -0.247732
  10 H :   -0.205987
  11 H :   -0.211547

  Mayer bond orders larger than 0.100000
B(  0-C ,  1-C ) :   0.8457 B(  0-C ,  2-C ) :   1.5953 B(  0-C ,  6-H ) :   0.9115
B(  1-C ,  3-C ) :   1.0011 B(  1-C ,  7-H ) :   0.9203 B(  1-C ,  8-H ) :   0.9302
B(  2-C ,  5-S ) :   0.9747 B(  2-C ,  9-H ) :   0.7103 B(  3-C ,  5-S ) :   0.8838
B(  3-C , 10-H ) :   0.9157 B(  3-C , 11-H ) :   0.9377 B(  4-O ,  5-S ) :   1.3332

MP2 TOTAL ENERGY:     -628.484999293 Eh
FINAL SINGLE POINT ENERGY      -628.484999292898

DIPOLE MOMENT
-------------
                                X             Y             Z
Electronic contribution:      5.15454       1.50415      -0.99935
Nuclear contribution   :     -7.01470      -1.60379       0.21096
                        -----------------------------------------
Total Dipole Moment    :     -1.86016      -0.09964      -0.78839
                        -----------------------------------------
Magnitude (a.u.)       :      2.02279
Magnitude (Debye)      :      5.14152

Rotational constants in cm-1:     0.178347     0.093819     0.075196
Rotational constants in MHz :  5346.696494  2812.608039  2254.328138

                             ****ORCA TERMINATED NORMALLY****
TOTAL RUN TIME: 0 days 0 hours 3 minutes 1 seconds 641 msec
