                         Program Version 5.0.3 -  RELEASE  -
|  1> !ri-mp2 aug-cc-pvtz aug-cc-pvtz/c tightscf
|  2> %pal nprocs 16 end
|  3>
|  4> * xyz 0 1
|  5> S      2.745348   -0.356309    0.000063
|  6> O     -0.994220   -1.299184    0.000009
|  7> N     -3.011806   -0.267700   -0.000097
|  8> N      0.394126    1.102920   -0.000391
|  9> C     -1.019553    1.122041    0.000287
| 10> C     -1.651289   -0.284113    0.000026
| 11> C      1.362947    0.407332   -0.000131
| 12> H     -1.377130    1.669767   -0.876347
| 13> H     -1.376320    1.668960    0.877770
| 14> H     -3.544575    0.582927   -0.000097
| 15> H     -3.502658   -1.145330   -0.000094
| 16> *
| 17>
| 18>                          ****END OF INPUT****

CARTESIAN COORDINATES (ANGSTROEM)
---------------------------------
  S      2.745348   -0.356309    0.000063
  O     -0.994220   -1.299184    0.000009
  N     -3.011806   -0.267700   -0.000097
  N      0.394126    1.102920   -0.000391
  C     -1.019553    1.122041    0.000287
  C     -1.651289   -0.284113    0.000026
  C      1.362947    0.407332   -0.000131
  H     -1.377130    1.669767   -0.876347
  H     -1.376320    1.668960    0.877770
  H     -3.544575    0.582927   -0.000097
  H     -3.502658   -1.145330   -0.000094

 Total Charge           Charge          ....    0
 Multiplicity           Mult            ....    1
 Number of Electrons    NEL             ....   60
 Basis Dimension        Dim             ....  418

ORBITAL ENERGIES
----------------

  NO   OCC          E(Eh)            E(eV)
   0   2.0000     -91.940421     -2501.8260
   1   2.0000     -20.546246      -559.0918
   2   2.0000     -15.608903      -424.7398
   3   2.0000     -15.603422      -424.5907
   4   2.0000     -11.379779      -309.6595
   5   2.0000     -11.373458      -309.4875
   6   2.0000     -11.325511      -308.1828
   7   2.0000      -8.943799      -243.3731
   8   2.0000      -6.625441      -180.2874
   9   2.0000      -6.622908      -180.2185
  10   2.0000      -6.622700      -180.2128
  11   2.0000      -1.412519       -38.4366
  12   2.0000      -1.294091       -35.2140
  13   2.0000      -1.238785       -33.7091
  14   2.0000      -1.070209       -29.1219
  15   2.0000      -1.000892       -27.2357
  16   2.0000      -0.849871       -23.1262
  17   2.0000      -0.772440       -21.0191
  18   2.0000      -0.711901       -19.3718
  19   2.0000      -0.697754       -18.9868
  20   2.0000      -0.681234       -18.5373
  21   2.0000      -0.632503       -17.2113
  22   2.0000      -0.587920       -15.9981
  23   2.0000      -0.579253       -15.7623
  24   2.0000      -0.535919       -14.5831
  25   2.0000      -0.523438       -14.2435
  26   2.0000      -0.457119       -12.4388
  27   2.0000      -0.440097       -11.9756
  28   2.0000      -0.359807        -9.7909
  29   2.0000      -0.350048        -9.5253
  30   0.0000       0.012571         0.3421
  31   0.0000       0.032638         0.8881
  32   0.0000       0.036548         0.9945
  33   0.0000       0.044484         1.2105
  34   0.0000       0.067216         1.8290

MULLIKEN ATOMIC CHARGES
-----------------------
   0 S :   -0.338951
   1 O :   -0.735875
   2 N :   -0.332015
   3 N :   -0.000529
   4 C :    0.324732
   5 C :    0.442894
   6 C :   -0.362171
   7 H :    0.357142
   8 H :    0.357184
   9 H :    0.129799
  10 H :    0.157789
Sum of atomic charges:    0.0000000

LOEWDIN ATOMIC CHARGES
----------------------
   0 S :    0.838266
   1 O :    0.447535
   2 N :    0.851795
   3 N :    0.220758
   4 C :    0.106280
   5 C :   -0.667165
   6 C :   -0.891951
   7 H :   -0.160431
   8 H :   -0.160383
   9 H :   -0.297842
  10 H :   -0.286863

  Mayer bond orders larger than 0.100000
B(  0-S ,  6-C ) :   1.8406 B(  1-O ,  5-C ) :   1.5092 B(  2-N ,  5-C ) :   1.0218
B(  2-N ,  9-H ) :   1.0615 B(  2-N , 10-H ) :   1.0418 B(  3-N ,  4-C ) :   0.4294
B(  3-N ,  6-C ) :   2.0494 B(  4-C ,  5-C ) :   0.6364 B(  4-C ,  6-C ) :  -0.3411
B(  4-C ,  7-H ) :   0.8826 B(  4-C ,  8-H ) :   0.8826

MP2 TOTAL ENERGY:     -698.655008968 Eh
FINAL SINGLE POINT ENERGY      -698.655008968131

DIPOLE MOMENT
-------------
                                X             Y             Z
Electronic contribution:      7.22395      -1.48044      -0.00077
Nuclear contribution   :     -9.62155       2.68932       0.00119
                        -----------------------------------------
Total Dipole Moment    :     -2.39760       1.20887       0.00043
                        -----------------------------------------
Magnitude (a.u.)       :      2.68512
Magnitude (Debye)      :      6.82502

Rotational constants in cm-1:     0.221957     0.034843     0.030283
Rotational constants in MHz :  6654.116703  1044.569240   907.870851

                             ****ORCA TERMINATED NORMALLY****
TOTAL RUN TIME: 0 days 0 hours 2 minutes 42 seconds 336 msec
