                         Program Version 5.0.3 -  RELEASE  -
|  1> !ri-mp2 aug-cc-pvtz aug-cc-pvtz/c tightscf
|  2> %pal nprocs 16 end
|  3>
|  4> * xyz 0 1
|  5> O     -0.353454   -1.104461    0.000000
|  6> N      0.000000    1.089677    0.000000
|  7> C     -1.093179    0.134053    0.000000
|  8> C      0.952187   -0.943381    0.000000
|  9> C      1.214335    0.602031    0.000000
| 10> H     -0.198428    2.081953    0.000000
| 11> H     -1.707000    0.184886    0.898569
| 12> H     -1.707000    0.184886   -0.898569
| 13> *
| 14>
| 15>                          ****END OF INPUT****

CARTESIAN COORDINATES (ANGSTROEM)
---------------------------------
  O     -0.353454   -1.104461    0.000000
  N      0.000000    1.089677    0.000000
  C     -1.093179    0.134053    0.000000
  C      0.952187   -0.943381    0.000000
  C      1.214335    0.602031    0.000000
  H     -0.198428    2.081953    0.000000
  H     -1.707000    0.184886    0.898569
  H     -1.707000    0.184886   -0.898569

 Total Charge           Charge          ....    0
 Multiplicity           Mult            ....    1
 Number of Electrons    NEL             ....   36
 Basis Dimension        Dim             ....  299

ORBITAL ENERGIES
----------------

  NO   OCC          E(Eh)            E(eV)
   0   2.0000     -20.649039      -561.8889
   1   2.0000     -15.647464      -425.7891
   2   2.0000     -11.362299      -309.1839
   3   2.0000     -11.305811      -307.6468
   4   2.0000     -11.266151      -306.5675
   5   2.0000      -1.484409       -40.3928
   6   2.0000      -1.287442       -35.0331
   7   2.0000      -1.032533       -28.0966
   8   2.0000      -0.886535       -24.1239
   9   2.0000      -0.822748       -22.3881
  10   2.0000      -0.726852       -19.7787
  11   2.0000      -0.722216       -19.6525
  12   2.0000      -0.646044       -17.5797
  13   2.0000      -0.591809       -16.1039
  14   2.0000      -0.552835       -15.0434
  15   2.0000      -0.494280       -13.4500
  16   2.0000      -0.382653       -10.4125
  17   2.0000      -0.359805        -9.7908
  18   0.0000       0.015162         0.4126
  19   0.0000       0.031890         0.8678
  20   0.0000       0.035923         0.9775
  21   0.0000       0.050155         1.3648
  22   0.0000       0.065523         1.7830

MULLIKEN ATOMIC CHARGES
-----------------------
   0 O :   -0.216911
   1 N :    0.040224
   2 C :   -0.232662
   3 C :   -0.177747
   4 C :   -0.305685
   5 H :    0.168052
   6 H :    0.362364
   7 H :    0.362364
Sum of atomic charges:    0.0000000

LOEWDIN ATOMIC CHARGES
----------------------
   0 O :    0.403823
   1 N :    0.338214
   2 C :   -0.024378
   3 C :   -0.143196
   4 C :    0.008974
   5 H :   -0.284110
   6 H :   -0.149664
   7 H :   -0.149664

  Mayer bond orders larger than 0.100000
B(  0-O ,  2-C ) :   0.7319 B(  0-O ,  3-C ) :   1.0436 B(  1-N ,  2-C ) :   0.8772
B(  1-N ,  4-C ) :   1.3285 B(  1-N ,  5-H ) :   1.0042 B(  2-C ,  3-C ) :   0.1120
B(  2-C ,  6-H ) :   0.8679 B(  2-C ,  7-H ) :   0.8679 B(  3-C ,  4-C ) :   0.3934

MP2 TOTAL ENERGY:     -245.455144681 Eh
FINAL SINGLE POINT ENERGY      -245.455144680987

DIPOLE MOMENT
-------------
                                X             Y             Z
Electronic contribution:      1.48315      -1.18854      -0.00000
Nuclear contribution   :     -3.54191       2.38938       0.00000
                        -----------------------------------------
Total Dipole Moment    :     -2.05877       1.20084      -0.00000
                        -----------------------------------------
Magnitude (a.u.)       :      2.38339
Magnitude (Debye)      :      6.05809

Rotational constants in cm-1:     0.324984     0.291537     0.158377
Rotational constants in MHz :  9742.760239  8740.070592  4748.020409

                             ****ORCA TERMINATED NORMALLY****
TOTAL RUN TIME: 0 days 0 hours 1 minutes 21 seconds 435 msec
