                         Program Version 5.0.3 -  RELEASE  -
|  1> !ri-mp2 aug-cc-pvtz aug-cc-pvtz/c tightscf
|  2> %pal nprocs 16 end
|  3>
|  4> * xyz 0 1
|  5> C     -1.467731    0.790367    0.000000
|  6> H     -1.610102    1.869749    0.000000
|  7> H     -1.963613    0.371038    0.877295
|  8> H     -1.963613    0.371038   -0.877295
|  9> C      0.530643   -2.135031    0.000000
| 10> H      0.736992   -3.175778    0.000000
| 11> C      0.314957   -0.952176    0.000000
| 12> C      0.000000    0.441174    0.000000
| 13> C      0.966097    1.364809    0.000000
| 14> H      2.010863    1.089814    0.000000
| 15> H      0.725678    2.419275    0.000000
| 16> *
| 17>
| 18>                          ****END OF INPUT****

CARTESIAN COORDINATES (ANGSTROEM)
---------------------------------
  C     -1.467731    0.790367    0.000000
  H     -1.610102    1.869749    0.000000
  H     -1.963613    0.371038    0.877295
  H     -1.963613    0.371038   -0.877295
  C      0.530643   -2.135031    0.000000
  H      0.736992   -3.175778    0.000000
  C      0.314957   -0.952176    0.000000
  C      0.000000    0.441174    0.000000
  C      0.966097    1.364809    0.000000
  H      2.010863    1.089814    0.000000
  H      0.725678    2.419275    0.000000

 Total Charge           Charge          ....    0
 Multiplicity           Mult            ....    1
 Number of Electrons    NEL             ....   36
 Basis Dimension        Dim             ....  368

ORBITAL ENERGIES
----------------

  NO   OCC          E(Eh)            E(eV)
   0   2.0000     -11.265760      -306.5569
   1   2.0000     -11.237010      -305.7746
   2   2.0000     -11.235373      -305.7300
   3   2.0000     -11.230396      -305.5946
   4   2.0000     -11.228427      -305.5410
   5   2.0000      -1.112561       -30.2743
   6   2.0000      -1.011204       -27.5163
   7   2.0000      -0.946519       -25.7561
   8   2.0000      -0.822475       -22.3807
   9   2.0000      -0.710896       -19.3445
  10   2.0000      -0.660618       -17.9763
  11   2.0000      -0.611466       -16.6388
  12   2.0000      -0.581117       -15.8130
  13   2.0000      -0.545996       -14.8573
  14   2.0000      -0.522725       -14.2241
  15   2.0000      -0.447162       -12.1679
  16   2.0000      -0.395781       -10.7697
  17   2.0000      -0.338909        -9.2222
  18   0.0000       0.030118         0.8196
  19   0.0000       0.033714         0.9174
  20   0.0000       0.038103         1.0368
  21   0.0000       0.047878         1.3028
  22   0.0000       0.050641         1.3780

MULLIKEN ATOMIC CHARGES
-----------------------
   0 C :   -0.984974
   1 H :    0.283457
   2 H :    0.260055
   3 H :    0.260055
   4 C :   -1.593927
   5 H :    0.444742
   6 C :    1.366841
   7 C :    0.807100
   8 C :   -1.484753
   9 H :    0.370080
  10 H :    0.271324
Sum of atomic charges:    0.0000000

LOEWDIN ATOMIC CHARGES
----------------------
   0 C :    0.553898
   1 H :   -0.180309
   2 H :   -0.168127
   3 H :   -0.168127
   4 C :    0.411521
   5 H :   -0.299389
   6 C :   -0.023330
   7 C :   -0.236509
   8 C :    0.538805
   9 H :   -0.213653
  10 H :   -0.214780

  Mayer bond orders larger than 0.100000
B(  0-C ,  1-H ) :   0.9598 B(  0-C ,  2-H ) :   0.9840 B(  0-C ,  3-H ) :   0.9840
B(  0-C ,  7-C ) :   0.9492 B(  4-C ,  5-H ) :   1.0632 B(  4-C ,  6-C ) :   0.9019
B(  4-C ,  7-C ) :  -0.1771 B(  4-C ,  8-C ) :   0.2244 B(  5-H ,  6-C ) :  -0.2129
B(  6-C ,  7-C ) :   0.7058 B(  6-C ,  8-C ) :  -0.2071 B(  7-C ,  8-C ) :   1.2184
B(  8-C ,  9-H ) :   0.9063 B(  8-C , 10-H ) :   1.0453

MP2 TOTAL ENERGY:     -193.628221224 Eh
FINAL SINGLE POINT ENERGY      -193.628221223821

DIPOLE MOMENT
-------------
                                X             Y             Z
Electronic contribution:      1.98192      -2.84163      -0.00000
Nuclear contribution   :     -2.11086       3.01231       0.00000
                        -----------------------------------------
Total Dipole Moment    :     -0.12895       0.17067      -0.00000
                        -----------------------------------------
Magnitude (a.u.)       :      0.21391
Magnitude (Debye)      :      0.54371

Rotational constants in cm-1:     0.313535     0.134580     0.095823
Rotational constants in MHz :  9399.529077  4034.610844  2872.710304

                             ****ORCA TERMINATED NORMALLY****
TOTAL RUN TIME: 0 days 0 hours 1 minutes 40 seconds 262 msec
