                         Program Version 5.0.3 -  RELEASE  -
|  1> !ri-mp2 aug-cc-pvtz aug-cc-pvtz/c tightscf
|  2> %pal nprocs 16 end
|  3>
|  4> * xyz 0 1
|  5> O     -1.068209    2.068569   -0.000013
|  6> O     -1.835661   -1.349617    0.000009
|  7> N      2.746608   -0.160912    0.000000
|  8> C      0.178758   -0.075978    0.000000
|  9> C     -0.472691    1.094157   -0.000007
| 10> C     -0.632050   -1.322264    0.000009
| 11> C      1.595368   -0.094455    0.000000
| 12> H     -0.011614   -2.233995    0.000017
| 13> *
| 14>
| 15>                          ****END OF INPUT****

CARTESIAN COORDINATES (ANGSTROEM)
---------------------------------
  O     -1.068209    2.068569   -0.000013
  O     -1.835661   -1.349617    0.000009
  N      2.746608   -0.160912    0.000000
  C      0.178758   -0.075978    0.000000
  C     -0.472691    1.094157   -0.000007
  C     -0.632050   -1.322264    0.000009
  C      1.595368   -0.094455    0.000000
  H     -0.011614   -2.233995    0.000017

 Total Charge           Charge          ....    0
 Multiplicity           Mult            ....    1
 Number of Electrons    NEL             ....   48
 Basis Dimension        Dim             ....  345

ORBITAL ENERGIES
----------------

  NO   OCC          E(Eh)            E(eV)
   0   2.0000     -20.715767      -563.7047
   1   2.0000     -20.592411      -560.3480
   2   2.0000     -15.601463      -424.5374
   3   2.0000     -11.469326      -312.0962
   4   2.0000     -11.387866      -309.8796
   5   2.0000     -11.327235      -308.2297
   6   2.0000     -11.312403      -307.8261
   7   2.0000      -1.564534       -42.5731
   8   2.0000      -1.435986       -39.0752
   9   2.0000      -1.255407       -34.1614
  10   2.0000      -1.156667       -31.4745
  11   2.0000      -0.923258       -25.1231
  12   2.0000      -0.853777       -23.2325
  13   2.0000      -0.807401       -21.9705
  14   2.0000      -0.736413       -20.0388
  15   2.0000      -0.721470       -19.6322
  16   2.0000      -0.680467       -18.5164
  17   2.0000      -0.664419       -18.0798
  18   2.0000      -0.594324       -16.1724
  19   2.0000      -0.587248       -15.9798
  20   2.0000      -0.537342       -14.6218
  21   2.0000      -0.510001       -13.8778
  22   2.0000      -0.470043       -12.7905
  23   2.0000      -0.405997       -11.0477
  24   0.0000       0.026985         0.7343
  25   0.0000       0.042696         1.1618
  26   0.0000       0.053575         1.4579
  27   0.0000       0.060038         1.6337
  28   0.0000       0.060878         1.6566

MULLIKEN ATOMIC CHARGES
-----------------------
   0 O :   -0.430096
   1 O :   -0.697642
   2 N :   -0.645839
   3 C :    1.076555
   4 C :    0.303239
   5 C :   -0.322124
   6 C :    0.171632
   7 H :    0.544275
Sum of atomic charges:    0.0000000

LOEWDIN ATOMIC CHARGES
----------------------
   0 O :    0.511952
   1 O :    0.437347
   2 N :    0.267235
   3 C :   -0.248996
   4 C :   -0.206646
   5 C :   -0.278424
   6 C :   -0.303030
   7 H :   -0.179439

  Mayer bond orders larger than 0.100000
B(  0-O ,  3-C ) :  -0.2076 B(  0-O ,  4-C ) :   2.0776 B(  1-O ,  5-C ) :   1.6833
B(  2-N ,  6-C ) :   2.1610 B(  3-C ,  4-C ) :   0.8594 B(  3-C ,  5-C ) :   0.7209
B(  3-C ,  6-C ) :   0.7985 B(  4-C ,  5-C ) :   0.1375 B(  4-C ,  6-C ) :   0.1173
B(  5-C ,  7-H ) :   0.6849

MP2 TOTAL ENERGY:     -357.568226872 Eh
FINAL SINGLE POINT ENERGY      -357.568226871567

DIPOLE MOMENT
-------------
                                X             Y             Z
Electronic contribution:     -0.24826       2.30841      -0.00002
Nuclear contribution   :     -0.03914      -2.10876       0.00002
                        -----------------------------------------
Total Dipole Moment    :     -0.28740       0.19964      -0.00000
                        -----------------------------------------
Magnitude (a.u.)       :      0.34993
Magnitude (Debye)      :      0.88946

Rotational constants in cm-1:     0.121717     0.077947     0.047517
Rotational constants in MHz :  3648.986536  2336.797942  1424.532450

                             ****ORCA TERMINATED NORMALLY****
TOTAL RUN TIME: 0 days 0 hours 1 minutes 41 seconds 95 msec
