                         Program Version 5.0.3 -  RELEASE  -
|  1> !ri-mp2 aug-cc-pvtz aug-cc-pvtz/c tightscf
|  2> %pal nprocs 16 end
|  3>
|  4> * xyz 0 1
|  5> C     -2.206969   -0.247941    0.120536
|  6> C      1.308098    1.482588   -0.007133
|  7> C     -1.084035    0.682292   -0.327997
|  8> C      0.256250    0.451574    0.355516
|  9> Cl     0.901845   -1.220351   -0.068863
| 10> H     -3.140782    0.008425   -0.380359
| 11> H     -2.375597   -0.171892    1.196607
| 12> H     -1.974733   -1.286618   -0.109767
| 13> H      0.967730    2.473657    0.301639
| 14> H      2.253331    1.274190    0.490384
| 15> H      1.481667    1.499431   -1.083110
| 16> H     -1.364879    1.719380   -0.116341
| 17> H     -0.943092    0.614242   -1.409190
| 18> H      0.124917    0.404075    1.435284
| 19> *
| 20>
| 21>                          ****END OF INPUT****

CARTESIAN COORDINATES (ANGSTROEM)
---------------------------------
  C     -2.206969   -0.247941    0.120536
  C      1.308098    1.482588   -0.007133
  C     -1.084035    0.682292   -0.327997
  C      0.256250    0.451574    0.355516
  Cl     0.901845   -1.220351   -0.068863
  H     -3.140782    0.008425   -0.380359
  H     -2.375597   -0.171892    1.196607
  H     -1.974733   -1.286618   -0.109767
  H      0.967730    2.473657    0.301639
  H      2.253331    1.274190    0.490384
  H      1.481667    1.499431   -1.083110
  H     -1.364879    1.719380   -0.116341
  H     -0.943092    0.614242   -1.409190
  H      0.124917    0.404075    1.435284

 Total Charge           Charge          ....    0
 Multiplicity           Mult            ....    1
 Number of Electrons    NEL             ....   50
 Basis Dimension        Dim             ....  441

ORBITAL ENERGIES
----------------

  NO   OCC          E(Eh)            E(eV)
   0   2.0000    -104.811843     -2852.0752
   1   2.0000     -11.299454      -307.4738
   2   2.0000     -11.236167      -305.7517
   3   2.0000     -11.230172      -305.5885
   4   2.0000     -11.217625      -305.2471
   5   2.0000     -10.536089      -286.7016
   6   2.0000      -8.002779      -217.7667
   7   2.0000      -8.001198      -217.7237
   8   2.0000      -8.001185      -217.7233
   9   2.0000      -1.141585       -31.0641
  10   2.0000      -1.036063       -28.1927
  11   2.0000      -0.991724       -26.9862
  12   2.0000      -0.876739       -23.8573
  13   2.0000      -0.790540       -21.5117
  14   2.0000      -0.649243       -17.6668
  15   2.0000      -0.612118       -16.6566
  16   2.0000      -0.604592       -16.4518
  17   2.0000      -0.583270       -15.8716
  18   2.0000      -0.539077       -14.6690
  19   2.0000      -0.513567       -13.9749
  20   2.0000      -0.499711       -13.5978
  21   2.0000      -0.493535       -13.4298
  22   2.0000      -0.475487       -12.9386
  23   2.0000      -0.425887       -11.5890
  24   2.0000      -0.425124       -11.5682
  25   0.0000       0.028652         0.7797
  26   0.0000       0.035397         0.9632
  27   0.0000       0.038026         1.0347
  28   0.0000       0.044389         1.2079
  29   0.0000       0.055666         1.5147

MULLIKEN ATOMIC CHARGES
-----------------------
   0 C :   -0.955730
   1 C :   -1.022691
   2 C :   -0.427797
   3 C :    0.291181
   4 Cl:   -0.477647
   5 H :    0.271731
   6 H :    0.269587
   7 H :    0.305718
   8 H :    0.278042
   9 H :    0.322029
  10 H :    0.280060
  11 H :    0.267542
  12 H :    0.318152
  13 H :    0.279825
Sum of atomic charges:    0.0000000

LOEWDIN ATOMIC CHARGES
----------------------
   0 C :    0.559350
   1 C :    0.498454
   2 C :    0.175338
   3 C :   -0.535123
   4 Cl:    0.906155
   5 H :   -0.172526
   6 H :   -0.170958
   7 H :   -0.198453
   8 H :   -0.169591
   9 H :   -0.185011
  10 H :   -0.176580
  11 H :   -0.152666
  12 H :   -0.158483
  13 H :   -0.219905

  Mayer bond orders larger than 0.100000
B(  0-C ,  2-C ) :   0.8576 B(  0-C ,  5-H ) :   0.9815 B(  0-C ,  6-H ) :   0.9595
B(  0-C ,  7-H ) :   0.9341 B(  1-C ,  3-C ) :   0.8160 B(  1-C ,  8-H ) :   0.9385
B(  1-C ,  9-H ) :   0.9636 B(  1-C , 10-H ) :   0.9627 B(  2-C ,  3-C ) :   0.9212
B(  2-C , 11-H ) :   0.9139 B(  2-C , 12-H ) :   0.9087 B(  3-C ,  4-Cl) :   0.6361
B(  3-C , 13-H ) :   0.9168

MP2 TOTAL ENERGY:     -617.213425757 Eh
FINAL SINGLE POINT ENERGY      -617.213425756955

DIPOLE MOMENT
-------------
                                X             Y             Z
Electronic contribution:      5.97063      -7.49945      -0.26521
Nuclear contribution   :     -6.35195       8.40018       0.42977
                        -----------------------------------------
Total Dipole Moment    :     -0.38132       0.90073       0.16457
                        -----------------------------------------
Magnitude (a.u.)       :      0.99187
Magnitude (Debye)      :      2.52113

Rotational constants in cm-1:     0.151177     0.102324     0.065966
Rotational constants in MHz :  4532.181864  3067.588372  1977.603923

                             ****ORCA TERMINATED NORMALLY****
TOTAL RUN TIME: 0 days 0 hours 2 minutes 42 seconds 565 msec
