                         Program Version 5.0.3 -  RELEASE  -
|  1> !ri-mp2 aug-cc-pvtz aug-cc-pvtz/c tightscf
|  2> %pal nprocs 16 end
|  3>
|  4> * xyz 0 1
|  5> C     -1.368345   -0.812936    0.080163
|  6> H     -1.906003   -1.388570   -0.670058
|  7> H     -1.661689   -1.161174    1.072427
|  8> O      0.046311   -1.092004   -0.079668
|  9> C     -1.532303    0.714437   -0.061297
| 10> H     -2.174500    1.121723    0.721203
| 11> H     -1.979486    0.993680   -1.020378
| 12> C     -0.096949    1.168984    0.041568
| 13> H      0.227483    2.195282    0.084198
| 14> C      2.190006    0.000476    0.008583
| 15> H      2.539202   -0.503258   -0.895119
| 16> H      2.646994    0.986271    0.059826
| 17> H      2.528636   -0.591735    0.860936
| 18> C      0.709071    0.109674    0.001700
| 19> *
| 20>
| 21>                          ****END OF INPUT****

CARTESIAN COORDINATES (ANGSTROEM)
---------------------------------
  C     -1.368345   -0.812936    0.080163
  H     -1.906003   -1.388570   -0.670058
  H     -1.661689   -1.161174    1.072427
  O      0.046311   -1.092004   -0.079668
  C     -1.532303    0.714437   -0.061297
  H     -2.174500    1.121723    0.721203
  H     -1.979486    0.993680   -1.020378
  C     -0.096949    1.168984    0.041568
  H      0.227483    2.195282    0.084198
  C      2.190006    0.000476    0.008583
  H      2.539202   -0.503258   -0.895119
  H      2.646994    0.986271    0.059826
  H      2.528636   -0.591735    0.860936
  C      0.709071    0.109674    0.001700

 Total Charge           Charge          ....    0
 Multiplicity           Mult            ....    1
 Number of Electrons    NEL             ....   46
 Basis Dimension        Dim             ....  460

ORBITAL ENERGIES
----------------

  NO   OCC          E(Eh)            E(eV)
   0   2.0000     -20.568050      -559.6851
   1   2.0000     -11.285455      -307.0928
   2   2.0000     -11.278358      -306.8997
   3   2.0000     -11.229167      -305.5612
   4   2.0000     -11.225527      -305.4621
   5   2.0000     -11.205618      -304.9204
   6   2.0000      -1.396022       -37.9877
   7   2.0000      -1.063639       -28.9431
   8   2.0000      -1.035302       -28.1720
   9   2.0000      -0.928926       -25.2774
  10   2.0000      -0.825587       -22.4654
  11   2.0000      -0.738065       -20.0838
  12   2.0000      -0.673607       -18.3298
  13   2.0000      -0.665684       -18.1142
  14   2.0000      -0.601082       -16.3563
  15   2.0000      -0.578454       -15.7405
  16   2.0000      -0.546330       -14.8664
  17   2.0000      -0.540343       -14.7035
  18   2.0000      -0.526770       -14.3341
  19   2.0000      -0.511365       -13.9149
  20   2.0000      -0.485712       -13.2169
  21   2.0000      -0.480147       -13.0655
  22   2.0000      -0.316745        -8.6191
  23   0.0000       0.030724         0.8360
  24   0.0000       0.034571         0.9407
  25   0.0000       0.039121         1.0645
  26   0.0000       0.041476         1.1286
  27   0.0000       0.052981         1.4417

MULLIKEN ATOMIC CHARGES
-----------------------
   0 C :   -0.370075
   1 H :    0.302534
   2 H :    0.286168
   3 O :   -0.634625
   4 C :   -0.252973
   5 H :    0.301396
   6 H :    0.287198
   7 C :   -0.908907
   8 H :    0.303055
   9 C :   -0.794388
  10 H :    0.286480
  11 H :    0.266824
  12 H :    0.277326
  13 C :    0.649986
Sum of atomic charges:   -0.0000000

LOEWDIN ATOMIC CHARGES
----------------------
   0 C :    0.092583
   1 H :   -0.160450
   2 H :   -0.156553
   3 O :    0.573561
   4 C :    0.262947
   5 H :   -0.161828
   6 H :   -0.158698
   7 C :    0.235286
   8 H :   -0.192794
   9 C :    0.581995
  10 H :   -0.170000
  11 H :   -0.178681
  12 H :   -0.170286
  13 C :   -0.397084

  Mayer bond orders larger than 0.100000
B(  0-C ,  1-H ) :   0.9286 B(  0-C ,  2-H ) :   0.9380 B(  0-C ,  3-O ) :   0.7974
B(  0-C ,  4-C ) :   1.0029 B(  3-O ,  7-C ) :  -0.1010 B(  3-O , 13-C ) :   0.9413
B(  4-C ,  5-H ) :   0.9363 B(  4-C ,  6-H ) :   0.9226 B(  4-C ,  7-C ) :   0.8647
B(  7-C ,  8-H ) :   1.0632 B(  7-C , 13-C ) :   1.3813 B(  9-C , 10-H ) :   0.9928
B(  9-C , 11-H ) :   1.0153 B(  9-C , 12-H ) :   0.9959 B(  9-C , 13-C ) :   0.5548

MP2 TOTAL ENERGY:     -270.014834278 Eh
FINAL SINGLE POINT ENERGY      -270.014834277687

DIPOLE MOMENT
-------------
                                X             Y             Z
Electronic contribution:     -0.40693      -1.35907      -0.17328
Nuclear contribution   :      0.22735       1.67919       0.21750
                        -----------------------------------------
Total Dipole Moment    :     -0.17958       0.32012       0.04422
                        -----------------------------------------
Magnitude (a.u.)       :      0.36970
Magnitude (Debye)      :      0.93971

Rotational constants in cm-1:     0.252817     0.108970     0.079747
Rotational constants in MHz :  7579.262614  3266.844335  2390.742277

                             ****ORCA TERMINATED NORMALLY****
TOTAL RUN TIME: 0 days 0 hours 3 minutes 30 seconds 955 msec
