                         Program Version 5.0.3 -  RELEASE  -
|  1> !ri-mp2 aug-cc-pvtz aug-cc-pvtz/c tightscf
|  2> %pal nprocs 16 end
|  3>
|  4> * xyz 0 1
|  5> S     2.547758   -0.919099   -0.053026
|  6> S    -2.705184   -0.795536    0.103404
|  7> N     1.128924   -0.011693   -0.377571
|  8> N    -0.064029   -0.748349   -0.053981
|  9> N     1.139175    1.250598    0.371535
| 10> C    -1.124329   -0.028818   -0.115379
| 11> C    -1.120311    1.420199   -0.258114
| 12> C     0.038662    2.018372    0.067171
| 13> H     2.381553   -1.155465    1.277531
| 14> H    -2.221852   -2.049836    0.167875
| 15> H     2.042552    1.684451    0.251989
| 16> H    -2.024383    1.975775   -0.440590
| 17> H     0.148326    3.086836    0.195205
| 18> *
| 19>
| 20>                          ****END OF INPUT****

CARTESIAN COORDINATES (ANGSTROEM)
---------------------------------
  S      2.547758   -0.919099   -0.053026
  S     -2.705184   -0.795536    0.103404
  N      1.128924   -0.011693   -0.377571
  N     -0.064029   -0.748349   -0.053981
  N      1.139175    1.250598    0.371535
  C     -1.124329   -0.028818   -0.115379
  C     -1.120311    1.420199   -0.258114
  C      0.038662    2.018372    0.067171
  H      2.381553   -1.155465    1.277531
  H     -2.221852   -2.049836    0.167875
  H      2.042552    1.684451    0.251989
  H     -2.024383    1.975775   -0.440590
  H      0.148326    3.086836    0.195205

 Total Charge           Charge          ....    0
 Multiplicity           Mult            ....    1
 Number of Electrons    NEL             ....   76
 Basis Dimension        Dim             ....  491

ORBITAL ENERGIES
----------------

  NO   OCC          E(Eh)            E(eV)
   0   2.0000     -91.989957     -2503.1740
   1   2.0000     -91.977965     -2502.8477
   2   2.0000     -15.659295      -426.1111
   3   2.0000     -15.625021      -425.1784
   4   2.0000     -15.591953      -424.2786
   5   2.0000     -11.327703      -308.2425
   6   2.0000     -11.312757      -307.8358
   7   2.0000     -11.241095      -305.8857
   8   2.0000      -8.988021      -244.5765
   9   2.0000      -8.979449      -244.3432
  10   2.0000      -6.669264      -181.4799
  11   2.0000      -6.667852      -181.4415
  12   2.0000      -6.666907      -181.4158
  13   2.0000      -6.660763      -181.2486
  14   2.0000      -6.659705      -181.2198
  15   2.0000      -6.658746      -181.1937
  16   2.0000      -1.370499       -37.2932
  17   2.0000      -1.225130       -33.3375
  18   2.0000      -1.150623       -31.3100
  19   2.0000      -1.017961       -27.7001
  20   2.0000      -1.008559       -27.4443
  21   2.0000      -0.896858       -24.4047
  22   2.0000      -0.861735       -23.4490
  23   2.0000      -0.751947       -20.4615
  24   2.0000      -0.706790       -19.2327
  25   2.0000      -0.696016       -18.9396
  26   2.0000      -0.640211       -17.4210
  27   2.0000      -0.613491       -16.6939
  28   2.0000      -0.606926       -16.5153
  29   2.0000      -0.562854       -15.3160
  30   2.0000      -0.520221       -14.1559
  31   2.0000      -0.501159       -13.6372
  32   2.0000      -0.484574       -13.1859
  33   2.0000      -0.461805       -12.5663
  34   2.0000      -0.421768       -11.4769
  35   2.0000      -0.383291       -10.4299
  36   2.0000      -0.369520       -10.0551
  37   2.0000      -0.311635        -8.4800
  38   0.0000       0.023573         0.6414
  39   0.0000       0.037284         1.0145
  40   0.0000       0.038223         1.0401
  41   0.0000       0.050379         1.3709
  42   0.0000       0.054485         1.4826

MULLIKEN ATOMIC CHARGES
-----------------------
   0 S :   -0.132868
   1 S :   -0.371850
   2 N :   -0.130908
   3 N :   -0.566284
   4 N :   -0.161931
   5 C :    0.657558
   6 C :   -0.224547
   7 C :   -0.619589
   8 H :    0.173721
   9 H :    0.151312
  10 H :    0.111529
  11 H :    0.488525
  12 H :    0.625332
Sum of atomic charges:   -0.0000000

LOEWDIN ATOMIC CHARGES
----------------------
   0 S :    1.151560
   1 S :    1.312139
   2 N :   -0.436628
   3 N :    0.105778
   4 N :    0.360392
   5 C :   -0.839120
   6 C :    0.109766
   7 C :    0.074427
   8 H :   -0.544752
   9 H :   -0.559365
  10 H :   -0.351385
  11 H :   -0.225338
  12 H :   -0.157475

  Mayer bond orders larger than 0.100000
B(  0-S ,  2-N ) :   0.7700 B(  0-S ,  8-H ) :   0.9798 B(  1-S ,  5-C ) :   0.7823
B(  1-S ,  9-H ) :   1.0799 B(  2-N ,  3-N ) :   0.6762 B(  2-N ,  4-N ) :   0.8348
B(  3-N ,  5-C ) :   1.3370 B(  3-N ,  6-C ) :  -0.1155 B(  4-N ,  7-C ) :   1.0248
B(  4-N , 10-H ) :   1.0349 B(  5-C ,  6-C ) :   0.8012 B(  5-C ,  7-C ) :   0.1837
B(  6-C ,  7-C ) :   1.2920 B(  6-C , 11-H ) :   0.7596 B(  7-C , 12-H ) :   0.5216

MP2 TOTAL ENERGY:    -1076.386029268 Eh
FINAL SINGLE POINT ENERGY     -1076.386029268247

DIPOLE MOMENT
-------------
                                X             Y             Z
Electronic contribution:     -0.16515      -2.44020      -1.04781
Nuclear contribution   :      0.33352       3.48806       1.40597
                        -----------------------------------------
Total Dipole Moment    :      0.16837       1.04786       0.35815
                        -----------------------------------------
Magnitude (a.u.)       :      1.12010
Magnitude (Debye)      :      2.84708

Rotational constants in cm-1:     0.093903     0.031480     0.024070
Rotational constants in MHz :  2815.146379   943.749923   721.592652

                             ****ORCA TERMINATED NORMALLY****
TOTAL RUN TIME: 0 days 0 hours 4 minutes 58 seconds 544 msec
