                         Program Version 5.0.3 -  RELEASE  -
|  1> !ri-mp2 aug-cc-pvtz aug-cc-pvtz/c tightscf
|  2> %pal nprocs 16 end
|  3>
|  4> * xyz 0 1
|  5> F      1.606461   -0.410727    0.002376
|  6> N     -1.822683   -0.186473   -0.129924
|  7> C      0.603795    0.505949    0.008579
|  8> C     -0.650353    0.130122    0.010605
|  9> H     -2.343052   -0.348985    0.733356
| 10> H      0.923032    1.534412    0.039623
| 11> *
| 12>
| 13>                          ****END OF INPUT****

CARTESIAN COORDINATES (ANGSTROEM)
---------------------------------
  F      1.606461   -0.410727    0.002376
  N     -1.822683   -0.186473   -0.129924
  C      0.603795    0.505949    0.008579
  C     -0.650353    0.130122    0.010605
  H     -2.343052   -0.348985    0.733356
  H      0.923032    1.534412    0.039623

 Total Charge           Charge          ....    0
 Multiplicity           Mult            ....    1
 Number of Electrons    NEL             ....   30
 Basis Dimension        Dim             ....  230

ORBITAL ENERGIES
----------------

  NO   OCC          E(Eh)            E(eV)
   0   2.0000     -26.315697      -716.0865
   1   2.0000     -15.609054      -424.7440
   2   2.0000     -11.331492      -308.3456
   3   2.0000     -11.328261      -308.2577
   4   2.0000      -1.624579       -44.2070
   5   2.0000      -1.264739       -34.4153
   6   2.0000      -1.035361       -28.1736
   7   2.0000      -0.804213       -21.8838
   8   2.0000      -0.749919       -20.4063
   9   2.0000      -0.726970       -19.7819
  10   2.0000      -0.696221       -18.9451
  11   2.0000      -0.608319       -16.5532
  12   2.0000      -0.571109       -15.5407
  13   2.0000      -0.498474       -13.5642
  14   2.0000      -0.364338        -9.9142
  15   0.0000       0.024885         0.6772
  16   0.0000       0.037361         1.0166
  17   0.0000       0.069894         1.9019
  18   0.0000       0.078464         2.1351
  19   0.0000       0.091726         2.4960

MULLIKEN ATOMIC CHARGES
-----------------------
   0 F :   -0.406395
   1 N :   -0.458200
   2 C :   -0.266866
   3 C :    0.419561
   4 H :    0.255372
   5 H :    0.456529
Sum of atomic charges:   -0.0000000

LOEWDIN ATOMIC CHARGES
----------------------
   0 F :    0.411273
   1 N :    0.591796
   2 C :   -0.224793
   3 C :   -0.096949
   4 H :   -0.422380
   5 H :   -0.258947

  Mayer bond orders larger than 0.100000
B(  0-F ,  2-C ) :   0.7436 B(  1-N ,  3-C ) :   1.6732 B(  1-N ,  4-H ) :   0.8803
B(  2-C ,  3-C ) :   1.8337 B(  2-C ,  5-H ) :   0.7979

MP2 TOTAL ENERGY:     -231.564039506 Eh
FINAL SINGLE POINT ENERGY      -231.564039506334

DIPOLE MOMENT
-------------
                                X             Y             Z
Electronic contribution:      2.53349      -1.04719      -0.13933
Nuclear contribution   :     -2.87922       1.51723       0.73465
                        -----------------------------------------
Total Dipole Moment    :     -0.34574       0.47004       0.59532
                        -----------------------------------------
Magnitude (a.u.)       :      0.83360
Magnitude (Debye)      :      2.11884

Rotational constants in cm-1:     1.670143     0.150374     0.139646
Rotational constants in MHz : 50069.623993  4508.098561  4186.479011

                             ****ORCA TERMINATED NORMALLY****
TOTAL RUN TIME: 0 days 0 hours 0 minutes 34 seconds 603 msec
