                         Program Version 5.0.3 -  RELEASE  -
|  1> !ri-mp2 aug-cc-pvtz aug-cc-pvtz/c tightscf
|  2> %pal nprocs 16 end
|  3>
|  4> * xyz 0 1
|  5> C      0.000000    1.243074    0.098143
|  6> C      0.000000   -1.243074    0.098143
|  7> C      1.350214    1.778331   -0.300826
|  8> C     -1.350214   -1.778331   -0.300826
|  9> C      0.000000    0.000000    0.994477
| 10> O     -1.040368    1.730141   -0.279145
| 11> O      1.040368   -1.730141   -0.279145
| 12> H      1.852898    2.184930    0.580181
| 13> H      1.978873    0.968481   -0.675930
| 14> H      1.241245    2.557857   -1.049844
| 15> H     -1.241245   -2.557857   -1.049844
| 16> H     -1.852898   -2.184930    0.580181
| 17> H     -1.978873   -0.968481   -0.675930
| 18> H     -0.895614    0.031398    1.611420
| 19> H      0.895614   -0.031398    1.611420
| 20> *
| 21>
| 22>                          ****END OF INPUT****

CARTESIAN COORDINATES (ANGSTROEM)
---------------------------------
  C      0.000000    1.243074    0.098143
  C      0.000000   -1.243074    0.098143
  C      1.350214    1.778331   -0.300826
  C     -1.350214   -1.778331   -0.300826
  C      0.000000    0.000000    0.994477
  O     -1.040368    1.730141   -0.279145
  O      1.040368   -1.730141   -0.279145
  H      1.852898    2.184930    0.580181
  H      1.978873    0.968481   -0.675930
  H      1.241245    2.557857   -1.049844
  H     -1.241245   -2.557857   -1.049844
  H     -1.852898   -2.184930    0.580181
  H     -1.978873   -0.968481   -0.675930
  H     -0.895614    0.031398    1.611420
  H      0.895614   -0.031398    1.611420

 Total Charge           Charge          ....    0
 Multiplicity           Mult            ....    1
 Number of Electrons    NEL             ....   54
 Basis Dimension        Dim             ....  506

ORBITAL ENERGIES
----------------

  NO   OCC          E(Eh)            E(eV)
   0   2.0000     -20.561195      -559.4986
   1   2.0000     -20.561195      -559.4985
   2   2.0000     -11.349628      -308.8391
   3   2.0000     -11.349628      -308.8391
   4   2.0000     -11.255946      -306.2899
   5   2.0000     -11.240144      -305.8599
   6   2.0000     -11.240144      -305.8599
   7   2.0000      -1.407602       -38.3028
   8   2.0000      -1.401318       -38.1318
   9   2.0000      -1.076947       -29.3052
  10   2.0000      -1.023151       -27.8414
  11   2.0000      -0.976034       -26.5592
  12   2.0000      -0.782495       -21.2928
  13   2.0000      -0.739808       -20.1312
  14   2.0000      -0.672864       -18.3096
  15   2.0000      -0.664712       -18.0877
  16   2.0000      -0.664032       -18.0692
  17   2.0000      -0.628350       -17.0983
  18   2.0000      -0.602536       -16.3958
  19   2.0000      -0.595904       -16.2154
  20   2.0000      -0.574830       -15.6419
  21   2.0000      -0.557787       -15.1781
  22   2.0000      -0.539501       -14.6806
  23   2.0000      -0.512676       -13.9506
  24   2.0000      -0.509452       -13.8629
  25   2.0000      -0.435175       -11.8417
  26   2.0000      -0.415140       -11.2965
  27   0.0000       0.026534         0.7220
  28   0.0000       0.032753         0.8912
  29   0.0000       0.036356         0.9893
  30   0.0000       0.045891         1.2488
  31   0.0000       0.052144         1.4189

MULLIKEN ATOMIC CHARGES
-----------------------
   0 C :    0.536803
   1 C :    0.536803
   2 C :   -0.815764
   3 C :   -0.815764
   4 C :   -0.100793
   5 O :   -0.883203
   6 O :   -0.883203
   7 H :    0.314118
   8 H :    0.319353
   9 H :    0.310357
  10 H :    0.310357
  11 H :    0.314118
  12 H :    0.319353
  13 H :    0.268733
  14 H :    0.268733
Sum of atomic charges:    0.0000000

LOEWDIN ATOMIC CHARGES
----------------------
   0 C :   -0.528017
   1 C :   -0.528017
   2 C :    0.595602
   3 C :    0.595602
   4 C :    0.286768
   5 O :    0.472801
   6 O :    0.472801
   7 H :   -0.167286
   8 H :   -0.172818
   9 H :   -0.176599
  10 H :   -0.176599
  11 H :   -0.167286
  12 H :   -0.172818
  13 H :   -0.167067
  14 H :   -0.167067

  Mayer bond orders larger than 0.100000
B(  0-C ,  1-C ) :   0.3179 B(  0-C ,  2-C ) :   0.8427 B(  0-C ,  4-C ) :   0.7533
B(  0-C ,  5-O ) :   1.1524 B(  1-C ,  3-C ) :   0.8427 B(  1-C ,  4-C ) :   0.7533
B(  1-C ,  6-O ) :   1.1524 B(  2-C ,  7-H ) :   0.9265 B(  2-C ,  8-H ) :   0.9152
B(  2-C ,  9-H ) :   0.9443 B(  3-C , 10-H ) :   0.9443 B(  3-C , 11-H ) :   0.9265
B(  3-C , 12-H ) :   0.9152 B(  4-C , 13-H ) :   0.9483 B(  4-C , 14-H ) :   0.9483

MP2 TOTAL ENERGY:     -345.168871804 Eh
FINAL SINGLE POINT ENERGY      -345.168871803649

DIPOLE MOMENT
-------------
                                X             Y             Z
Electronic contribution:     -0.00000      -0.00000      -0.23039
Nuclear contribution   :      0.00000      -0.00000       0.93483
                        -----------------------------------------
Total Dipole Moment    :     -0.00000      -0.00000       0.70444
                        -----------------------------------------
Magnitude (a.u.)       :      0.70444
Magnitude (Debye)      :      1.79054

Rotational constants in cm-1:     0.138945     0.064374     0.050846
Rotational constants in MHz :  4165.473102  1929.891375  1524.319733

                             ****ORCA TERMINATED NORMALLY****
TOTAL RUN TIME: 0 days 0 hours 4 minutes 39 seconds 746 msec
