                         Program Version 5.0.3 -  RELEASE  -
|  1> !ri-mp2 aug-cc-pvtz aug-cc-pvtz/c tightscf
|  2> %pal nprocs 16 end
|  3>
|  4> * xyz 0 1
|  5> F     -2.150096   -0.001053    0.020213
|  6> N     -0.814685    0.069525   -0.443341
|  7> N     -0.277930    1.215684    0.168577
|  8> N     -0.249750   -1.157396    0.094708
|  9> C      1.005130    1.204416    0.110976
| 10> C      1.127688   -1.139416    0.040064
| 11> C      1.779078    0.018424   -0.196713
| 12> H     -0.688110   -1.456788    0.966414
| 13> H      1.504722    2.099325    0.462256
| 14> H      1.610499   -2.086619    0.240445
| 15> H      2.848926    0.058329   -0.316594
| 16> *
| 17>
| 18>                          ****END OF INPUT****

CARTESIAN COORDINATES (ANGSTROEM)
---------------------------------
  F     -2.150096   -0.001053    0.020213
  N     -0.814685    0.069525   -0.443341
  N     -0.277930    1.215684    0.168577
  N     -0.249750   -1.157396    0.094708
  C      1.005130    1.204416    0.110976
  C      1.127688   -1.139416    0.040064
  C      1.779078    0.018424   -0.196713
  H     -0.688110   -1.456788    0.966414
  H      1.504722    2.099325    0.462256
  H      1.610499   -2.086619    0.240445
  H      2.848926    0.058329   -0.316594

 Total Charge           Charge          ....    0
 Multiplicity           Mult            ....    1
 Number of Electrons    NEL             ....   52
 Basis Dimension        Dim             ....  414

ORBITAL ENERGIES
----------------

  NO   OCC          E(Eh)            E(eV)
   0   2.0000     -26.312928      -716.0112
   1   2.0000     -15.731727      -428.0821
   2   2.0000     -15.635065      -425.4518
   3   2.0000     -15.603867      -424.6028
   4   2.0000     -11.320275      -308.0404
   5   2.0000     -11.304438      -307.6094
   6   2.0000     -11.250425      -306.1396
   7   2.0000      -1.622853       -44.1601
   8   2.0000      -1.364276       -37.1238
   9   2.0000      -1.233838       -33.5744
  10   2.0000      -1.111811       -30.2539
  11   2.0000      -0.981261       -26.7015
  12   2.0000      -0.901686       -24.5361
  13   2.0000      -0.777910       -21.1680
  14   2.0000      -0.763970       -20.7887
  15   2.0000      -0.735063       -20.0021
  16   2.0000      -0.691194       -18.8084
  17   2.0000      -0.667500       -18.1636
  18   2.0000      -0.641170       -17.4471
  19   2.0000      -0.612551       -16.6684
  20   2.0000      -0.595470       -16.2036
  21   2.0000      -0.570338       -15.5197
  22   2.0000      -0.506128       -13.7724
  23   2.0000      -0.450665       -12.2632
  24   2.0000      -0.432290       -11.7632
  25   2.0000      -0.339500        -9.2383
  26   0.0000       0.021196         0.5768
  27   0.0000       0.030849         0.8395
  28   0.0000       0.038161         1.0384
  29   0.0000       0.052414         1.4263
  30   0.0000       0.067302         1.8314

MULLIKEN ATOMIC CHARGES
-----------------------
   0 F :   -0.397674
   1 N :    0.042669
   2 N :   -0.381888
   3 N :   -0.026389
   4 C :   -0.366781
   5 C :   -0.543499
   6 C :   -0.087204
   7 H :    0.071281
   8 H :    0.640506
   9 H :    0.620368
  10 H :    0.428610
Sum of atomic charges:    0.0000000

LOEWDIN ATOMIC CHARGES
----------------------
   0 F :    0.315571
   1 N :   -0.314018
   2 N :    0.227123
   3 N :    0.407768
   4 C :   -0.047783
   5 C :    0.076299
   6 C :    0.201605
   7 H :   -0.303186
   8 H :   -0.191926
   9 H :   -0.162214
  10 H :   -0.209239

  Mayer bond orders larger than 0.100000
B(  0-F ,  1-N ) :   0.7076 B(  1-N ,  2-N ) :   0.6901 B(  1-N ,  3-N ) :   0.6336
B(  2-N ,  3-N ) :   0.1035 B(  2-N ,  4-C ) :   1.4703 B(  2-N ,  6-C ) :  -0.1424
B(  3-N ,  5-C ) :   0.9719 B(  3-N ,  6-C ) :  -0.1022 B(  3-N ,  7-H ) :   1.0414
B(  4-C ,  5-C ) :   0.1540 B(  4-C ,  6-C ) :   0.8300 B(  4-C ,  8-H ) :   0.5142
B(  5-C ,  6-C ) :   1.3948 B(  5-C ,  9-H ) :   0.5421 B(  6-C , 10-H ) :   0.8018

MP2 TOTAL ENERGY:     -380.028444276 Eh
FINAL SINGLE POINT ENERGY      -380.028444275717

DIPOLE MOMENT
-------------
                                X             Y             Z
Electronic contribution:     -5.55926       0.61886      -0.65462
Nuclear contribution   :      7.14118      -1.33708       1.28640
                        -----------------------------------------
Total Dipole Moment    :      1.58192      -0.71822       0.63178
                        -----------------------------------------
Magnitude (a.u.)       :      1.84863
Magnitude (Debye)      :      4.69885

Rotational constants in cm-1:     0.190021     0.092251     0.064577
Rotational constants in MHz :  5696.678475  2765.627831  1935.982893

                             ****ORCA TERMINATED NORMALLY****
TOTAL RUN TIME: 0 days 0 hours 2 minutes 44 seconds 875 msec
