                         Program Version 5.0.3 -  RELEASE  -
|  1> !ri-mp2 aug-cc-pvtz aug-cc-pvtz/c tightscf
|  2> %pal nprocs 16 end
|  3>
|  4> * xyz 0 1
|  5> C      2.063464   -1.503763        0.000000
|  6> C      2.365819   -0.135580        0.000000
|  7> C      0.760060   -1.938693        0.000000
|  8> C      1.333452    0.772214        0.000000
|  9> C     -0.327896   -1.035393        0.000000
| 10> C      0.000000    0.344759        0.000000
| 11> N     -1.591077   -1.520223        0.000000
| 12> N     -1.021402    1.372732        0.000000
| 13> O     -0.674531    2.546284        0.000000
| 14> O     -2.211698    1.027891        0.000000
| 15> H      2.862699   -2.232880        0.000000
| 16> H      3.391203    0.202815        0.000000
| 17> H      0.541477   -2.998734        0.000000
| 18> H      1.518872    1.834417        0.000000
| 19> H     -1.742811   -2.511061        0.000000
| 20> H     -2.363649   -0.876785        0.000000
| 21> *
| 22>
| 23>                          ****END OF INPUT****

CARTESIAN COORDINATES (ANGSTROEM)
---------------------------------
  C      2.063464   -1.503763    0.000000
  C      2.365819   -0.135580    0.000000
  C      0.760060   -1.938693    0.000000
  C      1.333452    0.772214    0.000000
  C     -0.327896   -1.035393    0.000000
  C      0.000000    0.344759    0.000000
  N     -1.591077   -1.520223    0.000000
  N     -1.021402    1.372732    0.000000
  O     -0.674531    2.546284    0.000000
  O     -2.211698    1.027891    0.000000
  H      2.862699   -2.232880    0.000000
  H      3.391203    0.202815    0.000000
  H      0.541477   -2.998734    0.000000
  H      1.518872    1.834417    0.000000
  H     -1.742811   -2.511061    0.000000
  H     -2.363649   -0.876785    0.000000

 Total Charge           Charge          ....    0
 Multiplicity           Mult            ....    1
 Number of Electrons    NEL             ....   72
 Basis Dimension        Dim             ....  598

ORBITAL ENERGIES
----------------

  NO   OCC          E(Eh)            E(eV)
   0   2.0000     -20.596707      -560.4649
   1   2.0000     -20.593992      -560.3910
   2   2.0000     -15.851408      -431.3387
   3   2.0000     -15.588558      -424.1862
   4   2.0000     -11.332147      -308.3634
   5   2.0000     -11.295592      -307.3687
   6   2.0000     -11.270915      -306.6972
   7   2.0000     -11.268889      -306.6421
   8   2.0000     -11.249776      -306.1220
   9   2.0000     -11.241315      -305.8917
  10   2.0000      -1.597914       -43.4815
  11   2.0000      -1.389448       -37.8088
  12   2.0000      -1.264286       -34.4030
  13   2.0000      -1.169289       -31.8180
  14   2.0000      -1.092925       -29.7400
  15   2.0000      -1.025829       -27.9142
  16   2.0000      -0.951601       -25.8944
  17   2.0000      -0.859520       -23.3887
  18   2.0000      -0.841386       -22.8953
  19   2.0000      -0.770491       -20.9661
  20   2.0000      -0.728710       -19.8292
  21   2.0000      -0.726828       -19.7780
  22   2.0000      -0.719522       -19.5792
  23   2.0000      -0.715288       -19.4640
  24   2.0000      -0.660649       -17.9772
  25   2.0000      -0.625097       -17.0098
  26   2.0000      -0.623623       -16.9696
  27   2.0000      -0.563725       -15.3397
  28   2.0000      -0.561371       -15.2757
  29   2.0000      -0.529825       -14.4173
  30   2.0000      -0.492561       -13.4033
  31   2.0000      -0.486523       -13.2390
  32   2.0000      -0.476655       -12.9704
  33   2.0000      -0.451057       -12.2739
  34   2.0000      -0.377051       -10.2601
  35   2.0000      -0.316475        -8.6117
  36   0.0000       0.020758         0.5649
  37   0.0000       0.028341         0.7712
  38   0.0000       0.035834         0.9751
  39   0.0000       0.041785         1.1370
  40   0.0000       0.048474         1.3190

MULLIKEN ATOMIC CHARGES
-----------------------
   0 C :   -0.470008
   1 C :   -0.579390
   2 C :   -0.696419
   3 C :   -0.654116
   4 C :    1.231577
   5 C :    0.478299
   6 N :   -0.768688
   7 N :    0.694441
   8 O :   -0.692118
   9 O :   -0.695577
  10 H :    0.512007
  11 H :    0.415564
  12 H :    0.341068
  13 H :    0.653084
  14 H :    0.023280
  15 H :    0.206996
Sum of atomic charges:    0.0000000

LOEWDIN ATOMIC CHARGES
----------------------
   0 C :    0.202787
   1 C :    0.205274
   2 C :    0.229541
   3 C :    0.189849
   4 C :   -0.207621
   5 C :   -0.172646
   6 N :    0.872040
   7 N :   -0.677350
   8 O :    0.399822
   9 O :    0.431116
  10 H :   -0.169819
  11 H :   -0.191564
  12 H :   -0.183693
  13 H :   -0.204069
  14 H :   -0.285270
  15 H :   -0.438397

  Mayer bond orders larger than 0.100000
B(  0-C ,  1-C ) :   1.1049 B(  0-C ,  2-C ) :   1.3313 B(  0-C ,  3-C ) :   0.1774
B(  0-C , 10-H ) :   0.7039 B(  0-C , 11-H ) :  -0.1370 B(  1-C ,  3-C ) :   1.4765
B(  1-C ,  4-C ) :   0.1075 B(  1-C ,  5-C ) :  -0.2325 B(  1-C , 11-H ) :   0.8597
B(  2-C ,  4-C ) :   0.7958 B(  2-C ,  6-N ) :  -0.2643 B(  2-C , 12-H ) :   0.9277
B(  3-C ,  4-C ) :  -0.1900 B(  3-C ,  5-C ) :   0.6939 B(  3-C ,  7-N ) :  -0.2774
B(  3-C ,  8-O ) :  -0.1339 B(  3-C , 13-H ) :   0.4276 B(  4-C ,  5-C ) :   0.9686
B(  4-C ,  6-N ) :   0.5958 B(  4-C , 14-H ) :  -0.1048 B(  5-C ,  7-N ) :   1.1390
B(  5-C ,  8-O ) :   0.3789 B(  5-C ,  9-O ) :   0.1914 B(  5-C , 13-H ) :   0.1342
B(  6-N , 14-H ) :   1.2442 B(  6-N , 15-H ) :   1.0679 B(  7-N ,  8-O ) :   1.1109
B(  7-N ,  9-O ) :   1.0470 B(  8-O , 13-H ) :  -0.1242

MP2 TOTAL ENERGY:     -491.254791810 Eh
FINAL SINGLE POINT ENERGY      -491.254791809793

DIPOLE MOMENT
-------------
                                X             Y             Z
Electronic contribution:     -3.20585       4.56613       0.00000
Nuclear contribution   :      4.05975      -6.38949       0.00000
                        -----------------------------------------
Total Dipole Moment    :      0.85390      -1.82336       0.00000
                        -----------------------------------------
Magnitude (a.u.)       :      2.01340
Magnitude (Debye)      :      5.11767

Rotational constants in cm-1:     0.078077     0.042522     0.027529
Rotational constants in MHz :  2340.678108  1274.791330   825.308085

                             ****ORCA TERMINATED NORMALLY****
TOTAL RUN TIME: 0 days 0 hours 10 minutes 6 seconds 326 msec
