                         Program Version 5.0.3 -  RELEASE  -
|  1> !ri-mp2 aug-cc-pvtz aug-cc-pvtz/c tightscf
|  2> %pal nprocs 16 end
|  3>
|  4> * xyz 0 1
|  5> C      0.295502    2.961166    0.000000
|  6> H      1.366295    2.756811    0.000000
|  7> H      0.066568    3.574997    0.875789
|  8> H      0.066568    3.574997   -0.875789
|  9> C      1.035454   -2.497577    0.000000
| 10> H      1.764853   -1.690390    0.000000
| 11> H      1.228827   -3.123576   -0.875540
| 12> H      1.228827   -3.123576    0.875540
| 13> C     -0.380018   -2.011080    0.000000
| 14> H     -1.135032   -2.790309    0.000000
| 15> C     -0.810657   -0.742182    0.000000
| 16> H     -1.883957   -0.578533    0.000000
| 17> C      0.000000    0.461923    0.000000
| 18> H      1.078980    0.347754    0.000000
| 19> C     -0.506126    1.700221    0.000000
| 20> H     -1.586860    1.816991    0.000000
| 21> *
| 22>
| 23>                          ****END OF INPUT****

CARTESIAN COORDINATES (ANGSTROEM)
---------------------------------
  C      0.295502    2.961166    0.000000
  H      1.366295    2.756811    0.000000
  H      0.066568    3.574997    0.875789
  H      0.066568    3.574997   -0.875789
  C      1.035454   -2.497577    0.000000
  H      1.764853   -1.690390    0.000000
  H      1.228827   -3.123576   -0.875540
  H      1.228827   -3.123576    0.875540
  C     -0.380018   -2.011080    0.000000
  H     -1.135032   -2.790309    0.000000
  C     -0.810657   -0.742182    0.000000
  H     -1.883957   -0.578533    0.000000
  C      0.000000    0.461923    0.000000
  H      1.078980    0.347754    0.000000
  C     -0.506126    1.700221    0.000000
  H     -1.586860    1.816991    0.000000

 Total Charge           Charge          ....    0
 Multiplicity           Mult            ....    1
 Number of Electrons    NEL             ....   46
 Basis Dimension        Dim             ....  506

ORBITAL ENERGIES
----------------

  NO   OCC          E(Eh)            E(eV)
   0   2.0000     -11.230953      -305.6098
   1   2.0000     -11.228116      -305.5326
   2   2.0000     -11.224021      -305.4211
   3   2.0000     -11.223168      -305.3979
   4   2.0000     -11.221390      -305.3495
   5   2.0000     -11.219934      -305.3099
   6   2.0000      -1.099325       -29.9142
   7   2.0000      -1.046751       -28.4835
   8   2.0000      -0.965243       -26.2656
   9   2.0000      -0.903201       -24.5773
  10   2.0000      -0.778683       -21.1890
  11   2.0000      -0.729348       -19.8466
  12   2.0000      -0.647089       -17.6082
  13   2.0000      -0.616692       -16.7811
  14   2.0000      -0.569394       -15.4940
  15   2.0000      -0.568050       -15.4574
  16   2.0000      -0.564281       -15.3549
  17   2.0000      -0.539105       -14.6698
  18   2.0000      -0.517686       -14.0870
  19   2.0000      -0.508331       -13.8324
  20   2.0000      -0.471603       -12.8330
  21   2.0000      -0.423532       -11.5249
  22   2.0000      -0.301161        -8.1950
  23   0.0000       0.028993         0.7889
  24   0.0000       0.032443         0.8828
  25   0.0000       0.035345         0.9618
  26   0.0000       0.045150         1.2286
  27   0.0000       0.050576         1.3763

MULLIKEN ATOMIC CHARGES
-----------------------
   0 C :   -0.785466
   1 H :    0.291501
   2 H :    0.251838
   3 H :    0.251838
   4 C :   -0.789164
   5 H :    0.359531
   6 H :    0.226314
   7 H :    0.226314
   8 C :   -0.551055
   9 H :    0.357861
  10 C :   -0.301153
  11 H :    0.247965
  12 C :    0.158628
  13 H :    0.313237
  14 C :   -0.673347
  15 H :    0.415159
Sum of atomic charges:   -0.0000000

LOEWDIN ATOMIC CHARGES
----------------------
   0 C :    0.550852
   1 H :   -0.183536
   2 H :   -0.177281
   3 H :   -0.177281
   4 C :    0.553818
   5 H :   -0.199189
   6 H :   -0.174488
   7 H :   -0.174488
   8 C :    0.209207
   9 H :   -0.195723
  10 C :    0.174234
  11 H :   -0.201443
  12 C :    0.179981
  13 H :   -0.205461
  14 C :    0.206873
  15 H :   -0.186077

  Mayer bond orders larger than 0.100000
B(  0-C ,  1-H ) :   0.9396 B(  0-C ,  2-H ) :   0.9971 B(  0-C ,  3-H ) :   0.9971
B(  0-C , 14-C ) :   0.7578 B(  4-C ,  5-H ) :   0.8358 B(  4-C ,  6-H ) :   1.0193
B(  4-C ,  7-H ) :   1.0193 B(  4-C ,  8-C ) :   0.9401 B(  8-C ,  9-H ) :   0.8930
B(  8-C , 10-C ) :   1.3694 B(  8-C , 11-H ) :  -0.1208 B(  8-C , 12-C ) :  -0.1631
B(  8-C , 14-C ) :   0.1045 B( 10-C , 11-H ) :   1.1227 B( 10-C , 12-C ) :   0.5147
B( 12-C , 13-H ) :   1.0426 B( 12-C , 14-C ) :   0.9502 B( 14-C , 15-H ) :   0.8854

MP2 TOTAL ENERGY:     -234.095758167 Eh
FINAL SINGLE POINT ENERGY      -234.095758167462

DIPOLE MOMENT
-------------
                                X             Y             Z
Electronic contribution:     -2.20452      -0.73037      -0.00000
Nuclear contribution   :      2.30851       0.80471       0.00000
                        -----------------------------------------
Total Dipole Moment    :      0.10399       0.07434      -0.00000
                        -----------------------------------------
Magnitude (a.u.)       :      0.12783
Magnitude (Debye)      :      0.32492

Rotational constants in cm-1:     0.373861     0.048912     0.043951
Rotational constants in MHz : 11208.067508  1466.345943  1317.603548

                             ****ORCA TERMINATED NORMALLY****
TOTAL RUN TIME: 0 days 0 hours 3 minutes 40 seconds 321 msec
