                         Program Version 5.0.3 -  RELEASE  -
|  1> !ri-mp2 aug-cc-pvtz aug-cc-pvtz/c tightscf
|  2> %pal nprocs 16 end
|  3>
|  4> * xyz 0 1
|  5> Cl     1.926269   -1.029667    0.000000
|  6> O      1.000529    1.396322    0.000001
|  7> O     -2.545474   -1.255419   -0.000001
|  8> N     -1.326289   -1.296988   -0.000001
|  9> C     -0.699105   -0.046948    0.000000
| 10> C      0.667284    0.101086    0.000000
| 11> C     -1.242421    1.285636    0.000000
| 12> C     -0.184456    2.114819    0.000001
| 13> H     -2.285347    1.546278    0.000000
| 14> H     -0.065452    3.182198    0.000001
| 15> *
| 16>
| 17>                          ****END OF INPUT****

CARTESIAN COORDINATES (ANGSTROEM)
---------------------------------
  Cl     1.926269   -1.029667    0.000000
  O      1.000529    1.396322    0.000001
  O     -2.545474   -1.255419   -0.000001
  N     -1.326289   -1.296988   -0.000001
  C     -0.699105   -0.046948    0.000000
  C      0.667284    0.101086    0.000000
  C     -1.242421    1.285636    0.000000
  C     -0.184456    2.114819    0.000001
  H     -2.285347    1.546278    0.000000
  H     -0.065452    3.182198    0.000001

 Total Charge           Charge          ....    0
 Multiplicity           Mult            ....    1
 Number of Electrons    NEL             ....   66
 Basis Dimension        Dim             ....  418

ORBITAL ENERGIES
----------------

  NO   OCC          E(Eh)            E(eV)
   0   2.0000    -104.888629     -2854.1647
   1   2.0000     -20.672436      -562.5256
   2   2.0000     -20.625270      -561.2421
   3   2.0000     -15.710807      -427.5128
   4   2.0000     -11.401197      -310.2423
   5   2.0000     -11.324295      -308.1497
   6   2.0000     -11.291108      -307.2467
   7   2.0000     -11.268598      -306.6341
   8   2.0000     -10.612210      -288.7729
   9   2.0000      -8.079241      -219.8473
  10   2.0000      -8.076976      -219.7857
  11   2.0000      -8.076931      -219.7845
  12   2.0000      -1.515637       -41.2426
  13   2.0000      -1.508166       -41.0393
  14   2.0000      -1.197494       -32.5855
  15   2.0000      -1.150880       -31.3170
  16   2.0000      -1.052455       -28.6388
  17   2.0000      -0.972204       -26.4550
  18   2.0000      -0.844649       -22.9841
  19   2.0000      -0.793743       -21.5988
  20   2.0000      -0.756032       -20.5727
  21   2.0000      -0.693751       -18.8779
  22   2.0000      -0.685301       -18.6480
  23   2.0000      -0.665474       -18.1085
  24   2.0000      -0.633749       -17.2452
  25   2.0000      -0.613642       -16.6980
  26   2.0000      -0.602641       -16.3987
  27   2.0000      -0.573482       -15.6052
  28   2.0000      -0.526619       -14.3300
  29   2.0000      -0.498529       -13.5657
  30   2.0000      -0.433981       -11.8092
  31   2.0000      -0.419484       -11.4147
  32   2.0000      -0.349275        -9.5043
  33   0.0000       0.024835         0.6758
  34   0.0000       0.038771         1.0550
  35   0.0000       0.048254         1.3131
  36   0.0000       0.053612         1.4589
  37   0.0000       0.073685         2.0051

MULLIKEN ATOMIC CHARGES
-----------------------
   0 Cl:   -0.258704
   1 O :   -0.305233
   2 O :   -0.446940
   3 N :   -0.196097
   4 C :    0.568644
   5 C :    0.516610
   6 C :   -0.702247
   7 C :   -0.436718
   8 H :    0.527942
   9 H :    0.732743
Sum of atomic charges:    0.0000000

LOEWDIN ATOMIC CHARGES
----------------------
   0 Cl:    1.048780
   1 O :    0.511272
   2 O :    0.265256
   3 N :   -0.073374
   4 C :   -0.459102
   5 C :   -1.091022
   6 C :    0.174023
   7 C :   -0.001729
   8 H :   -0.184759
   9 H :   -0.189344

  Mayer bond orders larger than 0.100000
B(  0-Cl,  4-C ) :   0.1282 B(  0-Cl,  5-C ) :   0.7114 B(  1-O ,  5-C ) :   1.0365
B(  1-O ,  7-C ) :   0.9485 B(  2-O ,  3-N ) :   1.4431 B(  3-N ,  4-C ) :   0.8456
B(  3-N ,  6-C ) :  -0.1698 B(  4-C ,  5-C ) :   1.2975 B(  4-C ,  6-C ) :   1.0982
B(  5-C ,  6-C ) :   0.1390 B(  6-C ,  7-C ) :   1.3416 B(  6-C ,  8-H ) :   0.8218
B(  7-C ,  9-H ) :   0.3673

MP2 TOTAL ENERGY:     -817.820347430 Eh
FINAL SINGLE POINT ENERGY      -817.820347429837

DIPOLE MOMENT
-------------
                                X             Y             Z
Electronic contribution:      5.30656      -4.66482      -0.00000
Nuclear contribution   :     -4.84317       5.83977       0.00000
                        -----------------------------------------
Total Dipole Moment    :      0.46338       1.17494       0.00000
                        -----------------------------------------
Magnitude (a.u.)       :      1.26302
Magnitude (Debye)      :      3.21034

Rotational constants in cm-1:     0.082799     0.054184     0.032751
Rotational constants in MHz :  2482.237049  1624.405642   981.862843

                             ****ORCA TERMINATED NORMALLY****
TOTAL RUN TIME: 0 days 0 hours 3 minutes 8 seconds 766 msec
