                         Program Version 5.0.3 -  RELEASE  -
|  1> !ri-mp2 aug-cc-pvtz aug-cc-pvtz/c tightscf
|  2> %pal nprocs 16 end
|  3>
|  4> * xyz 0 1
|  5> C      1.176464   -1.121040   -0.130625
|  6> C      0.378337    0.070180    0.381926
|  7> O      0.913379    1.242348   -0.219964
|  8> H      0.423642    2.014994    0.081178
|  9> H      0.813225   -2.045334    0.315541
| 10> H      1.091458   -1.191726   -1.213368
| 11> H      2.223270   -0.983889    0.134284
| 12> C     -1.060337   -0.071096    0.078798
| 13> H      0.468455    0.125994    1.472411
| 14> N     -2.184838   -0.161013   -0.144418
| 15> *
| 16>
| 17>                          ****END OF INPUT****

CARTESIAN COORDINATES (ANGSTROEM)
---------------------------------
  C      1.176464   -1.121040   -0.130625
  C      0.378337    0.070180    0.381926
  O      0.913379    1.242348   -0.219964
  H      0.423642    2.014994    0.081178
  H      0.813225   -2.045334    0.315541
  H      1.091458   -1.191726   -1.213368
  H      2.223270   -0.983889    0.134284
  C     -1.060337   -0.071096    0.078798
  H      0.468455    0.125994    1.472411
  N     -2.184838   -0.161013   -0.144418

 Total Charge           Charge          ....    0
 Multiplicity           Mult            ....    1
 Number of Electrons    NEL             ....   38
 Basis Dimension        Dim             ....  345

ORBITAL ENERGIES
----------------

  NO   OCC          E(Eh)            E(eV)
   0   2.0000     -20.596080      -560.4478
   1   2.0000     -15.580918      -423.9783
   2   2.0000     -11.348802      -308.8166
   3   2.0000     -11.277929      -306.8880
   4   2.0000     -11.247129      -306.0499
   5   2.0000      -1.401941       -38.1488
   6   2.0000      -1.229833       -33.4655
   7   2.0000      -1.068164       -29.0662
   8   2.0000      -0.909681       -24.7537
   9   2.0000      -0.761998       -20.7350
  10   2.0000      -0.723433       -19.6856
  11   2.0000      -0.624152       -16.9840
  12   2.0000      -0.586019       -15.9464
  13   2.0000      -0.569390       -15.4939
  14   2.0000      -0.563836       -15.3428
  15   2.0000      -0.548253       -14.9187
  16   2.0000      -0.504888       -13.7387
  17   2.0000      -0.477414       -12.9911
  18   2.0000      -0.465785       -12.6747
  19   0.0000       0.023538         0.6405
  20   0.0000       0.035512         0.9663
  21   0.0000       0.039787         1.0827
  22   0.0000       0.046642         1.2692
  23   0.0000       0.059113         1.6086

MULLIKEN ATOMIC CHARGES
-----------------------
   0 C :   -0.932958
   1 C :    0.588483
   2 O :   -0.611525
   3 H :    0.180515
   4 H :    0.311607
   5 H :    0.310303
   6 H :    0.307878
   7 C :    0.082357
   8 H :    0.291871
   9 N :   -0.528531
Sum of atomic charges:   -0.0000000

LOEWDIN ATOMIC CHARGES
----------------------
   0 C :    0.582462
   1 C :   -0.335896
   2 O :    0.824609
   3 H :   -0.478610
   4 H :   -0.166393
   5 H :   -0.163650
   6 H :   -0.165186
   7 C :   -0.205145
   8 H :   -0.154301
   9 N :    0.262110

  Mayer bond orders larger than 0.100000
B(  0-C ,  1-C ) :   0.8231 B(  0-C ,  4-H ) :   0.9275 B(  0-C ,  5-H ) :   0.9192
B(  0-C ,  6-H ) :   0.9315 B(  0-C ,  7-C ) :   0.1734 B(  1-C ,  2-O ) :   0.6757
B(  1-C ,  7-C ) :   0.8441 B(  1-C ,  8-H ) :   0.9347 B(  2-O ,  3-H ) :   0.9958
B(  7-C ,  9-N ) :   2.3276

MP2 TOTAL ENERGY:     -246.842676617 Eh
FINAL SINGLE POINT ENERGY      -246.842676616638

DIPOLE MOMENT
-------------
                                X             Y             Z
Electronic contribution:     -3.94584       2.12539      -0.10845
Nuclear contribution   :      5.04195      -2.06967       0.78891
                        -----------------------------------------
Total Dipole Moment    :      1.09611       0.05572       0.68047
                        -----------------------------------------
Magnitude (a.u.)       :      1.29135
Magnitude (Debye)      :      3.28236

Rotational constants in cm-1:     0.292906     0.133689     0.099206
Rotational constants in MHz :  8781.104332  4007.889318  2974.117603

                             ****ORCA TERMINATED NORMALLY****
TOTAL RUN TIME: 0 days 0 hours 1 minutes 27 seconds 694 msec
