                         Program Version 5.0.3 -  RELEASE  -
|  1> !ri-mp2 aug-cc-pvtz aug-cc-pvtz/c tightscf
|  2> %pal nprocs 16 end
|  3>
|  4> * xyz 0 1
|  5> C      0.997463    1.325679    0.022163
|  6> H      0.373584    1.884891   -0.678759
|  7> H      2.034359    1.430874   -0.293345
|  8> H      0.884792    1.810232    0.996291
|  9> C     -1.914097    0.084632   -0.392799
| 10> H     -1.882388    1.165754   -0.529981
| 11> H     -2.902148   -0.167486   -0.005719
| 12> H     -1.807245   -0.381100   -1.373424
| 13> C     -0.819378   -0.403315    0.566621
| 14> H     -0.933041   -1.477083    0.723891
| 15> H     -0.969525    0.073773    1.541238
| 16> C      0.586621   -0.119984    0.095100
| 17> C      1.423162   -1.102883   -0.231347
| 18> H      1.127074   -2.142429   -0.169432
| 19> H      2.431914   -0.902201   -0.569192
| 20> *
| 21>
| 22>                          ****END OF INPUT****

CARTESIAN COORDINATES (ANGSTROEM)
---------------------------------
  C      0.997463    1.325679    0.022163
  H      0.373584    1.884891   -0.678759
  H      2.034359    1.430874   -0.293345
  H      0.884792    1.810232    0.996291
  C     -1.914097    0.084632   -0.392799
  H     -1.882388    1.165754   -0.529981
  H     -2.902148   -0.167486   -0.005719
  H     -1.807245   -0.381100   -1.373424
  C     -0.819378   -0.403315    0.566621
  H     -0.933041   -1.477083    0.723891
  H     -0.969525    0.073773    1.541238
  C      0.586621   -0.119984    0.095100
  C      1.423162   -1.102883   -0.231347
  H      1.127074   -2.142429   -0.169432
  H      2.431914   -0.902201   -0.569192

 Total Charge           Charge          ....    0
 Multiplicity           Mult            ....    1
 Number of Electrons    NEL             ....   40
 Basis Dimension        Dim             ....  460

ORBITAL ENERGIES
----------------

  NO   OCC          E(Eh)            E(eV)
   0   2.0000     -11.235158      -305.7242
   1   2.0000     -11.223698      -305.4124
   2   2.0000     -11.217980      -305.2567
   3   2.0000     -11.214739      -305.1686
   4   2.0000     -11.207230      -304.9642
   5   2.0000      -1.097638       -29.8682
   6   2.0000      -0.998494       -27.1704
   7   2.0000      -0.931893       -25.3581
   8   2.0000      -0.854173       -23.2432
   9   2.0000      -0.715425       -19.4677
  10   2.0000      -0.627538       -17.0762
  11   2.0000      -0.625793       -17.0287
  12   2.0000      -0.583866       -15.8878
  13   2.0000      -0.564757       -15.3678
  14   2.0000      -0.541876       -14.7452
  15   2.0000      -0.515241       -14.0204
  16   2.0000      -0.510123       -13.8812
  17   2.0000      -0.481373       -13.0988
  18   2.0000      -0.463995       -12.6259
  19   2.0000      -0.346587        -9.4311
  20   0.0000       0.030709         0.8356
  21   0.0000       0.036143         0.9835
  22   0.0000       0.037282         1.0145
  23   0.0000       0.041697         1.1346
  24   0.0000       0.053186         1.4473

MULLIKEN ATOMIC CHARGES
-----------------------
   0 C :   -0.961937
   1 H :    0.249638
   2 H :    0.254055
   3 H :    0.254496
   4 C :   -0.949678
   5 H :    0.296588
   6 H :    0.267658
   7 H :    0.286760
   8 C :   -0.424244
   9 H :    0.199887
  10 H :    0.258407
  11 C :    0.843500
  12 C :   -1.251219
  13 H :    0.328048
  14 H :    0.348040
Sum of atomic charges:   -0.0000000

LOEWDIN ATOMIC CHARGES
----------------------
   0 C :    0.564149
   1 H :   -0.174957
   2 H :   -0.179292
   3 H :   -0.163507
   4 C :    0.583891
   5 H :   -0.180686
   6 H :   -0.171742
   7 H :   -0.166353
   8 C :    0.246489
   9 H :   -0.165905
  10 H :   -0.148783
  11 C :   -0.141561
  12 C :    0.541696
  13 H :   -0.220951
  14 H :   -0.222487

  Mayer bond orders larger than 0.100000
B(  0-C ,  1-H ) :   1.0113 B(  0-C ,  2-H ) :   1.0073 B(  0-C ,  3-H ) :   0.9917
B(  0-C , 11-C ) :   0.8034 B(  0-C , 12-C ) :  -0.1052 B(  4-C ,  5-H ) :   0.9232
B(  4-C ,  6-H ) :   0.9754 B(  4-C ,  7-H ) :   0.9521 B(  4-C ,  8-C ) :   0.9087
B(  8-C ,  9-H ) :   1.0071 B(  8-C , 10-H ) :   0.9631 B(  8-C , 11-C ) :   0.9251
B( 11-C , 12-C ) :   1.0707 B( 12-C , 13-H ) :   0.9593 B( 12-C , 14-H ) :   0.9238

MP2 TOTAL ENERGY:     -196.089159787 Eh
FINAL SINGLE POINT ENERGY      -196.089159787166

DIPOLE MOMENT
-------------
                                X             Y             Z
Electronic contribution:      1.60183      -1.23014       0.43837
Nuclear contribution   :     -1.75945       1.38734      -0.38392
                        -----------------------------------------
Total Dipole Moment    :     -0.15761       0.15720       0.05445
                        -----------------------------------------
Magnitude (a.u.)       :      0.22917
Magnitude (Debye)      :      0.58250

Rotational constants in cm-1:     0.242488     0.124452     0.094697
Rotational constants in MHz :  7269.612822  3730.987331  2838.948515

                             ****ORCA TERMINATED NORMALLY****
TOTAL RUN TIME: 0 days 0 hours 3 minutes 23 seconds 363 msec
