                         Program Version 5.0.3 -  RELEASE  -
|  1> !ri-mp2 aug-cc-pvtz aug-cc-pvtz/c tightscf
|  2> %pal nprocs 16 end
|  3>
|  4> * xyz 0 1
|  5> C      0.029432   -2.115963    0.000000
|  6> C     -1.177779   -1.432184    0.000000
|  7> C      1.221499   -1.401498    0.000000
|  8> C     -1.215878   -0.038978    0.000000
|  9> C      1.232186   -0.009912    0.000000
| 10> C      0.000000    0.652782    0.000000
| 11> C     -2.522797    0.709811    0.000000
| 12> C      2.513155    0.776894    0.000000
| 13> O      0.045187    2.025498    0.000000
| 14> H      0.042486   -3.197090    0.000000
| 15> H     -2.110575   -1.981915    0.000000
| 16> H      2.166310   -1.930240    0.000000
| 17> H     -2.631669    1.347832    0.882868
| 18> H     -2.631669    1.347832   -0.882868
| 19> H     -3.362725    0.017813    0.000000
| 20> H      2.580324    1.426517   -0.874653
| 21> H      2.580324    1.426517    0.874653
| 22> H      3.374227    0.110457    0.000000
| 23> H     -0.847434    2.382583    0.000000
| 24> *
| 25>
| 26>                          ****END OF INPUT****

CARTESIAN COORDINATES (ANGSTROEM)
---------------------------------
  C      0.029432   -2.115963    0.000000
  C     -1.177779   -1.432184    0.000000
  C      1.221499   -1.401498    0.000000
  C     -1.215878   -0.038978    0.000000
  C      1.232186   -0.009912    0.000000
  C      0.000000    0.652782    0.000000
  C     -2.522797    0.709811    0.000000
  C      2.513155    0.776894    0.000000
  O      0.045187    2.025498    0.000000
  H      0.042486   -3.197090    0.000000
  H     -2.110575   -1.981915    0.000000
  H      2.166310   -1.930240    0.000000
  H     -2.631669    1.347832    0.882868
  H     -2.631669    1.347832   -0.882868
  H     -3.362725    0.017813    0.000000
  H      2.580324    1.426517   -0.874653
  H      2.580324    1.426517    0.874653
  H      3.374227    0.110457    0.000000
  H     -0.847434    2.382583    0.000000

 Total Charge           Charge          ....    0
 Multiplicity           Mult            ....    1
 Number of Electrons    NEL             ....   66
 Basis Dimension        Dim             ....  644

ORBITAL ENERGIES
----------------

  NO   OCC          E(Eh)            E(eV)
   0   2.0000     -20.586293      -560.1815
   1   2.0000     -11.291235      -307.2501
   2   2.0000     -11.237732      -305.7942
   3   2.0000     -11.236116      -305.7502
   4   2.0000     -11.232160      -305.6426
   5   2.0000     -11.229436      -305.5685
   6   2.0000     -11.226912      -305.4998
   7   2.0000     -11.221331      -305.3479
   8   2.0000     -11.215112      -305.1787
   9   2.0000      -1.400849       -38.1190
  10   2.0000      -1.150491       -31.3064
  11   2.0000      -1.062645       -28.9160
  12   2.0000      -1.019859       -27.7518
  13   2.0000      -0.944654       -25.7053
  14   2.0000      -0.926078       -25.1999
  15   2.0000      -0.819348       -22.2956
  16   2.0000      -0.797329       -21.6964
  17   2.0000      -0.726271       -19.7628
  18   2.0000      -0.673582       -18.3291
  19   2.0000      -0.637788       -17.3551
  20   2.0000      -0.609807       -16.5937
  21   2.0000      -0.592914       -16.1340
  22   2.0000      -0.573331       -15.6011
  23   2.0000      -0.572227       -15.5711
  24   2.0000      -0.564553       -15.3623
  25   2.0000      -0.556748       -15.1499
  26   2.0000      -0.544786       -14.8244
  27   2.0000      -0.528925       -14.3928
  28   2.0000      -0.494877       -13.4663
  29   2.0000      -0.480239       -13.0680
  30   2.0000      -0.470066       -12.7911
  31   2.0000      -0.324687        -8.8352
  32   2.0000      -0.305661        -8.3175
  33   0.0000       0.026804         0.7294
  34   0.0000       0.032696         0.8897
  35   0.0000       0.034054         0.9266
  36   0.0000       0.043904         1.1947
  37   0.0000       0.045233         1.2308

MULLIKEN ATOMIC CHARGES
-----------------------
   0 C :   -0.438682
   1 C :   -0.576096
   2 C :   -0.426792
   3 C :    0.783460
   4 C :    0.782660
   5 C :    0.125779
   6 C :   -0.893063
   7 C :   -0.857480
   8 O :   -0.882718
   9 H :    0.843815
  10 H :   -0.104817
  11 H :   -0.075285
  12 H :    0.263548
  13 H :    0.263548
  14 H :    0.242245
  15 H :    0.260291
  16 H :    0.260291
  17 H :    0.264944
  18 H :    0.164354
Sum of atomic charges:   -0.0000000

LOEWDIN ATOMIC CHARGES
----------------------
   0 C :    0.195294
   1 C :    0.201540
   2 C :    0.204883
   3 C :   -0.098361
   4 C :   -0.109712
   5 C :   -0.326212
   6 C :    0.575748
   7 C :    0.574833
   8 O :    0.866958
   9 H :   -0.190143
  10 H :   -0.182396
  11 H :   -0.181384
  12 H :   -0.162049
  13 H :   -0.162049
  14 H :   -0.175317
  15 H :   -0.167913
  16 H :   -0.167913
  17 H :   -0.181504
  18 H :   -0.514305

  Mayer bond orders larger than 0.100000
B(  0-C ,  1-C ) :   1.0259 B(  0-C ,  2-C ) :   0.9398 B(  0-C ,  3-C ) :   0.3269
B(  0-C ,  4-C ) :   0.3078 B(  0-C ,  5-C ) :   0.1364 B(  0-C , 10-H ) :  -0.1460
B(  0-C , 11-H ) :  -0.1515 B(  1-C ,  2-C ) :  -0.3089 B(  1-C ,  3-C ) :   0.7652
B(  1-C ,  5-C ) :  -0.2709 B(  1-C , 10-H ) :   1.7670 B(  1-C , 11-H ) :   0.1365
B(  2-C ,  3-C ) :   0.2043 B(  2-C ,  4-C ) :   0.8274 B(  2-C ,  5-C ) :  -0.5136
B(  2-C , 10-H ) :   0.1407 B(  2-C , 11-H ) :   1.7283 B(  2-C , 14-H ) :  -0.1065
B(  3-C ,  4-C ) :   0.1617 B(  3-C ,  5-C ) :   1.3912 B(  3-C ,  6-C ) :   0.3016
B(  3-C ,  8-O ) :  -0.2212 B(  3-C , 10-H ) :  -0.2976 B(  3-C , 12-H ) :  -0.1147
B(  3-C , 13-H ) :  -0.1147 B(  4-C ,  5-C ) :   1.3503 B(  4-C ,  7-C ) :   0.3577
B(  4-C , 10-H ) :  -0.1269 B(  4-C , 11-H ) :  -0.2251 B(  5-C ,  6-C ) :   0.3472
B(  5-C ,  7-C ) :   0.2632 B(  5-C ,  8-O ) :   0.6488 B(  5-C , 10-H ) :   0.2103
B(  5-C , 11-H ) :   0.1425 B(  6-C , 12-H ) :   0.9934 B(  6-C , 13-H ) :   0.9934
B(  6-C , 14-H ) :   1.0717 B(  7-C , 15-H ) :   1.0089 B(  7-C , 16-H ) :   1.0089
B(  7-C , 17-H ) :   1.0038 B(  8-O , 18-H ) :   1.0077 B(  9-H , 10-H ) :  -0.1908
B(  9-H , 11-H ) :  -0.1849 B( 10-H , 11-H ) :   0.2011

MP2 TOTAL ENERGY:     -385.338289390 Eh
FINAL SINGLE POINT ENERGY      -385.338289390403

DIPOLE MOMENT
-------------
                                X             Y             Z
Electronic contribution:      0.28425      -0.92872      -0.00000
Nuclear contribution   :     -0.85196       0.99659       0.00000
                        -----------------------------------------
Total Dipole Moment    :     -0.56771       0.06787      -0.00000
                        -----------------------------------------
Magnitude (a.u.)       :      0.57175
Magnitude (Debye)      :      1.45328

Rotational constants in cm-1:     0.076388     0.058889     0.033667
Rotational constants in MHz :  2290.064432  1765.462359  1009.315243

                             ****ORCA TERMINATED NORMALLY****
TOTAL RUN TIME: 0 days 0 hours 10 minutes 44 seconds 828 msec
