                         Program Version 5.0.3 -  RELEASE  -
|  1> !ri-mp2 aug-cc-pvtz aug-cc-pvtz/c tightscf
|  2> %pal nprocs 16 end
|  3>
|  4> * xyz 0 1
|  5> C     1.327665    1.176379    0.000000
|  6> C    -1.327665   -1.176379    0.000000
|  7> C     2.119092    0.047739    0.000000
|  8> C    -2.119092   -0.047739    0.000000
|  9> C    -0.008256    0.695795    0.000000
| 10> C     0.008256   -0.695795    0.000000
| 11> N     1.327665   -1.085752    0.000000
| 12> N    -1.327665    1.085752    0.000000
| 13> H     1.685808    2.190986    0.000000
| 14> H    -1.685808   -2.190986    0.000000
| 15> H     3.191771   -0.033733    0.000000
| 16> H    -3.191771    0.033733    0.000000
| 17> H     1.673163   -2.026299    0.000000
| 18> H    -1.673163    2.026299    0.000000
| 19> *
| 20>
| 21>                          ****END OF INPUT****

CARTESIAN COORDINATES (ANGSTROEM)
---------------------------------
  C      1.327665    1.176379    0.000000
  C     -1.327665   -1.176379    0.000000
  C      2.119092    0.047739    0.000000
  C     -2.119092   -0.047739    0.000000
  C     -0.008256    0.695795    0.000000
  C      0.008256   -0.695795    0.000000
  N      1.327665   -1.085752    0.000000
  N     -1.327665    1.085752    0.000000
  H      1.685808    2.190986    0.000000
  H     -1.685808   -2.190986    0.000000
  H      3.191771   -0.033733    0.000000
  H     -3.191771    0.033733    0.000000
  H      1.673163   -2.026299    0.000000
  H     -1.673163    2.026299    0.000000

 Total Charge           Charge          ....    0
 Multiplicity           Mult            ....    1
 Number of Electrons    NEL             ....   56
 Basis Dimension        Dim             ....  506

ORBITAL ENERGIES
----------------

  NO   OCC          E(Eh)            E(eV)
   0   2.0000     -15.595064      -424.3633
   1   2.0000     -15.595061      -424.3632
   2   2.0000     -11.255554      -306.2792
   3   2.0000     -11.255552      -306.2791
   4   2.0000     -11.236172      -305.7518
   5   2.0000     -11.234881      -305.7167
   6   2.0000     -11.213945      -305.1470
   7   2.0000     -11.213941      -305.1469
   8   2.0000      -1.300640       -35.3922
   9   2.0000      -1.253340       -34.1051
  10   2.0000      -1.040277       -28.3074
  11   2.0000      -1.026932       -27.9443
  12   2.0000      -0.946617       -25.7588
  13   2.0000      -0.804461       -21.8905
  14   2.0000      -0.796092       -21.6628
  15   2.0000      -0.775784       -21.1101
  16   2.0000      -0.716048       -19.4847
  17   2.0000      -0.633427       -17.2364
  18   2.0000      -0.620120       -16.8743
  19   2.0000      -0.594753       -16.1841
  20   2.0000      -0.583589       -15.8803
  21   2.0000      -0.570830       -15.5331
  22   2.0000      -0.538589       -14.6558
  23   2.0000      -0.514992       -14.0136
  24   2.0000      -0.503977       -13.7139
  25   2.0000      -0.372487       -10.1359
  26   2.0000      -0.305712        -8.3188
  27   2.0000      -0.255935        -6.9643
  28   0.0000       0.027683         0.7533
  29   0.0000       0.029127         0.7926
  30   0.0000       0.033477         0.9109
  31   0.0000       0.044383         1.2077
  32   0.0000       0.049530         1.3478

MULLIKEN ATOMIC CHARGES
-----------------------
   0 C :   -0.846889
   1 C :   -0.846889
   2 C :   -0.814541
   3 C :   -0.814541
   4 C :    0.622620
   5 C :    0.622620
   6 N :   -0.078202
   7 N :   -0.078202
   8 H :    0.365911
   9 H :    0.365911
  10 H :    0.716762
  11 H :    0.716762
  12 H :    0.034339
  13 H :    0.034339
Sum of atomic charges:   -0.0000000

LOEWDIN ATOMIC CHARGES
----------------------
   0 C :    0.236711
   1 C :    0.236711
   2 C :    0.114737
   3 C :    0.114737
   4 C :   -0.237855
   5 C :   -0.237855
   6 N :    0.534656
   7 N :    0.534656
   8 H :   -0.204942
   9 H :   -0.204942
  10 H :   -0.183594
  11 H :   -0.183594
  12 H :   -0.259713
  13 H :   -0.259713

  Mayer bond orders larger than 0.100000
B(  0-C ,  1-C ) :   0.1421 B(  0-C ,  2-C ) :   1.2373 B(  0-C ,  4-C ) :   0.8949
B(  0-C ,  5-C ) :   0.1598 B(  0-C ,  6-N ) :  -0.2387 B(  0-C ,  8-H ) :   1.0155
B(  1-C ,  3-C ) :   1.2373 B(  1-C ,  4-C ) :   0.1598 B(  1-C ,  5-C ) :   0.8949
B(  1-C ,  7-N ) :  -0.2387 B(  1-C ,  9-H ) :   1.0155 B(  2-C ,  4-C ) :  -0.2847
B(  2-C ,  6-N ) :   1.0661 B(  2-C , 10-H ) :   0.3406 B(  3-C ,  5-C ) :  -0.2847
B(  3-C ,  7-N ) :   1.0661 B(  3-C , 11-H ) :   0.3406 B(  4-C ,  5-C ) :   0.9519
B(  4-C ,  7-N ) :   0.8501 B(  5-C ,  6-N ) :   0.8501 B(  6-N , 12-H ) :   1.2075
B(  7-N , 13-H ) :   1.2075

MP2 TOTAL ENERGY:     -341.058856873 Eh
FINAL SINGLE POINT ENERGY      -341.058856872836

DIPOLE MOMENT
-------------
                                X             Y             Z
Electronic contribution:     -0.00000      -0.00000       0.00000
Nuclear contribution   :      0.00000       0.00000       0.00000
                        -----------------------------------------
Total Dipole Moment    :     -0.00000      -0.00000       0.00000
                        -----------------------------------------
Magnitude (a.u.)       :      0.00000
Magnitude (Debye)      :      0.00000

Rotational constants in cm-1:     0.175766     0.072817     0.051487
Rotational constants in MHz :  5269.337686  2182.985885  1543.530643

                             ****ORCA TERMINATED NORMALLY****
TOTAL RUN TIME: 0 days 0 hours 4 minutes 37 seconds 350 msec
