                         Program Version 5.0.3 -  RELEASE  -
|  1> !ri-mp2 aug-cc-pvtz aug-cc-pvtz/c tightscf
|  2> %pal nprocs 16 end
|  3>
|  4> * xyz 0 1
|  5> S      2.378504   -0.996830   -0.060055
|  6> S      1.032305    1.615124   -0.000766
|  7> O     -3.857822   -0.222967   -0.090876
|  8> N     -1.504533   -0.005601    0.047838
|  9> C      0.996939   -0.123544    0.017628
| 10> C     -0.336437   -0.850557    0.141815
| 11> C     -2.693129   -0.177700   -0.020459
| 12> H     -0.301843    1.818938    0.055450
| 13> H     -0.325396   -1.359868    1.107578
| 14> H     -0.355645   -1.618027   -0.631648
| 15> *
| 16>
| 17>                          ****END OF INPUT****

CARTESIAN COORDINATES (ANGSTROEM)
---------------------------------
  S      2.378504   -0.996830   -0.060055
  S      1.032305    1.615124   -0.000766
  O     -3.857822   -0.222967   -0.090876
  N     -1.504533   -0.005601    0.047838
  C      0.996939   -0.123544    0.017628
  C     -0.336437   -0.850557    0.141815
  C     -2.693129   -0.177700   -0.020459
  H     -0.301843    1.818938    0.055450
  H     -0.325396   -1.359868    1.107578
  H     -0.355645   -1.618027   -0.631648

 Total Charge           Charge          ....    0
 Multiplicity           Mult            ....    1
 Number of Electrons    NEL             ....   68
 Basis Dimension        Dim             ....  399

ORBITAL ENERGIES
----------------

  NO   OCC          E(Eh)            E(eV)
   0   2.0000     -92.004089     -2503.5585
   1   2.0000     -91.943461     -2501.9088
   2   2.0000     -20.632549      -561.4402
   3   2.0000     -15.615540      -424.9205
   4   2.0000     -11.426074      -310.9193
   5   2.0000     -11.373761      -309.4958
   6   2.0000     -11.337248      -308.5022
   7   2.0000      -9.005369      -245.0486
   8   2.0000      -8.946100      -243.4358
   9   2.0000      -6.686372      -181.9454
  10   2.0000      -6.685348      -181.9176
  11   2.0000      -6.684592      -181.8970
  12   2.0000      -6.627112      -180.3329
  13   2.0000      -6.626027      -180.3034
  14   2.0000      -6.624748      -180.2686
  15   2.0000      -1.485274       -40.4164
  16   2.0000      -1.306243       -35.5447
  17   2.0000      -1.147428       -31.2231
  18   2.0000      -1.016976       -27.6733
  19   2.0000      -0.978124       -26.6161
  20   2.0000      -0.783153       -21.3107
  21   2.0000      -0.746576       -20.3154
  22   2.0000      -0.730029       -19.8651
  23   2.0000      -0.699074       -19.0228
  24   2.0000      -0.683897       -18.6098
  25   2.0000      -0.639931       -17.4134
  26   2.0000      -0.629220       -17.1220
  27   2.0000      -0.537208       -14.6182
  28   2.0000      -0.506750       -13.7894
  29   2.0000      -0.480674       -13.0798
  30   2.0000      -0.476650       -12.9703
  31   2.0000      -0.449074       -12.2199
  32   2.0000      -0.358319        -9.7504
  33   2.0000      -0.354844        -9.6558
  34   0.0000       0.023216         0.6317
  35   0.0000       0.029868         0.8128
  36   0.0000       0.037639         1.0242
  37   0.0000       0.049330         1.3423
  38   0.0000       0.055001         1.4967

MULLIKEN ATOMIC CHARGES
-----------------------
   0 S :   -0.421542
   1 S :   -0.217494
   2 O :   -0.483158
   3 N :    0.019539
   4 C :    0.107950
   5 C :    0.172425
   6 C :   -0.116988
   7 H :    0.238351
   8 H :    0.350597
   9 H :    0.350319
Sum of atomic charges:   -0.0000000

LOEWDIN ATOMIC CHARGES
----------------------
   0 S :    0.858858
   1 S :    1.282241
   2 O :    0.385974
   3 N :    0.254679
   4 C :   -1.294403
   5 C :   -0.069773
   6 C :   -0.447360
   7 H :   -0.604070
   8 H :   -0.177346
   9 H :   -0.188801

  Mayer bond orders larger than 0.100000
B(  0-S ,  4-C ) :   1.8274 B(  1-S ,  4-C ) :   1.0803 B(  1-S ,  7-H ) :   0.9485
B(  2-O ,  3-N ) :  -0.2305 B(  2-O ,  6-C ) :   2.0648 B(  3-N ,  5-C ) :   0.5789
B(  3-N ,  6-C ) :   1.7364 B(  4-C ,  5-C ) :   0.8014 B(  5-C ,  6-C ) :  -0.1624
B(  5-C ,  8-H ) :   0.8964 B(  5-C ,  9-H ) :   0.8972

MP2 TOTAL ENERGY:    -1041.091657302 Eh
FINAL SINGLE POINT ENERGY     -1041.091657302149

DIPOLE MOMENT
-------------
                                X             Y             Z
Electronic contribution:      0.57530       1.15962      -0.35807
Nuclear contribution   :     -1.11019      -1.13302       0.51023
                        -----------------------------------------
Total Dipole Moment    :     -0.53489       0.02660       0.15216
                        -----------------------------------------
Magnitude (a.u.)       :      0.55675
Magnitude (Debye)      :      1.41514

Rotational constants in cm-1:     0.124379     0.028657     0.023431
Rotational constants in MHz :  3728.796001   859.121873   702.454422

                             ****ORCA TERMINATED NORMALLY****
TOTAL RUN TIME: 0 days 0 hours 2 minutes 21 seconds 558 msec
