                         Program Version 5.0.3 -  RELEASE  -
|  1> !ri-mp2 aug-cc-pvtz aug-cc-pvtz/c tightscf
|  2> %pal nprocs 16 end
|  3>
|  4> * xyz 0 1
|  5> O     1.270824   -1.445451    0.000000
|  6> S     0.002229   -0.724554    0.000000
|  7> O    -1.257213   -1.461278    0.000000
|  8> C    -0.004596    0.507527    1.362305
|  9> C    -0.004596    1.830288    0.665220
| 10> C    -0.004596    1.830288   -0.665220
| 11> C    -0.004596    0.507527   -1.362305
| 12> H     0.883848    0.328649    1.967200
| 13> H    -0.896445    0.325784    1.961332
| 14> H    -0.004535    2.742025    1.247250
| 15> H    -0.004535    2.742025   -1.247250
| 16> H     0.883848    0.328649   -1.967200
| 17> H    -0.896445    0.325784   -1.961332
| 18> *
| 19>
| 20>                          ****END OF INPUT****

CARTESIAN COORDINATES (ANGSTROEM)
---------------------------------
  O      1.270824   -1.445451    0.000000
  S      0.002229   -0.724554    0.000000
  O     -1.257213   -1.461278    0.000000
  C     -0.004596    0.507527    1.362305
  C     -0.004596    1.830288    0.665220
  C     -0.004596    1.830288   -0.665220
  C     -0.004596    0.507527   -1.362305
  H      0.883848    0.328649    1.967200
  H     -0.896445    0.325784    1.961332
  H     -0.004535    2.742025    1.247250
  H     -0.004535    2.742025   -1.247250
  H      0.883848    0.328649   -1.967200
  H     -0.896445    0.325784   -1.961332

 Total Charge           Charge          ....    0
 Multiplicity           Mult            ....    1
 Number of Electrons    NEL             ....   62
 Basis Dimension        Dim             ....  464

ORBITAL ENERGIES
----------------

  NO   OCC          E(Eh)            E(eV)
   0   2.0000     -92.179993     -2508.3451
   1   2.0000     -20.545605      -559.0743
   2   2.0000     -20.545559      -559.0731
   3   2.0000     -11.287307      -307.1432
   4   2.0000     -11.287288      -307.1427
   5   2.0000     -11.275147      -306.8124
   6   2.0000     -11.273393      -306.7646
   7   2.0000      -9.150065      -248.9859
   8   2.0000      -6.834553      -185.9777
   9   2.0000      -6.833947      -185.9612
  10   2.0000      -6.833919      -185.9604
  11   2.0000      -1.442285       -39.2466
  12   2.0000      -1.331935       -36.2438
  13   2.0000      -1.163938       -31.6724
  14   2.0000      -1.030130       -28.0313
  15   2.0000      -0.981576       -26.7100
  16   2.0000      -0.817814       -22.2539
  17   2.0000      -0.790822       -21.5194
  18   2.0000      -0.713030       -19.4025
  19   2.0000      -0.669465       -18.2171
  20   2.0000      -0.638131       -17.3644
  21   2.0000      -0.635762       -17.3000
  22   2.0000      -0.624839       -17.0027
  23   2.0000      -0.606499       -16.5037
  24   2.0000      -0.596369       -16.2280
  25   2.0000      -0.556603       -15.1459
  26   2.0000      -0.491983       -13.3875
  27   2.0000      -0.488244       -13.2858
  28   2.0000      -0.469548       -12.7770
  29   2.0000      -0.427082       -11.6215
  30   2.0000      -0.396394       -10.7864
  31   0.0000       0.020104         0.5470
  32   0.0000       0.029390         0.7997
  33   0.0000       0.040866         1.1120
  34   0.0000       0.041242         1.1223
  35   0.0000       0.050745         1.3809

MULLIKEN ATOMIC CHARGES
-----------------------
   0 O :   -1.008391
   1 S :    2.051039
   2 O :   -1.008354
   3 C :   -0.370372
   4 C :   -0.662221
   5 C :   -0.662221
   6 C :   -0.370372
   7 H :    0.283967
   8 H :    0.283989
   9 H :    0.447490
  10 H :    0.447490
  11 H :    0.283967
  12 H :    0.283989
Sum of atomic charges:   -0.0000000

LOEWDIN ATOMIC CHARGES
----------------------
   0 O :    0.010503
   1 S :    0.316502
   2 O :    0.010288
   3 C :    0.208024
   4 C :    0.184588
   5 C :    0.184588
   6 C :    0.208024
   7 H :   -0.191496
   8 H :   -0.191449
   9 H :   -0.178314
  10 H :   -0.178314
  11 H :   -0.191496
  12 H :   -0.191449

  Mayer bond orders larger than 0.100000
B(  0-O ,  1-S ) :   1.1421 B(  1-S ,  2-O ) :   1.1402 B(  1-S ,  3-C ) :   0.8785
B(  1-S ,  4-C ) :   0.1087 B(  1-S ,  5-C ) :   0.1087 B(  1-S ,  6-C ) :   0.8785
B(  3-C ,  4-C ) :   0.9084 B(  3-C ,  7-H ) :   0.9162 B(  3-C ,  8-H ) :   0.9161
B(  4-C ,  5-C ) :   1.5374 B(  4-C ,  9-H ) :   0.8125 B(  5-C ,  6-C ) :   0.9084
B(  5-C , 10-H ) :   0.8125 B(  6-C , 11-H ) :   0.9162 B(  6-C , 12-H ) :   0.9161

MP2 TOTAL ENERGY:     -703.622700446 Eh
FINAL SINGLE POINT ENERGY      -703.622700445886

DIPOLE MOMENT
-------------
                                X             Y             Z
Electronic contribution:      0.02090      -4.48199      -0.00000
Nuclear contribution   :     -0.03362       6.67151       0.00000
                        -----------------------------------------
Total Dipole Moment    :     -0.01273       2.18951      -0.00000
                        -----------------------------------------
Magnitude (a.u.)       :      2.18955
Magnitude (Debye)      :      5.56540

Rotational constants in cm-1:     0.131468     0.070062     0.064789
Rotational constants in MHz :  3941.306370  2100.409294  1942.320760

                             ****ORCA TERMINATED NORMALLY****
TOTAL RUN TIME: 0 days 0 hours 3 minutes 38 seconds 90 msec
