                         Program Version 5.0.3 -  RELEASE  -
|  1> !ri-mp2 aug-cc-pvtz aug-cc-pvtz/c tightscf
|  2> %pal nprocs 16 end
|  3>
|  4> * xyz 0 1
|  5> H     -2.241590   -1.215243   -0.387645
|  6> H     -0.912425   -2.289504   -0.826315
|  7> H     -1.300954   -0.896147   -1.846390
|  8> C     -1.239595   -1.246048   -0.816810
|  9> C     -0.259075   -0.399357   -0.001092
| 10> H      1.407768   -1.489975   -0.756299
| 11> H      1.007906   -0.079353   -1.707859
| 12> C      1.124715   -0.435306   -0.681589
| 13> H      2.022628    1.398388    0.091245
| 14> H      3.169518    0.252206   -0.593787
| 15> H      2.473612   -0.046308    0.992131
| 16> C      2.255992    0.338004   -0.004285
| 17> H      0.185174   -1.926656    1.466143
| 18> H     -1.196829   -0.915576    1.889107
| 19> H      0.434562   -0.280652    2.066600
| 20> C     -0.201951   -0.903990    1.442827
| 21> H     -2.042025    1.174320    0.484066
| 22> S     -0.817991    1.387168   -0.031582
| 23> *
| 24>
| 25>                          ****END OF INPUT****

CARTESIAN COORDINATES (ANGSTROEM)
---------------------------------
  H     -2.241590   -1.215243   -0.387645
  H     -0.912425   -2.289504   -0.826315
  H     -1.300954   -0.896147   -1.846390
  C     -1.239595   -1.246048   -0.816810
  C     -0.259075   -0.399357   -0.001092
  H      1.407768   -1.489975   -0.756299
  H      1.007906   -0.079353   -1.707859
  C      1.124715   -0.435306   -0.681589
  H      2.022628    1.398388    0.091245
  H      3.169518    0.252206   -0.593787
  H      2.473612   -0.046308    0.992131
  C      2.255992    0.338004   -0.004285
  H      0.185174   -1.926656    1.466143
  H     -1.196829   -0.915576    1.889107
  H      0.434562   -0.280652    2.066600
  C     -0.201951   -0.903990    1.442827
  H     -2.042025    1.174320    0.484066
  S     -0.817991    1.387168   -0.031582

 Total Charge           Charge          ....    0
 Multiplicity           Mult            ....    1
 Number of Electrons    NEL             ....   58
 Basis Dimension        Dim             ....  556

ORBITAL ENERGIES
----------------

  NO   OCC          E(Eh)            E(eV)
   0   2.0000     -91.942214     -2501.8748
   1   2.0000     -11.275512      -306.8223
   2   2.0000     -11.229166      -305.5611
   3   2.0000     -11.221076      -305.3410
   4   2.0000     -11.220587      -305.3277
   5   2.0000     -11.214053      -305.1499
   6   2.0000      -8.943294      -243.3594
   7   2.0000      -6.624591      -180.2643
   8   2.0000      -6.623527      -180.2353
   9   2.0000      -6.622619      -180.2106
  10   2.0000      -1.119405       -30.4606
  11   2.0000      -1.006369       -27.3847
  12   2.0000      -0.942767       -25.6540
  13   2.0000      -0.937230       -25.5033
  14   2.0000      -0.862802       -23.4780
  15   2.0000      -0.733469       -19.9587
  16   2.0000      -0.637661       -17.3517
  17   2.0000      -0.624998       -17.0071
  18   2.0000      -0.595530       -16.2052
  19   2.0000      -0.581033       -15.8107
  20   2.0000      -0.551223       -14.9995
  21   2.0000      -0.540571       -14.7097
  22   2.0000      -0.521387       -14.1877
  23   2.0000      -0.513897       -13.9838
  24   2.0000      -0.493948       -13.4410
  25   2.0000      -0.472674       -12.8621
  26   2.0000      -0.460662       -12.5353
  27   2.0000      -0.421353       -11.4656
  28   2.0000      -0.350825        -9.5464
  29   0.0000       0.028999         0.7891
  30   0.0000       0.034527         0.9395
  31   0.0000       0.037834         1.0295
  32   0.0000       0.041561         1.1309
  33   0.0000       0.053341         1.4515

MULLIKEN ATOMIC CHARGES
-----------------------
   0 H :    0.270132
   1 H :    0.256498
   2 H :    0.309790
   3 C :   -1.195452
   4 C :    1.403340
   5 H :    0.291488
   6 H :    0.329013
   7 C :   -0.595571
   8 H :    0.285138
   9 H :    0.261465
  10 H :    0.279063
  11 C :   -1.012583
  12 H :    0.259614
  13 H :    0.284644
  14 H :    0.332103
  15 C :   -1.154784
  16 H :   -0.010990
  17 S :   -0.592910
Sum of atomic charges:   -0.0000000

LOEWDIN ATOMIC CHARGES
----------------------
   0 H :   -0.177251
   1 H :   -0.160763
   2 H :   -0.173891
   3 C :    0.504306
   4 C :   -0.667060
   5 H :   -0.148231
   6 H :   -0.161236
   7 C :    0.187213
   8 H :   -0.194719
   9 H :   -0.168663
  10 H :   -0.178681
  11 C :    0.564408
  12 H :   -0.156714
  13 H :   -0.173907
  14 H :   -0.185720
  15 C :    0.509903
  16 H :   -0.560592
  17 S :    1.341599

  Mayer bond orders larger than 0.100000
B(  0-H ,  3-C ) :   1.0258 B(  1-H ,  3-C ) :   0.9585 B(  2-H ,  3-C ) :   0.9961
B(  3-C ,  4-C ) :   0.5489 B(  4-C ,  7-C ) :   0.7463 B(  4-C , 15-C ) :   0.5885
B(  4-C , 16-H ) :  -0.1319 B(  4-C , 17-S ) :   0.3377 B(  5-H ,  7-C ) :   0.9380
B(  6-H ,  7-C ) :   0.9268 B(  7-C , 11-C ) :   0.8490 B(  7-C , 17-S ) :   0.1542
B(  8-H , 11-C ) :   0.9558 B(  9-H , 11-C ) :   0.9993 B( 10-H , 11-C ) :   0.9566
B( 12-H , 15-C ) :   0.9589 B( 13-H , 15-C ) :   1.0049 B( 14-H , 15-C ) :   0.9768
B( 15-C , 17-S ) :   0.1144 B( 16-H , 17-S ) :   1.1991

MP2 TOTAL ENERGY:     -595.038343408 Eh
FINAL SINGLE POINT ENERGY      -595.038343408046

DIPOLE MOMENT
-------------
                                X             Y             Z
Electronic contribution:     -3.14898       5.92822      -0.80335
Nuclear contribution   :      3.16986      -6.64508       0.91144
                        -----------------------------------------
Total Dipole Moment    :      0.02088      -0.71686       0.10809
                        -----------------------------------------
Magnitude (a.u.)       :      0.72526
Magnitude (Debye)      :      1.84347

Rotational constants in cm-1:     0.098787     0.079100     0.062990
Rotational constants in MHz :  2961.562986  2371.368434  1888.397841

                             ****ORCA TERMINATED NORMALLY****
TOTAL RUN TIME: 0 days 0 hours 6 minutes 20 seconds 662 msec
