                         Program Version 5.0.3 -  RELEASE  -
|  1> !ri-mp2 aug-cc-pvtz aug-cc-pvtz/c tightscf
|  2> %pal nprocs 16 end
|  3>
|  4> * xyz 0 1
|  5> S      2.003409    0.770859    0.144997
|  6> S      0.824434   -1.874911   -0.296043
|  7> N     -2.788831   -1.286739    0.056249
|  8> N     -1.196262    2.646561   -0.557680
|  9> C     -0.747144    0.287249    0.481702
| 10> C      0.630661   -0.307408    0.072187
| 11> C     -1.869388   -0.620646    0.224187
| 12> C     -1.016190    1.603166   -0.112117
| 13> H     -0.695773    0.434643    1.567730
| 14> H      1.358300    1.937262    0.363284
| 15> *
| 16>
| 17>                          ****END OF INPUT****

CARTESIAN COORDINATES (ANGSTROEM)
---------------------------------
  S      2.003409    0.770859    0.144997
  S      0.824434   -1.874911   -0.296043
  N     -2.788831   -1.286739    0.056249
  N     -1.196262    2.646561   -0.557680
  C     -0.747144    0.287249    0.481702
  C      0.630661   -0.307408    0.072187
  C     -1.869388   -0.620646    0.224187
  C     -1.016190    1.603166   -0.112117
  H     -0.695773    0.434643    1.567730
  H      1.358300    1.937262    0.363284

 Total Charge           Charge          ....    0
 Multiplicity           Mult            ....    1
 Number of Electrons    NEL             ....   72
 Basis Dimension        Dim             ....  422

ORBITAL ENERGIES
----------------

  NO   OCC          E(Eh)            E(eV)
   0   2.0000     -92.029683     -2504.2550
   1   2.0000     -91.979925     -2502.9010
   2   2.0000     -15.623592      -425.1396
   3   2.0000     -15.609341      -424.7518
   4   2.0000     -11.407049      -310.4016
   5   2.0000     -11.390881      -309.9616
   6   2.0000     -11.325949      -308.1947
   7   2.0000     -11.312063      -307.8169
   8   2.0000      -9.030595      -245.7350
   9   2.0000      -8.982233      -244.4190
  10   2.0000      -6.711584      -182.6315
  11   2.0000      -6.710513      -182.6023
  12   2.0000      -6.709615      -182.5779
  13   2.0000      -6.662975      -181.3088
  14   2.0000      -6.662106      -181.2851
  15   2.0000      -6.660590      -181.2439
  16   2.0000      -1.282015       -34.8854
  17   2.0000      -1.258279       -34.2395
  18   2.0000      -1.192741       -32.4561
  19   2.0000      -1.088714       -29.6254
  20   2.0000      -1.012407       -27.5490
  21   2.0000      -0.814601       -22.1664
  22   2.0000      -0.805830       -21.9277
  23   2.0000      -0.740499       -20.1500
  24   2.0000      -0.692618       -18.8471
  25   2.0000      -0.608906       -16.5692
  26   2.0000      -0.595766       -16.2116
  27   2.0000      -0.570492       -15.5239
  28   2.0000      -0.544958       -14.8291
  29   2.0000      -0.530068       -14.4239
  30   2.0000      -0.521495       -14.1906
  31   2.0000      -0.504096       -13.7172
  32   2.0000      -0.498703       -13.5704
  33   2.0000      -0.491436       -13.3727
  34   2.0000      -0.389094       -10.5878
  35   2.0000      -0.384108       -10.4521
  36   0.0000       0.005539         0.1507
  37   0.0000       0.021623         0.5884
  38   0.0000       0.036369         0.9897
  39   0.0000       0.054644         1.4869
  40   0.0000       0.059338         1.6147

MULLIKEN ATOMIC CHARGES
-----------------------
   0 S :   -0.225297
   1 S :   -0.314634
   2 N :   -0.609840
   3 N :   -0.624273
   4 C :    0.634837
   5 C :    0.139186
   6 C :    0.207323
   7 C :    0.310756
   8 H :    0.323337
   9 H :    0.158604
Sum of atomic charges:   -0.0000000

LOEWDIN ATOMIC CHARGES
----------------------
   0 S :    1.297146
   1 S :    0.957552
   2 N :    0.299957
   3 N :    0.309635
   4 C :   -0.282444
   5 C :   -1.279451
   6 C :   -0.295082
   7 C :   -0.270332
   8 H :   -0.172736
   9 H :   -0.564244

  Mayer bond orders larger than 0.100000
B(  0-S ,  5-C ) :   1.0722 B(  0-S ,  9-H ) :   0.9987 B(  1-S ,  5-C ) :   1.7662
B(  2-N ,  6-C ) :   2.2675 B(  3-N ,  7-C ) :   2.2325 B(  4-C ,  5-C ) :   0.7808
B(  4-C ,  6-C ) :   0.6095 B(  4-C ,  7-C ) :   0.6941 B(  4-C ,  8-H ) :   0.8284
B(  5-C ,  6-C ) :   0.1248 B(  5-C ,  7-C ) :   0.2266 B(  6-C ,  7-C ) :   0.3665

MP2 TOTAL ENERGY:    -1058.017277842 Eh
FINAL SINGLE POINT ENERGY     -1058.017277841820

DIPOLE MOMENT
-------------
                                X             Y             Z
Electronic contribution:      0.58320      -1.75964      -0.86743
Nuclear contribution   :      0.52482       2.29558       1.83796
                        -----------------------------------------
Total Dipole Moment    :      1.10801       0.53595       0.97052
                        -----------------------------------------
Magnitude (a.u.)       :      1.56743
Magnitude (Debye)      :      3.98410

Rotational constants in cm-1:     0.054630     0.046590     0.026247
Rotational constants in MHz :  1637.773291  1396.745289   786.860970

                             ****ORCA TERMINATED NORMALLY****
TOTAL RUN TIME: 0 days 0 hours 3 minutes 21 seconds 654 msec
