                         Program Version 5.0.3 -  RELEASE  -
|  1> !ri-mp2 aug-cc-pvtz aug-cc-pvtz/c tightscf
|  2> %pal nprocs 16 end
|  3>
|  4> * xyz 0 1
|  5> C     0.031152     1.911320       0.000000
|  6> C     0.450591     0.488912       0.000000
|  7> C    -0.450591    -0.488912       0.000000
|  8> C    -0.031152    -1.911320       0.000000
|  9> O     1.105518    -2.312587       0.000000
| 10> O    -1.105518     2.312587       0.000000
| 11> O     1.105518     2.733674       0.000000
| 12> O    -1.105518    -2.733674       0.000000
| 13> H     1.509349     0.269845       0.000000
| 14> H    -1.509349    -0.269845       0.000000
| 15> H     0.771942     3.643174       0.000000
| 16> H    -0.771942    -3.643174       0.000000
| 17> *
| 18>
| 19>                          ****END OF INPUT****

CARTESIAN COORDINATES (ANGSTROEM)
---------------------------------
  C      0.031152    1.911320    0.000000
  C      0.450591    0.488912    0.000000
  C     -0.450591   -0.488912    0.000000
  C     -0.031152   -1.911320    0.000000
  O      1.105518   -2.312587    0.000000
  O     -1.105518    2.312587    0.000000
  O      1.105518    2.733674    0.000000
  O     -1.105518   -2.733674    0.000000
  H      1.509349    0.269845    0.000000
  H     -1.509349   -0.269845    0.000000
  H      0.771942    3.643174    0.000000
  H     -0.771942   -3.643174    0.000000

 Total Charge           Charge          ....    0
 Multiplicity           Mult            ....    1
 Number of Electrons    NEL             ....   60
 Basis Dimension        Dim             ....  460

ORBITAL ENERGIES
----------------

  NO   OCC          E(Eh)            E(eV)
   0   2.0000     -20.630018      -561.3713
   1   2.0000     -20.630018      -561.3713
   2   2.0000     -20.567120      -559.6598
   3   2.0000     -20.567120      -559.6598
   4   2.0000     -11.409005      -310.4548
   5   2.0000     -11.409003      -310.4548
   6   2.0000     -11.285029      -307.0813
   7   2.0000     -11.283258      -307.0331
   8   2.0000      -1.482533       -40.3418
   9   2.0000      -1.481667       -40.3182
  10   2.0000      -1.380004       -37.5518
  11   2.0000      -1.379655       -37.5423
  12   2.0000      -1.120017       -30.4772
  13   2.0000      -0.969235       -26.3742
  14   2.0000      -0.866411       -23.5762
  15   2.0000      -0.772295       -21.0152
  16   2.0000      -0.751869       -20.4594
  17   2.0000      -0.724552       -19.7161
  18   2.0000      -0.711563       -19.3626
  19   2.0000      -0.683555       -18.6005
  20   2.0000      -0.653361       -17.7788
  21   2.0000      -0.645148       -17.5554
  22   2.0000      -0.618928       -16.8419
  23   2.0000      -0.613504       -16.6943
  24   2.0000      -0.580457       -15.7950
  25   2.0000      -0.510068       -13.8797
  26   2.0000      -0.503007       -13.6875
  27   2.0000      -0.477625       -12.9968
  28   2.0000      -0.477107       -12.9827
  29   2.0000      -0.419634       -11.4188
  30   0.0000       0.026210         0.7132
  31   0.0000       0.030423         0.8278
  32   0.0000       0.034302         0.9334
  33   0.0000       0.046480         1.2648
  34   0.0000       0.048119         1.3094

MULLIKEN ATOMIC CHARGES
-----------------------
   0 C :    0.493442
   1 C :   -0.049006
   2 C :   -0.049006
   3 C :    0.493442
   4 O :   -0.765539
   5 O :   -0.765539
   6 O :   -0.423420
   7 O :   -0.423420
   8 H :    0.485676
   9 H :    0.485676
  10 H :    0.258847
  11 H :    0.258847
Sum of atomic charges:    0.0000000

LOEWDIN ATOMIC CHARGES
----------------------
   0 C :   -0.820067
   1 C :    0.205639
   2 C :    0.205639
   3 C :   -0.820067
   4 O :    0.450609
   5 O :    0.450609
   6 O :    0.826032
   7 O :    0.826032
   8 H :   -0.194329
   9 H :   -0.194329
  10 H :   -0.467885
  11 H :   -0.467885

  Mayer bond orders larger than 0.100000
B(  0-C ,  1-C ) :   0.6388 B(  0-C ,  2-C ) :  -0.1375 B(  0-C ,  5-O ) :   1.4777
B(  0-C ,  6-O ) :   1.0344 B(  0-C ,  8-H ) :  -0.1050 B(  1-C ,  2-C ) :   1.2936
B(  1-C ,  3-C ) :  -0.1375 B(  1-C ,  8-H ) :   0.7933 B(  2-C ,  3-C ) :   0.6388
B(  2-C ,  9-H ) :   0.7933 B(  3-C ,  4-O ) :   1.4777 B(  3-C ,  7-O ) :   1.0344
B(  3-C ,  9-H ) :  -0.1050 B(  6-O , 10-H ) :   0.9547 B(  7-O , 11-H ) :   0.9547

MP2 TOTAL ENERGY:     -455.032802029 Eh
FINAL SINGLE POINT ENERGY      -455.032802028608

DIPOLE MOMENT
-------------
                                X             Y             Z
Electronic contribution:      0.00000      -0.00000       0.00000
Nuclear contribution   :      0.00000       0.00000       0.00000
                        -----------------------------------------
Total Dipole Moment    :      0.00000      -0.00000       0.00000
                        -----------------------------------------
Magnitude (a.u.)       :      0.00000
Magnitude (Debye)      :      0.00000

Rotational constants in cm-1:     0.193483     0.031662     0.027209
Rotational constants in MHz :  5800.481133   949.191847   815.709060

                             ****ORCA TERMINATED NORMALLY****
TOTAL RUN TIME: 0 days 0 hours 2 minutes 58 seconds 641 msec
