                         Program Version 5.0.3 -  RELEASE  -
|  1> !ri-mp2 aug-cc-pvtz aug-cc-pvtz/c tightscf
|  2> %pal nprocs 16 end
|  3>
|  4> * xyz 0 1
|  5> O      1.238707   -1.255661    0.004628
|  6> S      0.503569   -0.000001    0.014979
|  7> O      1.238698    1.255665    0.004692
|  8> C     -0.961544    0.000030   -1.129930
|  9> C     -1.794509   -0.000009    0.132105
| 10> C     -0.911283   -0.000031    1.127195
| 11> H     -1.013806   -0.899488   -1.740062
| 12> H     -1.013804    0.899596   -1.739990
| 13> H     -2.873692   -0.000011    0.186098
| 14> H     -0.971028   -0.000045    2.203515
| 15> *
| 16>
| 17>                          ****END OF INPUT****

CARTESIAN COORDINATES (ANGSTROEM)
---------------------------------
  O      1.238707   -1.255661    0.004628
  S      0.503569   -0.000001    0.014979
  O      1.238698    1.255665    0.004692
  C     -0.961544    0.000030   -1.129930
  C     -1.794509   -0.000009    0.132105
  C     -0.911283   -0.000031    1.127195
  H     -1.013806   -0.899488   -1.740062
  H     -1.013804    0.899596   -1.739990
  H     -2.873692   -0.000011    0.186098
  H     -0.971028   -0.000045    2.203515

 Total Charge           Charge          ....    0
 Multiplicity           Mult            ....    1
 Number of Electrons    NEL             ....   54
 Basis Dimension        Dim             ....  372

ORBITAL ENERGIES
----------------

  NO   OCC          E(Eh)            E(eV)
   0   2.0000     -92.188769     -2508.5839
   1   2.0000     -20.553088      -559.2780
   2   2.0000     -20.553065      -559.2773
   3   2.0000     -11.304207      -307.6031
   4   2.0000     -11.299295      -307.4694
   5   2.0000     -11.295056      -307.3541
   6   2.0000      -9.157341      -249.1839
   7   2.0000      -6.841831      -186.1757
   8   2.0000      -6.841260      -186.1602
   9   2.0000      -6.841173      -186.1578
  10   2.0000      -1.449679       -39.4478
  11   2.0000      -1.337532       -36.3961
  12   2.0000      -1.187451       -32.3122
  13   2.0000      -0.973773       -26.4977
  14   2.0000      -0.897228       -24.4148
  15   2.0000      -0.768269       -20.9057
  16   2.0000      -0.723077       -19.6759
  17   2.0000      -0.675414       -18.3789
  18   2.0000      -0.668028       -18.1780
  19   2.0000      -0.625627       -17.0242
  20   2.0000      -0.616395       -16.7730
  21   2.0000      -0.583205       -15.8698
  22   2.0000      -0.506069       -13.7708
  23   2.0000      -0.484925       -13.1955
  24   2.0000      -0.481232       -13.0950
  25   2.0000      -0.440447       -11.9852
  26   2.0000      -0.422252       -11.4900
  27   0.0000       0.018197         0.4952
  28   0.0000       0.031623         0.8605
  29   0.0000       0.038717         1.0535
  30   0.0000       0.041149         1.1197
  31   0.0000       0.076414         2.0793

MULLIKEN ATOMIC CHARGES
-----------------------
   0 O :   -0.916939
   1 S :    1.875111
   2 O :   -0.916940
   3 C :   -0.493610
   4 C :   -0.470861
   5 C :   -0.810430
   6 H :    0.340901
   7 H :    0.340896
   8 H :    0.471001
   9 H :    0.580870
Sum of atomic charges:    0.0000000

LOEWDIN ATOMIC CHARGES
----------------------
   0 O :   -0.006026
   1 S :    0.257521
   2 O :   -0.006026
   3 C :    0.236525
   4 C :    0.116833
   5 C :    0.168571
   6 H :   -0.189466
   7 H :   -0.189468
   8 H :   -0.176705
   9 H :   -0.211758

  Mayer bond orders larger than 0.100000
B(  0-O ,  1-S ) :   1.3348 B(  1-S ,  2-O ) :   1.3348 B(  1-S ,  3-C ) :   0.9507
B(  1-S ,  4-C ) :  -0.1067 B(  1-S ,  5-C ) :   0.9447 B(  3-C ,  4-C ) :   0.9512
B(  3-C ,  6-H ) :   0.8584 B(  3-C ,  7-H ) :   0.8584 B(  4-C ,  5-C ) :   1.3884
B(  4-C ,  8-H ) :   0.8082 B(  5-C ,  9-H ) :   0.6455

MP2 TOTAL ENERGY:     -664.363688413 Eh
FINAL SINGLE POINT ENERGY      -664.363688413064

DIPOLE MOMENT
-------------
                                X             Y             Z
Electronic contribution:      3.38898      -0.00005       0.97786
Nuclear contribution   :     -5.69675       0.00005      -1.06240
                        -----------------------------------------
Total Dipole Moment    :     -2.30777       0.00000      -0.08454
                        -----------------------------------------
Magnitude (a.u.)       :      2.30932
Magnitude (Debye)      :      5.86983

Rotational constants in cm-1:     0.179513     0.099255     0.093602
Rotational constants in MHz :  5381.665071  2975.583609  2806.121697

                             ****ORCA TERMINATED NORMALLY****
TOTAL RUN TIME: 0 days 0 hours 2 minutes 11 seconds 11 msec
