                         Program Version 5.0.3 -  RELEASE  -
|  1> !ri-mp2 aug-cc-pvtz aug-cc-pvtz/c tightscf
|  2> %pal nprocs 16 end
|  3>
|  4> * xyz 0 1
|  5> N     -1.176140    0.295001        0.000000
|  6> C      0.000000    0.900809        0.000000
|  7> C      1.223975    0.226351        0.000000
|  8> C      1.190077   -1.154667        0.000000
|  9> C     -0.039417   -1.813282        0.000000
| 10> C     -1.189267   -1.042689        0.000000
| 11> O      0.005822    2.254025        0.000000
| 12> H      2.149101    0.783058        0.000000
| 13> H      2.113772   -1.717700        0.000000
| 14> H     -0.101257   -2.891524        0.000000
| 15> H     -2.168354   -1.506394        0.000000
| 16> H     -0.919060    2.536214        0.000000
| 17> *
| 18>
| 19>                          ****END OF INPUT****

CARTESIAN COORDINATES (ANGSTROEM)
---------------------------------
  N     -1.176140    0.295001    0.000000
  C      0.000000    0.900809    0.000000
  C      1.223975    0.226351    0.000000
  C      1.190077   -1.154667    0.000000
  C     -0.039417   -1.813282    0.000000
  C     -1.189267   -1.042689    0.000000
  O      0.005822    2.254025    0.000000
  H      2.149101    0.783058    0.000000
  H      2.113772   -1.717700    0.000000
  H     -0.101257   -2.891524    0.000000
  H     -2.168354   -1.506394    0.000000
  H     -0.919060    2.536214    0.000000

 Total Charge           Charge          ....    0
 Multiplicity           Mult            ....    1
 Number of Electrons    NEL             ....   50
 Basis Dimension        Dim             ....  437

ORBITAL ENERGIES
----------------

  NO   OCC          E(Eh)            E(eV)
   0   2.0000     -20.595931      -560.4438
   1   2.0000     -15.564533      -423.5325
   2   2.0000     -11.342378      -308.6418
   3   2.0000     -11.282610      -307.0154
   4   2.0000     -11.264340      -306.5183
   5   2.0000     -11.238180      -305.8064
   6   2.0000     -11.234155      -305.6969
   7   2.0000      -1.424841       -38.7719
   8   2.0000      -1.257100       -34.2074
   9   2.0000      -1.095219       -29.8024
  10   2.0000      -1.028621       -27.9902
  11   2.0000      -0.879355       -23.9285
  12   2.0000      -0.855317       -23.2744
  13   2.0000      -0.749084       -20.3836
  14   2.0000      -0.708797       -19.2873
  15   2.0000      -0.667479       -18.1630
  16   2.0000      -0.622698       -16.9445
  17   2.0000      -0.613113       -16.6836
  18   2.0000      -0.596837       -16.2408
  19   2.0000      -0.572666       -15.5830
  20   2.0000      -0.535253       -14.5650
  21   2.0000      -0.512182       -13.9372
  22   2.0000      -0.433456       -11.7949
  23   2.0000      -0.391697       -10.6586
  24   2.0000      -0.331917        -9.0319
  25   0.0000       0.027153         0.7389
  26   0.0000       0.034519         0.9393
  27   0.0000       0.036131         0.9832
  28   0.0000       0.049159         1.3377
  29   0.0000       0.052491         1.4283

MULLIKEN ATOMIC CHARGES
-----------------------
   0 N :   -0.261936
   1 C :    0.366604
   2 C :   -0.328081
   3 C :   -0.572018
   4 C :   -0.078567
   5 C :   -0.653761
   6 O :   -0.561405
   7 H :    0.438049
   8 H :    0.481742
   9 H :    0.311025
  10 H :    0.633311
  11 H :    0.225037
Sum of atomic charges:   -0.0000000

LOEWDIN ATOMIC CHARGES
----------------------
   0 N :    0.389663
   1 C :   -0.582491
   2 C :    0.215296
   3 C :    0.182760
   4 C :    0.190276
   5 C :    0.006447
   6 O :    0.832422
   7 H :   -0.188376
   8 H :   -0.172450
   9 H :   -0.197777
  10 H :   -0.190246
  11 H :   -0.485525

  Mayer bond orders larger than 0.100000
B(  0-N ,  1-C ) :   1.1867 B(  0-N ,  4-C ) :  -0.1615 B(  0-N ,  5-C ) :   1.1824
B(  0-N ,  6-O ) :  -0.1540 B(  1-C ,  2-C ) :   0.8931 B(  1-C ,  3-C ) :   0.1132
B(  1-C ,  4-C ) :  -0.1179 B(  1-C ,  5-C ) :   0.3078 B(  1-C ,  6-O ) :   0.7366
B(  2-C ,  3-C ) :   1.3002 B(  2-C ,  7-H ) :   0.8572 B(  3-C ,  4-C ) :   1.0814
B(  3-C ,  5-C ) :   0.2578 B(  3-C ,  8-H ) :   0.8299 B(  3-C ,  9-H ) :  -0.1208
B(  4-C ,  5-C ) :   0.9006 B(  4-C ,  9-H ) :   1.0214 B(  5-C , 10-H ) :   0.4223
B(  6-O , 11-H ) :   0.9453

MP2 TOTAL ENERGY:     -322.923366941 Eh
FINAL SINGLE POINT ENERGY      -322.923366940811

DIPOLE MOMENT
-------------
                                X             Y             Z
Electronic contribution:     -0.85297       2.16518      -0.00000
Nuclear contribution   :      1.05395      -2.72434       0.00000
                        -----------------------------------------
Total Dipole Moment    :      0.20098      -0.55916      -0.00000
                        -----------------------------------------
Magnitude (a.u.)       :      0.59419
Magnitude (Debye)      :      1.51030

Rotational constants in cm-1:     0.195890     0.092512     0.062836
Rotational constants in MHz :  5872.636094  2773.429428  1883.786529

                             ****ORCA TERMINATED NORMALLY****
TOTAL RUN TIME: 0 days 0 hours 3 minutes 8 seconds 508 msec
