                         Program Version 5.0.3 -  RELEASE  -
|  1> !ri-mp2 aug-cc-pvtz aug-cc-pvtz/c tightscf
|  2> %pal nprocs 16 end
|  3>
|  4> * xyz 0 1
|  5> C     1.119788    1.638607     0.000000
|  6> C    -1.119788   -1.638607     0.000000
|  7> C    -0.125681    0.772915     0.000000
|  8> C     0.125681   -0.772915     0.000000
|  9> Cl   -1.119788    1.196241     1.462338
| 10> Cl   -1.119788    1.196241    -1.462338
| 11> Cl    1.119788   -1.196241    -1.462338
| 12> Cl    1.119788   -1.196241     1.462338
| 13> H     1.713774    1.435038     0.887218
| 14> H     1.713774    1.435038    -0.887218
| 15> H     0.825079    2.684199     0.000000
| 16> H    -0.825079   -2.684199     0.000000
| 17> H    -1.713774   -1.435038    -0.887218
| 18> H    -1.713774   -1.435038     0.887218
| 19> *
| 20>
| 21>                          ****END OF INPUT****

CARTESIAN COORDINATES (ANGSTROEM)
---------------------------------
  C      1.119788    1.638607    0.000000
  C     -1.119788   -1.638607    0.000000
  C     -0.125681    0.772915    0.000000
  C      0.125681   -0.772915    0.000000
  Cl    -1.119788    1.196241    1.462338
  Cl    -1.119788    1.196241   -1.462338
  Cl     1.119788   -1.196241   -1.462338
  Cl     1.119788   -1.196241    1.462338
  H      1.713774    1.435038    0.887218
  H      1.713774    1.435038   -0.887218
  H      0.825079    2.684199    0.000000
  H     -0.825079   -2.684199    0.000000
  H     -1.713774   -1.435038   -0.887218
  H     -1.713774   -1.435038    0.887218

 Total Charge           Charge          ....    0
 Multiplicity           Mult            ....    1
 Number of Electrons    NEL             ....   98
 Basis Dimension        Dim             ....  522

ORBITAL ENERGIES
----------------

  NO   OCC          E(Eh)            E(eV)
   0   2.0000    -104.852739     -2853.1881
   1   2.0000    -104.852739     -2853.1881
   2   2.0000    -104.852739     -2853.1881
   3   2.0000    -104.852739     -2853.1881
   4   2.0000     -11.405234      -310.3522
   5   2.0000     -11.404699      -310.3376
   6   2.0000     -11.250819      -306.1503
   7   2.0000     -11.250817      -306.1503
   8   2.0000     -10.576922      -287.8127
   9   2.0000     -10.576918      -287.8126
  10   2.0000     -10.576912      -287.8124
  11   2.0000     -10.576912      -287.8124
  12   2.0000      -8.043605      -218.8776
  13   2.0000      -8.043604      -218.8776
  14   2.0000      -8.043603      -218.8776
  15   2.0000      -8.043602      -218.8775
  16   2.0000      -8.041711      -218.8261
  17   2.0000      -8.041711      -218.8261
  18   2.0000      -8.041711      -218.8261
  19   2.0000      -8.041710      -218.8261
  20   2.0000      -8.041681      -218.8253
  21   2.0000      -8.041681      -218.8253
  22   2.0000      -8.041680      -218.8252
  23   2.0000      -8.041680      -218.8252
  24   2.0000      -1.242878       -33.8204
  25   2.0000      -1.168769       -31.8038
  26   2.0000      -1.107573       -30.1386
  27   2.0000      -1.086681       -29.5701
  28   2.0000      -1.022680       -27.8285
  29   2.0000      -1.012165       -27.5424
  30   2.0000      -0.892096       -24.2752
  31   2.0000      -0.753131       -20.4937
  32   2.0000      -0.675723       -18.3874
  33   2.0000      -0.654348       -17.8057
  34   2.0000      -0.642302       -17.4779
  35   2.0000      -0.628147       -17.0927
  36   2.0000      -0.577610       -15.7176
  37   2.0000      -0.575425       -15.6581
  38   2.0000      -0.549394       -14.9498
  39   2.0000      -0.546724       -14.8771
  40   2.0000      -0.522251       -14.2112
  41   2.0000      -0.485047       -13.1988
  42   2.0000      -0.482176       -13.1207
  43   2.0000      -0.477323       -12.9886
  44   2.0000      -0.472465       -12.8564
  45   2.0000      -0.461019       -12.5450
  46   2.0000      -0.458054       -12.4643
  47   2.0000      -0.445210       -12.1148
  48   2.0000      -0.432156       -11.7596
  49   0.0000       0.033003         0.8981
  50   0.0000       0.035657         0.9703
  51   0.0000       0.046666         1.2699
  52   0.0000       0.048683         1.3247
  53   0.0000       0.055141         1.5005

MULLIKEN ATOMIC CHARGES
-----------------------
   0 C :   -1.047223
   1 C :   -1.047223
   2 C :    1.027589
   3 C :    1.027589
   4 Cl:   -0.480446
   5 Cl:   -0.480446
   6 Cl:   -0.480446
   7 Cl:   -0.480446
   8 H :    0.307906
   9 H :    0.307906
  10 H :    0.364714
  11 H :    0.364714
  12 H :    0.307906
  13 H :    0.307906
Sum of atomic charges:    0.0000000

LOEWDIN ATOMIC CHARGES
----------------------
   0 C :    0.338143
   1 C :    0.338143
   2 C :   -1.539396
   3 C :   -1.539396
   4 Cl:    0.928401
   5 Cl:    0.928401
   6 Cl:    0.928401
   7 Cl:    0.928401
   8 H :   -0.225395
   9 H :   -0.225395
  10 H :   -0.204760
  11 H :   -0.204760
  12 H :   -0.225395
  13 H :   -0.225395

  Mayer bond orders larger than 0.100000
B(  0-C ,  2-C ) :   0.6228 B(  0-C ,  8-H ) :   0.9394 B(  0-C ,  9-H ) :   0.9394
B(  0-C , 10-H ) :   0.9396 B(  1-C ,  3-C ) :   0.6228 B(  1-C , 11-H ) :   0.9396
B(  1-C , 12-H ) :   0.9394 B(  1-C , 13-H ) :   0.9394 B(  2-C ,  3-C ) :   1.1372
B(  2-C ,  4-Cl) :   0.5560 B(  2-C ,  5-Cl) :   0.5560 B(  3-C ,  6-Cl) :   0.5560
B(  3-C ,  7-Cl) :   0.5560

MP2 TOTAL ENERGY:    -1994.576970063 Eh
FINAL SINGLE POINT ENERGY     -1994.576970062814

DIPOLE MOMENT
-------------
                                X             Y             Z
Electronic contribution:     -0.00000       0.00000       0.00000
Nuclear contribution   :     -0.00000       0.00000       0.00000
                        -----------------------------------------
Total Dipole Moment    :     -0.00000       0.00000       0.00000
                        -----------------------------------------
Magnitude (a.u.)       :      0.00000
Magnitude (Debye)      :      0.00000

Rotational constants in cm-1:     0.039261     0.032040     0.023755
Rotational constants in MHz :  1177.029254   960.526929   712.165308

                             ****ORCA TERMINATED NORMALLY****
TOTAL RUN TIME: 0 days 0 hours 5 minutes 32 seconds 158 msec
