                         Program Version 5.0.3 -  RELEASE  -
|  1> !ri-mp2 aug-cc-pvtz aug-cc-pvtz/c tightscf
|  2> %pal nprocs 16 end
|  3> %maxcore 3800
|  4>
|  5> * xyz 0 1
|  6> C      0.031636    2.129960    0.000000
|  7> C      0.022160    1.426629    1.197036
|  8> C      0.022160    1.426629   -1.197036
|  9> C      0.000741    0.035768    1.220838
| 10> C      0.000741    0.035768   -1.220838
| 11> C     -0.014016   -0.663674    0.000000
| 12> C      0.000741   -0.713836    2.525634
| 13> C      0.000741   -0.713836   -2.525634
| 14> N      0.019170   -2.060830    0.000000
| 15> H      0.048473    3.210934    0.000000
| 16> H      0.033219    1.964237    2.137086
| 17> H      0.033219    1.964237   -2.137086
| 18> H     -0.899053   -1.326444    2.647724
| 19> H      0.860065   -1.385263    2.606507
| 20> H      0.037075   -0.025129    3.367762
| 21> H      0.860065   -1.385263   -2.606507
| 22> H     -0.899053   -1.326444   -2.647724
| 23> H      0.037075   -0.025129   -3.367762
| 24> H     -0.317355   -2.510195   -0.834773
| 25> H     -0.317355   -2.510195    0.834773
| 26> *
| 27>
| 28>                          ****END OF INPUT****

CARTESIAN COORDINATES (ANGSTROEM)
---------------------------------
  C      0.031636    2.129960    0.000000
  C      0.022160    1.426629    1.197036
  C      0.022160    1.426629   -1.197036
  C      0.000741    0.035768    1.220838
  C      0.000741    0.035768   -1.220838
  C     -0.014016   -0.663674    0.000000
  C      0.000741   -0.713836    2.525634
  C      0.000741   -0.713836   -2.525634
  N      0.019170   -2.060830    0.000000
  H      0.048473    3.210934    0.000000
  H      0.033219    1.964237    2.137086
  H      0.033219    1.964237   -2.137086
  H     -0.899053   -1.326444    2.647724
  H      0.860065   -1.385263    2.606507
  H      0.037075   -0.025129    3.367762
  H      0.860065   -1.385263   -2.606507
  H     -0.899053   -1.326444   -2.647724
  H      0.037075   -0.025129   -3.367762
  H     -0.317355   -2.510195   -0.834773
  H     -0.317355   -2.510195    0.834773

 Total Charge           Charge          ....    0
 Multiplicity           Mult            ....    1
 Number of Electrons    NEL             ....   66
 Basis Dimension        Dim             ....  667

ORBITAL ENERGIES
----------------

  NO   OCC          E(Eh)            E(eV)
   0   2.0000     -15.561892      -423.4606
   1   2.0000     -11.267500      -306.6043
   2   2.0000     -11.226867      -305.4986
   3   2.0000     -11.226839      -305.4978
   4   2.0000     -11.223129      -305.3969
   5   2.0000     -11.223128      -305.3968
   6   2.0000     -11.221764      -305.3597
   7   2.0000     -11.221687      -305.3576
   8   2.0000     -11.212464      -305.1066
   9   2.0000      -1.224821       -33.3291
  10   2.0000      -1.126437       -30.6519
  11   2.0000      -1.055768       -28.7289
  12   2.0000      -1.006078       -27.3768
  13   2.0000      -0.932383       -25.3714
  14   2.0000      -0.923248       -25.1229
  15   2.0000      -0.800063       -21.7708
  16   2.0000      -0.790616       -21.5137
  17   2.0000      -0.695135       -18.9156
  18   2.0000      -0.691281       -18.8107
  19   2.0000      -0.627133       -17.0652
  20   2.0000      -0.604379       -16.4460
  21   2.0000      -0.589839       -16.0503
  22   2.0000      -0.577155       -15.7052
  23   2.0000      -0.568424       -15.4676
  24   2.0000      -0.559480       -15.2242
  25   2.0000      -0.555587       -15.1183
  26   2.0000      -0.525082       -14.2882
  27   2.0000      -0.500812       -13.6278
  28   2.0000      -0.485304       -13.2058
  29   2.0000      -0.475464       -12.9380
  30   2.0000      -0.443787       -12.0760
  31   2.0000      -0.318742        -8.6734
  32   2.0000      -0.284601        -7.7444
  33   0.0000       0.026806         0.7294
  34   0.0000       0.031362         0.8534
  35   0.0000       0.034275         0.9327
  36   0.0000       0.044333         1.2064
  37   0.0000       0.045531         1.2390

MULLIKEN ATOMIC CHARGES
-----------------------
   0 C :   -0.443411
   1 C :   -0.572983
   2 C :   -0.572983
   3 C :    0.840100
   4 C :    0.840100
   5 C :    0.229683
   6 C :   -0.941020
   7 C :   -0.941019
   8 N :   -0.760671
   9 H :    0.854279
  10 H :   -0.078501
  11 H :   -0.078498
  12 H :    0.251611
  13 H :    0.267906
  14 H :    0.232876
  15 H :    0.267905
  16 H :    0.251610
  17 H :    0.232878
  18 H :    0.060068
  19 H :    0.060069
Sum of atomic charges:   -0.0000000

LOEWDIN ATOMIC CHARGES
----------------------
   0 C :    0.193136
   1 C :    0.201067
   2 C :    0.201067
   3 C :   -0.091943
   4 C :   -0.091943
   5 C :   -0.192487
   6 C :    0.569735
   7 C :    0.569735
   8 N :    0.873376
   9 H :   -0.192876
  10 H :   -0.182747
  11 H :   -0.182747
  12 H :   -0.166261
  13 H :   -0.163344
  14 H :   -0.178158
  15 H :   -0.163344
  16 H :   -0.166261
  17 H :   -0.178158
  18 H :   -0.328923
  19 H :   -0.328923

  Mayer bond orders larger than 0.100000
B(  0-C ,  1-C ) :   0.9891 B(  0-C ,  2-C ) :   0.9891 B(  0-C ,  3-C ) :   0.2576
B(  0-C ,  4-C ) :   0.2576 B(  0-C ,  5-C ) :   0.2306 B(  0-C , 10-H ) :  -0.1402
B(  0-C , 11-H ) :  -0.1402 B(  1-C ,  2-C ) :  -0.2759 B(  1-C ,  3-C ) :   0.7684
B(  1-C ,  4-C ) :   0.1208 B(  1-C ,  5-C ) :  -0.3711 B(  1-C , 10-H ) :   1.7373
B(  1-C , 11-H ) :   0.1599 B(  2-C ,  3-C ) :   0.1208 B(  2-C ,  4-C ) :   0.7684
B(  2-C ,  5-C ) :  -0.3711 B(  2-C , 10-H ) :   0.1599 B(  2-C , 11-H ) :   1.7373
B(  3-C ,  4-C ) :   0.1955 B(  3-C ,  5-C ) :   1.3447 B(  3-C ,  6-C ) :   0.2827
B(  3-C ,  8-N ) :  -0.2965 B(  3-C , 10-H ) :  -0.2352 B(  3-C , 12-H ) :  -0.1092
B(  3-C , 13-H ) :  -0.1125 B(  4-C ,  5-C ) :   1.3446 B(  4-C ,  7-C ) :   0.2827
B(  4-C ,  8-N ) :  -0.2965 B(  4-C , 11-H ) :  -0.2352 B(  4-C , 15-H ) :  -0.1125
B(  4-C , 16-H ) :  -0.1092 B(  5-C ,  6-C ) :   0.3731 B(  5-C ,  7-C ) :   0.3731
B(  5-C ,  8-N ) :   0.5301 B(  5-C , 10-H ) :   0.1142 B(  5-C , 11-H ) :   0.1142
B(  6-C , 12-H ) :   0.9881 B(  6-C , 13-H ) :   0.9912 B(  6-C , 14-H ) :   1.0786
B(  7-C , 15-H ) :   0.9912 B(  7-C , 16-H ) :   0.9881 B(  7-C , 17-H ) :   1.0786
B(  8-N , 18-H ) :   1.1125 B(  8-N , 19-H ) :   1.1125 B(  9-H , 10-H ) :  -0.1859
B(  9-H , 11-H ) :  -0.1859 B( 10-H , 11-H ) :   0.1858

MP2 TOTAL ENERGY:     -365.477952409 Eh
FINAL SINGLE POINT ENERGY      -365.477952408847

DIPOLE MOMENT
-------------
                                X             Y             Z
Electronic contribution:      0.19087       2.93238       0.00000
Nuclear contribution   :     -0.53548      -3.44370      -0.00000
                        -----------------------------------------
Total Dipole Moment    :     -0.34460      -0.51132       0.00000
                        -----------------------------------------
Magnitude (a.u.)       :      0.61661
Magnitude (Debye)      :      1.56729

Rotational constants in cm-1:     0.075939     0.058517     0.033485
Rotational constants in MHz :  2276.582921  1754.289680  1003.861983

                             ****ORCA TERMINATED NORMALLY****
TOTAL RUN TIME: 0 days 0 hours 12 minutes 39 seconds 91 msec
