                         Program Version 5.0.3 -  RELEASE  -
|  1> !ri-mp2 aug-cc-pvtz aug-cc-pvtz/c tightscf
|  2> %pal nprocs 16 end
|  3>
|  4> * xyz 0 1
|  5> C    -0.340935     2.925198       0.000000
|  6> C     0.340935    -2.925198       0.000000
|  7> C    -0.990750     1.654854       0.000000
|  8> C     0.990750    -1.654854       0.000000
|  9> C     0.990750     2.673861       0.000000
| 10> C    -0.990750    -2.673861       0.000000
| 11> C     0.001025     0.717171       0.000000
| 12> C    -0.001025    -0.717171       0.000000
| 13> O     1.221122     1.331017       0.000000
| 14> O    -1.221122    -1.331017       0.000000
| 15> H    -0.806983     3.895142       0.000000
| 16> H     0.806983    -3.895142       0.000000
| 17> H    -2.047458     1.455961       0.000000
| 18> H     2.047458    -1.455961       0.000000
| 19> H     1.864288     3.299524       0.000000
| 20> H    -1.864288    -3.299524       0.000000
| 21> *
| 22>
| 23>                          ****END OF INPUT****

CARTESIAN COORDINATES (ANGSTROEM)
---------------------------------
  C     -0.340935    2.925198    0.000000
  C      0.340935   -2.925198    0.000000
  C     -0.990750    1.654854    0.000000
  C      0.990750   -1.654854    0.000000
  C      0.990750    2.673861    0.000000
  C     -0.990750   -2.673861    0.000000
  C      0.001025    0.717171    0.000000
  C     -0.001025   -0.717171    0.000000
  O      1.221122    1.331017    0.000000
  O     -1.221122   -1.331017    0.000000
  H     -0.806983    3.895142    0.000000
  H      0.806983   -3.895142    0.000000
  H     -2.047458    1.455961    0.000000
  H      2.047458   -1.455961    0.000000
  H      1.864288    3.299524    0.000000
  H     -1.864288   -3.299524    0.000000

 Total Charge           Charge          ....    0
 Multiplicity           Mult            ....    1
 Number of Electrons    NEL             ....   70
 Basis Dimension        Dim             ....  598

ORBITAL ENERGIES
----------------

  NO   OCC          E(Eh)            E(eV)
   0   2.0000     -20.627152      -561.2933
   1   2.0000     -20.627151      -561.2933
   2   2.0000     -11.302067      -307.5449
   3   2.0000     -11.301142      -307.5197
   4   2.0000     -11.292267      -307.2782
   5   2.0000     -11.292266      -307.2782
   6   2.0000     -11.234512      -305.7066
   7   2.0000     -11.234511      -305.7066
   8   2.0000     -11.233476      -305.6784
   9   2.0000     -11.233476      -305.6784
  10   2.0000      -1.467920       -39.9441
  11   2.0000      -1.459267       -39.7087
  12   2.0000      -1.093352       -29.7516
  13   2.0000      -1.091819       -29.7099
  14   2.0000      -1.061028       -28.8720
  15   2.0000      -0.973713       -26.4961
  16   2.0000      -0.830998       -22.6126
  17   2.0000      -0.828509       -22.5449
  18   2.0000      -0.790609       -21.5136
  19   2.0000      -0.762351       -20.7446
  20   2.0000      -0.753439       -20.5021
  21   2.0000      -0.684322       -18.6213
  22   2.0000      -0.656485       -17.8639
  23   2.0000      -0.628566       -17.1041
  24   2.0000      -0.608179       -16.5494
  25   2.0000      -0.598923       -16.2975
  26   2.0000      -0.576567       -15.6892
  27   2.0000      -0.575163       -15.6510
  28   2.0000      -0.563279       -15.3276
  29   2.0000      -0.554308       -15.0835
  30   2.0000      -0.535807       -14.5801
  31   2.0000      -0.410102       -11.1595
  32   2.0000      -0.403747       -10.9865
  33   2.0000      -0.372811       -10.1447
  34   2.0000      -0.275442        -7.4952
  35   0.0000       0.028924         0.7871
  36   0.0000       0.030218         0.8223
  37   0.0000       0.033533         0.9125
  38   0.0000       0.041586         1.1316
  39   0.0000       0.045438         1.2364

MULLIKEN ATOMIC CHARGES
-----------------------
   0 C :   -0.623930
   1 C :   -0.623930
   2 C :   -1.251026
   3 C :   -1.251026
   4 C :   -0.641898
   5 C :   -0.641898
   6 C :    1.286016
   7 C :    1.286016
   8 O :   -0.468491
   9 O :   -0.468491
  10 H :    0.494864
  11 H :    0.494864
  12 H :    0.466839
  13 H :    0.466839
  14 H :    0.737626
  15 H :    0.737626
Sum of atomic charges:    0.0000000

LOEWDIN ATOMIC CHARGES
----------------------
   0 C :    0.177844
   1 C :    0.177844
   2 C :    0.204468
   3 C :    0.204468
   4 C :   -0.016650
   5 C :   -0.016650
   6 C :   -0.376820
   7 C :   -0.376820
   8 O :    0.579163
   9 O :    0.579163
  10 H :   -0.193821
  11 H :   -0.193821
  12 H :   -0.181709
  13 H :   -0.181709
  14 H :   -0.192473
  15 H :   -0.192473

  Mayer bond orders larger than 0.100000
B(  0-C ,  2-C ) :   1.2792 B(  0-C ,  4-C ) :   1.2378 B(  0-C ,  8-O ) :  -0.1220
B(  0-C , 10-H ) :   0.8532 B(  1-C ,  3-C ) :   1.2792 B(  1-C ,  5-C ) :   1.2378
B(  1-C ,  9-O ) :  -0.1220 B(  1-C , 11-H ) :   0.8532 B(  2-C ,  4-C ) :   0.1523
B(  2-C ,  6-C ) :   0.8201 B(  2-C , 12-H ) :   0.9795 B(  3-C ,  5-C ) :   0.1523
B(  3-C ,  7-C ) :   0.8201 B(  3-C , 13-H ) :   0.9795 B(  4-C ,  6-C ) :  -0.1843
B(  4-C ,  8-O ) :   1.1986 B(  4-C , 14-H ) :   0.4153 B(  5-C ,  7-C ) :  -0.1843
B(  5-C ,  9-O ) :   1.1986 B(  5-C , 15-H ) :   0.4153 B(  6-C ,  7-C ) :   0.7254
B(  6-C ,  8-O ) :   0.6367 B(  6-C ,  9-O ) :   0.1011 B(  7-C ,  8-O ) :   0.1011
B(  7-C ,  9-O ) :   0.6367

MP2 TOTAL ENERGY:     -458.017210726 Eh
FINAL SINGLE POINT ENERGY      -458.017210725761

DIPOLE MOMENT
-------------
                                X             Y             Z
Electronic contribution:      0.00000       0.00000      -0.00000
Nuclear contribution   :      0.00000       0.00000       0.00000
                        -----------------------------------------
Total Dipole Moment    :      0.00000       0.00000      -0.00000
                        -----------------------------------------
Magnitude (a.u.)       :      0.00000
Magnitude (Debye)      :      0.00000

Rotational constants in cm-1:     0.155401     0.029323     0.024668
Rotational constants in MHz :  4658.795427   879.086935   739.540121

                             ****ORCA TERMINATED NORMALLY****
TOTAL RUN TIME: 0 days 0 hours 8 minutes 0 seconds 365 msec
