                         Program Version 5.0.3 -  RELEASE  -
|  1> !ri-mp2 aug-cc-pvtz aug-cc-pvtz/c tightscf
|  2> %pal nprocs 16 end
|  3>
|  4> * xyz 0 1
|  5> C    -1.470654    0.825217    0.180286
|  6> C    -1.553390   -0.662462    0.294602
|  7> C    -0.306511    1.283031   -0.252180
|  8> N    -0.356943   -1.153514   -0.388425
|  9> O     1.719592    0.003041    0.864117
| 10> S     0.944753   -0.019129   -0.414780
| 11> H    -2.309000    1.451695    0.454288
| 12> H    -1.613318   -0.957897    1.349242
| 13> H    -2.442883   -1.050971   -0.208260
| 14> H     0.004141    2.307754   -0.379815
| 15> H    -0.029788   -2.068961   -0.109186
| 16> *
| 17>
| 18>                          ****END OF INPUT****

CARTESIAN COORDINATES (ANGSTROEM)
---------------------------------
  C     -1.470654    0.825217    0.180286
  C     -1.553390   -0.662462    0.294602
  C     -0.306511    1.283031   -0.252180
  N     -0.356943   -1.153514   -0.388425
  O      1.719592    0.003041    0.864117
  S      0.944753   -0.019129   -0.414780
  H     -2.309000    1.451695    0.454288
  H     -1.613318   -0.957897    1.349242
  H     -2.442883   -1.050971   -0.208260
  H      0.004141    2.307754   -0.379815
  H     -0.029788   -2.068961   -0.109186

 Total Charge           Charge          ....    0
 Multiplicity           Mult            ....    1
 Number of Electrons    NEL             ....   54
 Basis Dimension        Dim             ....  395

ORBITAL ENERGIES
----------------

  NO   OCC          E(Eh)            E(eV)
   0   2.0000     -92.098707     -2506.1332
   1   2.0000     -20.513574      -558.2027
   2   2.0000     -15.590468      -424.2382
   3   2.0000     -11.289428      -307.2010
   4   2.0000     -11.273565      -306.7693
   5   2.0000     -11.268283      -306.6256
   6   2.0000      -9.080224      -247.0855
   7   2.0000      -6.761919      -184.0012
   8   2.0000      -6.761405      -183.9872
   9   2.0000      -6.759901      -183.9463
  10   2.0000      -1.352084       -36.7921
  11   2.0000      -1.237367       -33.6705
  12   2.0000      -1.080762       -29.4090
  13   2.0000      -0.992312       -27.0022
  14   2.0000      -0.846057       -23.0224
  15   2.0000      -0.782851       -21.3025
  16   2.0000      -0.725026       -19.7290
  17   2.0000      -0.656743       -17.8709
  18   2.0000      -0.613620       -16.6974
  19   2.0000      -0.600546       -16.3417
  20   2.0000      -0.588267       -16.0076
  21   2.0000      -0.557568       -15.1722
  22   2.0000      -0.549247       -14.9458
  23   2.0000      -0.459432       -12.5018
  24   2.0000      -0.409540       -11.1441
  25   2.0000      -0.398236       -10.8365
  26   2.0000      -0.381018       -10.3680
  27   0.0000       0.023112         0.6289
  28   0.0000       0.033338         0.9072
  29   0.0000       0.039397         1.0721
  30   0.0000       0.043089         1.1725
  31   0.0000       0.053397         1.4530

MULLIKEN ATOMIC CHARGES
-----------------------
   0 C :   -0.416331
   1 C :   -0.104840
   2 C :   -0.614603
   3 N :   -0.342659
   4 O :   -0.905473
   5 S :    0.745244
   6 H :    0.424454
   7 H :    0.320076
   8 H :    0.305534
   9 H :    0.549484
  10 H :    0.039113
Sum of atomic charges:    0.0000000

LOEWDIN ATOMIC CHARGES
----------------------
   0 C :    0.141308
   1 C :    0.074373
   2 C :    0.031215
   3 N :    0.305876
   4 O :   -0.194408
   5 S :    0.746800
   6 H :   -0.173150
   7 H :   -0.147569
   8 H :   -0.157717
   9 H :   -0.245818
  10 H :   -0.380911

  Mayer bond orders larger than 0.100000
B(  0-C ,  1-C ) :   0.8926 B(  0-C ,  2-C ) :   1.6068 B(  0-C ,  6-H ) :   0.8527
B(  1-C ,  3-N ) :   0.7597 B(  1-C ,  7-H ) :   0.9195 B(  1-C ,  8-H ) :   0.9279
B(  2-C ,  5-S ) :   0.9699 B(  2-C ,  9-H ) :   0.6483 B(  3-N ,  5-S ) :   0.9242
B(  3-N , 10-H ) :   1.0190 B(  4-O ,  5-S ) :   1.4094

MP2 TOTAL ENERGY:     -644.519745468 Eh
FINAL SINGLE POINT ENERGY      -644.519745467918

DIPOLE MOMENT
-------------
                                X             Y             Z
Electronic contribution:      4.64784       0.30434      -1.49326
Nuclear contribution   :     -6.28815      -0.31909       1.11153
                        -----------------------------------------
Total Dipole Moment    :     -1.64031      -0.01475      -0.38173
                        -----------------------------------------
Magnitude (a.u.)       :      1.68420
Magnitude (Debye)      :      4.28091

Rotational constants in cm-1:     0.188034     0.098350     0.079060
Rotational constants in MHz :  5637.123709  2948.453800  2370.166294

                             ****ORCA TERMINATED NORMALLY****
TOTAL RUN TIME: 0 days 0 hours 2 minutes 20 seconds 353 msec
