                         Program Version 5.0.3 -  RELEASE  -
|  1> !ri-mp2 aug-cc-pvtz aug-cc-pvtz/c tightscf
|  2> %pal nprocs 16 end
|  3>
|  4> * xyz 0 1
|  5> C      0.000000    0.890610        0.000000
|  6> C      1.213082    0.212929        0.000000
|  7> C      1.150826   -1.170346        0.000000
|  8> C     -0.094041   -1.795003        0.000000
|  9> C     -1.228714   -0.999639        0.000000
| 10> N     -1.183800    0.338362        0.000000
| 11> F      0.025740    2.234588        0.000000
| 12> H      2.146052    0.755943        0.000000
| 13> H      2.060970   -1.754404        0.000000
| 14> H     -0.181364   -2.871685        0.000000
| 15> H     -2.217635   -1.440986        0.000000
| 16> *
| 17>
| 18>                          ****END OF INPUT****

CARTESIAN COORDINATES (ANGSTROEM)
---------------------------------
  C      0.000000    0.890610    0.000000
  C      1.213082    0.212929    0.000000
  C      1.150826   -1.170346    0.000000
  C     -0.094041   -1.795003    0.000000
  C     -1.228714   -0.999639    0.000000
  N     -1.183800    0.338362    0.000000
  F      0.025740    2.234588    0.000000
  H      2.146052    0.755943    0.000000
  H      2.060970   -1.754404    0.000000
  H     -0.181364   -2.871685    0.000000
  H     -2.217635   -1.440986    0.000000

 Total Charge           Charge          ....    0
 Multiplicity           Mult            ....    1
 Number of Electrons    NEL             ....   50
 Basis Dimension        Dim             ....  414

ORBITAL ENERGIES
----------------

  NO   OCC          E(Eh)            E(eV)
   0   2.0000     -26.315206      -716.0732
   1   2.0000     -15.578529      -423.9133
   2   2.0000     -11.370459      -309.4059
   3   2.0000     -11.293216      -307.3040
   4   2.0000     -11.276230      -306.8418
   5   2.0000     -11.255498      -306.2777
   6   2.0000     -11.249419      -306.1122
   7   2.0000      -1.635845       -44.5136
   8   2.0000      -1.284553       -34.9545
   9   2.0000      -1.110344       -30.2140
  10   2.0000      -1.047182       -28.4953
  11   2.0000      -0.892269       -24.2799
  12   2.0000      -0.874751       -23.8032
  13   2.0000      -0.765595       -20.8329
  14   2.0000      -0.725431       -19.7400
  15   2.0000      -0.702545       -19.1172
  16   2.0000      -0.694104       -18.8875
  17   2.0000      -0.638218       -17.3668
  18   2.0000      -0.629609       -17.1325
  19   2.0000      -0.585457       -15.9311
  20   2.0000      -0.554783       -15.0964
  21   2.0000      -0.551789       -15.0149
  22   2.0000      -0.446073       -12.1383
  23   2.0000      -0.402854       -10.9622
  24   2.0000      -0.356876        -9.7111
  25   0.0000       0.023578         0.6416
  26   0.0000       0.032133         0.8744
  27   0.0000       0.038946         1.0598
  28   0.0000       0.050531         1.3750
  29   0.0000       0.074240         2.0202

MULLIKEN ATOMIC CHARGES
-----------------------
   0 C :    0.309588
   1 C :   -0.364958
   2 C :   -0.486541
   3 C :   -0.072233
   4 C :   -0.600894
   5 N :   -0.250104
   6 F :   -0.346368
   7 H :    0.332180
   8 H :    0.533588
   9 H :    0.326514
  10 H :    0.619226
Sum of atomic charges:    0.0000000

LOEWDIN ATOMIC CHARGES
----------------------
   0 C :   -0.714528
   1 C :    0.199410
   2 C :    0.187425
   3 C :    0.196985
   4 C :    0.010334
   5 N :    0.367090
   6 F :    0.493724
   7 H :   -0.188389
   8 H :   -0.171319
   9 H :   -0.192341
  10 H :   -0.188392

  Mayer bond orders larger than 0.100000
B(  0-C ,  1-C ) :   1.0607 B(  0-C ,  2-C ) :   0.1435 B(  0-C ,  4-C ) :   0.2556
B(  0-C ,  5-N ) :   1.3088 B(  0-C ,  6-F ) :   0.7012 B(  1-C ,  2-C ) :   1.2784
B(  1-C ,  7-H ) :   0.9536 B(  2-C ,  3-C ) :   1.0781 B(  2-C ,  4-C ) :   0.1976
B(  2-C ,  8-H ) :   0.7547 B(  2-C ,  9-H ) :  -0.1151 B(  3-C ,  4-C ) :   0.9336
B(  3-C ,  5-N ) :  -0.1280 B(  3-C ,  9-H ) :   1.0045 B(  4-C ,  5-N ) :   1.1303
B(  4-C , 10-H ) :   0.4751

MP2 TOTAL ENERGY:     -346.923521650 Eh
FINAL SINGLE POINT ENERGY      -346.923521649986

DIPOLE MOMENT
-------------
                                X             Y             Z
Electronic contribution:     -0.96788       6.04641       0.00000
Nuclear contribution   :      1.71734      -7.26919       0.00000
                        -----------------------------------------
Total Dipole Moment    :      0.74946      -1.22278       0.00000
                        -----------------------------------------
Magnitude (a.u.)       :      1.43418
Magnitude (Debye)      :      3.64540

Rotational constants in cm-1:     0.197547     0.090045     0.061852
Rotational constants in MHz :  5922.295142  2699.477762  1854.271066

                             ****ORCA TERMINATED NORMALLY****
TOTAL RUN TIME: 0 days 0 hours 2 minutes 29 seconds 486 msec
