                         Program Version 5.0.3 -  RELEASE  -
|  1> !ri-mp2 aug-cc-pvtz aug-cc-pvtz/c tightscf
|  2> %pal nprocs 16 end
|  3>
|  4> * xyz 0 1
|  5> C      1.592286   -1.728677        0.000000
|  6> C      2.181509   -0.467693        0.000000
|  7> C      0.212578   -1.863151        0.000000
|  8> C      1.379088    0.665360        0.000000
|  9> C     -0.604239   -0.733979        0.000000
| 10> C      0.000000    0.525088        0.000000
| 11> O     -1.948598   -0.906903        0.000000
| 12> Cl    -1.036509    1.945558        0.000000
| 13> H      2.211530   -2.615032        0.000000
| 14> H      3.256995   -0.363392        0.000000
| 15> H     -0.258879   -2.835831        0.000000
| 16> H      1.812238    1.655014        0.000000
| 17> H     -2.379775   -0.041703        0.000000
| 18> *
| 19>
| 20>                          ****END OF INPUT****

CARTESIAN COORDINATES (ANGSTROEM)
---------------------------------
  C      1.592286   -1.728677    0.000000
  C      2.181509   -0.467693    0.000000
  C      0.212578   -1.863151    0.000000
  C      1.379088    0.665360    0.000000
  C     -0.604239   -0.733979    0.000000
  C      0.000000    0.525088    0.000000
  O     -1.948598   -0.906903    0.000000
  Cl    -1.036509    1.945558    0.000000
  H      2.211530   -2.615032    0.000000
  H      3.256995   -0.363392    0.000000
  H     -0.258879   -2.835831    0.000000
  H      1.812238    1.655014    0.000000
  H     -2.379775   -0.041703    0.000000

 Total Charge           Charge          ....    0
 Multiplicity           Mult            ....    1
 Number of Electrons    NEL             ....   66
 Basis Dimension        Dim             ....  487

ORBITAL ENERGIES
----------------

  NO   OCC          E(Eh)            E(eV)
   0   2.0000    -104.856384     -2853.2873
   1   2.0000     -20.600311      -560.5629
   2   2.0000     -11.321739      -308.0802
   3   2.0000     -11.304643      -307.6150
   4   2.0000     -11.258475      -306.3587
   5   2.0000     -11.251691      -306.1741
   6   2.0000     -11.242655      -305.9282
   7   2.0000     -11.242015      -305.9108
   8   2.0000     -10.579962      -287.8954
   9   2.0000      -8.046807      -218.9648
  10   2.0000      -8.045086      -218.9179
  11   2.0000      -8.044964      -218.9146
  12   2.0000      -1.420522       -38.6544
  13   2.0000      -1.189645       -32.3719
  14   2.0000      -1.128294       -30.7024
  15   2.0000      -1.029393       -28.0112
  16   2.0000      -1.001587       -27.2546
  17   2.0000      -0.851553       -23.1719
  18   2.0000      -0.840859       -22.8809
  19   2.0000      -0.747407       -20.3380
  20   2.0000      -0.699229       -19.0270
  21   2.0000      -0.662880       -18.0379
  22   2.0000      -0.624478       -16.9929
  23   2.0000      -0.611034       -16.6271
  24   2.0000      -0.596112       -16.2210
  25   2.0000      -0.585525       -15.9330
  26   2.0000      -0.538932       -14.6651
  27   2.0000      -0.524696       -14.2777
  28   2.0000      -0.510419       -13.8892
  29   2.0000      -0.476649       -12.9703
  30   2.0000      -0.473018       -12.8715
  31   2.0000      -0.350591        -9.5401
  32   2.0000      -0.327221        -8.9041
  33   0.0000       0.028635         0.7792
  34   0.0000       0.034415         0.9365
  35   0.0000       0.036709         0.9989
  36   0.0000       0.049595         1.3496
  37   0.0000       0.052654         1.4328

MULLIKEN ATOMIC CHARGES
-----------------------
   0 C :   -0.360614
   1 C :   -0.184290
   2 C :   -0.749655
   3 C :   -0.914080
   4 C :    0.355727
   5 C :    0.844050
   6 O :   -0.695714
   7 Cl:   -0.510244
   8 H :    0.454708
   9 H :    0.518997
  10 H :    0.550374
  11 H :    0.452285
  12 H :    0.238456
Sum of atomic charges:   -0.0000000

LOEWDIN ATOMIC CHARGES
----------------------
   0 C :    0.187070
   1 C :    0.182160
   2 C :    0.203301
   3 C :    0.099324
   4 C :   -0.468535
   5 C :   -0.707003
   6 O :    0.829536
   7 Cl:    1.007004
   8 H :   -0.180993
   9 H :   -0.190074
  10 H :   -0.181864
  11 H :   -0.199266
  12 H :   -0.580659

  Mayer bond orders larger than 0.100000
B(  0-C ,  1-C ) :   1.0558 B(  0-C ,  2-C ) :   1.2403 B(  0-C ,  8-H ) :   0.7827
B(  1-C ,  3-C ) :   1.1398 B(  1-C ,  4-C ) :   0.1067 B(  1-C ,  8-H ) :  -0.1035
B(  1-C ,  9-H ) :   0.7747 B(  2-C ,  4-C ) :   1.2269 B(  2-C , 10-H ) :   0.5951
B(  3-C ,  4-C ) :   0.1964 B(  3-C ,  5-C ) :   0.9802 B(  3-C ,  9-H ) :  -0.1300
B(  3-C , 11-H ) :   0.8444 B(  4-C ,  5-C ) :   1.1670 B(  4-C ,  6-O ) :   0.6728
B(  4-C ,  7-Cl) :   0.1255 B(  5-C ,  6-O ) :  -0.1505 B(  5-C ,  7-Cl) :   0.6080
B(  6-O , 12-H ) :   0.9758

MP2 TOTAL ENERGY:     -766.003063015 Eh
FINAL SINGLE POINT ENERGY      -766.003063015042

DIPOLE MOMENT
-------------
                                X             Y             Z
Electronic contribution:     -5.37721       6.69800      -0.00000
Nuclear contribution   :      5.87597      -6.74796       0.00000
                        -----------------------------------------
Total Dipole Moment    :      0.49876      -0.04996      -0.00000
                        -----------------------------------------
Magnitude (a.u.)       :      0.50126
Magnitude (Debye)      :      1.27409

Rotational constants in cm-1:     0.099799     0.051097     0.033794
Rotational constants in MHz :  2991.893072  1531.835209  1013.121670

                             ****ORCA TERMINATED NORMALLY****
TOTAL RUN TIME: 0 days 0 hours 4 minutes 32 seconds 899 msec
