                         Program Version 5.0.3 -  RELEASE  -
|  1> !ri-mp2 aug-cc-pvtz aug-cc-pvtz/c tightscf
|  2> %pal nprocs 16 end
|  3>
|  4> * xyz 0 1
|  5> C     -0.001868   -1.820771    0.000000
|  6> C     -1.182467   -1.087059    0.000000
|  7> C      1.179811    0.108531    0.000000
|  8> C      0.000000    0.858405    0.000000
|  9> C      0.008652    2.358272    0.000000
| 10> N      1.186439   -1.221482    0.000000
| 11> N     -1.186506    0.242772    0.000000
| 12> H     -0.015053   -2.903968    0.000000
| 13> H     -2.145893   -1.583765    0.000000
| 14> H      2.144697    0.602719    0.000000
| 15> H     -0.515539    2.739063    0.877425
| 16> H      1.023030    2.753583    0.000000
| 17> H     -0.515539    2.739063   -0.877425
| 18> *
| 19>
| 20>                          ****END OF INPUT****

CARTESIAN COORDINATES (ANGSTROEM)
---------------------------------
  C     -0.001868   -1.820771    0.000000
  C     -1.182467   -1.087059    0.000000
  C      1.179811    0.108531    0.000000
  C      0.000000    0.858405    0.000000
  C      0.008652    2.358272    0.000000
  N      1.186439   -1.221482    0.000000
  N     -1.186506    0.242772    0.000000
  H     -0.015053   -2.903968    0.000000
  H     -2.145893   -1.583765    0.000000
  H      2.144697    0.602719    0.000000
  H     -0.515539    2.739063    0.877425
  H      1.023030    2.753583    0.000000
  H     -0.515539    2.739063   -0.877425

 Total Charge           Charge          ....    0
 Multiplicity           Mult            ....    1
 Number of Electrons    NEL             ....   50
 Basis Dimension        Dim             ....  460

ORBITAL ENERGIES
----------------

  NO   OCC          E(Eh)            E(eV)
   0   2.0000     -15.589602      -424.2146
   1   2.0000     -15.584406      -424.0732
   2   2.0000     -11.288629      -307.1792
   3   2.0000     -11.280925      -306.9696
   4   2.0000     -11.276356      -306.8452
   5   2.0000     -11.276139      -306.8394
   6   2.0000     -11.232716      -305.6577
   7   2.0000      -1.307333       -35.5743
   8   2.0000      -1.218167       -33.1480
   9   2.0000      -1.073976       -29.2244
  10   2.0000      -0.973645       -26.4942
  11   2.0000      -0.896255       -24.3883
  12   2.0000      -0.854502       -23.2522
  13   2.0000      -0.713516       -19.4158
  14   2.0000      -0.709884       -19.3169
  15   2.0000      -0.656504       -17.8644
  16   2.0000      -0.603336       -16.4176
  17   2.0000      -0.592000       -16.1091
  18   2.0000      -0.559936       -15.2366
  19   2.0000      -0.547433       -14.8964
  20   2.0000      -0.539893       -14.6912
  21   2.0000      -0.492487       -13.4013
  22   2.0000      -0.430860       -11.7243
  23   2.0000      -0.404875       -11.0172
  24   2.0000      -0.347748        -9.4627
  25   0.0000       0.028832         0.7845
  26   0.0000       0.032526         0.8851
  27   0.0000       0.037618         1.0236
  28   0.0000       0.046873         1.2755
  29   0.0000       0.047706         1.2981

MULLIKEN ATOMIC CHARGES
-----------------------
   0 C :   -0.516402
   1 C :   -0.356053
   2 C :   -0.701818
   3 C :    0.907169
   4 C :   -0.711871
   5 N :   -0.395559
   6 N :   -0.654617
   7 H :    0.585294
   8 H :    0.569260
   9 H :    0.423335
  10 H :    0.277372
  11 H :    0.296518
  12 H :    0.277372
Sum of atomic charges:    0.0000000

LOEWDIN ATOMIC CHARGES
----------------------
   0 C :    0.013019
   1 C :    0.019409
   2 C :    0.035769
   3 C :   -0.306521
   4 C :    0.575837
   5 N :    0.373842
   6 N :    0.397840
   7 H :   -0.199122
   8 H :   -0.195242
   9 H :   -0.193093
  10 H :   -0.169438
  11 H :   -0.182861
  12 H :   -0.169438

  Mayer bond orders larger than 0.100000
B(  0-C ,  1-C ) :   1.1118 B(  0-C ,  2-C ) :  -0.1645 B(  0-C ,  3-C ) :   0.2128
B(  0-C ,  5-N ) :   1.0857 B(  0-C ,  7-H ) :   0.5799 B(  1-C ,  2-C ) :   0.1592
B(  1-C ,  3-C ) :  -0.1572 B(  1-C ,  6-N ) :   1.0952 B(  1-C ,  8-H ) :   0.6434
B(  2-C ,  3-C ) :   0.8722 B(  2-C ,  4-C ) :  -0.1100 B(  2-C ,  5-N ) :   0.7128
B(  2-C ,  6-N ) :   0.1618 B(  2-C ,  9-H ) :   0.9067 B(  3-C ,  4-C ) :   0.4055
B(  3-C ,  6-N ) :   0.5994 B(  4-C , 10-H ) :   1.0062 B(  4-C , 11-H ) :   0.9679
B(  4-C , 12-H ) :   1.0062

MP2 TOTAL ENERGY:     -303.040168776 Eh
FINAL SINGLE POINT ENERGY      -303.040168775888

DIPOLE MOMENT
-------------
                                X             Y             Z
Electronic contribution:     -0.02606      -4.10012       0.00000
Nuclear contribution   :     -0.02424       4.33111       0.00000
                        -----------------------------------------
Total Dipole Moment    :     -0.05030       0.23099       0.00000
                        -----------------------------------------
Magnitude (a.u.)       :      0.23640
Magnitude (Debye)      :      0.60089

Rotational constants in cm-1:     0.197584     0.090101     0.062595
Rotational constants in MHz :  5923.431919  2701.171629  1876.564863

                             ****ORCA TERMINATED NORMALLY****
TOTAL RUN TIME: 0 days 0 hours 3 minutes 40 seconds 216 msec
