                         Program Version 5.0.3 -  RELEASE  -
|  1> !ri-mp2 aug-cc-pvtz aug-cc-pvtz/c tightscf
|  2> %pal nprocs 16 end
|  3>
|  4> * xyz 0 1
|  5> N      0.359121   -1.270880    0.172755
|  6> C      1.043903   -0.042270    0.020425
|  7> C      0.260787    1.248686    0.217829
|  8> C     -1.197071    1.126889   -0.072399
|  9> C     -1.753015   -0.083323   -0.174172
| 10> C     -0.920479   -1.259790    0.050067
| 11> O      2.221256   -0.028129   -0.243650
| 12> H      0.736325    2.029916   -0.376191
| 13> H     -1.785070    2.030930   -0.170963
| 14> H     -2.808335   -0.220042   -0.363668
| 15> H     -1.424810   -2.220985    0.136930
| 16> H      0.393242    1.560219    1.263311
| 17> *
| 18>
| 19>                          ****END OF INPUT****

CARTESIAN COORDINATES (ANGSTROEM)
---------------------------------
  N      0.359121   -1.270880    0.172755
  C      1.043903   -0.042270    0.020425
  C      0.260787    1.248686    0.217829
  C     -1.197071    1.126889   -0.072399
  C     -1.753015   -0.083323   -0.174172
  C     -0.920479   -1.259790    0.050067
  O      2.221256   -0.028129   -0.243650
  H      0.736325    2.029916   -0.376191
  H     -1.785070    2.030930   -0.170963
  H     -2.808335   -0.220042   -0.363668
  H     -1.424810   -2.220985    0.136930
  H      0.393242    1.560219    1.263311

 Total Charge           Charge          ....    0
 Multiplicity           Mult            ....    1
 Number of Electrons    NEL             ....   50
 Basis Dimension        Dim             ....  437

ORBITAL ENERGIES
----------------

  NO   OCC          E(Eh)            E(eV)
   0   2.0000     -20.541748      -558.9694
   1   2.0000     -15.572411      -423.7469
   2   2.0000     -11.355969      -309.0116
   3   2.0000     -11.319922      -308.0307
   4   2.0000     -11.286636      -307.1250
   5   2.0000     -11.263615      -306.4985
   6   2.0000     -11.260717      -306.4197
   7   2.0000      -1.396754       -38.0076
   8   2.0000      -1.256030       -34.1783
   9   2.0000      -1.114908       -30.3382
  10   2.0000      -1.022819       -27.8323
  11   2.0000      -0.892696       -24.2915
  12   2.0000      -0.838188       -22.8083
  13   2.0000      -0.718414       -19.5490
  14   2.0000      -0.691017       -18.8035
  15   2.0000      -0.681907       -18.5556
  16   2.0000      -0.637764       -17.3544
  17   2.0000      -0.612386       -16.6639
  18   2.0000      -0.598942       -16.2980
  19   2.0000      -0.554831       -15.0977
  20   2.0000      -0.533510       -14.5176
  21   2.0000      -0.482960       -13.1420
  22   2.0000      -0.466804       -12.7024
  23   2.0000      -0.405352       -11.0302
  24   2.0000      -0.375252       -10.2111
  25   0.0000       0.018873         0.5136
  26   0.0000       0.028801         0.7837
  27   0.0000       0.036874         1.0034
  28   0.0000       0.042183         1.1479
  29   0.0000       0.045183         1.2295

MULLIKEN ATOMIC CHARGES
-----------------------
   0 N :   -0.273963
   1 C :    0.287041
   2 C :   -0.015286
   3 C :   -0.683476
   4 C :   -0.154571
   5 C :   -0.420164
   6 O :   -0.758045
   7 H :    0.285806
   8 H :    0.406652
   9 H :    0.414303
  10 H :    0.626560
  11 H :    0.285144
Sum of atomic charges:    0.0000000

LOEWDIN ATOMIC CHARGES
----------------------
   0 N :    0.375504
   1 C :   -0.716311
   2 C :    0.263640
   3 C :    0.237325
   4 C :    0.219414
   5 C :    0.012492
   6 O :    0.444626
   7 H :   -0.158859
   8 H :   -0.162527
   9 H :   -0.195062
  10 H :   -0.179591
  11 H :   -0.140650

  Mayer bond orders larger than 0.100000
B(  0-N ,  1-C ) :   0.8399 B(  0-N ,  4-C ) :  -0.1396 B(  0-N ,  5-C ) :   1.5343
B(  0-N ,  6-O ) :  -0.1152 B(  0-N , 10-H ) :  -0.1122 B(  1-C ,  2-C ) :   0.6307
B(  1-C ,  3-C ) :   0.2821 B(  1-C ,  4-C ) :  -0.1606 B(  1-C ,  6-O ) :   1.4891
B(  2-C ,  3-C ) :   0.8320 B(  2-C ,  7-H ) :   0.9493 B(  2-C , 11-H ) :   0.8904
B(  3-C ,  4-C ) :   1.4770 B(  3-C ,  5-C ) :   0.1768 B(  3-C ,  8-H ) :   0.9000
B(  4-C ,  5-C ) :   0.7941 B(  4-C ,  9-H ) :   0.8611 B(  5-C , 10-H ) :   0.5074

MP2 TOTAL ENERGY:     -322.876004356 Eh
FINAL SINGLE POINT ENERGY      -322.876004355814

DIPOLE MOMENT
-------------
                                X             Y             Z
Electronic contribution:      2.63861      -2.22280      -0.29027
Nuclear contribution   :     -4.79044       3.13220       0.48047
                        -----------------------------------------
Total Dipole Moment    :     -2.15183       0.90940       0.19020
                        -----------------------------------------
Magnitude (a.u.)       :      2.34383
Magnitude (Debye)      :      5.95754

Rotational constants in cm-1:     0.176092     0.095244     0.063832
Rotational constants in MHz :  5279.110989  2855.335708  1913.622700

                             ****ORCA TERMINATED NORMALLY****
TOTAL RUN TIME: 0 days 0 hours 3 minutes 28 seconds 653 msec
