                         Program Version 5.0.3 -  RELEASE  -
|  1> !ri-mp2 aug-cc-pvtz aug-cc-pvtz/c tightscf
|  2> %pal nprocs 16 end
|  3>
|  4> * xyz 0 1
|  5> C      2.315360   -0.488363    0.000127
|  6> C      1.228339    0.539082    0.000162
|  7> C     -0.105961    0.377961    0.000037
|  8> C     -1.055394    1.543354    0.000099
|  9> C     -0.727198   -0.958438   -0.000171
| 10> O     -1.927501   -1.139157   -0.000289
| 11> H      2.957003   -0.350602    0.874410
| 12> H      1.962408   -1.515125   -0.000023
| 13> H      2.957142   -0.350395   -0.874021
| 14> H      1.592453    1.563287    0.000311
| 15> H     -1.709375    1.509936    0.872664
| 16> H     -1.709240    1.510139   -0.872576
| 17> H     -0.516479    2.489320    0.000251
| 18> H     -0.044780   -1.824879   -0.000220
| 19> *
| 20>
| 21>                          ****END OF INPUT****

CARTESIAN COORDINATES (ANGSTROEM)
---------------------------------
  C      2.315360   -0.488363    0.000127
  C      1.228339    0.539082    0.000162
  C     -0.105961    0.377961    0.000037
  C     -1.055394    1.543354    0.000099
  C     -0.727198   -0.958438   -0.000171
  O     -1.927501   -1.139157   -0.000289
  H      2.957003   -0.350602    0.874410
  H      1.962408   -1.515125   -0.000023
  H      2.957142   -0.350395   -0.874021
  H      1.592453    1.563287    0.000311
  H     -1.709375    1.509936    0.872664
  H     -1.709240    1.510139   -0.872576
  H     -0.516479    2.489320    0.000251
  H     -0.044780   -1.824879   -0.000220

 Total Charge           Charge          ....    0
 Multiplicity           Mult            ....    1
 Number of Electrons    NEL             ....   46
 Basis Dimension        Dim             ....  460

ORBITAL ENERGIES
----------------

  NO   OCC          E(Eh)            E(eV)
   0   2.0000     -20.550442      -559.2060
   1   2.0000     -11.325907      -308.1936
   2   2.0000     -11.264445      -306.5211
   3   2.0000     -11.246733      -306.0392
   4   2.0000     -11.243170      -305.9422
   5   2.0000     -11.221847      -305.3620
   6   2.0000      -1.385010       -37.6880
   7   2.0000      -1.114962       -30.3397
   8   2.0000      -1.009403       -27.4673
   9   2.0000      -0.915304       -24.9067
  10   2.0000      -0.860974       -23.4283
  11   2.0000      -0.732239       -19.9252
  12   2.0000      -0.678594       -18.4655
  13   2.0000      -0.635352       -17.2888
  14   2.0000      -0.603014       -16.4089
  15   2.0000      -0.595985       -16.2176
  16   2.0000      -0.571675       -15.5561
  17   2.0000      -0.546776       -14.8785
  18   2.0000      -0.540483       -14.7073
  19   2.0000      -0.520454       -14.1623
  20   2.0000      -0.518890       -14.1197
  21   2.0000      -0.418934       -11.3998
  22   2.0000      -0.365535        -9.9467
  23   0.0000       0.023938         0.6514
  24   0.0000       0.033707         0.9172
  25   0.0000       0.039249         1.0680
  26   0.0000       0.040051         1.0898
  27   0.0000       0.051548         1.4027

MULLIKEN ATOMIC CHARGES
-----------------------
   0 C :   -0.840135
   1 C :   -0.665793
   2 C :    1.133504
   3 C :   -0.866295
   4 C :   -0.226107
   5 O :   -0.886699
   6 H :    0.268545
   7 H :    0.333288
   8 H :    0.268544
   9 H :    0.097252
  10 H :    0.275913
  11 H :    0.275913
  12 H :    0.240249
  13 H :    0.591820
Sum of atomic charges:    0.0000000

LOEWDIN ATOMIC CHARGES
----------------------
   0 C :    0.573833
   1 C :    0.238935
   2 C :   -0.127374
   3 C :    0.546296
   4 C :   -0.228768
   5 O :    0.444928
   6 H :   -0.167259
   7 H :   -0.205357
   8 H :   -0.167259
   9 H :   -0.177405
  10 H :   -0.169576
  11 H :   -0.169575
  12 H :   -0.183258
  13 H :   -0.208163

  Mayer bond orders larger than 0.100000
B(  0-C ,  1-C ) :   0.8671 B(  0-C ,  6-H ) :   1.0079 B(  0-C ,  7-H ) :   0.8895
B(  0-C ,  8-H ) :   1.0079 B(  1-C ,  2-C ) :   1.1886 B(  1-C ,  9-H ) :   1.2433
B(  2-C ,  3-C ) :   0.6820 B(  2-C ,  4-C ) :   0.8131 B(  2-C ,  9-H ) :  -0.1270
B(  3-C , 10-H ) :   0.9776 B(  3-C , 11-H ) :   0.9776 B(  3-C , 12-H ) :   1.0022
B(  4-C ,  5-O ) :   1.3929 B(  4-C , 13-H ) :   0.6214 B(  5-O , 13-H ) :  -0.1592

MP2 TOTAL ENERGY:     -270.013900350 Eh
FINAL SINGLE POINT ENERGY      -270.013900349879

DIPOLE MOMENT
-------------
                                X             Y             Z
Electronic contribution:     -4.08871      -2.63763      -0.00064
Nuclear contribution   :      5.60627       3.09517       0.00081
                        -----------------------------------------
Total Dipole Moment    :      1.51757       0.45755       0.00018
                        -----------------------------------------
Magnitude (a.u.)       :      1.58504
Magnitude (Debye)      :      4.02885

Rotational constants in cm-1:     0.187396     0.086236     0.060359
Rotational constants in MHz :  5617.989285  2585.281038  1809.521321

                             ****ORCA TERMINATED NORMALLY****
TOTAL RUN TIME: 0 days 0 hours 3 minutes 21 seconds 627 msec
