                         Program Version 5.0.3 -  RELEASE  -
|  1> !ri-mp2 aug-cc-pvtz aug-cc-pvtz/c tightscf
|  2> %pal nprocs 16 end
|  3>
|  4> * xyz 0 1
|  5> C      0.000000    0.000000    0.600514
|  6> C      0.000000    0.000000   -0.600514
|  7> C      0.000000    0.000000    2.057156
|  8> C      0.000000    0.000000   -2.057156
|  9> H      0.037656    1.017156    2.451360
| 10> H     -0.899710   -0.475967    2.451360
| 11> H      0.862055   -0.541189    2.451360
| 12> H      0.899710   -0.475967   -2.451360
| 13> H     -0.037656    1.017156   -2.451360
| 14> H     -0.862055   -0.541189   -2.451360
| 15> *
| 16>
| 17>                          ****END OF INPUT****

CARTESIAN COORDINATES (ANGSTROEM)
---------------------------------
  C      0.000000    0.000000    0.600514
  C      0.000000    0.000000   -0.600514
  C      0.000000    0.000000    2.057156
  C      0.000000    0.000000   -2.057156
  H      0.037656    1.017156    2.451360
  H     -0.899710   -0.475967    2.451360
  H      0.862055   -0.541189    2.451360
  H      0.899710   -0.475967   -2.451360
  H     -0.037656    1.017156   -2.451360
  H     -0.862055   -0.541189   -2.451360

 Total Charge           Charge          ....    0
 Multiplicity           Mult            ....    1
 Number of Electrons    NEL             ....   30
 Basis Dimension        Dim             ....  322

ORBITAL ENERGIES
----------------

  NO   OCC          E(Eh)            E(eV)
   0   2.0000     -11.241154      -305.8874
   1   2.0000     -11.241154      -305.8873
   2   2.0000     -11.216305      -305.2112
   3   2.0000     -11.212453      -305.1064
   4   2.0000      -1.062420       -28.9099
   5   2.0000      -1.002043       -27.2670
   6   2.0000      -0.915714       -24.9178
   7   2.0000      -0.653611       -17.7857
   8   2.0000      -0.597958       -16.2713
   9   2.0000      -0.590287       -16.0625
  10   2.0000      -0.590287       -16.0625
  11   2.0000      -0.572994       -15.5919
  12   2.0000      -0.572994       -15.5919
  13   2.0000      -0.362617        -9.8673
  14   2.0000      -0.362617        -9.8673
  15   0.0000       0.029967         0.8154
  16   0.0000       0.032494         0.8842
  17   0.0000       0.045963         1.2507
  18   0.0000       0.045963         1.2507
  19   0.0000       0.058479         1.5913

MULLIKEN ATOMIC CHARGES
-----------------------
   0 C :    0.064403
   1 C :    0.064403
   2 C :   -0.906533
   3 C :   -0.906533
   4 H :    0.280710
   5 H :    0.280710
   6 H :    0.280710
   7 H :    0.280710
   8 H :    0.280710
   9 H :    0.280710
Sum of atomic charges:    0.0000000

LOEWDIN ATOMIC CHARGES
----------------------
   0 C :    0.064734
   1 C :    0.064734
   2 C :    0.500359
   3 C :    0.500359
   4 H :   -0.188364
   5 H :   -0.188365
   6 H :   -0.188364
   7 H :   -0.188365
   8 H :   -0.188364
   9 H :   -0.188364

  Mayer bond orders larger than 0.100000
B(  0-C ,  1-C ) :   2.3611 B(  0-C ,  2-C ) :   0.9450 B(  1-C ,  3-C ) :   0.9450
B(  2-C ,  3-C ) :   0.2021 B(  2-C ,  4-H ) :   0.9504 B(  2-C ,  5-H ) :   0.9504
B(  2-C ,  6-H ) :   0.9504 B(  3-C ,  7-H ) :   0.9504 B(  3-C ,  8-H ) :   0.9504
B(  3-C ,  9-H ) :   0.9504

MP2 TOTAL ENERGY:     -155.629690906 Eh
FINAL SINGLE POINT ENERGY      -155.629690906091

DIPOLE MOMENT
-------------
                                X             Y             Z
Electronic contribution:      0.00000      -0.00000      -0.00000
Nuclear contribution   :      0.00000       0.00000       0.00000
                        -----------------------------------------
Total Dipole Moment    :      0.00000      -0.00000      -0.00000
                        -----------------------------------------
Magnitude (a.u.)       :      0.00000
Magnitude (Debye)      :      0.00000

Rotational constants in cm-1:     2.690391     0.112536     0.112536
Rotational constants in MHz : 80655.892100  3373.748990  3373.748918

                             ****ORCA TERMINATED NORMALLY****
TOTAL RUN TIME: 0 days 0 hours 0 minutes 56 seconds 425 msec
