                         Program Version 5.0.3 -  RELEASE  -
|  1> !ri-mp2 aug-cc-pvtz aug-cc-pvtz/c tightscf
|  2> %pal nprocs 16 end
|  3>
|  4> * xyz 0 1
|  5> C      0.033256    1.911012   -0.006826
|  6> H     -0.986044    2.108323   -0.337943
|  7> H      0.093132    2.170909    1.052977
|  8> H      0.697112    2.582639   -0.552731
|  9> S     -2.221681   -0.406315   -0.170182
| 10> H     -2.696542   -1.507291    0.437978
| 11> C     -0.500845   -0.518317    0.493893
| 12> H     -0.520646   -0.291581    1.560399
| 13> H     -0.169368   -1.544432    0.361547
| 14> C      0.437737    0.451031   -0.231891
| 15> H      0.370711    0.237349   -1.303989
| 16> C      2.508461   -1.112816   -0.216529
| 17> H      3.564281   -1.156476    0.053666
| 18> H      2.018303   -1.959968    0.264207
| 19> H      2.437887   -1.258057   -1.296481
| 20> C      1.899038    0.226212    0.199414
| 21> H      2.499117    1.032331   -0.230492
| 22> H      1.973065    0.344573    1.285406
| 23> *
| 24>
| 25>                          ****END OF INPUT****

CARTESIAN COORDINATES (ANGSTROEM)
---------------------------------
  C      0.033256    1.911012   -0.006826
  H     -0.986044    2.108323   -0.337943
  H      0.093132    2.170909    1.052977
  H      0.697112    2.582639   -0.552731
  S     -2.221681   -0.406315   -0.170182
  H     -2.696542   -1.507291    0.437978
  C     -0.500845   -0.518317    0.493893
  H     -0.520646   -0.291581    1.560399
  H     -0.169368   -1.544432    0.361547
  C      0.437737    0.451031   -0.231891
  H      0.370711    0.237349   -1.303989
  C      2.508461   -1.112816   -0.216529
  H      3.564281   -1.156476    0.053666
  H      2.018303   -1.959968    0.264207
  H      2.437887   -1.258057   -1.296481
  C      1.899038    0.226212    0.199414
  H      2.499117    1.032331   -0.230492
  H      1.973065    0.344573    1.285406

 Total Charge           Charge          ....    0
 Multiplicity           Mult            ....    1
 Number of Electrons    NEL             ....   58
 Basis Dimension        Dim             ....  556

ORBITAL ENERGIES
----------------

  NO   OCC          E(Eh)            E(eV)
   0   2.0000     -91.947555     -2502.0202
   1   2.0000     -11.257568      -306.3340
   2   2.0000     -11.235651      -305.7376
   3   2.0000     -11.224446      -305.4327
   4   2.0000     -11.216764      -305.2237
   5   2.0000     -11.213202      -305.1267
   6   2.0000      -8.948356      -243.4971
   7   2.0000      -6.629681      -180.4028
   8   2.0000      -6.628710      -180.3764
   9   2.0000      -6.627707      -180.3491
  10   2.0000      -1.108496       -30.1637
  11   2.0000      -1.019644       -27.7459
  12   2.0000      -0.976994       -26.5854
  13   2.0000      -0.888558       -24.1789
  14   2.0000      -0.845916       -23.0185
  15   2.0000      -0.768258       -20.9054
  16   2.0000      -0.640196       -17.4206
  17   2.0000      -0.620329       -16.8800
  18   2.0000      -0.608134       -16.5482
  19   2.0000      -0.575221       -15.6526
  20   2.0000      -0.556080       -15.1317
  21   2.0000      -0.538789       -14.6612
  22   2.0000      -0.517011       -14.0686
  23   2.0000      -0.503552       -13.7024
  24   2.0000      -0.476072       -12.9546
  25   2.0000      -0.469668       -12.7803
  26   2.0000      -0.460026       -12.5180
  27   2.0000      -0.434680       -11.8282
  28   2.0000      -0.352179        -9.5833
  29   0.0000       0.029044         0.7903
  30   0.0000       0.033919         0.9230
  31   0.0000       0.037171         1.0115
  32   0.0000       0.038539         1.0487
  33   0.0000       0.052855         1.4383

MULLIKEN ATOMIC CHARGES
-----------------------
   0 C :   -1.071189
   1 H :    0.288208
   2 H :    0.241637
   3 H :    0.256734
   4 S :   -0.353165
   5 H :   -0.005400
   6 C :   -0.470319
   7 H :    0.252632
   8 H :    0.311994
   9 C :    0.333792
  10 H :    0.391698
  11 C :   -0.988552
  12 H :    0.259857
  13 H :    0.299651
  14 H :    0.247826
  15 C :   -0.534097
  16 H :    0.303954
  17 H :    0.234739
Sum of atomic charges:   -0.0000000

LOEWDIN ATOMIC CHARGES
----------------------
   0 C :    0.561317
   1 H :   -0.197621
   2 H :   -0.159713
   3 H :   -0.166015
   4 S :    1.290560
   5 H :   -0.585670
   6 C :   -0.071896
   7 H :   -0.208401
   8 H :   -0.235390
   9 C :   -0.121281
  10 H :   -0.151009
  11 C :    0.587607
  12 H :   -0.169807
  13 H :   -0.182147
  14 H :   -0.164467
  15 C :    0.266188
  16 H :   -0.150714
  17 H :   -0.141541

  Mayer bond orders larger than 0.100000
B(  0-C ,  1-H ) :   0.9674 B(  0-C ,  2-H ) :   1.0059 B(  0-C ,  3-H ) :   0.9803
B(  0-C ,  6-C ) :   0.1284 B(  0-C ,  9-C ) :   0.6973 B(  4-S ,  5-H ) :   1.1300
B(  4-S ,  6-C ) :   0.9385 B(  6-C ,  7-H ) :   0.9746 B(  6-C ,  8-H ) :   0.8889
B(  6-C ,  9-C ) :   0.9150 B(  9-C , 10-H ) :   0.8233 B(  9-C , 15-C ) :   0.7801
B( 11-C , 12-H ) :   1.0098 B( 11-C , 13-H ) :   0.9327 B( 11-C , 14-H ) :   0.9796
B( 11-C , 15-C ) :   0.8724 B( 15-C , 16-H ) :   0.9194 B( 15-C , 17-H ) :   0.9917

MP2 TOTAL ENERGY:     -595.031383964 Eh
FINAL SINGLE POINT ENERGY      -595.031383963582

DIPOLE MOMENT
-------------
                                X             Y             Z
Electronic contribution:     -9.16334      -1.02533      -1.04079
Nuclear contribution   :      9.77278       0.80575       1.35863
                        -----------------------------------------
Total Dipole Moment    :      0.60945      -0.21958       0.31785
                        -----------------------------------------
Magnitude (a.u.)       :      0.72157
Magnitude (Debye)      :      1.83409

Rotational constants in cm-1:     0.147763     0.049712     0.039839
Rotational constants in MHz :  4429.837584  1490.336753  1194.331828

                             ****ORCA TERMINATED NORMALLY****
TOTAL RUN TIME: 0 days 0 hours 5 minutes 59 seconds 169 msec
