                         Program Version 5.0.3 -  RELEASE  -
|  1> !ri-mp2 aug-cc-pvtz aug-cc-pvtz/c tightscf
|  2> %pal nprocs 16 end
|  3>
|  4> * xyz 0 1
|  5> C      1.751556    1.082901    0.182606
|  6> C      2.271460   -0.203318    0.214278
|  7> C      0.398740    1.250753   -0.075620
|  8> C      1.403367   -1.263547   -0.016890
|  9> C     -0.401322    0.128061   -0.295305
| 10> C     -2.726106   -0.194903    0.645780
| 11> C     -1.881035    0.248415   -0.555272
| 12> N      0.103790   -1.111829   -0.264838
| 13> H      2.388226    1.940873    0.354047
| 14> H      3.319053   -0.385161    0.408951
| 15> H     -0.037426    2.240056   -0.109962
| 16> H      1.770415   -2.283998   -0.005475
| 17> H     -2.495860   -1.225772    0.912489
| 18> H     -3.789953   -0.129702    0.414763
| 19> H     -2.530642    0.432256    1.517119
| 20> H     -2.122699    1.279481   -0.819168
| 21> H     -2.127609   -0.375408   -1.416356
| 22> *
| 23>
| 24>                          ****END OF INPUT****

CARTESIAN COORDINATES (ANGSTROEM)
---------------------------------
  C      1.751556    1.082901    0.182606
  C      2.271460   -0.203318    0.214278
  C      0.398740    1.250753   -0.075620
  C      1.403367   -1.263547   -0.016890
  C     -0.401322    0.128061   -0.295305
  C     -2.726106   -0.194903    0.645780
  C     -1.881035    0.248415   -0.555272
  N      0.103790   -1.111829   -0.264838
  H      2.388226    1.940873    0.354047
  H      3.319053   -0.385161    0.408951
  H     -0.037426    2.240056   -0.109962
  H      1.770415   -2.283998   -0.005475
  H     -2.495860   -1.225772    0.912489
  H     -3.789953   -0.129702    0.414763
  H     -2.530642    0.432256    1.517119
  H     -2.122699    1.279481   -0.819168
  H     -2.127609   -0.375408   -1.416356

 Total Charge           Charge          ....    0
 Multiplicity           Mult            ....    1
 Number of Electrons    NEL             ....   58
 Basis Dimension        Dim             ....  575

ORBITAL ENERGIES
----------------

  NO   OCC          E(Eh)            E(eV)
   0   2.0000     -15.556703      -423.3194
   1   2.0000     -11.275680      -306.8269
   2   2.0000     -11.270905      -306.6969
   3   2.0000     -11.255131      -306.2677
   4   2.0000     -11.234137      -305.6964
   5   2.0000     -11.233784      -305.6868
   6   2.0000     -11.225613      -305.4645
   7   2.0000     -11.212993      -305.1211
   8   2.0000      -1.257800       -34.2265
   9   2.0000      -1.086069       -29.5534
  10   2.0000      -1.069776       -29.1101
  11   2.0000      -0.995939       -27.1009
  12   2.0000      -0.879466       -23.9315
  13   2.0000      -0.856388       -23.3035
  14   2.0000      -0.806428       -21.9440
  15   2.0000      -0.700703       -19.0671
  16   2.0000      -0.669633       -18.2216
  17   2.0000      -0.641711       -17.4618
  18   2.0000      -0.600568       -16.3423
  19   2.0000      -0.594239       -16.1701
  20   2.0000      -0.573561       -15.6074
  21   2.0000      -0.554132       -15.0787
  22   2.0000      -0.534290       -14.5388
  23   2.0000      -0.503430       -13.6990
  24   2.0000      -0.490193       -13.3388
  25   2.0000      -0.488591       -13.2952
  26   2.0000      -0.409846       -11.1525
  27   2.0000      -0.379936       -10.3386
  28   2.0000      -0.336375        -9.1532
  29   0.0000       0.027022         0.7353
  30   0.0000       0.032041         0.8719
  31   0.0000       0.036177         0.9844
  32   0.0000       0.043906         1.1947
  33   0.0000       0.046182         1.2567

MULLIKEN ATOMIC CHARGES
-----------------------
   0 C :   -0.748318
   1 C :   -0.088270
   2 C :   -0.576959
   3 C :   -0.627779
   4 C :    0.949099
   5 C :   -0.947691
   6 C :   -0.294936
   7 N :   -0.572791
   8 H :    0.534931
   9 H :    0.285067
  10 H :    0.104786
  11 H :    0.625724
  12 H :    0.292412
  13 H :    0.292291
  14 H :    0.273743
  15 H :    0.251920
  16 H :    0.246769
Sum of atomic charges:   -0.0000000

LOEWDIN ATOMIC CHARGES
----------------------
   0 C :    0.196010
   1 C :    0.197576
   2 C :    0.223511
   3 C :    0.015942
   4 C :   -0.299992
   5 C :    0.585712
   6 C :    0.254377
   7 N :    0.402066
   8 H :   -0.174306
   9 H :   -0.192906
  10 H :   -0.183540
  11 H :   -0.191896
  12 H :   -0.174156
  13 H :   -0.172567
  14 H :   -0.169410
  15 H :   -0.163628
  16 H :   -0.152793

  Mayer bond orders larger than 0.100000
B(  0-C ,  1-C ) :   1.0862 B(  0-C ,  2-C ) :   1.2644 B(  0-C ,  3-C ) :   0.3297
B(  0-C ,  7-N ) :   0.1375 B(  0-C ,  8-H ) :   0.7637 B(  0-C ,  9-H ) :  -0.1618
B(  0-C , 10-H ) :  -0.1467 B(  1-C ,  2-C ) :  -0.1462 B(  1-C ,  3-C ) :   0.8905
B(  1-C ,  4-C ) :   0.1173 B(  1-C ,  7-N ) :  -0.2410 B(  1-C ,  9-H ) :   1.0657
B(  2-C ,  3-C ) :  -0.1207 B(  2-C ,  4-C ) :   0.6878 B(  2-C , 10-H ) :   1.3779
B(  2-C , 11-H ) :   0.1022 B(  3-C ,  7-N ) :   1.3960 B(  3-C , 11-H ) :   0.4740
B(  4-C ,  6-C ) :   0.5771 B(  4-C ,  7-N ) :   0.7350 B(  4-C , 10-H ) :  -0.1836
B(  5-C ,  6-C ) :   0.8786 B(  5-C , 12-H ) :   0.9305 B(  5-C , 13-H ) :   0.9528
B(  5-C , 14-H ) :   0.9519 B(  6-C , 15-H ) :   0.9965 B(  6-C , 16-H ) :   0.9778

MP2 TOTAL ENERGY:     -326.235734803 Eh
FINAL SINGLE POINT ENERGY      -326.235734803106

DIPOLE MOMENT
-------------
                                X             Y             Z
Electronic contribution:      6.03864      -0.86841      -1.15699
Nuclear contribution   :     -5.71893       1.51068       1.27561
                        -----------------------------------------
Total Dipole Moment    :      0.31971       0.64227       0.11862
                        -----------------------------------------
Magnitude (a.u.)       :      0.72718
Magnitude (Debye)      :      1.84835

Rotational constants in cm-1:     0.157402     0.050722     0.041800
Rotational constants in MHz :  4718.798398  1520.604559  1253.135961

                             ****ORCA TERMINATED NORMALLY****
TOTAL RUN TIME: 0 days 0 hours 7 minutes 54 seconds 687 msec
