                         Program Version 5.0.3 -  RELEASE  -
|  1> !ri-mp2 aug-cc-pvtz aug-cc-pvtz/c tightscf
|  2> %pal nprocs 16 end
|  3>
|  4> * xyz 0 1
|  5> C      3.005568   -0.234641   -0.075870
|  6> C     -1.946912   -1.107066   -0.387839
|  7> C     -1.238412    1.280682   -0.728586
|  8> C      1.632830    0.413030    0.105069
|  9> C      0.492710   -0.535387   -0.269388
| 10> C     -0.931821   -0.029161    0.003653
| 11> O     -0.996264    0.187836    1.428670
| 12> H      3.165367   -0.547167   -1.110366
| 13> H      3.109196   -1.119822    0.554911
| 14> H      3.807682    0.455938    0.188183
| 15> H     -2.963517   -0.784311   -0.150713
| 16> H     -1.747156   -2.030635    0.155349
| 17> H     -1.906985   -1.318328   -1.457633
| 18> H     -0.578207    2.078717   -0.394031
| 19> H     -2.268050    1.591351   -0.535843
| 20> H     -1.124654    1.164869   -1.807771
| 21> H      1.507934    0.728735    1.141736
| 22> H      1.583749    1.318038   -0.504908
| 23> H      0.564713   -0.793340   -1.330153
| 24> H      0.615355   -1.469442    0.286075
| 25> H     -1.879090    0.497967    1.653569
| 26> *
| 27>
| 28>                          ****END OF INPUT****

CARTESIAN COORDINATES (ANGSTROEM)
---------------------------------
  C      3.005568   -0.234641   -0.075870
  C     -1.946912   -1.107066   -0.387839
  C     -1.238412    1.280682   -0.728586
  C      1.632830    0.413030    0.105069
  C      0.492710   -0.535387   -0.269388
  C     -0.931821   -0.029161    0.003653
  O     -0.996264    0.187836    1.428670
  H      3.165367   -0.547167   -1.110366
  H      3.109196   -1.119822    0.554911
  H      3.807682    0.455938    0.188183
  H     -2.963517   -0.784311   -0.150713
  H     -1.747156   -2.030635    0.155349
  H     -1.906985   -1.318328   -1.457633
  H     -0.578207    2.078717   -0.394031
  H     -2.268050    1.591351   -0.535843
  H     -1.124654    1.164869   -1.807771
  H      1.507934    0.728735    1.141736
  H      1.583749    1.318038   -0.504908
  H      0.564713   -0.793340   -1.330153
  H      0.615355   -1.469442    0.286075
  H     -1.879090    0.497967    1.653569

 Total Charge           Charge          ....    0
 Multiplicity           Mult            ....    1
 Number of Electrons    NEL             ....   58
 Basis Dimension        Dim             ....  644

ORBITAL ENERGIES
----------------

  NO   OCC          E(Eh)            E(eV)
   0   2.0000     -20.548494      -559.1529
   1   2.0000     -11.284267      -307.0605
   2   2.0000     -11.213867      -305.1448
   3   2.0000     -11.213533      -305.1357
   4   2.0000     -11.212615      -305.1108
   5   2.0000     -11.209356      -305.0221
   6   2.0000     -11.206071      -304.9327
   7   2.0000      -1.352645       -36.8073
   8   2.0000      -1.079669       -29.3793
   9   2.0000      -1.024782       -27.8857
  10   2.0000      -0.940382       -25.5891
  11   2.0000      -0.923799       -25.1379
  12   2.0000      -0.814457       -22.1625
  13   2.0000      -0.761404       -20.7188
  14   2.0000      -0.669906       -18.2291
  15   2.0000      -0.633457       -17.2373
  16   2.0000      -0.612860       -16.6768
  17   2.0000      -0.603218       -16.4144
  18   2.0000      -0.579519       -15.7695
  19   2.0000      -0.556904       -15.1541
  20   2.0000      -0.545382       -14.8406
  21   2.0000      -0.523872       -14.2553
  22   2.0000      -0.514842       -14.0096
  23   2.0000      -0.509647       -13.8682
  24   2.0000      -0.497860       -13.5475
  25   2.0000      -0.471650       -12.8343
  26   2.0000      -0.461502       -12.5581
  27   2.0000      -0.443769       -12.0756
  28   2.0000      -0.427500       -11.6329
  29   0.0000       0.027980         0.7614
  30   0.0000       0.033739         0.9181
  31   0.0000       0.035780         0.9736
  32   0.0000       0.039407         1.0723
  33   0.0000       0.051154         1.3920

MULLIKEN ATOMIC CHARGES
-----------------------
   0 C :   -0.998183
   1 C :   -1.338015
   2 C :   -1.208386
   3 C :   -0.533636
   4 C :   -0.429366
   5 C :    1.734637
   6 O :   -0.854023
   7 H :    0.252565
   8 H :    0.264550
   9 H :    0.284982
  10 H :    0.254057
  11 H :    0.239315
  12 H :    0.262062
  13 H :    0.253500
  14 H :    0.271758
  15 H :    0.268797
  16 H :    0.280394
  17 H :    0.235374
  18 H :    0.278388
  19 H :    0.340906
  20 H :    0.140323
Sum of atomic charges:   -0.0000000

LOEWDIN ATOMIC CHARGES
----------------------
   0 C :    0.582375
   1 C :    0.587830
   2 C :    0.591047
   3 C :    0.262665
   4 C :    0.274681
   5 C :   -0.567317
   6 O :    0.841363
   7 H :   -0.170340
   8 H :   -0.170947
   9 H :   -0.173005
  10 H :   -0.165682
  11 H :   -0.161946
  12 H :   -0.159067
  13 H :   -0.172915
  14 H :   -0.164610
  15 H :   -0.154659
  16 H :   -0.151564
  17 H :   -0.158243
  18 H :   -0.139348
  19 H :   -0.144251
  20 H :   -0.486068

  Mayer bond orders larger than 0.100000
B(  0-C ,  3-C ) :   0.8875 B(  0-C ,  7-H ) :   0.9819 B(  0-C ,  8-H ) :   0.9787
B(  0-C ,  9-H ) :   0.9819 B(  1-C ,  2-C ) :   0.1355 B(  1-C ,  5-C ) :   0.5309
B(  1-C ,  6-O ) :   0.1431 B(  1-C , 10-H ) :   1.0375 B(  1-C , 11-H ) :   1.0412
B(  1-C , 12-H ) :   1.0125 B(  2-C ,  4-C ) :   0.1004 B(  2-C ,  5-C ) :   0.5626
B(  2-C ,  6-O ) :   0.1093 B(  2-C , 13-H ) :   1.0052 B(  2-C , 14-H ) :   1.0107
B(  2-C , 15-H ) :   1.0015 B(  3-C ,  4-C ) :   0.9307 B(  3-C , 16-H ) :   0.9328
B(  3-C , 17-H ) :   0.9617 B(  4-C ,  5-C ) :   0.6784 B(  4-C , 18-H ) :   0.9643
B(  4-C , 19-H ) :   0.9080 B(  6-O , 20-H ) :   1.0323

MP2 TOTAL ENERGY:     -311.669911038 Eh
FINAL SINGLE POINT ENERGY      -311.669911038234

DIPOLE MOMENT
-------------
                                X             Y             Z
Electronic contribution:     -2.45215       0.34701       3.06492
Nuclear contribution   :      1.99423      -0.23930      -3.50639
                        -----------------------------------------
Total Dipole Moment    :     -0.45792       0.10770      -0.44147
                        -----------------------------------------
Magnitude (a.u.)       :      0.64512
Magnitude (Debye)      :      1.63978

Rotational constants in cm-1:     0.142178     0.047473     0.046477
Rotational constants in MHz :  4262.398686  1423.207531  1393.333253

                             ****ORCA TERMINATED NORMALLY****
TOTAL RUN TIME: 0 days 0 hours 8 minutes 31 seconds 255 msec
