                         Program Version 5.0.3 -  RELEASE  -
|  1> !ri-mp2 aug-cc-pvtz aug-cc-pvtz/c tightscf
|  2> %pal nprocs 16 end
|  3>
|  4> * xyz 0 1
|  5> C      0.054241    1.100477    1.268813
|  6> C      0.054241    1.100477   -1.268813
|  7> C     -0.409424    0.392082    0.000000
|  8> S      0.054241   -1.399668    0.000000
|  9> H     -0.309019    2.131146    1.280502
| 10> H     -0.310858    0.595967    2.161592
| 11> H      1.144294    1.131346    1.319556
| 12> H     -0.309019    2.131146   -1.280502
| 13> H     -0.310858    0.595967   -2.161592
| 14> H      1.144294    1.131346   -1.319556
| 15> H     -1.500071    0.339611    0.000000
| 16> H      1.389046   -1.220063    0.000000
| 17> *
| 18>
| 19>                          ****END OF INPUT****

CARTESIAN COORDINATES (ANGSTROEM)
---------------------------------
  C      0.054241    1.100477    1.268813
  C      0.054241    1.100477   -1.268813
  C     -0.409424    0.392082    0.000000
  S      0.054241   -1.399668    0.000000
  H     -0.309019    2.131146    1.280502
  H     -0.310858    0.595967    2.161592
  H      1.144294    1.131346    1.319556
  H     -0.309019    2.131146   -1.280502
  H     -0.310858    0.595967   -2.161592
  H      1.144294    1.131346   -1.319556
  H     -1.500071    0.339611    0.000000
  H      1.389046   -1.220063    0.000000

 Total Charge           Charge          ....    0
 Multiplicity           Mult            ....    1
 Number of Electrons    NEL             ....   42
 Basis Dimension        Dim             ....  372

ORBITAL ENERGIES
----------------

  NO   OCC          E(Eh)            E(eV)
   0   2.0000     -91.946605     -2501.9943
   1   2.0000     -11.270578      -306.6880
   2   2.0000     -11.223832      -305.4160
   3   2.0000     -11.223817      -305.4156
   4   2.0000      -8.947660      -243.4782
   5   2.0000      -6.628989      -180.3840
   6   2.0000      -6.627913      -180.3547
   7   2.0000      -6.626981      -180.3293
   8   2.0000      -1.093668       -29.7602
   9   2.0000      -0.943121       -25.6636
  10   2.0000      -0.940022       -25.5793
  11   2.0000      -0.787473       -21.4282
  12   2.0000      -0.632414       -17.2088
  13   2.0000      -0.604040       -16.4368
  14   2.0000      -0.575725       -15.6663
  15   2.0000      -0.546847       -14.8805
  16   2.0000      -0.531077       -14.4513
  17   2.0000      -0.498733       -13.5712
  18   2.0000      -0.482698       -13.1349
  19   2.0000      -0.434105       -11.8126
  20   2.0000      -0.354026        -9.6335
  21   0.0000       0.029588         0.8051
  22   0.0000       0.037588         1.0228
  23   0.0000       0.040112         1.0915
  24   0.0000       0.043331         1.1791
  25   0.0000       0.060933         1.6581

MULLIKEN ATOMIC CHARGES
-----------------------
   0 C :   -0.997327
   1 C :   -0.997327
   2 C :    0.104925
   3 S :   -0.435709
   4 H :    0.282941
   5 H :    0.330625
   6 H :    0.299563
   7 H :    0.282941
   8 H :    0.330625
   9 H :    0.299563
  10 H :    0.371665
  11 H :    0.127515
Sum of atomic charges:   -0.0000000

LOEWDIN ATOMIC CHARGES
----------------------
   0 C :    0.500240
   1 C :    0.500240
   2 C :   -0.427829
   3 S :    1.288400
   4 H :   -0.171313
   5 H :   -0.185089
   6 H :   -0.179320
   7 H :   -0.171313
   8 H :   -0.185089
   9 H :   -0.179320
  10 H :   -0.222173
  11 H :   -0.567434

  Mayer bond orders larger than 0.100000
B(  0-C ,  2-C ) :   0.8269 B(  0-C ,  4-H ) :   0.9239 B(  0-C ,  5-H ) :   0.9450
B(  0-C ,  6-H ) :   0.9436 B(  1-C ,  2-C ) :   0.8269 B(  1-C ,  7-H ) :   0.9239
B(  1-C ,  8-H ) :   0.9450 B(  1-C ,  9-H ) :   0.9436 B(  2-C ,  3-S ) :   0.9619
B(  2-C , 10-H ) :   0.8424 B(  3-S , 11-H ) :   1.0381

MP2 TOTAL ENERGY:     -516.583515134 Eh
FINAL SINGLE POINT ENERGY      -516.583515133525

DIPOLE MOMENT
-------------
                                X             Y             Z
Electronic contribution:     -0.86884      -6.39829       0.00000
Nuclear contribution   :      0.96959       7.12555       0.00000
                        -----------------------------------------
Total Dipole Moment    :      0.10075       0.72726       0.00000
                        -----------------------------------------
Magnitude (a.u.)       :      0.73421
Magnitude (Debye)      :      1.86621

Rotational constants in cm-1:     0.262889     0.144566     0.103867
Rotational constants in MHz :  7881.203601  4333.974024  3113.844635

                             ****ORCA TERMINATED NORMALLY****
TOTAL RUN TIME: 0 days 0 hours 1 minutes 36 seconds 338 msec
