                         Program Version 5.0.3 -  RELEASE  -
|  1> !ri-mp2 aug-cc-pvtz aug-cc-pvtz/c tightscf
|  2> %pal nprocs 16 end
|  3>
|  4> * xyz 0 1
|  5> C     -1.876724   -0.056528    0.292117
|  6> C     -1.220756    1.238754   -0.193233
|  7> C      0.269212    1.266716    0.162963
|  8> C      0.993150    0.003566   -0.331778
|  9> N      0.336494   -1.236054    0.101240
| 10> C     -1.093530   -1.276574   -0.206570
| 11> C      2.458080   -0.022920    0.084158
| 12> H     -2.914516   -0.113656   -0.046636
| 13> H     -1.900320   -0.067386    1.387040
| 14> H     -1.331150    1.311007   -1.280554
| 15> H     -1.729106    2.108897    0.227207
| 16> H      0.744092    2.156300   -0.259637
| 17> H      0.385539    1.333833    1.250920
| 18> H      0.947191    0.002171   -1.427861
| 19> H      0.478094   -1.362314    1.097987
| 20> H     -1.506343   -2.198011    0.207370
| 21> H     -1.194856   -1.349044   -1.294590
| 22> H      2.954195   -0.908747   -0.311642
| 23> H      2.551510   -0.040360    1.173496
| 24> H      2.983619    0.861609   -0.277729
| 25> *
| 26>
| 27>                          ****END OF INPUT****

CARTESIAN COORDINATES (ANGSTROEM)
---------------------------------
  C     -1.876724   -0.056528    0.292117
  C     -1.220756    1.238754   -0.193233
  C      0.269212    1.266716    0.162963
  C      0.993150    0.003566   -0.331778
  N      0.336494   -1.236054    0.101240
  C     -1.093530   -1.276574   -0.206570
  C      2.458080   -0.022920    0.084158
  H     -2.914516   -0.113656   -0.046636
  H     -1.900320   -0.067386    1.387040
  H     -1.331150    1.311007   -1.280554
  H     -1.729106    2.108897    0.227207
  H      0.744092    2.156300   -0.259637
  H      0.385539    1.333833    1.250920
  H      0.947191    0.002171   -1.427861
  H      0.478094   -1.362314    1.097987
  H     -1.506343   -2.198011    0.207370
  H     -1.194856   -1.349044   -1.294590
  H      2.954195   -0.908747   -0.311642
  H      2.551510   -0.040360    1.173496
  H      2.983619    0.861609   -0.277729

 Total Charge           Charge          ....    0
 Multiplicity           Mult            ....    1
 Number of Electrons    NEL             ....   56
 Basis Dimension        Dim             ....  621

ORBITAL ENERGIES
----------------

  NO   OCC          E(Eh)            E(eV)
   0   2.0000     -15.532853      -422.6704
   1   2.0000     -11.246513      -306.0332
   2   2.0000     -11.240249      -305.8627
   3   2.0000     -11.216249      -305.2096
   4   2.0000     -11.213758      -305.1419
   5   2.0000     -11.212845      -305.1170
   6   2.0000     -11.207985      -304.9848
   7   2.0000      -1.208656       -32.8892
   8   2.0000      -1.053702       -28.6727
   9   2.0000      -1.035781       -28.1850
  10   2.0000      -0.934496       -25.4289
  11   2.0000      -0.855748       -23.2861
  12   2.0000      -0.811921       -22.0935
  13   2.0000      -0.770577       -20.9685
  14   2.0000      -0.644564       -17.5395
  15   2.0000      -0.622991       -16.9524
  16   2.0000      -0.617045       -16.7907
  17   2.0000      -0.601407       -16.3651
  18   2.0000      -0.578096       -15.7308
  19   2.0000      -0.545609       -14.8468
  20   2.0000      -0.519283       -14.1304
  21   2.0000      -0.510696       -13.8967
  22   2.0000      -0.506665       -13.7871
  23   2.0000      -0.481419       -13.1001
  24   2.0000      -0.472153       -12.8479
  25   2.0000      -0.455587       -12.3972
  26   2.0000      -0.443175       -12.0594
  27   2.0000      -0.352477        -9.5914
  28   0.0000       0.030210         0.8221
  29   0.0000       0.034948         0.9510
  30   0.0000       0.035613         0.9691
  31   0.0000       0.037470         1.0196
  32   0.0000       0.050919         1.3856

MULLIKEN ATOMIC CHARGES
-----------------------
   0 C :   -0.489457
   1 C :   -0.470344
   2 C :   -0.474059
   3 C :    0.386065
   4 N :   -0.582540
   5 C :   -0.425348
   6 C :   -1.206653
   7 H :    0.330191
   8 H :    0.161738
   9 H :    0.162659
  10 H :    0.302594
  11 H :    0.328187
  12 H :    0.216605
  13 H :    0.440402
  14 H :   -0.020917
  15 H :    0.369213
  16 H :    0.198152
  17 H :    0.252337
  18 H :    0.257476
  19 H :    0.263698
Sum of atomic charges:    0.0000000

LOEWDIN ATOMIC CHARGES
----------------------
   0 C :    0.294603
   1 C :    0.289120
   2 C :    0.298766
   3 C :   -0.156499
   4 N :    0.582941
   5 C :    0.178097
   6 C :    0.592120
   7 H :   -0.145221
   8 H :   -0.145286
   9 H :   -0.142948
  10 H :   -0.144404
  11 H :   -0.140123
  12 H :   -0.139957
  13 H :   -0.130190
  14 H :   -0.305775
  15 H :   -0.145596
  16 H :   -0.145372
  17 H :   -0.164657
  18 H :   -0.163987
  19 H :   -0.165632

  Mayer bond orders larger than 0.100000
B(  0-C ,  1-C ) :   0.8669 B(  0-C ,  5-C ) :   0.8990 B(  0-C ,  7-H ) :   0.8794
B(  0-C ,  8-H ) :   1.0451 B(  1-C ,  2-C ) :   0.9061 B(  1-C ,  9-H ) :   1.0297
B(  1-C , 10-H ) :   0.9292 B(  2-C ,  3-C ) :   0.8093 B(  2-C , 11-H ) :   0.8788
B(  2-C , 12-H ) :   1.0181 B(  3-C ,  4-N ) :   0.6671 B(  3-C ,  5-C ) :   0.1062
B(  3-C ,  6-C ) :   0.6285 B(  3-C , 13-H ) :   0.8684 B(  4-N ,  5-C ) :   0.8896
B(  4-N ,  6-C ) :   0.1772 B(  4-N , 13-H ) :  -0.1177 B(  4-N , 14-H ) :   0.9798
B(  5-C , 15-H ) :   0.8889 B(  5-C , 16-H ) :   1.0402 B(  6-C , 17-H ) :   1.0173
B(  6-C , 18-H ) :   1.0062 B(  6-C , 19-H ) :   1.0047

MP2 TOTAL ENERGY:     -290.601623296 Eh
FINAL SINGLE POINT ENERGY      -290.601623295862

DIPOLE MOMENT
-------------
                                X             Y             Z
Electronic contribution:     -0.70460      -1.48070      -0.27049
Nuclear contribution   :      0.49833       1.83144       0.47292
                        -----------------------------------------
Total Dipole Moment    :     -0.20627       0.35074       0.20244
                        -----------------------------------------
Magnitude (a.u.)       :      0.45448
Magnitude (Debye)      :      1.15519

Rotational constants in cm-1:     0.143765     0.075234     0.054395
Rotational constants in MHz :  4309.972493  2255.467789  1630.721755

                             ****ORCA TERMINATED NORMALLY****
TOTAL RUN TIME: 0 days 0 hours 8 minutes 24 seconds 358 msec
