                         Program Version 5.0.3 -  RELEASE  -
|  1> !ri-mp2 aug-cc-pvtz aug-cc-pvtz/c tightscf
|  2> %pal nprocs 16 end
|  3>
|  4> * xyz 0 1
|  5> C     0.000000    0.000000   -3.930784
|  6> C     0.000000    0.000000   -2.731540
|  7> C     0.000000    0.000000    2.793427
|  8> C     0.000000    1.188249    0.632112
|  9> C     0.000000   -1.188249    0.632112
| 10> C     0.000000    0.000000   -1.302335
| 11> C     0.000000    0.000000    1.369921
| 12> N     0.000000    0.000000    3.945700
| 13> N     0.000000    1.194481   -0.690626
| 14> N     0.000000   -1.194481   -0.690626
| 15> H     0.000000    0.000000   -4.992828
| 16> H     0.000000    2.149383    1.132106
| 17> H     0.000000   -2.149383    1.132106
| 18> *
| 19>
| 20>                          ****END OF INPUT****

CARTESIAN COORDINATES (ANGSTROEM)
---------------------------------
  C      0.000000    0.000000   -3.930784
  C      0.000000    0.000000   -2.731540
  C      0.000000    0.000000    2.793427
  C      0.000000    1.188249    0.632112
  C      0.000000   -1.188249    0.632112
  C      0.000000    0.000000   -1.302335
  C      0.000000    0.000000    1.369921
  N      0.000000    0.000000    3.945700
  N      0.000000    1.194481   -0.690626
  N      0.000000   -1.194481   -0.690626
  H      0.000000    0.000000   -4.992828
  H      0.000000    2.149383    1.132106
  H      0.000000   -2.149383    1.132106

 Total Charge           Charge          ....    0
 Multiplicity           Mult            ....    1
 Number of Electrons    NEL             ....   66
 Basis Dimension        Dim             ....  529

ORBITAL ENERGIES
----------------

  NO   OCC          E(Eh)            E(eV)
   0   2.0000     -15.609674      -424.7608
   1   2.0000     -15.609649      -424.7601
   2   2.0000     -15.592960      -424.3060
   3   2.0000     -11.378918      -309.6361
   4   2.0000     -11.341700      -308.6234
   5   2.0000     -11.341683      -308.6229
   6   2.0000     -11.309909      -307.7583
   7   2.0000     -11.296256      -307.3868
   8   2.0000     -11.266571      -306.5790
   9   2.0000     -11.260875      -306.4240
  10   2.0000      -1.358786       -36.9745
  11   2.0000      -1.243969       -33.8501
  12   2.0000      -1.238383       -33.6981
  13   2.0000      -1.141922       -31.0733
  14   2.0000      -1.062786       -28.9199
  15   2.0000      -0.963112       -26.2076
  16   2.0000      -0.939743       -25.5717
  17   2.0000      -0.810380       -22.0516
  18   2.0000      -0.795010       -21.6333
  19   2.0000      -0.757083       -20.6013
  20   2.0000      -0.731332       -19.9006
  21   2.0000      -0.646850       -17.6017
  22   2.0000      -0.637685       -17.3523
  23   2.0000      -0.629696       -17.1349
  24   2.0000      -0.582200       -15.8425
  25   2.0000      -0.532733       -14.4964
  26   2.0000      -0.525787       -14.3074
  27   2.0000      -0.499348       -13.5879
  28   2.0000      -0.462193       -12.5769
  29   2.0000      -0.453556       -12.3419
  30   2.0000      -0.444526       -12.0962
  31   2.0000      -0.428973       -11.6729
  32   2.0000      -0.375569       -10.2197
  33   0.0000       0.024048         0.6544
  34   0.0000       0.026428         0.7192
  35   0.0000       0.029333         0.7982
  36   0.0000       0.034485         0.9384
  37   0.0000       0.054163         1.4738

MULLIKEN ATOMIC CHARGES
-----------------------
   0 C :   -1.827145
   1 C :    1.197108
   2 C :    0.668611
   3 C :   -0.895872
   4 C :   -0.895872
   5 C :    0.397959
   6 C :    1.512978
   7 N :   -0.835344
   8 N :   -0.430419
   9 N :   -0.430419
  10 H :    0.402859
  11 H :    0.567778
  12 H :    0.567778
Sum of atomic charges:    0.0000000

LOEWDIN ATOMIC CHARGES
----------------------
   0 C :    0.429555
   1 C :   -0.004803
   2 C :   -0.243744
   3 C :    0.042384
   4 C :    0.042384
   5 C :   -0.554561
   6 C :   -0.183294
   7 N :    0.275380
   8 N :    0.401340
   9 N :    0.401340
  10 H :   -0.280363
  11 H :   -0.162809
  12 H :   -0.162809

  Mayer bond orders larger than 0.100000
B(  0-C ,  1-C ) :   0.3517 B(  0-C ,  5-C ) :  -0.3740 B(  0-C , 10-H ) :   1.4133
B(  1-C ,  5-C ) :   0.3597 B(  1-C ,  8-N ) :  -0.1317 B(  1-C ,  9-N ) :  -0.1317
B(  1-C , 10-H ) :  -0.3942 B(  2-C ,  6-C ) :   1.1361 B(  2-C ,  7-N ) :   1.5961
B(  3-C ,  4-C ) :   0.4564 B(  3-C ,  6-C ) :   0.4121 B(  3-C ,  8-N ) :   1.0356
B(  3-C ,  9-N ) :   0.1496 B(  3-C , 11-H ) :   0.6161 B(  4-C ,  6-C ) :   0.4121
B(  4-C ,  8-N ) :   0.1496 B(  4-C ,  9-N ) :   1.0356 B(  4-C , 12-H ) :   0.6161
B(  5-C ,  6-C ) :  -0.1582 B(  5-C ,  8-N ) :   0.9775 B(  5-C ,  9-N ) :   0.9775
B(  6-C ,  7-N ) :   0.2798 B(  6-C ,  8-N ) :  -0.2345 B(  6-C ,  9-N ) :  -0.2345
B(  8-N , 11-H ) :  -0.1206 B(  9-N , 12-H ) :  -0.1206

MP2 TOTAL ENERGY:     -431.884618432 Eh
FINAL SINGLE POINT ENERGY      -431.884618431880

DIPOLE MOMENT
-------------
                                X             Y             Z
Electronic contribution:     -0.00000       0.00000       1.47460
Nuclear contribution   :      0.00000       0.00000      -2.60493
                        -----------------------------------------
Total Dipole Moment    :     -0.00000       0.00000      -1.13033
                        -----------------------------------------
Magnitude (a.u.)       :      1.13033
Magnitude (Debye)      :      2.87307

Rotational constants in cm-1:     0.202613     0.024772     0.022073
Rotational constants in MHz :  6074.193583   742.635520   661.731700

                             ****ORCA TERMINATED NORMALLY****
TOTAL RUN TIME: 0 days 0 hours 5 minutes 41 seconds 757 msec
