                         Program Version 5.0.3 -  RELEASE  -
|  1> !ri-mp2 aug-cc-pvtz aug-cc-pvtz/c tightscf
|  2> %pal nprocs 16 end
|  3>
|  4> * xyz 0 1
|  5> N     -0.400750   -2.173012    0.000000
|  6> C     -0.026829   -1.085083    0.000000
|  7> H      1.527406    0.267302    0.000000
|  8> C      0.434603    0.306529    0.000000
|  9> H      0.322951    0.513931    2.170270
| 10> H      0.322951    0.513931   -2.170270
| 11> H     -1.114559    1.081957   -1.317044
| 12> H     -1.114559    1.081957    1.317044
| 13> C     -0.026829    1.027994   -1.276481
| 14> C     -0.026829    1.027994    1.276481
| 15> H      0.368182    2.043699   -1.284867
| 16> H      0.368182    2.043699    1.284867
| 17> *
| 18>
| 19>                          ****END OF INPUT****

CARTESIAN COORDINATES (ANGSTROEM)
---------------------------------
  N     -0.400750   -2.173012    0.000000
  C     -0.026829   -1.085083    0.000000
  H      1.527406    0.267302    0.000000
  C      0.434603    0.306529    0.000000
  H      0.322951    0.513931    2.170270
  H      0.322951    0.513931   -2.170270
  H     -1.114559    1.081957   -1.317044
  H     -1.114559    1.081957    1.317044
  C     -0.026829    1.027994   -1.276481
  C     -0.026829    1.027994    1.276481
  H      0.368182    2.043699   -1.284867
  H      0.368182    2.043699    1.284867

 Total Charge           Charge          ....    0
 Multiplicity           Mult            ....    1
 Number of Electrons    NEL             ....   38
 Basis Dimension        Dim             ....  391

ORBITAL ENERGIES
----------------

  NO   OCC          E(Eh)            E(eV)
   0   2.0000     -15.563987      -423.5176
   1   2.0000     -11.288394      -307.1728
   2   2.0000     -11.266773      -306.5845
   3   2.0000     -11.244125      -305.9682
   4   2.0000     -11.244111      -305.9678
   5   2.0000      -1.219397       -33.1815
   6   2.0000      -1.108483       -30.1634
   7   2.0000      -0.962270       -26.1847
   8   2.0000      -0.879898       -23.9433
   9   2.0000      -0.705858       -19.2074
  10   2.0000      -0.644314       -17.5327
  11   2.0000      -0.600232       -16.3331
  12   2.0000      -0.574247       -15.6261
  13   2.0000      -0.566793       -15.4232
  14   2.0000      -0.534851       -14.5540
  15   2.0000      -0.527374       -14.3506
  16   2.0000      -0.523924       -14.2567
  17   2.0000      -0.454227       -12.3601
  18   2.0000      -0.453603       -12.3432
  19   0.0000       0.023134         0.6295
  20   0.0000       0.035599         0.9687
  21   0.0000       0.035925         0.9776
  22   0.0000       0.043779         1.1913
  23   0.0000       0.058224         1.5843

MULLIKEN ATOMIC CHARGES
-----------------------
   0 N :   -0.681225
   1 C :    0.288403
   2 H :    0.291539
   3 C :    0.254736
   4 H :    0.295746
   5 H :    0.295746
   6 H :    0.300325
   7 H :    0.300325
   8 C :   -0.958278
   9 C :   -0.958278
  10 H :    0.285480
  11 H :    0.285480
Sum of atomic charges:   -0.0000000

LOEWDIN ATOMIC CHARGES
----------------------
   0 N :    0.268343
   1 C :   -0.214431
   2 H :   -0.148688
   3 C :   -0.108025
   4 H :   -0.162793
   5 H :   -0.162793
   6 H :   -0.160312
   7 H :   -0.160312
   8 C :    0.587227
   9 C :    0.587227
  10 H :   -0.162721
  11 H :   -0.162721

  Mayer bond orders larger than 0.100000
B(  0-N ,  1-C ) :   2.1746 B(  1-C ,  3-C ) :   0.9834 B(  1-C ,  8-C ) :   0.1117
B(  1-C ,  9-C ) :   0.1117 B(  2-H ,  3-C ) :   0.9198 B(  3-C ,  8-C ) :   0.7453
B(  3-C ,  9-C ) :   0.7453 B(  4-H ,  9-C ) :   0.9504 B(  5-H ,  8-C ) :   0.9504
B(  6-H ,  8-C ) :   0.9424 B(  7-H ,  9-C ) :   0.9424 B(  8-C , 10-H ) :   0.9513
B(  9-C , 11-H ) :   0.9513

MP2 TOTAL ENERGY:     -210.949004686 Eh
FINAL SINGLE POINT ENERGY      -210.949004686395

DIPOLE MOMENT
-------------
                                X             Y             Z
Electronic contribution:     -0.20415      -6.11784      -0.00000
Nuclear contribution   :      0.70038       7.78007       0.00000
                        -----------------------------------------
Total Dipole Moment    :      0.49622       1.66223      -0.00000
                        -----------------------------------------
Magnitude (a.u.)       :      1.73472
Magnitude (Debye)      :      4.40930

Rotational constants in cm-1:     0.264510     0.132479     0.096638
Rotational constants in MHz :  7929.816385  3971.625079  2897.147785

                             ****ORCA TERMINATED NORMALLY****
TOTAL RUN TIME: 0 days 0 hours 1 minutes 53 seconds 847 msec
