                         Program Version 5.0.3 -  RELEASE  -
|  1> !ri-mp2 aug-cc-pvtz aug-cc-pvtz/c tightscf
|  2> %pal nprocs 16 end
|  3>
|  4> * xyz 0 1
|  5> S      0.406791    0.942610    0.784578
|  6> S     -0.406791   -0.942610    0.784578
|  7> N      0.183607    4.290300   -0.635604
|  8> N     -0.183607   -4.290300   -0.635604
|  9> C     -0.625549    1.822703   -0.494613
| 10> C      0.625549   -1.822703   -0.494613
| 11> C     -0.183607    3.202009   -0.580957
| 12> C      0.183607   -3.202009   -0.580957
| 13> H     -0.505885    1.334775   -1.459501
| 14> H     -1.669096    1.778086   -0.191095
| 15> H      0.505885   -1.334775   -1.459501
| 16> H      1.669096   -1.778086   -0.191095
| 17> *
| 18>
| 19>                          ****END OF INPUT****

CARTESIAN COORDINATES (ANGSTROEM)
---------------------------------
  S      0.406791    0.942610    0.784578
  S     -0.406791   -0.942610    0.784578
  N      0.183607    4.290300   -0.635604
  N     -0.183607   -4.290300   -0.635604
  C     -0.625549    1.822703   -0.494613
  C      0.625549   -1.822703   -0.494613
  C     -0.183607    3.202009   -0.580957
  C      0.183607   -3.202009   -0.580957
  H     -0.505885    1.334775   -1.459501
  H     -1.669096    1.778086   -0.191095
  H      0.505885   -1.334775   -1.459501
  H      1.669096   -1.778086   -0.191095

 Total Charge           Charge          ....    0
 Multiplicity           Mult            ....    1
 Number of Electrons    NEL             ....   74
 Basis Dimension        Dim             ....  468

ORBITAL ENERGIES
----------------

  NO   OCC          E(Eh)            E(eV)
   0   2.0000     -92.029406     -2504.2474
   1   2.0000     -92.029403     -2504.2474
   2   2.0000     -15.596705      -424.4079
   3   2.0000     -15.596705      -424.4079
   4   2.0000     -11.340741      -308.5973
   5   2.0000     -11.340741      -308.5973
   6   2.0000     -11.299717      -307.4809
   7   2.0000     -11.299717      -307.4809
   8   2.0000      -9.027036      -245.6381
   9   2.0000      -9.026840      -245.6328
  10   2.0000      -6.707858      -182.5301
  11   2.0000      -6.707532      -182.5212
  12   2.0000      -6.706626      -182.4966
  13   2.0000      -6.706533      -182.4940
  14   2.0000      -6.705491      -182.4657
  15   2.0000      -6.705491      -182.4657
  16   2.0000      -1.248978       -33.9864
  17   2.0000      -1.248453       -33.9721
  18   2.0000      -1.140245       -31.0276
  19   2.0000      -1.091105       -29.6905
  20   2.0000      -0.999833       -27.2069
  21   2.0000      -0.859596       -23.3908
  22   2.0000      -0.733401       -19.9568
  23   2.0000      -0.731225       -19.8976
  24   2.0000      -0.680299       -18.5119
  25   2.0000      -0.675977       -18.3943
  26   2.0000      -0.620894       -16.8954
  27   2.0000      -0.581386       -15.8203
  28   2.0000      -0.579369       -15.7654
  29   2.0000      -0.565380       -15.3848
  30   2.0000      -0.497685       -13.5427
  31   2.0000      -0.491925       -13.3860
  32   2.0000      -0.487365       -13.2619
  33   2.0000      -0.483494       -13.1566
  34   2.0000      -0.482485       -13.1291
  35   2.0000      -0.404171       -10.9981
  36   2.0000      -0.404061       -10.9951
  37   0.0000       0.018131         0.4934
  38   0.0000       0.029112         0.7922
  39   0.0000       0.035086         0.9547
  40   0.0000       0.046125         1.2551
  41   0.0000       0.059381         1.6158

MULLIKEN ATOMIC CHARGES
-----------------------
   0 S :   -0.121457
   1 S :   -0.121457
   2 N :   -0.449989
   3 N :   -0.449989
   4 C :   -0.036798
   5 C :   -0.036798
   6 C :   -0.002362
   7 C :   -0.002362
   8 H :    0.298472
   9 H :    0.312134
  10 H :    0.298472
  11 H :    0.312134
Sum of atomic charges:    0.0000000

LOEWDIN ATOMIC CHARGES
----------------------
   0 S :    0.714209
   1 S :    0.714209
   2 N :    0.256995
   3 N :    0.256995
   4 C :   -0.160560
   5 C :   -0.160560
   6 C :   -0.321892
   7 C :   -0.321892
   8 H :   -0.244352
   9 H :   -0.244401
  10 H :   -0.244352
  11 H :   -0.244401

  Mayer bond orders larger than 0.100000
B(  0-S ,  1-S ) :   1.0383 B(  0-S ,  4-C ) :   0.8409 B(  0-S ,  6-C ) :   0.1176
B(  1-S ,  5-C ) :   0.8409 B(  1-S ,  7-C ) :   0.1176 B(  2-N ,  6-C ) :   2.3091
B(  3-N ,  7-C ) :   2.3091 B(  4-C ,  6-C ) :   0.9941 B(  4-C ,  8-H ) :   0.9124
B(  4-C ,  9-H ) :   0.9229 B(  5-C ,  7-C ) :   0.9941 B(  5-C , 10-H ) :   0.9124
B(  5-C , 11-H ) :   0.9229

MP2 TOTAL ENERGY:    -1059.237908905 Eh
FINAL SINGLE POINT ENERGY     -1059.237908905496

DIPOLE MOMENT
-------------
                                X             Y             Z
Electronic contribution:      0.00000       0.00000       2.82095
Nuclear contribution   :     -0.00000       0.00000      -3.23526
                        -----------------------------------------
Total Dipole Moment    :      0.00000       0.00000      -0.41432
                        -----------------------------------------
Magnitude (a.u.)       :      0.41432
Magnitude (Debye)      :      1.05311

Rotational constants in cm-1:     0.173872     0.017999     0.017241
Rotational constants in MHz :  5212.560601   539.601031   516.879569

                             ****ORCA TERMINATED NORMALLY****
TOTAL RUN TIME: 0 days 0 hours 3 minutes 33 seconds 846 msec
