                         Program Version 5.0.3 -  RELEASE  -
|  1> !ri-mp2 aug-cc-pvtz aug-cc-pvtz/c tightscf
|  2> %pal nprocs 16 end
|  3>
|  4> * xyz 0 1
|  5> C     -1.194148   -1.273079   -0.003365
|  6> C      0.157194   -1.604887   -0.000788
|  7> C     -0.609182    1.039610   -0.002377
|  8> C     -1.601991    0.056026   -0.003248
|  9> C      0.749394    0.743892   -0.000095
| 10> C      1.120492   -0.606384    0.001279
| 11> C     -3.061050    0.433615    0.003949
| 12> C      1.799096    1.819578   -0.000742
| 13> O      2.465444   -0.884994    0.002866
| 14> H     -1.932914   -2.064353   -0.006041
| 15> H      0.460474   -2.645819   -0.001658
| 16> H     -0.904309    2.082983   -0.004426
| 17> H     -3.301613    1.113926   -0.815300
| 18> H     -3.696847   -0.445427   -0.096389
| 19> H     -3.338323    0.937663    0.932716
| 20> H      2.446613    1.742179    0.874661
| 21> H      2.448306    1.739421   -0.874651
| 22> H      1.340514    2.807196   -0.002729
| 23> H      2.595723   -1.838040    0.003211
| 24> *
| 25>
| 26>                          ****END OF INPUT****

CARTESIAN COORDINATES (ANGSTROEM)
---------------------------------
  C     -1.194148   -1.273079   -0.003365
  C      0.157194   -1.604887   -0.000788
  C     -0.609182    1.039610   -0.002377
  C     -1.601991    0.056026   -0.003248
  C      0.749394    0.743892   -0.000095
  C      1.120492   -0.606384    0.001279
  C     -3.061050    0.433615    0.003949
  C      1.799096    1.819578   -0.000742
  O      2.465444   -0.884994    0.002866
  H     -1.932914   -2.064353   -0.006041
  H      0.460474   -2.645819   -0.001658
  H     -0.904309    2.082983   -0.004426
  H     -3.301613    1.113926   -0.815300
  H     -3.696847   -0.445427   -0.096389
  H     -3.338323    0.937663    0.932716
  H      2.446613    1.742179    0.874661
  H      2.448306    1.739421   -0.874651
  H      1.340514    2.807196   -0.002729
  H      2.595723   -1.838040    0.003211

 Total Charge           Charge          ....    0
 Multiplicity           Mult            ....    1
 Number of Electrons    NEL             ....   66
 Basis Dimension        Dim             ....  644

ORBITAL ENERGIES
----------------

  NO   OCC          E(Eh)            E(eV)
   0   2.0000     -20.586054      -560.1750
   1   2.0000     -11.291723      -307.2634
   2   2.0000     -11.233810      -305.6875
   3   2.0000     -11.230777      -305.6050
   4   2.0000     -11.229476      -305.5696
   5   2.0000     -11.228336      -305.5385
   6   2.0000     -11.226557      -305.4902
   7   2.0000     -11.219770      -305.3055
   8   2.0000     -11.216175      -305.2077
   9   2.0000      -1.399412       -38.0799
  10   2.0000      -1.151802       -31.3421
  11   2.0000      -1.052271       -28.6338
  12   2.0000      -1.027458       -27.9586
  13   2.0000      -0.935733       -25.4626
  14   2.0000      -0.921163       -25.0661
  15   2.0000      -0.836729       -22.7686
  16   2.0000      -0.781254       -21.2590
  17   2.0000      -0.726433       -19.7672
  18   2.0000      -0.672099       -18.2887
  19   2.0000      -0.631409       -17.1815
  20   2.0000      -0.602071       -16.3832
  21   2.0000      -0.598676       -16.2908
  22   2.0000      -0.573610       -15.6087
  23   2.0000      -0.569145       -15.4872
  24   2.0000      -0.566995       -15.4287
  25   2.0000      -0.548914       -14.9367
  26   2.0000      -0.544811       -14.8251
  27   2.0000      -0.523089       -14.2340
  28   2.0000      -0.493280       -13.4228
  29   2.0000      -0.479499       -13.0478
  30   2.0000      -0.464015       -12.6265
  31   2.0000      -0.331275        -9.0144
  32   2.0000      -0.300555        -8.1785
  33   0.0000       0.027170         0.7393
  34   0.0000       0.031495         0.8570
  35   0.0000       0.033936         0.9235
  36   0.0000       0.044764         1.2181
  37   0.0000       0.046053         1.2532

MULLIKEN ATOMIC CHARGES
-----------------------
   0 C :   -0.523393
   1 C :   -0.908817
   2 C :   -0.832859
   3 C :    1.152179
   4 C :    0.722474
   5 C :    0.591223
   6 C :   -0.855804
   7 C :   -0.915122
   8 O :   -0.812594
   9 H :   -0.002349
  10 H :    0.649897
  11 H :    0.026147
  12 H :    0.259359
  13 H :    0.266649
  14 H :    0.280240
  15 H :    0.264643
  16 H :    0.263097
  17 H :    0.256316
  18 H :    0.118713
Sum of atomic charges:   -0.0000000

LOEWDIN ATOMIC CHARGES
----------------------
   0 C :    0.204380
   1 C :    0.213932
   2 C :    0.226483
   3 C :   -0.124677
   4 C :   -0.105665
   5 C :   -0.354711
   6 C :    0.573587
   7 C :    0.576882
   8 O :    0.844645
   9 H :   -0.181732
  10 H :   -0.184862
  11 H :   -0.171849
  12 H :   -0.170425
  13 H :   -0.181856
  14 H :   -0.167849
  15 H :   -0.167306
  16 H :   -0.167309
  17 H :   -0.181222
  18 H :   -0.480446

  Mayer bond orders larger than 0.100000
B(  0-C ,  1-C ) :   1.0971 B(  0-C ,  2-C ) :  -0.1904 B(  0-C ,  3-C ) :   0.7627
B(  0-C ,  4-C ) :   0.1646 B(  0-C ,  5-C ) :  -0.1530 B(  0-C ,  9-H ) :   1.5361
B(  1-C ,  2-C ) :  -0.2111 B(  1-C ,  3-C ) :   0.3491 B(  1-C ,  4-C ) :   0.3389
B(  1-C ,  5-C ) :   0.9839 B(  1-C ,  8-O ) :  -0.1053 B(  1-C , 10-H ) :   0.2715
B(  2-C ,  3-C ) :   0.4480 B(  2-C ,  4-C ) :   0.7892 B(  2-C ,  5-C ) :  -0.2131
B(  2-C ,  6-C ) :   0.1262 B(  2-C , 10-H ) :   0.1150 B(  2-C , 11-H ) :   1.5006
B(  3-C ,  4-C ) :   0.3311 B(  3-C ,  6-C ) :   0.4234 B(  3-C ,  9-H ) :  -0.2063
B(  3-C , 11-H ) :  -0.1931 B(  3-C , 12-H ) :  -0.1163 B(  3-C , 14-H ) :  -0.1050
B(  4-C ,  5-C ) :   1.2147 B(  4-C ,  7-C ) :   0.3214 B(  4-C ,  8-O ) :   0.1167
B(  4-C , 10-H ) :  -0.1126 B(  4-C , 16-H ) :  -0.1008 B(  5-C ,  7-C ) :   0.2430
B(  5-C ,  8-O ) :   0.4342 B(  5-C , 10-H ) :   0.1689 B(  6-C , 12-H ) :   1.0418
B(  6-C , 13-H ) :   0.9945 B(  6-C , 14-H ) :   1.0097 B(  7-C , 15-H ) :   1.0036
B(  7-C , 16-H ) :   1.0079 B(  7-C , 17-H ) :   1.0231 B(  8-O , 18-H ) :   1.0950

MP2 TOTAL ENERGY:     -385.336653605 Eh
FINAL SINGLE POINT ENERGY      -385.336653605006

DIPOLE MOMENT
-------------
                                X             Y             Z
Electronic contribution:      3.69719      -3.81373      -0.00652
Nuclear contribution   :     -3.89970       3.46571       0.00958
                        -----------------------------------------
Total Dipole Moment    :     -0.20250      -0.34802       0.00305
                        -----------------------------------------
Magnitude (a.u.)       :      0.40266
Magnitude (Debye)      :      1.02347

Rotational constants in cm-1:     0.100629     0.043481     0.030705
Rotational constants in MHz :  3016.771450  1303.520439   920.498366

                             ****ORCA TERMINATED NORMALLY****
TOTAL RUN TIME: 0 days 0 hours 10 minutes 3 seconds 799 msec
