                         Program Version 5.0.3 -  RELEASE  -
|  1> !ri-mp2 aug-cc-pvtz aug-cc-pvtz/c tightscf
|  2> %pal nprocs 16 end
|  3> %maxcore 3800
|  4>
|  5> * xyz 0 1
|  6> C      4.089165    0.588477    0.122469
|  7> C      2.923903   -0.328181   -0.246075
|  8> C      1.567017    0.231891    0.182347
|  9> C      0.411798   -0.680523   -0.186833
| 10> C     -3.172463   -0.056120    0.344075
| 11> C     -1.956993   -0.859646   -0.067429
| 12> O     -3.273599    1.167332   -0.370804
| 13> O     -0.806302   -0.090619    0.241637
| 14> H      3.988063    1.565495   -0.353995
| 15> H      4.136511    0.751152    1.200924
| 16> H      5.043295    0.163461   -0.191317
| 17> H      2.923021   -0.497172   -1.326931
| 18> H      3.074567   -1.308953    0.214777
| 19> H      1.555650    0.393751    1.263323
| 20> H      1.405218    1.208369   -0.282062
| 21> H      0.381813   -0.843154   -1.272776
| 22> H      0.532797   -1.663858    0.288024
| 23> H     -3.138051    0.127329    1.424009
| 24> H     -4.077395   -0.622897    0.124143
| 25> H     -1.992298   -1.069512   -1.143946
| 26> H     -1.937954   -1.816743    0.471425
| 27> H     -2.430595    1.623640   -0.273584
| 28> *
| 29>
| 30>                          ****END OF INPUT****

CARTESIAN COORDINATES (ANGSTROEM)
---------------------------------
  C      4.089165    0.588477    0.122469
  C      2.923903   -0.328181   -0.246075
  C      1.567017    0.231891    0.182347
  C      0.411798   -0.680523   -0.186833
  C     -3.172463   -0.056120    0.344075
  C     -1.956993   -0.859646   -0.067429
  O     -3.273599    1.167332   -0.370804
  O     -0.806302   -0.090619    0.241637
  H      3.988063    1.565495   -0.353995
  H      4.136511    0.751152    1.200924
  H      5.043295    0.163461   -0.191317
  H      2.923021   -0.497172   -1.326931
  H      3.074567   -1.308953    0.214777
  H      1.555650    0.393751    1.263323
  H      1.405218    1.208369   -0.282062
  H      0.381813   -0.843154   -1.272776
  H      0.532797   -1.663858    0.288024
  H     -3.138051    0.127329    1.424009
  H     -4.077395   -0.622897    0.124143
  H     -1.992298   -1.069512   -1.143946
  H     -1.937954   -1.816743    0.471425
  H     -2.430595    1.623640   -0.273584

 Total Charge           Charge          ....    0
 Multiplicity           Mult            ....    1
 Number of Electrons    NEL             ....   66
 Basis Dimension        Dim             ....  690

ORBITAL ENERGIES
----------------

  NO   OCC          E(Eh)            E(eV)
   0   2.0000     -20.561884      -559.5173
   1   2.0000     -20.549740      -559.1868
   2   2.0000     -11.277595      -306.8790
   3   2.0000     -11.277416      -306.8741
   4   2.0000     -11.272519      -306.7408
   5   2.0000     -11.224993      -305.4476
   6   2.0000     -11.220908      -305.3364
   7   2.0000     -11.215514      -305.1897
   8   2.0000      -1.383587       -37.6493
   9   2.0000      -1.347960       -36.6799
  10   2.0000      -1.079870       -29.3847
  11   2.0000      -1.016461       -27.6593
  12   2.0000      -0.962964       -26.2036
  13   2.0000      -0.863259       -23.4905
  14   2.0000      -0.831545       -22.6275
  15   2.0000      -0.800596       -21.7853
  16   2.0000      -0.695850       -18.9350
  17   2.0000      -0.683381       -18.5957
  18   2.0000      -0.659077       -17.9344
  19   2.0000      -0.642133       -17.4733
  20   2.0000      -0.616048       -16.7635
  21   2.0000      -0.588181       -16.0052
  22   2.0000      -0.584283       -15.8991
  23   2.0000      -0.560153       -15.2425
  24   2.0000      -0.548730       -14.9317
  25   2.0000      -0.518155       -14.0997
  26   2.0000      -0.507366       -13.8061
  27   2.0000      -0.489461       -13.3189
  28   2.0000      -0.478619       -13.0239
  29   2.0000      -0.472413       -12.8550
  30   2.0000      -0.465796       -12.6749
  31   2.0000      -0.438666       -11.9367
  32   2.0000      -0.430054       -11.7024
  33   0.0000       0.028553         0.7770
  34   0.0000       0.031789         0.8650
  35   0.0000       0.035419         0.9638
  36   0.0000       0.037448         1.0190
  37   0.0000       0.045463         1.2371

MULLIKEN ATOMIC CHARGES
-----------------------
   0 C :   -0.974430
   1 C :   -0.421563
   2 C :   -0.360763
   3 C :   -0.288460
   4 C :   -0.234081
   5 C :   -0.362645
   6 O :   -0.633521
   7 O :   -0.552031
   8 H :    0.265802
   9 H :    0.264505
  10 H :    0.289590
  11 H :    0.249177
  12 H :    0.246692
  13 H :    0.248128
  14 H :    0.222491
  15 H :    0.323136
  16 H :    0.308035
  17 H :    0.218030
  18 H :    0.341581
  19 H :    0.307281
  20 H :    0.333836
  21 H :    0.209208
Sum of atomic charges:   -0.0000000

LOEWDIN ATOMIC CHARGES
----------------------
   0 C :    0.579672
   1 C :    0.252015
   2 C :    0.267036
   3 C :    0.014580
   4 C :    0.027947
   5 C :    0.013778
   6 O :    0.805576
   7 O :    0.575597
   8 H :   -0.170570
   9 H :   -0.170662
  10 H :   -0.173278
  11 H :   -0.148249
  12 H :   -0.148293
  13 H :   -0.143868
  14 H :   -0.144172
  15 H :   -0.147236
  16 H :   -0.145715
  17 H :   -0.157694
  18 H :   -0.167109
  19 H :   -0.152976
  20 H :   -0.149941
  21 H :   -0.516438

  Mayer bond orders larger than 0.100000
B(  0-C ,  1-C ) :   0.8994 B(  0-C ,  8-H ) :   0.9606 B(  0-C ,  9-H ) :   0.9611
B(  0-C , 10-H ) :   0.9631 B(  1-C ,  2-C ) :   0.8758 B(  1-C , 11-H ) :   0.9436
B(  1-C , 12-H ) :   0.9476 B(  2-C ,  3-C ) :   1.0158 B(  2-C ,  7-O ) :  -0.1477
B(  2-C , 13-H ) :   0.9523 B(  2-C , 14-H ) :   0.9638 B(  3-C ,  7-O ) :   1.0422
B(  3-C , 15-H ) :   0.9026 B(  3-C , 16-H ) :   0.8928 B(  4-C ,  5-C ) :   0.9563
B(  4-C ,  6-O ) :   0.7461 B(  4-C , 17-H ) :   1.0236 B(  4-C , 18-H ) :   0.9239
B(  5-C ,  7-O ) :   0.9795 B(  5-C , 19-H ) :   0.8689 B(  5-C , 20-H ) :   0.8614
B(  6-O , 21-H ) :   0.9667

MP2 TOTAL ENERGY:     -386.770960946 Eh
FINAL SINGLE POINT ENERGY      -386.770960946133

DIPOLE MOMENT
-------------
                                X             Y             Z
Electronic contribution:     -9.12239       1.34056      -0.05165
Nuclear contribution   :      9.85984      -2.06852       0.14682
                        -----------------------------------------
Total Dipole Moment    :      0.73745      -0.72796       0.09517
                        -----------------------------------------
Magnitude (a.u.)       :      1.04059
Magnitude (Debye)      :      2.64496

Rotational constants in cm-1:     0.219126     0.020500     0.019474
Rotational constants in MHz :  6569.225253   614.569219   583.812744

                             ****ORCA TERMINATED NORMALLY****
TOTAL RUN TIME: 0 days 0 hours 9 minutes 3 seconds 191 msec
