                         Program Version 5.0.3 -  RELEASE  -
|  1> !ri-mp2 aug-cc-pvtz aug-cc-pvtz/c tightscf
|  2> %pal nprocs 16 end
|  3>
|  4> * xyz 0 1
|  5> C     -1.431534   -1.031992    0.000000
|  6> C     -1.295454    0.385519    0.000000
|  7> C     -0.233038   -1.675211    0.000000
|  8> C      0.000000    0.813659    0.000000
|  9> C      0.515874    2.217453    0.000000
| 10> S      1.080231   -0.550999    0.000000
| 11> H     -2.381672   -1.545414    0.000000
| 12> H     -2.133617    1.068000    0.000000
| 13> H     -0.039022   -2.734092    0.000000
| 14> H     -0.319300    2.917141    0.000000
| 15> H      1.127412    2.426894    0.879789
| 16> H      1.127412    2.426894   -0.879789
| 17> *
| 18>
| 19>                          ****END OF INPUT****

CARTESIAN COORDINATES (ANGSTROEM)
---------------------------------
  C     -1.431534   -1.031992    0.000000
  C     -1.295454    0.385519    0.000000
  C     -0.233038   -1.675211    0.000000
  C      0.000000    0.813659    0.000000
  C      0.515874    2.217453    0.000000
  S      1.080231   -0.550999    0.000000
  H     -2.381672   -1.545414    0.000000
  H     -2.133617    1.068000    0.000000
  H     -0.039022   -2.734092    0.000000
  H     -0.319300    2.917141    0.000000
  H      1.127412    2.426894    0.879789
  H      1.127412    2.426894   -0.879789

 Total Charge           Charge          ....    0
 Multiplicity           Mult            ....    1
 Number of Electrons    NEL             ....   52
 Basis Dimension        Dim             ....  418

ORBITAL ENERGIES
----------------

  NO   OCC          E(Eh)            E(eV)
   0   2.0000     -91.977090     -2502.8238
   1   2.0000     -11.267546      -306.6055
   2   2.0000     -11.256353      -306.3009
   3   2.0000     -11.235578      -305.7356
   4   2.0000     -11.234276      -305.7002
   5   2.0000     -11.229225      -305.5627
   6   2.0000      -8.977446      -244.2887
   7   2.0000      -6.658462      -181.1860
   8   2.0000      -6.657959      -181.1723
   9   2.0000      -6.657217      -181.1521
  10   2.0000      -1.169479       -31.8231
  11   2.0000      -1.031697       -28.0739
  12   2.0000      -0.978264       -26.6199
  13   2.0000      -0.920556       -25.0496
  14   2.0000      -0.758466       -20.6389
  15   2.0000      -0.724795       -19.7227
  16   2.0000      -0.676901       -18.4194
  17   2.0000      -0.587728       -15.9929
  18   2.0000      -0.587431       -15.9848
  19   2.0000      -0.563614       -15.3367
  20   2.0000      -0.533011       -14.5040
  21   2.0000      -0.503997       -13.7145
  22   2.0000      -0.502293       -13.6681
  23   2.0000      -0.463514       -12.6128
  24   2.0000      -0.343257        -9.3405
  25   2.0000      -0.316286        -8.6066
  26   0.0000       0.030087         0.8187
  27   0.0000       0.032316         0.8794
  28   0.0000       0.038414         1.0453
  29   0.0000       0.048500         1.3197
  30   0.0000       0.048515         1.3201

MULLIKEN ATOMIC CHARGES
-----------------------
   0 C :   -0.527061
   1 C :   -1.012210
   2 C :   -0.367240
   3 C :    0.923300
   4 C :   -0.881295
   5 S :   -0.338999
   6 H :    0.472765
   7 H :    0.351792
   8 H :    0.510830
   9 H :    0.258730
  10 H :    0.304694
  11 H :    0.304694
Sum of atomic charges:   -0.0000000

LOEWDIN ATOMIC CHARGES
----------------------
   0 C :    0.062335
   1 C :    0.085054
   2 C :   -0.194656
   3 C :   -0.507303
   4 C :    0.502884
   5 S :    1.256658
   6 H :   -0.197372
   7 H :   -0.190760
   8 H :   -0.267436
   9 H :   -0.183940
  10 H :   -0.182732
  11 H :   -0.182732

  Mayer bond orders larger than 0.100000
B(  0-C ,  1-C ) :   1.3581 B(  0-C ,  2-C ) :   1.3674 B(  0-C ,  3-C ) :  -0.1539
B(  0-C ,  6-H ) :   0.8502 B(  1-C ,  3-C ) :   1.1432 B(  1-C ,  5-S ) :   0.3275
B(  1-C ,  7-H ) :   1.0004 B(  2-C ,  5-S ) :   1.1859 B(  2-C ,  8-H ) :   0.7701
B(  3-C ,  4-C ) :   0.6337 B(  3-C ,  5-S ) :   0.9138 B(  4-C ,  9-H ) :   0.9887
B(  4-C , 10-H ) :   0.9659 B(  4-C , 11-H ) :   0.9659

MP2 TOTAL ENERGY:     -591.437204095 Eh
FINAL SINGLE POINT ENERGY      -591.437204094686

DIPOLE MOMENT
-------------
                                X             Y             Z
Electronic contribution:      2.38248      -4.31316       0.00000
Nuclear contribution   :     -2.63852       4.55296       0.00000
                        -----------------------------------------
Total Dipole Moment    :     -0.25604       0.23980       0.00000
                        -----------------------------------------
Magnitude (a.u.)       :      0.35081
Magnitude (Debye)      :      0.89168

Rotational constants in cm-1:     0.176191     0.103588     0.066032
Rotational constants in MHz :  5282.071328  3105.501270  1979.596108

                             ****ORCA TERMINATED NORMALLY****
TOTAL RUN TIME: 0 days 0 hours 2 minutes 50 seconds 108 msec
