                         Program Version 5.0.3 -  RELEASE  -
|  1> !ri-mp2 aug-cc-pvtz aug-cc-pvtz/c tightscf
|  2> %pal nprocs 16 end
|  3>
|  4> * xyz 0 1
|  5> N      1.184590    0.251105    0.000000
|  6> C      0.000000    0.875562    0.000000
|  7> C     -1.202367    0.166726    0.000000
|  8> C     -1.174475   -1.220655    0.000000
|  9> C      0.054155   -1.864985    0.000000
| 10> C      1.201261   -1.080306    0.000000
| 11> C      0.032915    2.378142    0.000000
| 12> H     -2.143876    0.698947    0.000000
| 13> H     -2.096226   -1.787364    0.000000
| 14> H      0.127330   -2.943410    0.000000
| 15> H      2.181582   -1.544032    0.000000
| 16> H     -0.968801    2.804749    0.000000
| 17> H      0.569466    2.743239    0.876757
| 18> H      0.569466    2.743239   -0.876757
| 19> *
| 20>
| 21>                          ****END OF INPUT****

CARTESIAN COORDINATES (ANGSTROEM)
---------------------------------
  N      1.184590    0.251105    0.000000
  C      0.000000    0.875562    0.000000
  C     -1.202367    0.166726    0.000000
  C     -1.174475   -1.220655    0.000000
  C      0.054155   -1.864985    0.000000
  C      1.201261   -1.080306    0.000000
  C      0.032915    2.378142    0.000000
  H     -2.143876    0.698947    0.000000
  H     -2.096226   -1.787364    0.000000
  H      0.127330   -2.943410    0.000000
  H      2.181582   -1.544032    0.000000
  H     -0.968801    2.804749    0.000000
  H      0.569466    2.743239    0.876757
  H      0.569466    2.743239   -0.876757

 Total Charge           Charge          ....    0
 Multiplicity           Mult            ....    1
 Number of Electrons    NEL             ....   50
 Basis Dimension        Dim             ....  483

ORBITAL ENERGIES
----------------

  NO   OCC          E(Eh)            E(eV)
   0   2.0000     -15.556811      -423.3223
   1   2.0000     -11.279267      -306.9245
   2   2.0000     -11.271410      -306.7107
   3   2.0000     -11.255638      -306.2815
   4   2.0000     -11.234330      -305.7017
   5   2.0000     -11.234174      -305.6974
   6   2.0000     -11.221690      -305.3577
   7   2.0000      -1.258025       -34.2326
   8   2.0000      -1.086135       -29.5552
   9   2.0000      -1.056675       -28.7536
  10   2.0000      -0.952736       -25.9253
  11   2.0000      -0.857057       -23.3217
  12   2.0000      -0.823803       -22.4168
  13   2.0000      -0.701424       -19.0867
  14   2.0000      -0.668192       -18.1824
  15   2.0000      -0.639397       -17.3989
  16   2.0000      -0.585885       -15.9427
  17   2.0000      -0.585080       -15.9208
  18   2.0000      -0.570470       -15.5233
  19   2.0000      -0.538727       -14.6595
  20   2.0000      -0.517715       -14.0877
  21   2.0000      -0.510832       -13.9004
  22   2.0000      -0.411165       -11.1884
  23   2.0000      -0.380475       -10.3533
  24   2.0000      -0.336890        -9.1672
  25   0.0000       0.027295         0.7427
  26   0.0000       0.032401         0.8817
  27   0.0000       0.036583         0.9955
  28   0.0000       0.047246         1.2856
  29   0.0000       0.050692         1.3794

MULLIKEN ATOMIC CHARGES
-----------------------
   0 N :   -0.516467
   1 C :    0.879035
   2 C :   -0.567003
   3 C :   -0.677639
   4 C :   -0.070077
   5 C :   -0.653658
   6 C :   -0.807474
   7 H :    0.112323
   8 H :    0.525572
   9 H :    0.308686
  10 H :    0.625497
  11 H :    0.303274
  12 H :    0.268965
  13 H :    0.268965
Sum of atomic charges:   -0.0000000

LOEWDIN ATOMIC CHARGES
----------------------
   0 N :    0.393200
   1 C :   -0.312369
   2 C :    0.215712
   3 C :    0.193069
   4 C :    0.195852
   5 C :    0.011316
   6 C :    0.576375
   7 H :   -0.188030
   8 H :   -0.174652
   9 H :   -0.193216
  10 H :   -0.192741
  11 H :   -0.184222
  12 H :   -0.170147
  13 H :   -0.170147

  Mayer bond orders larger than 0.100000
B(  0-N ,  1-C ) :   0.8426 B(  0-N ,  3-C ) :   0.1131 B(  0-N ,  4-C ) :  -0.2165
B(  0-N ,  5-C ) :   1.3716 B(  1-C ,  2-C ) :   0.8691 B(  1-C ,  3-C ) :   0.1281
B(  1-C ,  4-C ) :   0.1100 B(  1-C ,  6-C ) :   0.3807 B(  1-C ,  7-H ) :  -0.1230
B(  2-C ,  3-C ) :   1.2378 B(  2-C ,  4-C ) :  -0.1411 B(  2-C ,  5-C ) :  -0.1063
B(  2-C ,  7-H ) :   1.3386 B(  3-C ,  4-C ) :   1.0661 B(  3-C ,  5-C ) :   0.2922
B(  3-C ,  7-H ) :  -0.1066 B(  3-C ,  8-H ) :   0.7717 B(  3-C ,  9-H ) :  -0.1491
B(  4-C ,  5-C ) :   0.9474 B(  4-C ,  9-H ) :   1.0323 B(  5-C , 10-H ) :   0.4658
B(  6-C , 11-H ) :   0.9709 B(  6-C , 12-H ) :   1.0162 B(  6-C , 13-H ) :   1.0162

MP2 TOTAL ENERGY:     -287.009828153 Eh
FINAL SINGLE POINT ENERGY      -287.009828152528

DIPOLE MOMENT
-------------
                                X             Y             Z
Electronic contribution:      1.06330      -3.01459       0.00000
Nuclear contribution   :     -1.76870       2.73944       0.00000
                        -----------------------------------------
Total Dipole Moment    :     -0.70540      -0.27515       0.00000
                        -----------------------------------------
Magnitude (a.u.)       :      0.75716
Magnitude (Debye)      :      1.92456

Rotational constants in cm-1:     0.191740     0.088027     0.061006
Rotational constants in MHz :  5748.219969  2638.970957  1828.923768

                             ****ORCA TERMINATED NORMALLY****
TOTAL RUN TIME: 0 days 0 hours 4 minutes 5 seconds 748 msec
