                         Program Version 5.0.3 -  RELEASE  -
|  1> !ri-mp2 aug-cc-pvtz aug-cc-pvtz/c tightscf
|  2> %pal nprocs 16 end
|  3>
|  4> * xyz 0 1
|  5> C     -0.370784   -1.943846    0.000000
|  6> C     -0.590876    1.724659    0.000000
|  7> C     -0.821447   -0.687962    0.000000
|  8> C      0.000000    0.523640    0.000000
|  9> C      1.497508    0.383184    0.000000
| 10> H     -1.054523   -2.781159    0.000000
| 11> H      0.684570   -2.180530    0.000000
| 12> H     -0.016812    2.641330    0.000000
| 13> H     -1.668879    1.820992    0.000000
| 14> H     -1.893631   -0.520009    0.000000
| 15> H      1.840844   -0.168419    0.877918
| 16> H      1.981179    1.358162    0.000000
| 17> H      1.840844   -0.168419   -0.877918
| 18> *
| 19>
| 20>                          ****END OF INPUT****

CARTESIAN COORDINATES (ANGSTROEM)
---------------------------------
  C     -0.370784   -1.943846    0.000000
  C     -0.590876    1.724659    0.000000
  C     -0.821447   -0.687962    0.000000
  C      0.000000    0.523640    0.000000
  C      1.497508    0.383184    0.000000
  H     -1.054523   -2.781159    0.000000
  H      0.684570   -2.180530    0.000000
  H     -0.016812    2.641330    0.000000
  H     -1.668879    1.820992    0.000000
  H     -1.893631   -0.520009    0.000000
  H      1.840844   -0.168419    0.877918
  H      1.981179    1.358162    0.000000
  H      1.840844   -0.168419   -0.877918

 Total Charge           Charge          ....    0
 Multiplicity           Mult            ....    1
 Number of Electrons    NEL             ....   38
 Basis Dimension        Dim             ....  414

ORBITAL ENERGIES
----------------

  NO   OCC          E(Eh)            E(eV)
   0   2.0000     -11.244098      -305.9675
   1   2.0000     -11.236099      -305.7498
   2   2.0000     -11.226038      -305.4760
   3   2.0000     -11.221922      -305.3640
   4   2.0000     -11.221643      -305.3564
   5   2.0000      -1.110239       -30.2111
   6   2.0000      -1.010305       -27.4918
   7   2.0000      -0.939917       -25.5765
   8   2.0000      -0.821042       -22.3417
   9   2.0000      -0.716961       -19.5095
  10   2.0000      -0.651241       -17.7212
  11   2.0000      -0.632023       -17.1982
  12   2.0000      -0.573961       -15.6183
  13   2.0000      -0.559473       -15.2240
  14   2.0000      -0.543641       -14.7932
  15   2.0000      -0.522833       -14.2270
  16   2.0000      -0.482620       -13.1328
  17   2.0000      -0.424890       -11.5619
  18   2.0000      -0.321927        -8.7601
  19   0.0000       0.030608         0.8329
  20   0.0000       0.034288         0.9330
  21   0.0000       0.036909         1.0043
  22   0.0000       0.048417         1.3175
  23   0.0000       0.050645         1.3781

MULLIKEN ATOMIC CHARGES
-----------------------
   0 C :   -1.068569
   1 C :   -1.445169
   2 C :   -0.302570
   3 C :    1.347405
   4 C :   -0.786163
   5 H :    0.427218
   6 H :    0.288430
   7 H :    0.353782
   8 H :    0.313291
   9 H :    0.120857
  10 H :    0.265693
  11 H :    0.220103
  12 H :    0.265693
Sum of atomic charges:   -0.0000000

LOEWDIN ATOMIC CHARGES
----------------------
   0 C :    0.532424
   1 C :    0.543203
   2 C :    0.157182
   3 C :   -0.175405
   4 C :    0.547768
   5 H :   -0.223797
   6 H :   -0.228029
   7 H :   -0.217544
   8 H :   -0.220765
   9 H :   -0.198907
  10 H :   -0.167947
  11 H :   -0.180235
  12 H :   -0.167947

  Mayer bond orders larger than 0.100000
B(  0-C ,  2-C ) :   1.2065 B(  0-C ,  4-C ) :  -0.1012 B(  0-C ,  5-H ) :   0.7717
B(  0-C ,  6-H ) :   1.1066 B(  1-C ,  3-C ) :   0.8242 B(  1-C ,  7-H ) :   0.8992
B(  1-C ,  8-H ) :   1.0696 B(  2-C ,  3-C ) :   0.5820 B(  2-C ,  9-H ) :   1.3419
B(  3-C ,  4-C ) :   0.6964 B(  4-C , 10-H ) :   0.9844 B(  4-C , 11-H ) :   1.0159
B(  4-C , 12-H ) :   0.9844

MP2 TOTAL ENERGY:     -194.869230076 Eh
FINAL SINGLE POINT ENERGY      -194.869230075987

DIPOLE MOMENT
-------------
                                X             Y             Z
Electronic contribution:     -1.68745      -0.01034       0.00000
Nuclear contribution   :      1.79529       0.00204       0.00000
                        -----------------------------------------
Total Dipole Moment    :      0.10784      -0.00830       0.00000
                        -----------------------------------------
Magnitude (a.u.)       :      0.10816
Magnitude (Debye)      :      0.27492

Rotational constants in cm-1:     0.285858     0.139566     0.095429
Rotational constants in MHz :  8569.798578  4184.076005  2860.893392

                             ****ORCA TERMINATED NORMALLY****
TOTAL RUN TIME: 0 days 0 hours 2 minutes 0 seconds 891 msec
