                         Program Version 5.0.3 -  RELEASE  -
|  1> !ri-mp2 aug-cc-pvtz aug-cc-pvtz/c tightscf
|  2> %pal nprocs 16 end
|  3>
|  4> * xyz 0 1
|  5> O      2.347421   -0.187082   -0.656389
|  6> C      1.620033    0.221901    0.509756
|  7> C      0.166572    0.196034    0.229739
|  8> C     -0.747500    1.169251   -0.020672
|  9> C     -2.002371    0.514222   -0.220304
| 10> C     -1.758701   -0.811172   -0.075955
| 11> O     -0.446384   -1.026217    0.202246
| 12> H      3.264764   -0.337168   -0.408291
| 13> H      1.894901    1.240412    0.798884
| 14> H      1.842877   -0.446236    1.347719
| 15> H     -0.548601    2.226247   -0.064386
| 16> H     -2.952138    0.969176   -0.441152
| 17> H     -2.378300   -1.687460   -0.135014
| 18> *
| 19>
| 20>                          ****END OF INPUT****

CARTESIAN COORDINATES (ANGSTROEM)
---------------------------------
  O      2.347421   -0.187082   -0.656389
  C      1.620033    0.221901    0.509756
  C      0.166572    0.196034    0.229739
  C     -0.747500    1.169251   -0.020672
  C     -2.002371    0.514222   -0.220304
  C     -1.758701   -0.811172   -0.075955
  O     -0.446384   -1.026217    0.202246
  H      3.264764   -0.337168   -0.408291
  H      1.894901    1.240412    0.798884
  H      1.842877   -0.446236    1.347719
  H     -0.548601    2.226247   -0.064386
  H     -2.952138    0.969176   -0.441152
  H     -2.378300   -1.687460   -0.135014

 Total Charge           Charge          ....    0
 Multiplicity           Mult            ....    1
 Number of Electrons    NEL             ....   52
 Basis Dimension        Dim             ....  460

ORBITAL ENERGIES
----------------

  NO   OCC          E(Eh)            E(eV)
   0   2.0000     -20.619593      -561.0877
   1   2.0000     -20.564112      -559.5779
   2   2.0000     -11.294595      -307.3416
   3   2.0000     -11.287878      -307.1588
   4   2.0000     -11.286408      -307.1188
   5   2.0000     -11.229054      -305.5581
   6   2.0000     -11.227365      -305.5121
   7   2.0000      -1.456396       -39.6306
   8   2.0000      -1.361715       -37.0542
   9   2.0000      -1.085409       -29.5355
  10   2.0000      -1.039553       -28.2877
  11   2.0000      -0.921231       -25.0680
  12   2.0000      -0.809000       -22.0140
  13   2.0000      -0.763629       -20.7794
  14   2.0000      -0.719124       -19.5684
  15   2.0000      -0.700632       -19.0652
  16   2.0000      -0.639066       -17.3899
  17   2.0000      -0.626744       -17.0546
  18   2.0000      -0.598640       -16.2898
  19   2.0000      -0.573920       -15.6172
  20   2.0000      -0.562409       -15.3039
  21   2.0000      -0.543229       -14.7820
  22   2.0000      -0.513219       -13.9654
  23   2.0000      -0.459533       -12.5045
  24   2.0000      -0.396952       -10.8016
  25   2.0000      -0.316475        -8.6117
  26   0.0000       0.027726         0.7545
  27   0.0000       0.031849         0.8667
  28   0.0000       0.036920         1.0046
  29   0.0000       0.046263         1.2589
  30   0.0000       0.048522         1.3204

MULLIKEN ATOMIC CHARGES
-----------------------
   0 O :   -0.540301
   1 C :    0.022161
   2 C :    0.703534
   3 C :   -0.974327
   4 C :   -0.525126
   5 C :   -0.587347
   6 O :   -0.402923
   7 H :    0.146588
   8 H :    0.243129
   9 H :    0.293954
  10 H :    0.409393
  11 H :    0.486383
  12 H :    0.724881
Sum of atomic charges:   -0.0000000

LOEWDIN ATOMIC CHARGES
----------------------
   0 O :    0.802095
   1 C :    0.041374
   2 C :   -0.365651
   3 C :    0.193100
   4 C :    0.175312
   5 C :   -0.026168
   6 O :    0.580934
   7 H :   -0.499658
   8 H :   -0.165827
   9 H :   -0.160397
  10 H :   -0.184798
  11 H :   -0.197236
  12 H :   -0.193080

  Mayer bond orders larger than 0.100000
B(  0-O ,  1-C ) :   0.8547 B(  0-O ,  7-H ) :   1.0350 B(  1-C ,  2-C ) :   0.5661
B(  1-C ,  8-H ) :   1.0582 B(  1-C ,  9-H ) :   0.9706 B(  2-C ,  3-C ) :   1.3208
B(  2-C ,  6-O ) :   0.7704 B(  3-C ,  4-C ) :   1.2073 B(  3-C , 10-H ) :   1.0046
B(  4-C ,  5-C ) :   1.2237 B(  4-C ,  6-O ) :  -0.1383 B(  4-C , 11-H ) :   0.8762
B(  5-C ,  6-O ) :   1.1788 B(  5-C , 12-H ) :   0.4316

MP2 TOTAL ENERGY:     -343.943656335 Eh
FINAL SINGLE POINT ENERGY      -343.943656335401

DIPOLE MOMENT
-------------
                                X             Y             Z
Electronic contribution:     -0.97658      -1.60429      -0.51396
Nuclear contribution   :      1.14828       1.93709       1.08570
                        -----------------------------------------
Total Dipole Moment    :      0.17170       0.33281       0.57174
                        -----------------------------------------
Magnitude (a.u.)       :      0.68347
Magnitude (Debye)      :      1.73723

Rotational constants in cm-1:     0.236325     0.064196     0.055367
Rotational constants in MHz :  7084.853970  1924.551138  1659.865156

                             ****ORCA TERMINATED NORMALLY****
TOTAL RUN TIME: 0 days 0 hours 3 minutes 14 seconds 644 msec
