                         Program Version 5.0.3 -  RELEASE  -
|  1> !ri-mp2 aug-cc-pvtz aug-cc-pvtz/c tightscf
|  2> %pal nprocs 16 end
|  3> %maxcore 3800
|  4>
|  5> * xyz 0 1
|  6> C     -1.643780   -0.744140    1.267860
|  7> C     -2.416221    0.092866   -0.979081
|  8> C      1.568432   -1.626417   -0.343229
|  9> C      2.566669    0.643816   -0.042519
| 10> C     -0.183821    1.829717    0.314524
| 11> C     -1.228311   -0.457857   -0.180043
| 12> C      1.328673   -0.222989    0.228474
| 13> C      0.031928    0.441798   -0.307623
| 14> H     -2.484667   -1.439569    1.291217
| 15> H     -0.835389   -1.189503    1.848803
| 16> H     -1.961332    0.164639    1.782113
| 17> H     -2.136078    0.303073   -2.013245
| 18> H     -2.813834    1.012725   -0.547434
| 19> H     -3.231892   -0.632223   -0.997675
| 20> H      2.532205   -2.012895   -0.007877
| 21> H      0.808890   -2.343326   -0.035097
| 22> H      1.585518   -1.607030   -1.436276
| 23> H      2.520811    1.609052    0.458909
| 24> H      2.684972    0.828086   -1.113860
| 25> H      3.469540    0.139486    0.305210
| 26> H     -1.127132    2.269864   -0.006227
| 27> H      0.602929    2.524328    0.025850
| 28> H     -0.194597    1.779952    1.405178
| 29> H     -0.977247   -1.415409   -0.640316
| 30> H      1.230226   -0.318172    1.315434
| 31> H      0.185662    0.586165   -1.384882
| 32> *
| 33>
| 34>                          ****END OF INPUT****

CARTESIAN COORDINATES (ANGSTROEM)
---------------------------------
  C     -1.643780   -0.744140    1.267860
  C     -2.416221    0.092866   -0.979081
  C      1.568432   -1.626417   -0.343229
  C      2.566669    0.643816   -0.042519
  C     -0.183821    1.829717    0.314524
  C     -1.228311   -0.457857   -0.180043
  C      1.328673   -0.222989    0.228474
  C      0.031928    0.441798   -0.307623
  H     -2.484667   -1.439569    1.291217
  H     -0.835389   -1.189503    1.848803
  H     -1.961332    0.164639    1.782113
  H     -2.136078    0.303073   -2.013245
  H     -2.813834    1.012725   -0.547434
  H     -3.231892   -0.632223   -0.997675
  H      2.532205   -2.012895   -0.007877
  H      0.808890   -2.343326   -0.035097
  H      1.585518   -1.607030   -1.436276
  H      2.520811    1.609052    0.458909
  H      2.684972    0.828086   -1.113860
  H      3.469540    0.139486    0.305210
  H     -1.127132    2.269864   -0.006227
  H      0.602929    2.524328    0.025850
  H     -0.194597    1.779952    1.405178
  H     -0.977247   -1.415409   -0.640316
  H      1.230226   -0.318172    1.315434
  H      0.185662    0.586165   -1.384882

 Total Charge           Charge          ....    0
 Multiplicity           Mult            ....    1
 Number of Electrons    NEL             ....   66
 Basis Dimension        Dim             ....  782

ORBITAL ENERGIES
----------------

  NO   OCC          E(Eh)            E(eV)
   0   2.0000     -11.221445      -305.3510
   1   2.0000     -11.219812      -305.3066
   2   2.0000     -11.219228      -305.2907
   3   2.0000     -11.206618      -304.9476
   4   2.0000     -11.206196      -304.9361
   5   2.0000     -11.206114      -304.9339
   6   2.0000     -11.206030      -304.9316
   7   2.0000     -11.204390      -304.8870
   8   2.0000      -1.109682       -30.1960
   9   2.0000      -1.045450       -28.4481
  10   2.0000      -0.977685       -26.6041
  11   2.0000      -0.925815       -25.1927
  12   2.0000      -0.922903       -25.1135
  13   2.0000      -0.864252       -23.5175
  14   2.0000      -0.790475       -21.5099
  15   2.0000      -0.728869       -19.8335
  16   2.0000      -0.645270       -17.5587
  17   2.0000      -0.618416       -16.8279
  18   2.0000      -0.601087       -16.3564
  19   2.0000      -0.590230       -16.0610
  20   2.0000      -0.563716       -15.3395
  21   2.0000      -0.553701       -15.0670
  22   2.0000      -0.543330       -14.7848
  23   2.0000      -0.532093       -14.4790
  24   2.0000      -0.525977       -14.3126
  25   2.0000      -0.514821       -14.0090
  26   2.0000      -0.500344       -13.6151
  27   2.0000      -0.486315       -13.2333
  28   2.0000      -0.477668       -12.9980
  29   2.0000      -0.465944       -12.6790
  30   2.0000      -0.442067       -12.0293
  31   2.0000      -0.429509       -11.6875
  32   2.0000      -0.424297       -11.5457
  33   0.0000       0.029717         0.8086
  34   0.0000       0.033838         0.9208
  35   0.0000       0.034283         0.9329
  36   0.0000       0.036460         0.9921
  37   0.0000       0.048966         1.3324

MULLIKEN ATOMIC CHARGES
-----------------------
   0 C :   -1.200041
   1 C :   -1.291915
   2 C :   -1.183815
   3 C :   -1.244765
   4 C :   -1.238587
   5 C :    0.441643
   6 C :    0.468931
   7 C :    0.619830
   8 H :    0.200949
   9 H :    0.324189
  10 H :    0.249299
  11 H :    0.223231
  12 H :    0.309505
  13 H :    0.223238
  14 H :    0.229387
  15 H :    0.288555
  16 H :    0.223843
  17 H :    0.275059
  18 H :    0.248183
  19 H :    0.222175
  20 H :    0.301226
  21 H :    0.212493
  22 H :    0.231660
  23 H :    0.234167
  24 H :    0.260420
  25 H :    0.371140
Sum of atomic charges:   -0.0000000

LOEWDIN ATOMIC CHARGES
----------------------
   0 C :    0.594515
   1 C :    0.592804
   2 C :    0.592079
   3 C :    0.590796
   4 C :    0.597019
   5 C :   -0.023615
   6 C :   -0.024038
   7 C :    0.014839
   8 H :   -0.160627
   9 H :   -0.168295
  10 H :   -0.164473
  11 H :   -0.158010
  12 H :   -0.175467
  13 H :   -0.162251
  14 H :   -0.165374
  15 H :   -0.177868
  16 H :   -0.149427
  17 H :   -0.180275
  18 H :   -0.152606
  19 H :   -0.166371
  20 H :   -0.175791
  21 H :   -0.176532
  22 H :   -0.155923
  23 H :   -0.166860
  24 H :   -0.142176
  25 H :   -0.136073

  Mayer bond orders larger than 0.100000
B(  0-C ,  1-C ) :   0.1405 B(  0-C ,  5-C ) :   0.5585 B(  0-C ,  7-C ) :   0.1719
B(  0-C ,  8-H ) :   1.0907 B(  0-C ,  9-H ) :   0.9475 B(  0-C , 10-H ) :   1.0194
B(  1-C ,  5-C ) :   0.4769 B(  1-C , 11-H ) :   1.0741 B(  1-C , 12-H ) :   0.9919
B(  1-C , 13-H ) :   1.1131 B(  2-C ,  3-C ) :   0.1389 B(  2-C ,  6-C ) :   0.5144
B(  2-C , 14-H ) :   1.0650 B(  2-C , 15-H ) :   0.9910 B(  2-C , 16-H ) :   1.0578
B(  3-C ,  6-C ) :   0.4699 B(  3-C , 17-H ) :   0.9921 B(  3-C , 18-H ) :   1.0581
B(  3-C , 19-H ) :   1.0914 B(  4-C ,  7-C ) :   0.5173 B(  4-C , 20-H ) :   0.9754
B(  4-C , 21-H ) :   1.0581 B(  4-C , 22-H ) :   1.0898 B(  5-C ,  6-C ) :   0.1157
B(  5-C ,  7-C ) :   1.0486 B(  5-C , 23-H ) :   0.9393 B(  6-C ,  7-C ) :   1.0013
B(  6-C , 24-H ) :   0.9273 B(  7-C , 25-H ) :   0.7629

MP2 TOTAL ENERGY:     -314.988682449 Eh
FINAL SINGLE POINT ENERGY      -314.988682448856

DIPOLE MOMENT
-------------
                                X             Y             Z
Electronic contribution:      0.16404      -0.31573      -0.27119
Nuclear contribution   :     -0.15345       0.28130       0.27108
                        -----------------------------------------
Total Dipole Moment    :      0.01059      -0.03443      -0.00011
                        -----------------------------------------
Magnitude (a.u.)       :      0.03602
Magnitude (Debye)      :      0.09155

Rotational constants in cm-1:     0.090583     0.043945     0.037325
Rotational constants in MHz :  2715.596917  1317.425097  1118.973464

                             ****ORCA TERMINATED NORMALLY****
TOTAL RUN TIME: 0 days 0 hours 16 minutes 52 seconds 956 msec
