                         Program Version 5.0.3 -  RELEASE  -
|  1> !ri-mp2 aug-cc-pvtz aug-cc-pvtz/c tightscf
|  2> %pal nprocs 16 end
|  3>
|  4> * xyz 0 1
|  5> O      3.378898   -1.121353    0.151039
|  6> O     -3.378897   -1.121355    0.151039
|  7> N      0.000000    0.726298   -0.101503
|  8> C      1.173373    0.061418   -0.031423
|  9> C     -1.173373    0.061419   -0.031423
| 10> C      2.234557   -0.498966   -0.039656
| 11> C     -2.234557   -0.498966   -0.039656
| 12> C      0.000000    2.188036    0.049856
| 13> H      3.788790   -1.339293   -0.695372
| 14> H     -3.788797   -1.339280   -0.695372
| 15> H     -0.000002    2.478463    1.103218
| 16> H      0.888064    2.590021   -0.432378
| 17> H     -0.888061    2.590022   -0.432382
| 18> *
| 19>
| 20>                          ****END OF INPUT****

CARTESIAN COORDINATES (ANGSTROEM)
---------------------------------
  O      3.378898   -1.121353    0.151039
  O     -3.378897   -1.121355    0.151039
  N      0.000000    0.726298   -0.101503
  C      1.173373    0.061418   -0.031423
  C     -1.173373    0.061419   -0.031423
  C      2.234557   -0.498966   -0.039656
  C     -2.234557   -0.498966   -0.039656
  C      0.000000    2.188036    0.049856
  H      3.788790   -1.339293   -0.695372
  H     -3.788797   -1.339280   -0.695372
  H     -0.000002    2.478463    1.103218
  H      0.888064    2.590021   -0.432378
  H     -0.888061    2.590022   -0.432382

 Total Charge           Charge          ....    0
 Multiplicity           Mult            ....    1
 Number of Electrons    NEL             ....   58
 Basis Dimension        Dim             ....  483

ORBITAL ENERGIES
----------------

  NO   OCC          E(Eh)            E(eV)
   0   2.0000     -20.626585      -561.2779
   1   2.0000     -20.626585      -561.2779
   2   2.0000     -15.620090      -425.0443
   3   2.0000     -11.278880      -306.9139
   4   2.0000     -11.278880      -306.9139
   5   2.0000     -11.269266      -306.6523
   6   2.0000     -11.253723      -306.2294
   7   2.0000     -11.253709      -306.2290
   8   2.0000      -1.434291       -39.0290
   9   2.0000      -1.434234       -39.0275
  10   2.0000      -1.284109       -34.9424
  11   2.0000      -1.028778       -27.9945
  12   2.0000      -1.009228       -27.4625
  13   2.0000      -0.942391       -25.6438
  14   2.0000      -0.828759       -22.5517
  15   2.0000      -0.795981       -21.6597
  16   2.0000      -0.767248       -20.8779
  17   2.0000      -0.670005       -18.2318
  18   2.0000      -0.658439       -17.9170
  19   2.0000      -0.657222       -17.8839
  20   2.0000      -0.633329       -17.2338
  21   2.0000      -0.608213       -16.5503
  22   2.0000      -0.605984       -16.4897
  23   2.0000      -0.570070       -15.5124
  24   2.0000      -0.513168       -13.9640
  25   2.0000      -0.397824       -10.8253
  26   2.0000      -0.382796       -10.4164
  27   2.0000      -0.361546        -9.8382
  28   2.0000      -0.307084        -8.3562
  29   0.0000       0.023828         0.6484
  30   0.0000       0.028293         0.7699
  31   0.0000       0.036135         0.9833
  32   0.0000       0.048345         1.3155
  33   0.0000       0.053065         1.4440

MULLIKEN ATOMIC CHARGES
-----------------------
   0 O :   -0.509453
   1 O :   -0.509453
   2 N :    1.149883
   3 C :    0.169631
   4 C :    0.169623
   5 C :   -0.596136
   6 C :   -0.596134
   7 C :   -0.792631
   8 H :    0.242140
   9 H :    0.242139
  10 H :    0.354523
  11 H :    0.337935
  12 H :    0.337935
Sum of atomic charges:    0.0000000

LOEWDIN ATOMIC CHARGES
----------------------
   0 O :    0.751430
   1 O :    0.751430
   2 N :    0.043661
   3 C :   -0.119652
   4 C :   -0.119652
   5 C :   -0.181300
   6 C :   -0.181299
   7 C :    0.495260
   8 H :   -0.474408
   9 H :   -0.474408
  10 H :   -0.153858
  11 H :   -0.168601
  12 H :   -0.168602

  Mayer bond orders larger than 0.100000
B(  0-O ,  5-C ) :   1.0095 B(  0-O ,  8-H ) :   0.9561 B(  1-O ,  6-C ) :   1.0095
B(  1-O ,  9-H ) :   0.9561 B(  2-N ,  3-C ) :   0.6616 B(  2-N ,  4-C ) :   0.6616
B(  2-N ,  5-C ) :  -0.7585 B(  2-N ,  6-C ) :  -0.7585 B(  2-N ,  7-C ) :   0.9062
B(  3-C ,  4-C ) :  -0.2589 B(  3-C ,  5-C ) :   2.4740 B(  3-C ,  6-C ) :   0.1039
B(  4-C ,  5-C ) :   0.1040 B(  4-C ,  6-C ) :   2.4740 B(  7-C , 10-H ) :   0.8976
B(  7-C , 11-H ) :   0.9092 B(  7-C , 12-H ) :   0.9092

MP2 TOTAL ENERGY:     -397.838273760 Eh
FINAL SINGLE POINT ENERGY      -397.838273760048

DIPOLE MOMENT
-------------
                                X             Y             Z
Electronic contribution:      0.00000      -4.53520       0.07226
Nuclear contribution   :     -0.00001       4.85210      -1.12568
                        -----------------------------------------
Total Dipole Moment    :     -0.00000       0.31690      -1.05342
                        -----------------------------------------
Magnitude (a.u.)       :      1.10005
Magnitude (Debye)      :      2.79611

Rotational constants in cm-1:     0.122294     0.030519     0.024674
Rotational constants in MHz :  3666.296851   914.941116   739.699669

                             ****ORCA TERMINATED NORMALLY****
TOTAL RUN TIME: 0 days 0 hours 3 minutes 10 seconds 961 msec
