                         Program Version 5.0.3 -  RELEASE  -
|  1> !ri-mp2 aug-cc-pvtz aug-cc-pvtz/c tightscf
|  2> %pal nprocs 16 end
|  3>
|  4> * xyz 0 1
|  5> O      1.035246   -0.245795    0.000000
|  6> C      0.000000    0.646987    0.000000
|  7> C      0.492364   -1.497390    0.000000
|  8> C     -1.179136   -0.026476    0.000000
|  9> C     -0.858244   -1.422573    0.000000
| 10> C      0.358496    2.086650    0.000000
| 11> H      1.190884   -2.314077    0.000000
| 12> H     -2.160525    0.415739    0.000000
| 13> H     -1.544479   -2.251632    0.000000
| 14> H     -0.545250    2.693073    0.000000
| 15> H      0.948262    2.350033    0.880725
| 16> H      0.948262    2.350033   -0.880725
| 17> *
| 18>
| 19>                          ****END OF INPUT****

CARTESIAN COORDINATES (ANGSTROEM)
---------------------------------
  O      1.035246   -0.245795    0.000000
  C      0.000000    0.646987    0.000000
  C      0.492364   -1.497390    0.000000
  C     -1.179136   -0.026476    0.000000
  C     -0.858244   -1.422573    0.000000
  C      0.358496    2.086650    0.000000
  H      1.190884   -2.314077    0.000000
  H     -2.160525    0.415739    0.000000
  H     -1.544479   -2.251632    0.000000
  H     -0.545250    2.693073    0.000000
  H      0.948262    2.350033    0.880725
  H      0.948262    2.350033   -0.880725

 Total Charge           Charge          ....    0
 Multiplicity           Mult            ....    1
 Number of Electrons    NEL             ....   44
 Basis Dimension        Dim             ....  414

ORBITAL ENERGIES
----------------

  NO   OCC          E(Eh)            E(eV)
   0   2.0000     -20.615515      -560.9767
   1   2.0000     -11.290121      -307.2198
   2   2.0000     -11.280177      -306.9492
   3   2.0000     -11.233384      -305.6759
   4   2.0000     -11.225029      -305.4486
   5   2.0000     -11.219932      -305.3099
   6   2.0000      -1.451348       -39.4932
   7   2.0000      -1.080840       -29.4112
   8   2.0000      -1.046454       -28.4755
   9   2.0000      -0.931917       -25.3587
  10   2.0000      -0.803596       -21.8670
  11   2.0000      -0.759134       -20.6571
  12   2.0000      -0.708173       -19.2704
  13   2.0000      -0.639983       -17.4148
  14   2.0000      -0.605715       -16.4823
  15   2.0000      -0.564317       -15.3558
  16   2.0000      -0.561782       -15.2869
  17   2.0000      -0.558567       -15.1994
  18   2.0000      -0.554098       -15.0778
  19   2.0000      -0.521749       -14.1975
  20   2.0000      -0.393881       -10.7181
  21   2.0000      -0.307550        -8.3689
  22   0.0000       0.029959         0.8152
  23   0.0000       0.033081         0.9002
  24   0.0000       0.037272         1.0142
  25   0.0000       0.048268         1.3134
  26   0.0000       0.049428         1.3450

MULLIKEN ATOMIC CHARGES
-----------------------
   0 O :   -0.401170
   1 C :    0.748391
   2 C :   -0.611516
   3 C :   -0.935768
   4 C :   -0.475750
   5 C :   -0.744960
   6 H :    0.715256
   7 H :    0.377552
   8 H :    0.491012
   9 H :    0.269014
  10 H :    0.283970
  11 H :    0.283970
Sum of atomic charges:    0.0000000

LOEWDIN ATOMIC CHARGES
----------------------
   0 O :    0.573901
   1 C :   -0.370844
   2 C :   -0.031673
   3 C :    0.186000
   4 C :    0.165460
   5 C :    0.584962
   6 H :   -0.197563
   7 H :   -0.191380
   8 H :   -0.197598
   9 H :   -0.178694
  10 H :   -0.171286
  11 H :   -0.171286

  Mayer bond orders larger than 0.100000
B(  0-O ,  1-C ) :   0.8589 B(  0-O ,  2-C ) :   1.1398 B(  0-O ,  4-C ) :  -0.1200
B(  1-C ,  3-C ) :   1.3261 B(  1-C ,  5-C ) :   0.5750 B(  2-C ,  4-C ) :   1.2408
B(  2-C ,  6-H ) :   0.4505 B(  3-C ,  4-C ) :   1.1921 B(  3-C ,  7-H ) :   1.0453
B(  4-C ,  8-H ) :   0.8728 B(  5-C ,  9-H ) :   1.0162 B(  5-C , 10-H ) :   0.9801
B(  5-C , 11-H ) :   0.9801

MP2 TOTAL ENERGY:     -268.825680835 Eh
FINAL SINGLE POINT ENERGY      -268.825680834645

DIPOLE MOMENT
-------------
                                X             Y             Z
Electronic contribution:      0.91364      -3.10321       0.00000
Nuclear contribution   :     -1.15397       3.26033       0.00000
                        -----------------------------------------
Total Dipole Moment    :     -0.24033       0.15712       0.00000
                        -----------------------------------------
Magnitude (a.u.)       :      0.28714
Magnitude (Debye)      :      0.72984

Rotational constants in cm-1:     0.295760     0.118339     0.085867
Rotational constants in MHz :  8866.672580  3547.702245  2574.227927

                             ****ORCA TERMINATED NORMALLY****
TOTAL RUN TIME: 0 days 0 hours 2 minutes 20 seconds 458 msec
