                         Program Version 5.0.3 -  RELEASE  -
|  1> !ri-mp2 aug-cc-pvtz aug-cc-pvtz/c tightscf
|  2> %pal nprocs 16 end
|  3>
|  4> * xyz 0 1
|  5> O    -1.386694   -0.955842   -0.030927
|  6> O     1.673838   -1.363612    1.177598
|  7> O     1.760784   -1.318632   -1.074923
|  8> O     2.466034    1.540093   -0.013587
|  9> N     1.079600    1.577817   -0.028311
| 10> N    -2.776900   -0.886607   -0.040218
| 11> C    -0.883578    0.294634    0.005329
| 12> C     0.564807    0.409695    0.011606
| 13> C     1.394065   -0.855428    0.129539
| 14> C    -1.901139    1.199961    0.020623
| 15> C    -3.059097    0.390299   -0.009356
| 16> H     2.283422   -2.124288   -0.935669
| 17> H     2.715908    2.470145   -0.038919
| 18> H    -1.826555    2.270621    0.050855
| 19> H    -4.093711    0.694019   -0.008296
| 20> *
| 21>
| 22>                          ****END OF INPUT****

CARTESIAN COORDINATES (ANGSTROEM)
---------------------------------
  O     -1.386694   -0.955842   -0.030927
  O      1.673838   -1.363612    1.177598
  O      1.760784   -1.318632   -1.074923
  O      2.466034    1.540093   -0.013587
  N      1.079600    1.577817   -0.028311
  N     -2.776900   -0.886607   -0.040218
  C     -0.883578    0.294634    0.005329
  C      0.564807    0.409695    0.011606
  C      1.394065   -0.855428    0.129539
  C     -1.901139    1.199961    0.020623
  C     -3.059097    0.390299   -0.009356
  H      2.283422   -2.124288   -0.935669
  H      2.715908    2.470145   -0.038919
  H     -1.826555    2.270621    0.050855
  H     -4.093711    0.694019   -0.008296

 Total Charge           Charge          ....    0
 Multiplicity           Mult            ....    1
 Number of Electrons    NEL             ....   80
 Basis Dimension        Dim             ....  598

ORBITAL ENERGIES
----------------

  NO   OCC          E(Eh)            E(eV)
   0   2.0000     -20.664375      -562.3062
   1   2.0000     -20.637835      -561.5840
   2   2.0000     -20.634837      -561.5025
   3   2.0000     -20.575309      -559.8826
   4   2.0000     -15.674068      -426.5131
   5   2.0000     -15.640026      -425.5867
   6   2.0000     -11.419292      -310.7347
   7   2.0000     -11.343869      -308.6824
   8   2.0000     -11.332615      -308.3761
   9   2.0000     -11.294512      -307.3393
  10   2.0000     -11.258033      -306.3467
  11   2.0000      -1.513983       -41.1976
  12   2.0000      -1.492180       -40.6043
  13   2.0000      -1.468259       -39.9533
  14   2.0000      -1.389847       -37.8197
  15   2.0000      -1.220029       -33.1987
  16   2.0000      -1.180939       -32.1350
  17   2.0000      -1.088602       -29.6224
  18   2.0000      -0.963615       -26.2213
  19   2.0000      -0.877969       -23.8907
  20   2.0000      -0.842349       -22.9215
  21   2.0000      -0.796276       -21.6678
  22   2.0000      -0.768279       -20.9059
  23   2.0000      -0.725761       -19.7490
  24   2.0000      -0.721954       -19.6454
  25   2.0000      -0.709826       -19.3153
  26   2.0000      -0.678427       -18.4609
  27   2.0000      -0.649226       -17.6663
  28   2.0000      -0.634189       -17.2572
  29   2.0000      -0.631774       -17.1914
  30   2.0000      -0.629081       -17.1182
  31   2.0000      -0.597935       -16.2706
  32   2.0000      -0.584241       -15.8980
  33   2.0000      -0.519741       -14.1429
  34   2.0000      -0.504258       -13.7215
  35   2.0000      -0.495530       -13.4841
  36   2.0000      -0.473199       -12.8764
  37   2.0000      -0.458529       -12.4772
  38   2.0000      -0.442653       -12.0452
  39   2.0000      -0.359692        -9.7877
  40   0.0000       0.022612         0.6153
  41   0.0000       0.029976         0.8157
  42   0.0000       0.034400         0.9361
  43   0.0000       0.044615         1.2140
  44   0.0000       0.052614         1.4317

MULLIKEN ATOMIC CHARGES
-----------------------
   0 O :   -0.376513
   1 O :   -0.767256
   2 O :   -0.472652
   3 O :   -0.339324
   4 N :   -0.474086
   5 N :   -0.579040
   6 C :    0.739802
   7 C :    0.864674
   8 C :    0.796719
   9 C :   -0.650574
  10 C :   -0.329789
  11 H :    0.231599
  12 H :    0.174098
  13 H :    0.491500
  14 H :    0.690844
Sum of atomic charges:   -0.0000000

LOEWDIN ATOMIC CHARGES
----------------------
   0 O :    0.426773
   1 O :    0.464039
   2 O :    0.837915
   3 O :    0.675053
   4 N :    0.175806
   5 N :    0.174794
   6 C :   -0.447060
   7 C :   -0.327954
   8 C :   -0.823144
   9 C :    0.213485
  10 C :   -0.035326
  11 H :   -0.452896
  12 H :   -0.507409
  13 H :   -0.184719
  14 H :   -0.189358

  Mayer bond orders larger than 0.100000
B(  0-O ,  5-N ) :   0.6751 B(  0-O ,  6-C ) :   0.9719 B(  0-O , 10-C ) :   0.1129
B(  1-O ,  7-C ) :  -0.1849 B(  1-O ,  8-C ) :   1.5047 B(  2-O ,  7-C ) :  -0.1833
B(  2-O ,  8-C ) :   1.0894 B(  2-O , 11-H ) :   0.9536 B(  3-O ,  4-N ) :   0.8428
B(  3-O , 12-H ) :   1.0124 B(  4-N ,  6-C ) :  -0.2739 B(  4-N ,  7-C ) :   1.5653
B(  4-N ,  8-C ) :  -0.1048 B(  5-N ,  6-C ) :  -0.1440 B(  5-N , 10-C ) :   1.1610
B(  6-C ,  7-C ) :   0.9465 B(  6-C ,  9-C ) :   1.0569 B(  7-C ,  8-C ) :   0.5479
B(  7-C ,  9-C ) :   0.1106 B(  9-C , 10-C ) :   0.9061 B(  9-C , 13-H ) :   0.8554
B( 10-C , 14-H ) :   0.4950

MP2 TOTAL ENERGY:     -602.267602746 Eh
FINAL SINGLE POINT ENERGY      -602.267602745658

DIPOLE MOMENT
-------------
                                X             Y             Z
Electronic contribution:      1.00564      -1.78855       0.30071
Nuclear contribution   :     -0.82751       3.15848      -0.89660
                        -----------------------------------------
Total Dipole Moment    :      0.17813       1.36993      -0.59589
                        -----------------------------------------
Magnitude (a.u.)       :      1.50450
Magnitude (Debye)      :      3.82414

Rotational constants in cm-1:     0.068797     0.027456     0.021739
Rotational constants in MHz :  2062.472089   823.108494   651.713989

                             ****ORCA TERMINATED NORMALLY****
TOTAL RUN TIME: 0 days 0 hours 7 minutes 9 seconds 588 msec
