                         Program Version 5.0.3 -  RELEASE  -
|  1> !ri-mp2 aug-cc-pvtz aug-cc-pvtz/c tightscf
|  2> %pal nprocs 16 end
|  3>
|  4> * xyz 0 1
|  5> C     0.671348     0.000000    0.000000
|  6> C    -0.671348     0.000000    0.000000
|  7> C     1.522644     1.246022    0.000000
|  8> C     1.522644    -1.246022    0.000000
|  9> C    -1.522644    -1.246022    0.000000
| 10> C    -1.522644     1.246022    0.000000
| 11> H     2.179680     1.256485    0.874962
| 12> H     2.179680     1.256485   -0.874962
| 13> H     0.958985     2.173276    0.000000
| 14> H     2.179680    -1.256485    0.874962
| 15> H     0.958985    -2.173276    0.000000
| 16> H     2.179680    -1.256485   -0.874962
| 17> H    -2.179680    -1.256485   -0.874962
| 18> H    -2.179680    -1.256485    0.874962
| 19> H    -0.958985    -2.173276    0.000000
| 20> H    -2.179680     1.256485   -0.874962
| 21> H    -2.179680     1.256485    0.874962
| 22> H    -0.958985     2.173276    0.000000
| 23> *
| 24>
| 25>                          ****END OF INPUT****

CARTESIAN COORDINATES (ANGSTROEM)
---------------------------------
  C      0.671348    0.000000    0.000000
  C     -0.671348    0.000000    0.000000
  C      1.522644    1.246022    0.000000
  C      1.522644   -1.246022    0.000000
  C     -1.522644   -1.246022    0.000000
  C     -1.522644    1.246022    0.000000
  H      2.179680    1.256485    0.874962
  H      2.179680    1.256485   -0.874962
  H      0.958985    2.173276    0.000000
  H      2.179680   -1.256485    0.874962
  H      0.958985   -2.173276    0.000000
  H      2.179680   -1.256485   -0.874962
  H     -2.179680   -1.256485   -0.874962
  H     -2.179680   -1.256485    0.874962
  H     -0.958985   -2.173276    0.000000
  H     -2.179680    1.256485   -0.874962
  H     -2.179680    1.256485    0.874962
  H     -0.958985    2.173276    0.000000

 Total Charge           Charge          ....    0
 Multiplicity           Mult            ....    1
 Number of Electrons    NEL             ....   48
 Basis Dimension        Dim             ....  552

ORBITAL ENERGIES
----------------

  NO   OCC          E(Eh)            E(eV)
   0   2.0000     -11.224368      -305.4306
   1   2.0000     -11.222734      -305.3861
   2   2.0000     -11.211623      -305.0838
   3   2.0000     -11.211612      -305.0835
   4   2.0000     -11.211588      -305.0828
   5   2.0000     -11.211585      -305.0827
   6   2.0000      -1.103693       -30.0330
   7   2.0000      -1.010519       -27.4976
   8   2.0000      -0.946375       -25.7522
   9   2.0000      -0.914795       -24.8928
  10   2.0000      -0.854044       -23.2397
  11   2.0000      -0.672336       -18.2952
  12   2.0000      -0.638768       -17.3818
  13   2.0000      -0.598114       -16.2755
  14   2.0000      -0.595882       -16.2148
  15   2.0000      -0.569253       -15.4902
  16   2.0000      -0.534056       -14.5324
  17   2.0000      -0.528871       -14.3913
  18   2.0000      -0.524369       -14.2688
  19   2.0000      -0.521364       -14.1870
  20   2.0000      -0.507961       -13.8223
  21   2.0000      -0.498608       -13.5678
  22   2.0000      -0.450368       -12.2551
  23   2.0000      -0.320830        -8.7302
  24   0.0000       0.031095         0.8461
  25   0.0000       0.034157         0.9295
  26   0.0000       0.036271         0.9870
  27   0.0000       0.043312         1.1786
  28   0.0000       0.046646         1.2693

MULLIKEN ATOMIC CHARGES
-----------------------
   0 C :    0.799582
   1 C :    0.799582
   2 C :   -1.209978
   3 C :   -1.209978
   4 C :   -1.209978
   5 C :   -1.209978
   6 H :    0.219851
   7 H :    0.219851
   8 H :    0.370484
   9 H :    0.219851
  10 H :    0.370484
  11 H :    0.219851
  12 H :    0.219851
  13 H :    0.219851
  14 H :    0.370484
  15 H :    0.219851
  16 H :    0.219851
  17 H :    0.370484
Sum of atomic charges:   -0.0000000

LOEWDIN ATOMIC CHARGES
----------------------
   0 C :   -0.075040
   1 C :   -0.075040
   2 C :    0.571218
   3 C :    0.571218
   4 C :    0.571218
   5 C :    0.571218
   6 H :   -0.162938
   7 H :   -0.162938
   8 H :   -0.207822
   9 H :   -0.162938
  10 H :   -0.207822
  11 H :   -0.162938
  12 H :   -0.162938
  13 H :   -0.162938
  14 H :   -0.207822
  15 H :   -0.162938
  16 H :   -0.162938
  17 H :   -0.207822

  Mayer bond orders larger than 0.100000
B(  0-C ,  1-C ) :   1.0832 B(  0-C ,  2-C ) :   0.8525 B(  0-C ,  3-C ) :   0.8525
B(  0-C ,  4-C ) :  -0.2558 B(  0-C ,  5-C ) :  -0.2558 B(  1-C ,  2-C ) :  -0.2558
B(  1-C ,  3-C ) :  -0.2558 B(  1-C ,  4-C ) :   0.8525 B(  1-C ,  5-C ) :   0.8525
B(  2-C ,  6-H ) :   1.1158 B(  2-C ,  7-H ) :   1.1158 B(  2-C ,  8-H ) :   0.8478
B(  3-C ,  9-H ) :   1.1158 B(  3-C , 10-H ) :   0.8478 B(  3-C , 11-H ) :   1.1158
B(  4-C , 12-H ) :   1.1158 B(  4-C , 13-H ) :   1.1158 B(  4-C , 14-H ) :   0.8478
B(  5-C , 15-H ) :   1.1158 B(  5-C , 16-H ) :   1.1158 B(  5-C , 17-H ) :   0.8478

MP2 TOTAL ENERGY:     -235.317391407 Eh
FINAL SINGLE POINT ENERGY      -235.317391406836

DIPOLE MOMENT
-------------
                                X             Y             Z
Electronic contribution:      0.00000       0.00000      -0.00000
Nuclear contribution   :     -0.00000      -0.00000       0.00000
                        -----------------------------------------
Total Dipole Moment    :      0.00000       0.00000      -0.00000
                        -----------------------------------------
Magnitude (a.u.)       :      0.00000
Magnitude (Debye)      :      0.00000

Rotational constants in cm-1:     0.149793     0.098925     0.062297
Rotational constants in MHz :  4490.669048  2965.704948  1867.619666

                             ****ORCA TERMINATED NORMALLY****
TOTAL RUN TIME: 0 days 0 hours 5 minutes 18 seconds 562 msec
