                         Program Version 5.0.3 -  RELEASE  -
|  1> !ri-mp2 aug-cc-pvtz aug-cc-pvtz/c tightscf
|  2> %pal nprocs 16 end
|  3>
|  4> * xyz 0 1
|  5> C      1.757085   -1.091084   -0.817160
|  6> C      1.865711    1.150795    0.344263
|  7> C     -2.561944   -0.479494    0.222334
|  8> C     -0.108652   -0.438664    0.811498
|  9> C      1.383699   -0.300756    0.441026
| 10> C     -1.155311   -0.134494   -0.257223
| 11> O     -1.063482    1.259171   -0.592699
| 12> H      1.319591   -0.646459   -1.712763
| 13> H      1.420349   -2.128425   -0.757181
| 14> H      2.839293   -1.101666   -0.956361
| 15> H      1.631351    1.705127    1.254703
| 16> H      2.948329    1.182645    0.204223
| 17> H      1.395373    1.671994   -0.487552
| 18> H     -2.805836    0.079162    1.127243
| 19> H     -3.304011   -0.233062   -0.540810
| 20> H     -2.651586   -1.545510    0.436884
| 21> H     -0.321008    0.193554    1.678818
| 22> H     -0.280510   -1.470795    1.130737
| 23> H      1.924875   -0.758063    1.276660
| 24> H     -0.937758   -0.728497   -1.152861
| 25> H     -1.754119    1.468806   -1.228574
| 26> *
| 27>
| 28>                          ****END OF INPUT****

CARTESIAN COORDINATES (ANGSTROEM)
---------------------------------
  C      1.757085   -1.091084   -0.817160
  C      1.865711    1.150795    0.344263
  C     -2.561944   -0.479494    0.222334
  C     -0.108652   -0.438664    0.811498
  C      1.383699   -0.300756    0.441026
  C     -1.155311   -0.134494   -0.257223
  O     -1.063482    1.259171   -0.592699
  H      1.319591   -0.646459   -1.712763
  H      1.420349   -2.128425   -0.757181
  H      2.839293   -1.101666   -0.956361
  H      1.631351    1.705127    1.254703
  H      2.948329    1.182645    0.204223
  H      1.395373    1.671994   -0.487552
  H     -2.805836    0.079162    1.127243
  H     -3.304011   -0.233062   -0.540810
  H     -2.651586   -1.545510    0.436884
  H     -0.321008    0.193554    1.678818
  H     -0.280510   -1.470795    1.130737
  H      1.924875   -0.758063    1.276660
  H     -0.937758   -0.728497   -1.152861
  H     -1.754119    1.468806   -1.228574

 Total Charge           Charge          ....    0
 Multiplicity           Mult            ....    1
 Number of Electrons    NEL             ....   58
 Basis Dimension        Dim             ....  644

ORBITAL ENERGIES
----------------

  NO   OCC          E(Eh)            E(eV)
   0   2.0000     -20.551594      -559.2373
   1   2.0000     -11.277494      -306.8762
   2   2.0000     -11.220071      -305.3137
   3   2.0000     -11.216855      -305.2261
   4   2.0000     -11.213616      -305.1380
   5   2.0000     -11.205303      -304.9118
   6   2.0000     -11.194242      -304.6108
   7   2.0000      -1.353766       -36.8378
   8   2.0000      -1.083960       -29.4961
   9   2.0000      -1.021928       -27.8081
  10   2.0000      -0.927283       -25.2327
  11   2.0000      -0.919009       -25.0075
  12   2.0000      -0.821319       -22.3492
  13   2.0000      -0.746111       -20.3027
  14   2.0000      -0.693094       -18.8600
  15   2.0000      -0.638561       -17.3761
  16   2.0000      -0.604448       -16.4479
  17   2.0000      -0.598716       -16.2919
  18   2.0000      -0.573269       -15.5994
  19   2.0000      -0.561319       -15.2743
  20   2.0000      -0.541268       -14.7287
  21   2.0000      -0.524337       -14.2679
  22   2.0000      -0.517886       -14.0924
  23   2.0000      -0.508249       -13.8302
  24   2.0000      -0.494436       -13.4543
  25   2.0000      -0.458851       -12.4860
  26   2.0000      -0.454482       -12.3671
  27   2.0000      -0.435419       -11.8483
  28   2.0000      -0.429158       -11.6780
  29   0.0000       0.027942         0.7603
  30   0.0000       0.033652         0.9157
  31   0.0000       0.036370         0.9897
  32   0.0000       0.038965         1.0603
  33   0.0000       0.050326         1.3695

MULLIKEN ATOMIC CHARGES
-----------------------
   0 C :   -1.063507
   1 C :   -1.086309
   2 C :   -1.106166
   3 C :   -0.466134
   4 C :    0.219102
   5 C :    0.534143
   6 O :   -0.655035
   7 H :    0.284349
   8 H :    0.255004
   9 H :    0.227858
  10 H :    0.252011
  11 H :    0.254677
  12 H :    0.329488
  13 H :    0.252655
  14 H :    0.271373
  15 H :    0.260777
  16 H :    0.293619
  17 H :    0.262482
  18 H :    0.347564
  19 H :    0.247102
  20 H :    0.084946
Sum of atomic charges:    0.0000000

LOEWDIN ATOMIC CHARGES
----------------------
   0 C :    0.580623
   1 C :    0.582940
   2 C :    0.593196
   3 C :    0.293421
   4 C :   -0.038084
   5 C :   -0.269087
   6 O :    0.837361
   7 H :   -0.169962
   8 H :   -0.160655
   9 H :   -0.164849
  10 H :   -0.163747
  11 H :   -0.167698
  12 H :   -0.188012
  13 H :   -0.163180
  14 H :   -0.171160
  15 H :   -0.166400
  16 H :   -0.141292
  17 H :   -0.147139
  18 H :   -0.139043
  19 H :   -0.150130
  20 H :   -0.487103

  Mayer bond orders larger than 0.100000
B(  0-C ,  1-C ) :   0.1802 B(  0-C ,  4-C ) :   0.7190 B(  0-C ,  7-H ) :   0.9651
B(  0-C ,  8-H ) :   0.9858 B(  0-C ,  9-H ) :   1.0409 B(  1-C ,  4-C ) :   0.7365
B(  1-C , 10-H ) :   0.9955 B(  1-C , 11-H ) :   1.0118 B(  1-C , 12-H ) :   0.9278
B(  2-C ,  5-C ) :   0.7384 B(  2-C , 13-H ) :   1.0081 B(  2-C , 14-H ) :   1.0017
B(  2-C , 15-H ) :   0.9888 B(  3-C ,  4-C ) :   0.8995 B(  3-C ,  5-C ) :   0.8725
B(  3-C , 16-H ) :   0.9331 B(  3-C , 17-H ) :   0.9420 B(  4-C , 18-H ) :   0.8508
B(  5-C ,  6-O ) :   0.5309 B(  5-C , 19-H ) :   0.9939 B(  6-O , 20-H ) :   1.0733

MP2 TOTAL ENERGY:     -311.663502520 Eh
FINAL SINGLE POINT ENERGY      -311.663502519901

DIPOLE MOMENT
-------------
                                X             Y             Z
Electronic contribution:     -1.96800       1.99941      -0.47487
Nuclear contribution   :      1.50057      -2.44274       0.28125
                        -----------------------------------------
Total Dipole Moment    :     -0.46743      -0.44333      -0.19362
                        -----------------------------------------
Magnitude (a.u.)       :      0.67269
Magnitude (Debye)      :      1.70985

Rotational constants in cm-1:     0.133155     0.053071     0.047149
Rotational constants in MHz :  3991.885975  1591.027165  1413.477433

                             ****ORCA TERMINATED NORMALLY****
TOTAL RUN TIME: 0 days 0 hours 8 minutes 46 seconds 991 msec
