                         Program Version 5.0.3 -  RELEASE  -
|  1> !ri-mp2 aug-cc-pvtz aug-cc-pvtz/c tightscf
|  2> %pal nprocs 16 end
|  3>
|  4> * xyz 0 1
|  5> C      0.000000    0.764255   -1.297167
|  6> C      0.000000   -0.764255   -1.297167
|  7> C     -0.468541    1.090526    0.123716
|  8> C      0.468541   -1.090526    0.123716
|  9> C      0.032579    2.405081    0.690505
| 10> C     -0.032579   -2.405081    0.690505
| 11> O      0.000000    0.000000    0.938605
| 12> H      1.011237    1.147828   -1.454012
| 13> H     -0.646734    1.200592   -2.057687
| 14> H     -1.011237   -1.147828   -1.454012
| 15> H      0.646734   -1.200592   -2.057687
| 16> H     -1.565793    1.083362    0.154246
| 17> H      1.565793   -1.083362    0.154246
| 18> H     -0.297960    2.529471    1.721560
| 19> H      1.122913    2.439253    0.673182
| 20> H     -0.351842    3.243340    0.105964
| 21> H     -1.122913   -2.439253    0.673182
| 22> H      0.351842   -3.243340    0.105964
| 23> H      0.297960   -2.529471    1.721560
| 24> *
| 25>
| 26>                          ****END OF INPUT****

CARTESIAN COORDINATES (ANGSTROEM)
---------------------------------
  C      0.000000    0.764255   -1.297167
  C      0.000000   -0.764255   -1.297167
  C     -0.468541    1.090526    0.123716
  C      0.468541   -1.090526    0.123716
  C      0.032579    2.405081    0.690505
  C     -0.032579   -2.405081    0.690505
  O      0.000000    0.000000    0.938605
  H      1.011237    1.147828   -1.454012
  H     -0.646734    1.200592   -2.057687
  H     -1.011237   -1.147828   -1.454012
  H      0.646734   -1.200592   -2.057687
  H     -1.565793    1.083362    0.154246
  H      1.565793   -1.083362    0.154246
  H     -0.297960    2.529471    1.721560
  H      1.122913    2.439253    0.673182
  H     -0.351842    3.243340    0.105964
  H     -1.122913   -2.439253    0.673182
  H      0.351842   -3.243340    0.105964
  H      0.297960   -2.529471    1.721560

 Total Charge           Charge          ....    0
 Multiplicity           Mult            ....    1
 Number of Electrons    NEL             ....   56
 Basis Dimension        Dim             ....  598

ORBITAL ENERGIES
----------------

  NO   OCC          E(Eh)            E(eV)
   0   2.0000     -20.538257      -558.8744
   1   2.0000     -11.272309      -306.7351
   2   2.0000     -11.272288      -306.7346
   3   2.0000     -11.221729      -305.3588
   4   2.0000     -11.221113      -305.3420
   5   2.0000     -11.209252      -305.0193
   6   2.0000     -11.209252      -305.0192
   7   2.0000      -1.359794       -37.0019
   8   2.0000      -1.061608       -28.8878
   9   2.0000      -1.048517       -28.5316
  10   2.0000      -0.965031       -26.2598
  11   2.0000      -0.875991       -23.8369
  12   2.0000      -0.800466       -21.7818
  13   2.0000      -0.765427       -20.8283
  14   2.0000      -0.681288       -18.5388
  15   2.0000      -0.656847       -17.8737
  16   2.0000      -0.592295       -16.1172
  17   2.0000      -0.588499       -16.0139
  18   2.0000      -0.579885       -15.7795
  19   2.0000      -0.554030       -15.0759
  20   2.0000      -0.541482       -14.7345
  21   2.0000      -0.518965       -14.1218
  22   2.0000      -0.505389       -13.7523
  23   2.0000      -0.491326       -13.3697
  24   2.0000      -0.470710       -12.8087
  25   2.0000      -0.467984       -12.7345
  26   2.0000      -0.450806       -12.2671
  27   2.0000      -0.399775       -10.8784
  28   0.0000       0.029517         0.8032
  29   0.0000       0.034456         0.9376
  30   0.0000       0.036553         0.9947
  31   0.0000       0.038468         1.0468
  32   0.0000       0.051075         1.3898

MULLIKEN ATOMIC CHARGES
-----------------------
   0 C :   -0.603913
   1 C :   -0.603914
   2 C :    0.336211
   3 C :    0.336211
   4 C :   -1.049121
   5 C :   -1.049121
   6 O :   -0.838398
   7 H :    0.222494
   8 H :    0.345195
   9 H :    0.222494
  10 H :    0.345195
  11 H :    0.350128
  12 H :    0.350128
  13 H :    0.268596
  14 H :    0.267583
  15 H :    0.282026
  16 H :    0.267583
  17 H :    0.282026
  18 H :    0.268596
Sum of atomic charges:   -0.0000000

LOEWDIN ATOMIC CHARGES
----------------------
   0 C :    0.301230
   1 C :    0.301230
   2 C :   -0.269333
   3 C :   -0.269333
   4 C :    0.591142
   5 C :    0.591142
   6 O :    0.597993
   7 H :   -0.144015
   8 H :   -0.137727
   9 H :   -0.144015
  10 H :   -0.137727
  11 H :   -0.135039
  12 H :   -0.135039
  13 H :   -0.169555
  14 H :   -0.168731
  15 H :   -0.166970
  16 H :   -0.168731
  17 H :   -0.166970
  18 H :   -0.169555

  Mayer bond orders larger than 0.100000
B(  0-C ,  1-C ) :   1.0939 B(  0-C ,  2-C ) :   0.9031 B(  0-C ,  7-H ) :   0.9763
B(  0-C ,  8-H ) :   0.8888 B(  1-C ,  3-C ) :   0.9031 B(  1-C ,  9-H ) :   0.9763
B(  1-C , 10-H ) :   0.8888 B(  2-C ,  4-C ) :   0.7382 B(  2-C ,  6-O ) :   0.6799
B(  2-C , 11-H ) :   0.8986 B(  3-C ,  5-C ) :   0.7382 B(  3-C ,  6-O ) :   0.6799
B(  3-C , 12-H ) :   0.8986 B(  4-C , 13-H ) :   0.9928 B(  4-C , 14-H ) :   0.9819
B(  4-C , 15-H ) :   0.9660 B(  5-C , 16-H ) :   0.9819 B(  5-C , 17-H ) :   0.9660
B(  5-C , 18-H ) :   0.9928

MP2 TOTAL ENERGY:     -310.462183596 Eh
FINAL SINGLE POINT ENERGY      -310.462183596404

DIPOLE MOMENT
-------------
                                X             Y             Z
Electronic contribution:      0.00000      -0.00000       1.10722
Nuclear contribution   :      0.00000       0.00000      -1.78368
                        -----------------------------------------
Total Dipole Moment    :      0.00000      -0.00000      -0.67647
                        -----------------------------------------
Magnitude (a.u.)       :      0.67647
Magnitude (Debye)      :      1.71944

Rotational constants in cm-1:     0.165924     0.066976     0.052316
Rotational constants in MHz :  4974.284275  2007.879139  1568.380201

                             ****ORCA TERMINATED NORMALLY****
TOTAL RUN TIME: 0 days 0 hours 6 minutes 55 seconds 621 msec
