                         Program Version 5.0.3 -  RELEASE  -
|  1> !ri-mp2 aug-cc-pvtz aug-cc-pvtz/c tightscf
|  2> %pal nprocs 16 end
|  3>
|  4> * xyz 0 1
|  5> C     -2.749765   -0.583904   -0.153459
|  6> C     -1.683862    0.394741    0.292969
|  7> C      1.943584    0.269479   -0.404816
|  8> C      0.638750    0.818274    0.137976
|  9> O      2.366200   -0.943905    0.203717
| 10> O     -0.429726   -0.030575   -0.214940
| 11> H     -3.725084   -0.279288    0.228236
| 12> H     -2.802470   -0.625322   -1.241261
| 13> H     -2.530599   -1.585069    0.216980
| 14> H     -1.640996    0.446136    1.389514
| 15> H     -1.909147    1.406285   -0.072242
| 16> H      2.712674    1.045372   -0.307406
| 17> H      1.826768    0.042599   -1.464123
| 18> H      0.481049    1.826798   -0.273000
| 19> H      0.701134    0.920416    1.233025
| 20> H      2.502636   -0.793628    1.144037
| 21> *
| 22>
| 23>                          ****END OF INPUT****

CARTESIAN COORDINATES (ANGSTROEM)
---------------------------------
  C     -2.749765   -0.583904   -0.153459
  C     -1.683862    0.394741    0.292969
  C      1.943584    0.269479   -0.404816
  C      0.638750    0.818274    0.137976
  O      2.366200   -0.943905    0.203717
  O     -0.429726   -0.030575   -0.214940
  H     -3.725084   -0.279288    0.228236
  H     -2.802470   -0.625322   -1.241261
  H     -2.530599   -1.585069    0.216980
  H     -1.640996    0.446136    1.389514
  H     -1.909147    1.406285   -0.072242
  H      2.712674    1.045372   -0.307406
  H      1.826768    0.042599   -1.464123
  H      0.481049    1.826798   -0.273000
  H      0.701134    0.920416    1.233025
  H      2.502636   -0.793628    1.144037

 Total Charge           Charge          ....    0
 Multiplicity           Mult            ....    1
 Number of Electrons    NEL             ....   50
 Basis Dimension        Dim             ....  506

ORBITAL ENERGIES
----------------

  NO   OCC          E(Eh)            E(eV)
   0   2.0000     -20.555001      -559.3300
   1   2.0000     -20.554934      -559.3282
   2   2.0000     -11.278893      -306.9143
   3   2.0000     -11.275797      -306.8300
   4   2.0000     -11.275445      -306.8205
   5   2.0000     -11.213265      -305.1285
   6   2.0000      -1.378684       -37.5159
   7   2.0000      -1.352458       -36.8022
   8   2.0000      -1.039695       -28.2915
   9   2.0000      -0.978213       -26.6185
  10   2.0000      -0.846576       -23.0365
  11   2.0000      -0.832058       -22.6414
  12   2.0000      -0.694971       -18.9111
  13   2.0000      -0.680331       -18.5128
  14   2.0000      -0.652571       -17.7574
  15   2.0000      -0.623210       -16.9584
  16   2.0000      -0.614419       -16.7192
  17   2.0000      -0.559930       -15.2365
  18   2.0000      -0.551020       -14.9940
  19   2.0000      -0.531096       -14.4519
  20   2.0000      -0.500951       -13.6316
  21   2.0000      -0.496967       -13.5232
  22   2.0000      -0.472734       -12.8637
  23   2.0000      -0.442823       -12.0498
  24   2.0000      -0.423361       -11.5202
  25   0.0000       0.027717         0.7542
  26   0.0000       0.034409         0.9363
  27   0.0000       0.037040         1.0079
  28   0.0000       0.041791         1.1372
  29   0.0000       0.052634         1.4322

MULLIKEN ATOMIC CHARGES
-----------------------
   0 C :   -0.983061
   1 C :   -0.230791
   2 C :   -0.260383
   3 C :   -0.228300
   4 O :   -0.596733
   5 O :   -0.554451
   6 H :    0.322020
   7 H :    0.263920
   8 H :    0.266680
   9 H :    0.294597
  10 H :    0.303337
  11 H :    0.297924
  12 H :    0.308509
  13 H :    0.336372
  14 H :    0.308391
  15 H :    0.151969
Sum of atomic charges:   -0.0000000

LOEWDIN ATOMIC CHARGES
----------------------
   0 C :    0.577875
   1 C :   -0.010991
   2 C :    0.034493
   3 C :   -0.002379
   4 O :    0.805699
   5 O :    0.570464
   6 H :   -0.177156
   7 H :   -0.174031
   8 H :   -0.173454
   9 H :   -0.156731
  10 H :   -0.156050
  11 H :   -0.160804
  12 H :   -0.167080
  13 H :   -0.153716
  14 H :   -0.155922
  15 H :   -0.500217

  Mayer bond orders larger than 0.100000
B(  0-C ,  1-C ) :   0.8863 B(  0-C ,  6-H ) :   0.9263 B(  0-C ,  7-H ) :   0.9656
B(  0-C ,  8-H ) :   0.9619 B(  1-C ,  5-O ) :   0.9364 B(  1-C ,  9-H ) :   0.8954
B(  1-C , 10-H ) :   0.8828 B(  2-C ,  3-C ) :   0.8968 B(  2-C ,  4-O ) :   0.7722
B(  2-C , 11-H ) :   0.9653 B(  2-C , 12-H ) :   0.9534 B(  3-C ,  5-O ) :   0.8734
B(  3-C , 13-H ) :   0.8736 B(  3-C , 14-H ) :   0.8927 B(  4-O , 15-H ) :   1.0129

MP2 TOTAL ENERGY:     -308.316147591 Eh
FINAL SINGLE POINT ENERGY      -308.316147590595

DIPOLE MOMENT
-------------
                                X             Y             Z
Electronic contribution:      4.28706      -1.49135      -0.31012
Nuclear contribution   :     -4.53619       2.48918       0.88940
                        -----------------------------------------
Total Dipole Moment    :     -0.24913       0.99784       0.57929
                        -----------------------------------------
Magnitude (a.u.)       :      1.18039
Magnitude (Debye)      :      3.00031

Rotational constants in cm-1:     0.313208     0.050495     0.046790
Rotational constants in MHz :  9389.734286  1513.812879  1402.717515

                             ****ORCA TERMINATED NORMALLY****
TOTAL RUN TIME: 0 days 0 hours 3 minutes 37 seconds 11 msec
