                         Program Version 5.0.3 -  RELEASE  -
|  1> !ri-mp2 aug-cc-pvtz aug-cc-pvtz/c tightscf
|  2> %pal nprocs 16 end
|  3>
|  4> * xyz 0 1
|  5> F      2.232197   -0.973360        0.000000
|  6> F     -2.243497   -1.002072        0.000000
|  7> N     -0.001263   -1.004142        0.000000
|  8> N      1.229175    1.028037        0.000001
|  9> C      1.103378   -0.278453        0.000000
| 10> C     -1.109868   -0.306047        0.000000
| 11> C     -1.160118    1.080797        0.000001
| 12> C      0.074651    1.704920        0.000001
| 13> H     -2.093703    1.619545        0.000001
| 14> H      0.151768    2.784779        0.000002
| 15> *
| 16>
| 17>                          ****END OF INPUT****

CARTESIAN COORDINATES (ANGSTROEM)
---------------------------------
  F      2.232197   -0.973360    0.000000
  F     -2.243497   -1.002072    0.000000
  N     -0.001263   -1.004142    0.000000
  N      1.229175    1.028037    0.000001
  C      1.103378   -0.278453    0.000000
  C     -1.109868   -0.306047    0.000000
  C     -1.160118    1.080797    0.000001
  C      0.074651    1.704920    0.000001
  H     -2.093703    1.619545    0.000001
  H      0.151768    2.784779    0.000002

 Total Charge           Charge          ....    0
 Multiplicity           Mult            ....    1
 Number of Electrons    NEL             ....   58
 Basis Dimension        Dim             ....  414

ORBITAL ENERGIES
----------------

  NO   OCC          E(Eh)            E(eV)
   0   2.0000     -26.352331      -717.0834
   1   2.0000     -26.340633      -716.7651
   2   2.0000     -15.605407      -424.6447
   3   2.0000     -15.598477      -424.4561
   4   2.0000     -11.430811      -311.0482
   5   2.0000     -11.417215      -310.6782
   6   2.0000     -11.334931      -308.4392
   7   2.0000     -11.272833      -306.7494
   8   2.0000      -1.676542       -45.6210
   9   2.0000      -1.669155       -45.4200
  10   2.0000      -1.357011       -36.9262
  11   2.0000      -1.245406       -33.8892
  12   2.0000      -1.106103       -30.0986
  13   2.0000      -0.943802       -25.6822
  14   2.0000      -0.937653       -25.5148
  15   2.0000      -0.823340       -22.4042
  16   2.0000      -0.805073       -21.9071
  17   2.0000      -0.744440       -20.2573
  18   2.0000      -0.730119       -19.8676
  19   2.0000      -0.726176       -19.7603
  20   2.0000      -0.711344       -19.3567
  21   2.0000      -0.689952       -18.7745
  22   2.0000      -0.645492       -17.5647
  23   2.0000      -0.620928       -16.8963
  24   2.0000      -0.591001       -16.0820
  25   2.0000      -0.533125       -14.5071
  26   2.0000      -0.460402       -12.5282
  27   2.0000      -0.459190       -12.4952
  28   2.0000      -0.401173       -10.9165
  29   0.0000       0.021361         0.5813
  30   0.0000       0.036039         0.9807
  31   0.0000       0.058227         1.5844
  32   0.0000       0.062344         1.6965
  33   0.0000       0.071375         1.9422

MULLIKEN ATOMIC CHARGES
-----------------------
   0 F :   -0.326193
   1 F :   -0.314350
   2 N :   -0.218999
   3 N :   -0.282028
   4 C :    0.114475
   5 C :    0.559612
   6 C :   -0.341462
   7 C :   -0.240373
   8 H :    0.379673
   9 H :    0.669646
Sum of atomic charges:    0.0000000

LOEWDIN ATOMIC CHARGES
----------------------
   0 F :    0.517345
   1 F :    0.527292
   2 N :    0.371374
   3 N :    0.367654
   4 C :   -0.914079
   5 C :   -0.721187
   6 C :    0.208401
   7 C :    0.008668
   8 H :   -0.191986
   9 H :   -0.173482

  Mayer bond orders larger than 0.100000
B(  0-F ,  4-C ) :   0.9723 B(  1-F ,  5-C ) :   0.7625 B(  2-N ,  4-C ) :   1.2317
B(  2-N ,  5-C ) :   1.1426 B(  3-N ,  4-C ) :   1.3814 B(  3-N ,  6-C ) :  -0.1119
B(  3-N ,  7-C ) :   1.0165 B(  4-C ,  7-C ) :  -0.1411 B(  5-C ,  6-C ) :   1.0864
B(  5-C ,  7-C ) :   0.1579 B(  6-C ,  7-C ) :   1.1005 B(  6-C ,  8-H ) :   0.8775
B(  7-C ,  9-H ) :   0.4615

MP2 TOTAL ENERGY:     -462.106464869 Eh
FINAL SINGLE POINT ENERGY      -462.106464868798

DIPOLE MOMENT
-------------
                                X             Y             Z
Electronic contribution:      0.98069      -4.74974      -0.00000
Nuclear contribution   :     -1.80521       5.96434       0.00000
                        -----------------------------------------
Total Dipole Moment    :     -0.82452       1.21460      -0.00000
                        -----------------------------------------
Magnitude (a.u.)       :      1.46802
Magnitude (Debye)      :      3.73140

Rotational constants in cm-1:     0.132688     0.064446     0.043377
Rotational constants in MHz :  3977.887130  1932.030844  1300.424247

                             ****ORCA TERMINATED NORMALLY****
TOTAL RUN TIME: 0 days 0 hours 2 minutes 25 seconds 219 msec
