                         Program Version 5.0.3 -  RELEASE  -
|  1> !ri-mp2 aug-cc-pvtz aug-cc-pvtz/c tightscf
|  2> %pal nprocs 16 end
|  3>
|  4> * xyz 0 1
|  5> S     0.807257   -1.220346    0.197198
|  6> S    -1.948226   -0.076615   -0.421874
|  7> N     0.326375    1.278014    0.589110
|  8> N     1.350166    1.260862   -0.340449
|  9> C    -0.427430    0.038051    0.678459
| 10> C     1.721627    0.074068   -0.599627
| 11> H    -2.794969    0.485790    0.462355
| 12> H    -0.239031    2.107672    0.478029
| 13> H    -0.761306   -0.139902    1.694067
| 14> H     2.549843   -0.147039   -1.253252
| 15> *
| 16>
| 17>                          ****END OF INPUT****

CARTESIAN COORDINATES (ANGSTROEM)
---------------------------------
  S      0.807257   -1.220346    0.197198
  S     -1.948226   -0.076615   -0.421874
  N      0.326375    1.278014    0.589110
  N      1.350166    1.260862   -0.340449
  C     -0.427430    0.038051    0.678459
  C      1.721627    0.074068   -0.599627
  H     -2.794969    0.485790    0.462355
  H     -0.239031    2.107672    0.478029
  H     -0.761306   -0.139902    1.694067
  H      2.549843   -0.147039   -1.253252

 Total Charge           Charge          ....    0
 Multiplicity           Mult            ....    1
 Number of Electrons    NEL             ....   62
 Basis Dimension        Dim             ....  376

ORBITAL ENERGIES
----------------

  NO   OCC          E(Eh)            E(eV)
   0   2.0000     -91.988610     -2503.1373
   1   2.0000     -91.969386     -2502.6142
   2   2.0000     -15.617060      -424.9618
   3   2.0000     -15.613078      -424.8535
   4   2.0000     -11.351738      -308.8965
   5   2.0000     -11.309316      -307.7421
   6   2.0000      -8.989337      -244.6123
   7   2.0000      -8.970263      -244.0933
   8   2.0000      -6.670293      -181.5079
   9   2.0000      -6.669538      -181.4874
  10   2.0000      -6.668440      -181.4575
  11   2.0000      -6.651284      -180.9906
  12   2.0000      -6.650347      -180.9651
  13   2.0000      -6.649332      -180.9375
  14   2.0000      -1.358211       -36.9588
  15   2.0000      -1.133866       -30.8541
  16   2.0000      -1.073229       -29.2041
  17   2.0000      -0.970195       -26.4003
  18   2.0000      -0.839775       -22.8514
  19   2.0000      -0.813514       -22.1368
  20   2.0000      -0.714154       -19.4331
  21   2.0000      -0.657071       -17.8798
  22   2.0000      -0.633237       -17.2313
  23   2.0000      -0.569317       -15.4919
  24   2.0000      -0.549403       -14.9500
  25   2.0000      -0.505477       -13.7547
  26   2.0000      -0.480497       -13.0750
  27   2.0000      -0.452153       -12.3037
  28   2.0000      -0.433851       -11.8057
  29   2.0000      -0.375677       -10.2227
  30   2.0000      -0.329439        -8.9645
  31   0.0000       0.027093         0.7372
  32   0.0000       0.034448         0.9374
  33   0.0000       0.042739         1.1630
  34   0.0000       0.049871         1.3571
  35   0.0000       0.068172         1.8551

MULLIKEN ATOMIC CHARGES
-----------------------
   0 S :   -0.141532
   1 S :   -0.305699
   2 N :   -0.202045
   3 N :   -0.381606
   4 C :    0.250720
   5 C :   -0.281177
   6 H :    0.137315
   7 H :    0.091970
   8 H :    0.266867
   9 H :    0.565187
Sum of atomic charges:   -0.0000000

LOEWDIN ATOMIC CHARGES
----------------------
   0 S :    1.131320
   1 S :    1.198751
   2 N :    0.244689
   3 N :    0.171262
   4 C :   -0.836315
   5 C :   -0.396185
   6 H :   -0.602710
   7 H :   -0.342963
   8 H :   -0.297211
   9 H :   -0.270638

  Mayer bond orders larger than 0.100000
B(  0-S ,  4-C ) :   0.9886 B(  0-S ,  5-C ) :   0.9769 B(  1-S ,  4-C ) :   0.9196
B(  1-S ,  6-H ) :   1.0254 B(  2-N ,  3-N ) :   0.5500 B(  2-N ,  4-C ) :   0.9225
B(  2-N ,  7-H ) :   1.0134 B(  3-N ,  5-C ) :   1.7579 B(  4-C ,  8-H ) :   0.9188
B(  5-C ,  9-H ) :   0.5997

MP2 TOTAL ENERGY:     -983.167903648 Eh
FINAL SINGLE POINT ENERGY      -983.167903648488

DIPOLE MOMENT
-------------
                                X             Y             Z
Electronic contribution:      0.87891      -2.29279      -0.96046
Nuclear contribution   :     -1.16299       2.28781       1.34626
                        -----------------------------------------
Total Dipole Moment    :     -0.28408      -0.00498       0.38581
                        -----------------------------------------
Magnitude (a.u.)       :      0.47914
Magnitude (Debye)      :      1.21787

Rotational constants in cm-1:     0.133949     0.067253     0.052592
Rotational constants in MHz :  4015.687724  2016.199008  1576.680124

                             ****ORCA TERMINATED NORMALLY****
TOTAL RUN TIME: 0 days 0 hours 2 minutes 23 seconds 426 msec
