                         Program Version 5.0.3 -  RELEASE  -
|  1> !ri-mp2 aug-cc-pvtz aug-cc-pvtz/c tightscf
|  2> %pal nprocs 16 end
|  3>
|  4> * xyz 0 1
|  5> Cl     1.481060   -0.246052    0.000891
|  6> N     -2.257610   -0.337290   -0.128337
|  7> C      0.026216    0.722480    0.011202
|  8> C     -1.156808    0.167770    0.008826
|  9> H     -2.756780   -0.587380    0.724562
| 10> H      0.165580    1.789797    0.038481
| 11> *
| 12>
| 13>                          ****END OF INPUT****

CARTESIAN COORDINATES (ANGSTROEM)
---------------------------------
  Cl     1.481060   -0.246052    0.000891
  N     -2.257610   -0.337290   -0.128337
  C      0.026216    0.722480    0.011202
  C     -1.156808    0.167770    0.008826
  H     -2.756780   -0.587380    0.724562
  H      0.165580    1.789797    0.038481

 Total Charge           Charge          ....    0
 Multiplicity           Mult            ....    1
 Number of Electrons    NEL             ....   38
 Basis Dimension        Dim             ....  234

ORBITAL ENERGIES
----------------

  NO   OCC          E(Eh)            E(eV)
   0   2.0000    -104.853045     -2853.1964
   1   2.0000     -15.607107      -424.6910
   2   2.0000     -11.337011      -308.4957
   3   2.0000     -11.302429      -307.5547
   4   2.0000     -10.576160      -287.7919
   5   2.0000      -8.043141      -218.8650
   6   2.0000      -8.041089      -218.8092
   7   2.0000      -8.040982      -218.8063
   8   2.0000      -1.269490       -34.5446
   9   2.0000      -1.155494       -31.4426
  10   2.0000      -0.995627       -27.0924
  11   2.0000      -0.781371       -21.2622
  12   2.0000      -0.706989       -19.2382
  13   2.0000      -0.611594       -16.6423
  14   2.0000      -0.583172       -15.8689
  15   2.0000      -0.503227       -13.6935
  16   2.0000      -0.489184       -13.3114
  17   2.0000      -0.464425       -12.6376
  18   2.0000      -0.354824        -9.6553
  19   0.0000       0.025104         0.6831
  20   0.0000       0.037480         1.0199
  21   0.0000       0.064210         1.7472
  22   0.0000       0.079092         2.1522
  23   0.0000       0.090477         2.4620

MULLIKEN ATOMIC CHARGES
-----------------------
   0 Cl:   -0.208054
   1 N :   -0.473709
   2 C :   -0.400992
   3 C :    0.446923
   4 H :    0.249871
   5 H :    0.385961
Sum of atomic charges:    0.0000000

LOEWDIN ATOMIC CHARGES
----------------------
   0 Cl:    0.857487
   1 N :    0.594156
   2 C :   -0.508453
   3 C :   -0.195644
   4 H :   -0.420804
   5 H :   -0.326742

  Mayer bond orders larger than 0.100000
B(  0-Cl,  2-C ) :   0.8710 B(  1-N ,  3-C ) :   1.6664 B(  1-N ,  4-H ) :   0.8903
B(  2-C ,  3-C ) :   1.7341 B(  2-C ,  5-H ) :   0.8491

MP2 TOTAL ENERGY:     -591.558961593 Eh
FINAL SINGLE POINT ENERGY      -591.558961593491

DIPOLE MOMENT
-------------
                                X             Y             Z
Electronic contribution:      4.05091      -1.12040      -0.12994
Nuclear contribution   :     -4.46488       1.46750       0.71937
                        -----------------------------------------
Total Dipole Moment    :     -0.41397       0.34711       0.58943
                        -----------------------------------------
Magnitude (a.u.)       :      0.79955
Magnitude (Debye)      :      2.03229

Rotational constants in cm-1:     1.155346     0.097209     0.090359
Rotational constants in MHz : 34636.413635  2914.253496  2708.894218

                             ****ORCA TERMINATED NORMALLY****
TOTAL RUN TIME: 0 days 0 hours 0 minutes 35 seconds 166 msec
