                         Program Version 5.0.3 -  RELEASE  -
|  1> !ri-mp2 aug-cc-pvtz aug-cc-pvtz/c tightscf
|  2> %pal nprocs 16 end
|  3>
|  4> * xyz 0 1
|  5> C      1.261707   -1.038161        0.000000
|  6> C      1.243130    0.321689        0.000000
|  7> C      0.059615   -1.797793        0.000000
|  8> C     -1.119466   -1.125244        0.000000
|  9> C      0.000000    1.062865        0.000000
| 10> N     -1.136850    0.234049        0.000000
| 11> O     -0.131026    2.279065        0.000000
| 12> H      2.211330   -1.558148        0.000000
| 13> H      2.150199    0.907306        0.000000
| 14> H      0.072270   -2.875784        0.000000
| 15> H     -2.082206   -1.615153        0.000000
| 16> H     -2.015349    0.730776        0.000000
| 17> *
| 18>
| 19>                          ****END OF INPUT****

CARTESIAN COORDINATES (ANGSTROEM)
---------------------------------
  C      1.261707   -1.038161    0.000000
  C      1.243130    0.321689    0.000000
  C      0.059615   -1.797793    0.000000
  C     -1.119466   -1.125244    0.000000
  C      0.000000    1.062865    0.000000
  N     -1.136850    0.234049    0.000000
  O     -0.131026    2.279065    0.000000
  H      2.211330   -1.558148    0.000000
  H      2.150199    0.907306    0.000000
  H      0.072270   -2.875784    0.000000
  H     -2.082206   -1.615153    0.000000
  H     -2.015349    0.730776    0.000000

 Total Charge           Charge          ....    0
 Multiplicity           Mult            ....    1
 Number of Electrons    NEL             ....   50
 Basis Dimension        Dim             ....  437

ORBITAL ENERGIES
----------------

  NO   OCC          E(Eh)            E(eV)
   0   2.0000     -20.512063      -558.1616
   1   2.0000     -15.625823      -425.2003
   2   2.0000     -11.354483      -308.9712
   3   2.0000     -11.312840      -307.8380
   4   2.0000     -11.273039      -306.7550
   5   2.0000     -11.241670      -305.9014
   6   2.0000     -11.239720      -305.8483
   7   2.0000      -1.379739       -37.5446
   8   2.0000      -1.277949       -34.7747
   9   2.0000      -1.111175       -30.2366
  10   2.0000      -1.033231       -28.1157
  11   2.0000      -0.889657       -24.2088
  12   2.0000      -0.863607       -23.4999
  13   2.0000      -0.758871       -20.6499
  14   2.0000      -0.698100       -18.9963
  15   2.0000      -0.680108       -18.5067
  16   2.0000      -0.641541       -17.4572
  17   2.0000      -0.615346       -16.7444
  18   2.0000      -0.608075       -16.5466
  19   2.0000      -0.562213       -15.2986
  20   2.0000      -0.540543       -14.7089
  21   2.0000      -0.489236       -13.3128
  22   2.0000      -0.427323       -11.6280
  23   2.0000      -0.427266       -11.6265
  24   2.0000      -0.316190        -8.6040
  25   0.0000       0.020669         0.5624
  26   0.0000       0.028560         0.7772
  27   0.0000       0.037430         1.0185
  28   0.0000       0.050695         1.3795
  29   0.0000       0.055811         1.5187

MULLIKEN ATOMIC CHARGES
-----------------------
   0 C :   -0.584066
   1 C :   -0.185071
   2 C :   -0.143899
   3 C :   -0.498681
   4 C :    0.307933
   5 N :    0.103803
   6 O :   -0.885921
   7 H :    0.571998
   8 H :    0.253281
   9 H :    0.268044
  10 H :    0.668771
  11 H :    0.123807
Sum of atomic charges:   -0.0000000

LOEWDIN ATOMIC CHARGES
----------------------
   0 C :    0.185675
   1 C :    0.220150
   2 C :    0.195140
   3 C :    0.126235
   4 C :   -0.682065
   5 N :    0.543365
   6 O :    0.405766
   7 H :   -0.172192
   8 H :   -0.195127
   9 H :   -0.202721
  10 H :   -0.157744
  11 H :   -0.266481

  Mayer bond orders larger than 0.100000
B(  0-C ,  1-C ) :   1.5265 B(  0-C ,  2-C ) :   1.0170 B(  0-C ,  3-C ) :   0.1795
B(  0-C ,  4-C ) :   0.2124 B(  0-C ,  7-H ) :   0.5948 B(  1-C ,  2-C ) :  -0.1234
B(  1-C ,  4-C ) :   0.7113 B(  1-C ,  5-N ) :  -0.1017 B(  1-C ,  8-H ) :   1.0078
B(  2-C ,  3-C ) :   0.9986 B(  2-C ,  4-C ) :  -0.1682 B(  2-C ,  5-N ) :  -0.1733
B(  2-C ,  9-H ) :   1.1158 B(  3-C ,  4-C ) :   0.2184 B(  3-C ,  5-N ) :   1.0601
B(  3-C , 10-H ) :   0.4006 B(  4-C ,  5-N ) :   1.1557 B(  4-C ,  6-O ) :   1.2137
B(  5-N ,  6-O ) :  -0.1161 B(  5-N , 11-H ) :   1.0727

MP2 TOTAL ENERGY:     -322.919474356 Eh
FINAL SINGLE POINT ENERGY      -322.919474355678

DIPOLE MOMENT
-------------
                                X             Y             Z
Electronic contribution:     -0.76308       2.48175       0.00000
Nuclear contribution   :      0.32338      -4.31864       0.00000
                        -----------------------------------------
Total Dipole Moment    :     -0.43969      -1.83688       0.00000
                        -----------------------------------------
Magnitude (a.u.)       :      1.88878
Magnitude (Debye)      :      4.80089

Rotational constants in cm-1:     0.189636     0.093366     0.062564
Rotational constants in MHz :  5685.146571  2799.055001  1875.608189

                             ****ORCA TERMINATED NORMALLY****
TOTAL RUN TIME: 0 days 0 hours 3 minutes 22 seconds 668 msec
