                         Program Version 5.0.3 -  RELEASE  -
|  1> !ri-mp2 aug-cc-pvtz aug-cc-pvtz/c tightscf
|  2> %pal nprocs 16 end
|  3>
|  4> * xyz 0 1
|  5> C      0.585236   -1.371153    0.000000
|  6> C      0.000000    0.803622    0.000000
|  7> N     -0.706083   -1.394643    0.000000
|  8> N      1.075996   -0.090990    0.000000
|  9> N     -1.065835   -0.067566    0.000000
| 10> O      0.019362    2.016386    0.000000
| 11> H      1.203231   -2.252103    0.000000
| 12> H      2.035972    0.202774    0.000000
| 13> H     -2.034065    0.195812    0.000000
| 14> *
| 15>
| 16>                          ****END OF INPUT****

CARTESIAN COORDINATES (ANGSTROEM)
---------------------------------
  C      0.585236   -1.371153    0.000000
  C      0.000000    0.803622    0.000000
  N     -0.706083   -1.394643    0.000000
  N      1.075996   -0.090990    0.000000
  N     -1.065835   -0.067566    0.000000
  O      0.019362    2.016386    0.000000
  H      1.203231   -2.252103    0.000000
  H      2.035972    0.202774    0.000000
  H     -2.034065    0.195812    0.000000

 Total Charge           Charge          ....    0
 Multiplicity           Mult            ....    1
 Number of Electrons    NEL             ....   44
 Basis Dimension        Dim             ....  345

ORBITAL ENERGIES
----------------

  NO   OCC          E(Eh)            E(eV)
   0   2.0000     -20.526112      -558.5439
   1   2.0000     -15.634832      -425.4454
   2   2.0000     -15.632778      -425.3895
   3   2.0000     -15.617172      -424.9648
   4   2.0000     -11.394619      -310.0634
   5   2.0000     -11.334380      -308.4242
   6   2.0000      -1.441187       -39.2167
   7   2.0000      -1.363155       -37.0933
   8   2.0000      -1.240326       -33.7510
   9   2.0000      -1.122632       -30.5484
  10   2.0000      -0.891177       -24.2502
  11   2.0000      -0.876289       -23.8450
  12   2.0000      -0.762134       -20.7387
  13   2.0000      -0.696540       -18.9538
  14   2.0000      -0.672649       -18.3037
  15   2.0000      -0.653021       -17.7696
  16   2.0000      -0.632654       -17.2154
  17   2.0000      -0.523081       -14.2338
  18   2.0000      -0.521660       -14.1951
  19   2.0000      -0.484101       -13.1730
  20   2.0000      -0.442721       -12.0470
  21   2.0000      -0.353906        -9.6303
  22   0.0000       0.019900         0.5415
  23   0.0000       0.036967         1.0059
  24   0.0000       0.040519         1.1026
  25   0.0000       0.065085         1.7711
  26   0.0000       0.077868         2.1189

MULLIKEN ATOMIC CHARGES
-----------------------
   0 C :   -0.269138
   1 C :    0.151376
   2 N :   -0.535360
   3 N :    0.124331
   4 N :    0.202998
   5 O :   -0.670529
   6 H :    0.641398
   7 H :    0.176049
   8 H :    0.178875
Sum of atomic charges:   -0.0000000

LOEWDIN ATOMIC CHARGES
----------------------
   0 C :   -0.083202
   1 C :   -0.787577
   2 N :    0.290471
   3 N :    0.541775
   4 N :    0.359138
   5 O :    0.387263
   6 H :   -0.175536
   7 H :   -0.257405
   8 H :   -0.274929

  Mayer bond orders larger than 0.100000
B(  0-C ,  1-C ) :  -0.2168 B(  0-C ,  2-N ) :   1.6585 B(  0-C ,  3-N ) :   1.0564
B(  0-C ,  6-H ) :   0.5383 B(  1-C ,  3-N ) :   1.0158 B(  1-C ,  4-N ) :   1.1640
B(  1-C ,  5-O ) :   1.7276 B(  2-N ,  4-N ) :   0.4619 B(  3-N ,  7-H ) :   1.0219
B(  4-N ,  8-H ) :   1.0411

MP2 TOTAL ENERGY:     -316.968584148 Eh
FINAL SINGLE POINT ENERGY      -316.968584147661

DIPOLE MOMENT
-------------
                                X             Y             Z
Electronic contribution:     -0.37665       0.65273       0.00000
Nuclear contribution   :      1.16703      -1.77853       0.00000
                        -----------------------------------------
Total Dipole Moment    :      0.79038      -1.12580       0.00000
                        -----------------------------------------
Magnitude (a.u.)       :      1.37554
Magnitude (Debye)      :      3.49635

Rotational constants in cm-1:     0.318167     0.131696     0.093142
Rotational constants in MHz :  9538.411490  3948.137981  2792.335042

                             ****ORCA TERMINATED NORMALLY****
TOTAL RUN TIME: 0 days 0 hours 1 minutes 31 seconds 524 msec
