                         Program Version 5.0.3 -  RELEASE  -
|  1> !ri-mp2 aug-cc-pvtz aug-cc-pvtz/c tightscf
|  2> %pal nprocs 16 end
|  3>
|  4> * xyz 0 1
|  5> C     -2.165229   -0.019777   -0.016641
|  6> C      0.534517    1.417395   -0.549756
|  7> C      1.641044   -0.836748   -0.424661
|  8> C     -0.864975   -0.710060   -0.425335
|  9> C      0.429999   -0.005131    0.007651
| 10> O      0.376349    0.043462    1.448394
| 11> H     -3.021673   -0.639001   -0.286612
| 12> H     -2.292415    0.942994   -0.512746
| 13> H     -2.195466    0.147199    1.059086
| 14> H      0.507717    1.416045   -1.640747
| 15> H     -0.278903    2.041128   -0.183517
| 16> H      1.476800    1.877169   -0.242684
| 17> H      1.695208   -0.921627   -1.511210
| 18> H      2.569524   -0.374559   -0.081065
| 19> H      1.582438   -1.839278   -0.001025
| 20> H     -0.835262   -0.834371   -1.510827
| 21> H     -0.842950   -1.714358    0.004098
| 22> H      1.172045    0.476886    1.772546
| 23> *
| 24>
| 25>                          ****END OF INPUT****

CARTESIAN COORDINATES (ANGSTROEM)
---------------------------------
  C     -2.165229   -0.019777   -0.016641
  C      0.534517    1.417395   -0.549756
  C      1.641044   -0.836748   -0.424661
  C     -0.864975   -0.710060   -0.425335
  C      0.429999   -0.005131    0.007651
  O      0.376349    0.043462    1.448394
  H     -3.021673   -0.639001   -0.286612
  H     -2.292415    0.942994   -0.512746
  H     -2.195466    0.147199    1.059086
  H      0.507717    1.416045   -1.640747
  H     -0.278903    2.041128   -0.183517
  H      1.476800    1.877169   -0.242684
  H      1.695208   -0.921627   -1.511210
  H      2.569524   -0.374559   -0.081065
  H      1.582438   -1.839278   -0.001025
  H     -0.835262   -0.834371   -1.510827
  H     -0.842950   -1.714358    0.004098
  H      1.172045    0.476886    1.772546

 Total Charge           Charge          ....    0
 Multiplicity           Mult            ....    1
 Number of Electrons    NEL             ....   50
 Basis Dimension        Dim             ....  552

ORBITAL ENERGIES
----------------

  NO   OCC          E(Eh)            E(eV)
   0   2.0000     -20.548553      -559.1546
   1   2.0000     -11.284076      -307.0553
   2   2.0000     -11.214914      -305.1733
   3   2.0000     -11.213931      -305.1466
   4   2.0000     -11.213544      -305.1360
   5   2.0000     -11.203675      -304.8675
   6   2.0000      -1.352775       -36.8109
   7   2.0000      -1.073406       -29.2089
   8   2.0000      -0.992980       -27.0204
   9   2.0000      -0.940445       -25.5908
  10   2.0000      -0.860189       -23.4069
  11   2.0000      -0.761119       -20.7111
  12   2.0000      -0.669337       -18.2136
  13   2.0000      -0.632040       -17.1987
  14   2.0000      -0.606919       -16.5151
  15   2.0000      -0.584962       -15.9176
  16   2.0000      -0.574297       -15.6274
  17   2.0000      -0.553526       -15.0622
  18   2.0000      -0.535141       -14.5619
  19   2.0000      -0.512677       -13.9507
  20   2.0000      -0.504036       -13.7155
  21   2.0000      -0.489212       -13.3121
  22   2.0000      -0.477309       -12.9882
  23   2.0000      -0.448159       -12.1950
  24   2.0000      -0.429876       -11.6975
  25   0.0000       0.028589         0.7779
  26   0.0000       0.035690         0.9712
  27   0.0000       0.036902         1.0042
  28   0.0000       0.041023         1.1163
  29   0.0000       0.054111         1.4724

MULLIKEN ATOMIC CHARGES
-----------------------
   0 C :   -0.991113
   1 C :   -1.172753
   2 C :   -1.287105
   3 C :   -0.617053
   4 C :    1.780583
   5 O :   -0.862857
   6 H :    0.256610
   7 H :    0.276441
   8 H :    0.304805
   9 H :    0.277169
  10 H :    0.252584
  11 H :    0.282480
  12 H :    0.267654
  13 H :    0.256486
  14 H :    0.250879
  15 H :    0.271663
  16 H :    0.295965
  17 H :    0.157564
Sum of atomic charges:    0.0000000

LOEWDIN ATOMIC CHARGES
----------------------
   0 C :    0.584423
   1 C :    0.588169
   2 C :    0.585736
   3 C :    0.263789
   4 C :   -0.575629
   5 O :    0.838828
   6 H :   -0.170842
   7 H :   -0.179306
   8 H :   -0.172797
   9 H :   -0.155433
  10 H :   -0.173446
  11 H :   -0.164978
  12 H :   -0.159457
  13 H :   -0.165897
  14 H :   -0.162501
  15 H :   -0.145522
  16 H :   -0.148782
  17 H :   -0.486353

  Mayer bond orders larger than 0.100000
B(  0-C ,  3-C ) :   0.8807 B(  0-C ,  6-H ) :   1.0072 B(  0-C ,  7-H ) :   0.9510
B(  0-C ,  8-H ) :   0.9327 B(  1-C ,  2-C ) :   0.1102 B(  1-C ,  4-C ) :   0.6130
B(  1-C ,  5-O ) :   0.1123 B(  1-C ,  9-H ) :   0.9877 B(  1-C , 10-H ) :   0.9973
B(  1-C , 11-H ) :   0.9892 B(  2-C ,  4-C ) :   0.5390 B(  2-C ,  5-O ) :   0.1453
B(  2-C , 12-H ) :   0.9929 B(  2-C , 13-H ) :   1.0313 B(  2-C , 14-H ) :   1.0143
B(  3-C ,  4-C ) :   0.6461 B(  3-C , 15-H ) :   0.9645 B(  3-C , 16-H ) :   0.9535
B(  5-O , 17-H ) :   1.0114

MP2 TOTAL ENERGY:     -272.444923511 Eh
FINAL SINGLE POINT ENERGY      -272.444923511194

DIPOLE MOMENT
-------------
                                X             Y             Z
Electronic contribution:      0.93671      -0.40876       2.89920
Nuclear contribution   :     -0.48683       0.61670      -3.31498
                        -----------------------------------------
Total Dipole Moment    :      0.44988       0.20794      -0.41578
                        -----------------------------------------
Magnitude (a.u.)       :      0.64692
Magnitude (Debye)      :      1.64434

Rotational constants in cm-1:     0.151175     0.086089     0.084127
Rotational constants in MHz :  4532.098624  2580.876574  2522.068819

                             ****ORCA TERMINATED NORMALLY****
TOTAL RUN TIME: 0 days 0 hours 5 minutes 42 seconds 942 msec
