                         Program Version 5.0.3 -  RELEASE  -
|  1> !ri-mp2 aug-cc-pvtz aug-cc-pvtz/c tightscf
|  2> %pal nprocs 16 end
|  3>
|  4> * xyz 0 1
|  5> C      1.798671    0.026140   -0.256881
|  6> C      0.665074   -0.290241    0.357148
|  7> C     -0.599255    0.505881    0.255208
|  8> O     -1.694874   -0.274273   -0.232077
|  9> H      2.690246   -0.577939   -0.155580
| 10> H      1.876485    0.910633   -0.878456
| 11> H      0.608435   -1.184136    0.970445
| 12> H     -0.440048    1.391472   -0.369265
| 13> H     -0.916428    0.847380    1.242042
| 14> H     -1.446641   -0.643903   -1.085425
| 15> *
| 16>
| 17>                          ****END OF INPUT****

CARTESIAN COORDINATES (ANGSTROEM)
---------------------------------
  C      1.798671    0.026140   -0.256881
  C      0.665074   -0.290241    0.357148
  C     -0.599255    0.505881    0.255208
  O     -1.694874   -0.274273   -0.232077
  H      2.690246   -0.577939   -0.155580
  H      1.876485    0.910633   -0.878456
  H      0.608435   -1.184136    0.970445
  H     -0.440048    1.391472   -0.369265
  H     -0.916428    0.847380    1.242042
  H     -1.446641   -0.643903   -1.085425

 Total Charge           Charge          ....    0
 Multiplicity           Mult            ....    1
 Number of Electrons    NEL             ....   32
 Basis Dimension        Dim             ....  322

ORBITAL ENERGIES
----------------

  NO   OCC          E(Eh)            E(eV)
   0   2.0000     -20.560266      -559.4733
   1   2.0000     -11.282766      -307.0197
   2   2.0000     -11.239126      -305.8322
   3   2.0000     -11.234088      -305.6951
   4   2.0000      -1.359240       -36.9868
   5   2.0000      -1.068491       -29.0751
   6   2.0000      -0.923628       -25.1332
   7   2.0000      -0.778255       -21.1774
   8   2.0000      -0.701372       -19.0853
   9   2.0000      -0.625163       -17.0115
  10   2.0000      -0.617059       -16.7910
  11   2.0000      -0.603833       -16.4311
  12   2.0000      -0.533246       -14.5104
  13   2.0000      -0.496176       -13.5016
  14   2.0000      -0.454221       -12.3600
  15   2.0000      -0.379092       -10.3156
  16   0.0000       0.029328         0.7980
  17   0.0000       0.038956         1.0600
  18   0.0000       0.040537         1.1031
  19   0.0000       0.044458         1.2098
  20   0.0000       0.059018         1.6060

MULLIKEN ATOMIC CHARGES
-----------------------
   0 C :   -1.066906
   1 C :   -0.317878
   2 C :    0.030400
   3 O :   -0.589646
   4 H :    0.533337
   5 H :    0.257580
   6 H :    0.338220
   7 H :    0.272130
   8 H :    0.362568
   9 H :    0.180194
Sum of atomic charges:   -0.0000000

LOEWDIN ATOMIC CHARGES
----------------------
   0 C :    0.518152
   1 C :    0.173158
   2 C :    0.001980
   3 O :    0.794163
   4 H :   -0.226145
   5 H :   -0.222710
   6 H :   -0.190746
   7 H :   -0.172728
   8 H :   -0.171835
   9 H :   -0.503290

  Mayer bond orders larger than 0.100000
B(  0-C ,  1-C ) :   1.4776 B(  0-C ,  4-H ) :   0.6126 B(  0-C ,  5-H ) :   1.0854
B(  1-C ,  2-C ) :   0.8804 B(  1-C ,  6-H ) :   0.9035 B(  2-C ,  3-O ) :   0.7406
B(  2-C ,  7-H ) :   0.9655 B(  2-C ,  8-H ) :   0.8840 B(  3-O ,  9-H ) :   1.0016

MP2 TOTAL ENERGY:     -192.755424101 Eh
FINAL SINGLE POINT ENERGY      -192.755424101401

DIPOLE MOMENT
-------------
                                X             Y             Z
Electronic contribution:     -1.81171      -0.66788       0.01677
Nuclear contribution   :      2.42683       0.76487      -0.28962
                        -----------------------------------------
Total Dipole Moment    :      0.61512       0.09699      -0.27285
                        -----------------------------------------
Magnitude (a.u.)       :      0.67987
Magnitude (Debye)      :      1.72810

Rotational constants in cm-1:     0.862345     0.143863     0.140665
Rotational constants in MHz : 25852.454598  4312.901533  4217.035789

                             ****ORCA TERMINATED NORMALLY****
TOTAL RUN TIME: 0 days 0 hours 1 minutes 0 seconds 397 msec
