                         Program Version 5.0.3 -  RELEASE  -
|  1> !ri-mp2 aug-cc-pvtz aug-cc-pvtz/c tightscf
|  2> %pal nprocs 16 end
|  3>
|  4> * xyz 0 1
|  5> C     -2.811044   -0.221945   -0.162139
|  6> C      2.221288   -0.900163   -0.048109
|  7> C     -1.473342    0.339233    0.316846
|  8> C     -0.280858   -0.504253   -0.134238
|  9> C      1.071410    0.028960    0.322589
| 10> O      1.239016    1.319777   -0.283419
| 11> H     -3.644676    0.394864    0.176352
| 12> H     -2.975117   -1.234898    0.212481
| 13> H     -2.852626   -0.264029   -1.252522
| 14> H      2.257486   -1.050421   -1.128043
| 15> H      3.179284   -0.482509    0.270000
| 16> H      2.107939   -1.872159    0.434921
| 17> H     -1.347052    1.358855   -0.049391
| 18> H     -1.474885    0.402013    1.409571
| 19> H     -0.391242   -1.525089    0.243683
| 20> H     -0.268458   -0.572453   -1.226633
| 21> H      1.048581    0.150408    1.414128
| 22> H      2.083920    1.686207   -0.006882
| 23> *
| 24>
| 25>                          ****END OF INPUT****

CARTESIAN COORDINATES (ANGSTROEM)
---------------------------------
  C     -2.811044   -0.221945   -0.162139
  C      2.221288   -0.900163   -0.048109
  C     -1.473342    0.339233    0.316846
  C     -0.280858   -0.504253   -0.134238
  C      1.071410    0.028960    0.322589
  O      1.239016    1.319777   -0.283419
  H     -3.644676    0.394864    0.176352
  H     -2.975117   -1.234898    0.212481
  H     -2.852626   -0.264029   -1.252522
  H      2.257486   -1.050421   -1.128043
  H      3.179284   -0.482509    0.270000
  H      2.107939   -1.872159    0.434921
  H     -1.347052    1.358855   -0.049391
  H     -1.474885    0.402013    1.409571
  H     -0.391242   -1.525089    0.243683
  H     -0.268458   -0.572453   -1.226633
  H      1.048581    0.150408    1.414128
  H      2.083920    1.686207   -0.006882

 Total Charge           Charge          ....    0
 Multiplicity           Mult            ....    1
 Number of Electrons    NEL             ....   50
 Basis Dimension        Dim             ....  552

ORBITAL ENERGIES
----------------

  NO   OCC          E(Eh)            E(eV)
   0   2.0000     -20.551446      -559.2333
   1   2.0000     -11.277584      -306.8787
   2   2.0000     -11.216332      -305.2119
   3   2.0000     -11.213251      -305.1281
   4   2.0000     -11.210035      -305.0406
   5   2.0000     -11.206324      -304.9396
   6   2.0000      -1.353417       -36.8283
   7   2.0000      -1.070706       -29.1354
   8   2.0000      -1.010872       -27.5072
   9   2.0000      -0.927068       -25.2268
  10   2.0000      -0.821898       -22.3650
  11   2.0000      -0.782682       -21.2979
  12   2.0000      -0.697712       -18.9857
  13   2.0000      -0.619631       -16.8610
  14   2.0000      -0.611185       -16.6312
  15   2.0000      -0.606356       -16.4998
  16   2.0000      -0.552691       -15.0395
  17   2.0000      -0.547109       -14.8876
  18   2.0000      -0.530827       -14.4445
  19   2.0000      -0.523975       -14.2581
  20   2.0000      -0.501646       -13.6505
  21   2.0000      -0.474157       -12.9025
  22   2.0000      -0.463294       -12.6069
  23   2.0000      -0.450081       -12.2473
  24   2.0000      -0.432878       -11.7792
  25   0.0000       0.028354         0.7716
  26   0.0000       0.034413         0.9364
  27   0.0000       0.037125         1.0102
  28   0.0000       0.040142         1.0923
  29   0.0000       0.052325         1.4238

MULLIKEN ATOMIC CHARGES
-----------------------
   0 C :   -0.974262
   1 C :   -1.067564
   2 C :   -0.503965
   3 C :   -0.333377
   4 C :    0.437087
   5 O :   -0.665530
   6 H :    0.275809
   7 H :    0.258328
   8 H :    0.270060
   9 H :    0.265930
  10 H :    0.265165
  11 H :    0.272627
  12 H :    0.283416
  13 H :    0.229587
  14 H :    0.294988
  15 H :    0.297603
  16 H :    0.269469
  17 H :    0.124629
Sum of atomic charges:   -0.0000000

LOEWDIN ATOMIC CHARGES
----------------------
   0 C :    0.577757
   1 C :    0.589383
   2 C :    0.258996
   3 C :    0.263991
   4 C :   -0.276638
   5 O :    0.828462
   6 H :   -0.174200
   7 H :   -0.172533
   8 H :   -0.171259
   9 H :   -0.164984
  10 H :   -0.172653
  11 H :   -0.168044
  12 H :   -0.156474
  13 H :   -0.147722
  14 H :   -0.144455
  15 H :   -0.140627
  16 H :   -0.137330
  17 H :   -0.491668

  Mayer bond orders larger than 0.100000
B(  0-C ,  2-C ) :   0.9170 B(  0-C ,  6-H ) :   0.9866 B(  0-C ,  7-H ) :   0.9643
B(  0-C ,  8-H ) :   0.9632 B(  1-C ,  4-C ) :   0.8462 B(  1-C ,  9-H ) :   0.9628
B(  1-C , 10-H ) :   0.9914 B(  1-C , 11-H ) :   0.9727 B(  2-C ,  3-C ) :   0.8995
B(  2-C , 12-H ) :   0.9356 B(  2-C , 13-H ) :   0.9721 B(  3-C ,  4-C ) :   0.8689
B(  3-C , 14-H ) :   0.9262 B(  3-C , 15-H ) :   0.9273 B(  4-C ,  5-O ) :   0.5191
B(  4-C , 16-H ) :   0.9657 B(  5-O , 17-H ) :   1.0358

MP2 TOTAL ENERGY:     -272.439039054 Eh
FINAL SINGLE POINT ENERGY      -272.439039054147

DIPOLE MOMENT
-------------
                                X             Y             Z
Electronic contribution:      2.83524       2.88392      -0.13088
Nuclear contribution   :     -2.40465      -3.18346       0.52539
                        -----------------------------------------
Total Dipole Moment    :      0.43059      -0.29954       0.39451
                        -----------------------------------------
Magnitude (a.u.)       :      0.65633
Magnitude (Debye)      :      1.66825

Rotational constants in cm-1:     0.241405     0.057607     0.050118
Rotational constants in MHz :  7237.143168  1727.014800  1502.505514

                             ****ORCA TERMINATED NORMALLY****
TOTAL RUN TIME: 0 days 0 hours 4 minutes 49 seconds 838 msec
