                         Program Version 5.0.3 -  RELEASE  -
|  1> !ri-mp2 aug-cc-pvtz aug-cc-pvtz/c tightscf
|  2> %pal nprocs 16 end
|  3> %maxcore 3800
|  4>
|  5> * xyz 0 1
|  6> C     -1.846468    1.363840   -0.077215
|  7> C     -2.662406   -1.005759   -0.096294
|  8> C      2.238415   -1.049347   -0.534903
|  9> C      1.347049    0.062739    1.517236
| 10> C      1.470851    1.310380   -0.660535
| 11> C     -0.206189   -0.619162   -0.388682
| 12> C     -1.491679   -0.085189    0.274492
| 13> C      1.189357   -0.053191   -0.006364
| 14> H     -1.878530    1.507566   -1.160137
| 15> H     -2.830639    1.621044    0.318884
| 16> H     -1.136791    2.079950    0.332372
| 17> H     -2.842778   -0.992361   -1.174393
| 18> H     -3.583115   -0.688469    0.396236
| 19> H     -2.465759   -2.039230    0.193579
| 20> H      2.126690   -2.027904   -0.064042
| 21> H      3.250825   -0.693599   -0.333918
| 22> H      2.141559   -1.185634   -1.614225
| 23> H      2.366909    0.355952    1.774490
| 24> H      0.675201    0.809842    1.941318
| 25> H      1.141903   -0.890029    2.010264
| 26> H      0.817786    2.095891   -0.286579
| 27> H      2.499514    1.619425   -0.462797
| 28> H      1.343993    1.257474   -1.743806
| 29> H     -0.175142   -1.692454   -0.177183
| 30> H     -0.319174   -0.537597   -1.476057
| 31> H     -1.366031   -0.145726    1.359582
| 32> *
| 33>
| 34>                          ****END OF INPUT****

CARTESIAN COORDINATES (ANGSTROEM)
---------------------------------
  C     -1.846468    1.363840   -0.077215
  C     -2.662406   -1.005759   -0.096294
  C      2.238415   -1.049347   -0.534903
  C      1.347049    0.062739    1.517236
  C      1.470851    1.310380   -0.660535
  C     -0.206189   -0.619162   -0.388682
  C     -1.491679   -0.085189    0.274492
  C      1.189357   -0.053191   -0.006364
  H     -1.878530    1.507566   -1.160137
  H     -2.830639    1.621044    0.318884
  H     -1.136791    2.079950    0.332372
  H     -2.842778   -0.992361   -1.174393
  H     -3.583115   -0.688469    0.396236
  H     -2.465759   -2.039230    0.193579
  H      2.126690   -2.027904   -0.064042
  H      3.250825   -0.693599   -0.333918
  H      2.141559   -1.185634   -1.614225
  H      2.366909    0.355952    1.774490
  H      0.675201    0.809842    1.941318
  H      1.141903   -0.890029    2.010264
  H      0.817786    2.095891   -0.286579
  H      2.499514    1.619425   -0.462797
  H      1.343993    1.257474   -1.743806
  H     -0.175142   -1.692454   -0.177183
  H     -0.319174   -0.537597   -1.476057
  H     -1.366031   -0.145726    1.359582

 Total Charge           Charge          ....    0
 Multiplicity           Mult            ....    1
 Number of Electrons    NEL             ....   66
 Basis Dimension        Dim             ....  782

ORBITAL ENERGIES
----------------

  NO   OCC          E(Eh)            E(eV)
   0   2.0000     -11.231128      -305.6145
   1   2.0000     -11.222162      -305.3706
   2   2.0000     -11.210938      -305.0651
   3   2.0000     -11.206993      -304.9578
   4   2.0000     -11.206825      -304.9532
   5   2.0000     -11.206754      -304.9513
   6   2.0000     -11.205901      -304.9281
   7   2.0000     -11.204743      -304.8965
   8   2.0000      -1.111056       -30.2334
   9   2.0000      -1.058343       -28.7990
  10   2.0000      -0.933590       -25.4043
  11   2.0000      -0.928288       -25.2600
  12   2.0000      -0.920267       -25.0417
  13   2.0000      -0.915060       -24.9001
  14   2.0000      -0.778084       -21.1727
  15   2.0000      -0.722984       -19.6734
  16   2.0000      -0.638251       -17.3677
  17   2.0000      -0.615926       -16.7602
  18   2.0000      -0.609622       -16.5887
  19   2.0000      -0.591544       -16.0967
  20   2.0000      -0.570086       -15.5128
  21   2.0000      -0.554378       -15.0854
  22   2.0000      -0.540443       -14.7062
  23   2.0000      -0.534575       -14.5465
  24   2.0000      -0.526566       -14.3286
  25   2.0000      -0.509977       -13.8772
  26   2.0000      -0.505419       -13.7531
  27   2.0000      -0.490209       -13.3393
  28   2.0000      -0.468855       -12.7582
  29   2.0000      -0.463714       -12.6183
  30   2.0000      -0.445305       -12.1174
  31   2.0000      -0.436847       -11.8872
  32   2.0000      -0.425764       -11.5856
  33   0.0000       0.029119         0.7924
  34   0.0000       0.033791         0.9195
  35   0.0000       0.035103         0.9552
  36   0.0000       0.035859         0.9758
  37   0.0000       0.048544         1.3209

MULLIKEN ATOMIC CHARGES
-----------------------
   0 C :   -1.081038
   1 C :   -1.260736
   2 C :   -1.544142
   3 C :   -1.353101
   4 C :   -1.377136
   5 C :   -0.392592
   6 C :    0.337782
   7 C :    1.952859
   8 H :    0.216888
   9 H :    0.235169
  10 H :    0.332664
  11 H :    0.243018
  12 H :    0.246814
  13 H :    0.235166
  14 H :    0.224023
  15 H :    0.239472
  16 H :    0.212294
  17 H :    0.229779
  18 H :    0.293667
  19 H :    0.244540
  20 H :    0.432937
  21 H :    0.165126
  22 H :    0.229828
  23 H :    0.352677
  24 H :    0.352072
  25 H :    0.231971
Sum of atomic charges:   -0.0000000

LOEWDIN ATOMIC CHARGES
----------------------
   0 C :    0.594895
   1 C :    0.586436
   2 C :    0.578668
   3 C :    0.584290
   4 C :    0.591985
   5 C :    0.304853
   6 C :   -0.033395
   7 C :   -0.328710
   8 H :   -0.152049
   9 H :   -0.163779
  10 H :   -0.191124
  11 H :   -0.157704
  12 H :   -0.166729
  13 H :   -0.165419
  14 H :   -0.159234
  15 H :   -0.159930
  16 H :   -0.153525
  17 H :   -0.156846
  18 H :   -0.165488
  19 H :   -0.150528
  20 H :   -0.190824
  21 H :   -0.157063
  22 H :   -0.152052
  23 H :   -0.154250
  24 H :   -0.135946
  25 H :   -0.146532

  Mayer bond orders larger than 0.100000
B(  0-C ,  1-C ) :   0.1518 B(  0-C ,  6-C ) :   0.6326 B(  0-C ,  8-H ) :   1.0247
B(  0-C ,  9-H ) :   1.0397 B(  0-C , 10-H ) :   0.9275 B(  1-C ,  6-C ) :   0.5723
B(  1-C , 11-H ) :   1.0496 B(  1-C , 12-H ) :   1.0582 B(  1-C , 13-H ) :   1.0451
B(  2-C ,  3-C ) :   0.1068 B(  2-C ,  4-C ) :   0.1120 B(  2-C ,  7-C ) :   0.1979
B(  2-C , 14-H ) :   1.1155 B(  2-C , 15-H ) :   1.0767 B(  2-C , 16-H ) :   1.1274
B(  3-C ,  4-C ) :   0.1399 B(  3-C ,  7-C ) :   0.3128 B(  3-C , 17-H ) :   1.0817
B(  3-C , 18-H ) :   1.0187 B(  3-C , 19-H ) :   1.0708 B(  4-C ,  7-C ) :   0.3579
B(  4-C , 20-H ) :   0.8474 B(  4-C , 21-H ) :   1.1784 B(  4-C , 22-H ) :   1.0857
B(  5-C ,  6-C ) :   0.9662 B(  5-C ,  7-C ) :   0.7588 B(  5-C , 23-H ) :   0.8958
B(  5-C , 24-H ) :   0.9450 B(  6-C ,  7-C ) :   0.1091 B(  6-C , 25-H ) :   0.9245
B(  7-C , 14-H ) :  -0.1169 B(  7-C , 16-H ) :  -0.1098

MP2 TOTAL ENERGY:     -314.990123364 Eh
FINAL SINGLE POINT ENERGY      -314.990123364012

DIPOLE MOMENT
-------------
                                X             Y             Z
Electronic contribution:      0.24846      -0.49607       0.22564
Nuclear contribution   :     -0.25346       0.49278      -0.18057
                        -----------------------------------------
Total Dipole Moment    :     -0.00500      -0.00328       0.04507
                        -----------------------------------------
Magnitude (a.u.)       :      0.04546
Magnitude (Debye)      :      0.11556

Rotational constants in cm-1:     0.098465     0.040126     0.036326
Rotational constants in MHz :  2951.909251  1202.936627  1089.025339

                             ****ORCA TERMINATED NORMALLY****
TOTAL RUN TIME: 0 days 0 hours 16 minutes 41 seconds 898 msec
