                         Program Version 5.0.3 -  RELEASE  -
|  1> !ri-mp2 aug-cc-pvtz aug-cc-pvtz/c tightscf
|  2> %pal nprocs 16 end
|  3>
|  4> * xyz 0 1
|  5> O    -2.841359   -1.632448   -0.003270
|  6> N     1.285402   -0.975322   -0.019771
|  7> N     2.484031   -0.680505   -0.010863
|  8> N     3.605627   -0.567935   -0.006143
|  9> C     0.339502    0.047766    0.013908
| 10> C    -0.993794   -0.172117    0.008810
| 11> C     0.682021    1.512322    0.110918
| 12> C    -1.750128    1.127746    0.107057
| 13> C    -0.671031    2.199116   -0.176680
| 14> C    -1.636105   -1.476759   -0.036351
| 15> H     1.467801    1.806010   -0.588127
| 16> H     1.055913    1.737532    1.115662
| 17> H    -2.583844    1.169965   -0.593065
| 18> H    -2.183781    1.237766    1.105376
| 19> H    -0.710080    2.486415   -1.227487
| 20> H    -0.808422    3.103763    0.412368
| 21> H    -0.954916   -2.343981   -0.107093
| 22> *
| 23>
| 24>                          ****END OF INPUT****

CARTESIAN COORDINATES (ANGSTROEM)
---------------------------------
  O     -2.841359   -1.632448   -0.003270
  N      1.285402   -0.975322   -0.019771
  N      2.484031   -0.680505   -0.010863
  N      3.605627   -0.567935   -0.006143
  C      0.339502    0.047766    0.013908
  C     -0.993794   -0.172117    0.008810
  C      0.682021    1.512322    0.110918
  C     -1.750128    1.127746    0.107057
  C     -0.671031    2.199116   -0.176680
  C     -1.636105   -1.476759   -0.036351
  H      1.467801    1.806010   -0.588127
  H      1.055913    1.737532    1.115662
  H     -2.583844    1.169965   -0.593065
  H     -2.183781    1.237766    1.105376
  H     -0.710080    2.486415   -1.227487
  H     -0.808422    3.103763    0.412368
  H     -0.954916   -2.343981   -0.107093

 Total Charge           Charge          ....    0
 Multiplicity           Mult            ....    1
 Number of Electrons    NEL             ....   72
 Basis Dimension        Dim             ....  621

ORBITAL ENERGIES
----------------

  NO   OCC          E(Eh)            E(eV)
   0   2.0000     -20.544485      -559.0438
   1   2.0000     -15.814599      -430.3371
   2   2.0000     -15.703429      -427.3120
   3   2.0000     -15.641564      -425.6286
   4   2.0000     -11.322755      -308.1078
   5   2.0000     -11.317348      -307.9607
   6   2.0000     -11.259021      -306.3735
   7   2.0000     -11.242352      -305.9200
   8   2.0000     -11.238849      -305.8246
   9   2.0000     -11.234919      -305.7177
  10   2.0000      -1.540840       -41.9284
  11   2.0000      -1.378265       -37.5045
  12   2.0000      -1.335439       -36.3392
  13   2.0000      -1.165005       -31.7014
  14   2.0000      -1.027411       -27.9573
  15   2.0000      -0.998688       -27.1757
  16   2.0000      -0.884622       -24.0718
  17   2.0000      -0.851340       -23.1661
  18   2.0000      -0.797538       -21.7021
  19   2.0000      -0.738144       -20.0859
  20   2.0000      -0.735578       -20.0161
  21   2.0000      -0.710923       -19.3452
  22   2.0000      -0.700340       -19.0572
  23   2.0000      -0.662272       -18.0214
  24   2.0000      -0.641032       -17.4434
  25   2.0000      -0.593173       -16.1411
  26   2.0000      -0.579665       -15.7735
  27   2.0000      -0.576823       -15.6961
  28   2.0000      -0.543374       -14.7860
  29   2.0000      -0.521621       -14.1940
  30   2.0000      -0.502572       -13.6757
  31   2.0000      -0.500015       -13.6061
  32   2.0000      -0.469127       -12.7656
  33   2.0000      -0.465322       -12.6621
  34   2.0000      -0.416841       -11.3428
  35   2.0000      -0.331487        -9.0202
  36   0.0000       0.024384         0.6635
  37   0.0000       0.034540         0.9399
  38   0.0000       0.036151         0.9837
  39   0.0000       0.037659         1.0248
  40   0.0000       0.052183         1.4200

MULLIKEN ATOMIC CHARGES
-----------------------
   0 O :   -0.839007
   1 N :   -0.859564
   2 N :    1.213240
   3 N :   -0.911399
   4 C :    0.222077
   5 C :    0.919915
   6 C :   -0.377051
   7 C :   -0.490005
   8 C :   -0.531696
   9 C :   -0.450552
  10 H :    0.344134
  11 H :    0.288754
  12 H :    0.241519
  13 H :    0.226107
  14 H :    0.199765
  15 H :    0.273821
  16 H :    0.529943
Sum of atomic charges:   -0.0000000

LOEWDIN ATOMIC CHARGES
----------------------
   0 O :    0.429264
   1 N :    0.238477
   2 N :   -0.198579
   3 N :    0.324790
   4 C :   -0.285579
   5 C :   -0.117437
   6 C :    0.296487
   7 C :    0.284311
   8 C :    0.322243
   9 C :   -0.233166
  10 H :   -0.149670
  11 H :   -0.137837
  12 H :   -0.146469
  13 H :   -0.140283
  14 H :   -0.146832
  15 H :   -0.145450
  16 H :   -0.194270

  Mayer bond orders larger than 0.100000
B(  0-O ,  4-C ) :   0.1069 B(  0-O ,  9-C ) :   1.3553 B(  0-O , 16-H ) :  -0.1190
B(  1-N ,  2-N ) :   0.8037 B(  1-N ,  3-N ) :   0.7264 B(  1-N ,  4-C ) :   0.8385
B(  1-N ,  5-C ) :  -0.3122 B(  1-N ,  6-C ) :  -0.2400 B(  1-N ,  9-C ) :   0.1122
B(  2-N ,  3-N ) :   0.9625 B(  3-N ,  4-C ) :   0.1057 B(  4-C ,  5-C ) :   1.2135
B(  4-C ,  6-C ) :   0.6884 B(  4-C ,  9-C ) :   0.3262 B(  4-C , 10-H ) :  -0.1346
B(  5-C ,  7-C ) :   0.6940 B(  5-C ,  9-C ) :   0.4250 B(  6-C ,  8-C ) :   1.0179
B(  6-C , 10-H ) :   0.9486 B(  6-C , 11-H ) :   0.9486 B(  7-C ,  8-C ) :   1.0429
B(  7-C , 12-H ) :   0.9761 B(  7-C , 13-H ) :   0.9718 B(  8-C , 14-H ) :   0.9920
B(  8-C , 15-H ) :   0.9464 B(  9-C , 16-H ) :   0.6913

MP2 TOTAL ENERGY:     -471.393901801 Eh
FINAL SINGLE POINT ENERGY      -471.393901801209

DIPOLE MOMENT
-------------
                                X             Y             Z
Electronic contribution:      6.05096      -7.84810      -0.09012
Nuclear contribution   :     -4.65274       9.03041       0.11572
                        -----------------------------------------
Total Dipole Moment    :      1.39822       1.18231       0.02561
                        -----------------------------------------
Magnitude (a.u.)       :      1.83127
Magnitude (Debye)      :      4.65471

Rotational constants in cm-1:     0.073280     0.031428     0.022320
Rotational constants in MHz :  2196.890287   942.176846   669.127050

                             ****ORCA TERMINATED NORMALLY****
TOTAL RUN TIME: 0 days 0 hours 11 minutes 52 seconds 872 msec
