                         Program Version 5.0.3 -  RELEASE  -
|  1> !ri-mp2 aug-cc-pvtz aug-cc-pvtz/c tightscf
|  2> %pal nprocs 16 end
|  3>
|  4> * xyz 0 1
|  5> C     1.309093    1.172916    0.000000
|  6> C    -1.309093   -1.172916    0.000000
|  7> C     2.068867    0.039777    0.000000
|  8> C    -2.068867   -0.039777    0.000000
|  9> C    -0.023065    0.680222    0.000000
| 10> C     0.023065   -0.680222    0.000000
| 11> O     1.309093   -1.111529    0.000000
| 12> O    -1.309093    1.111529    0.000000
| 13> H     1.675271    2.183812    0.000000
| 14> H    -1.675271   -2.183812    0.000000
| 15> H     3.132307   -0.112935    0.000000
| 16> H    -3.132307    0.112935    0.000000
| 17> *
| 18>
| 19>                          ****END OF INPUT****

CARTESIAN COORDINATES (ANGSTROEM)
---------------------------------
  C      1.309093    1.172916    0.000000
  C     -1.309093   -1.172916    0.000000
  C      2.068867    0.039777    0.000000
  C     -2.068867   -0.039777    0.000000
  C     -0.023065    0.680222    0.000000
  C      0.023065   -0.680222    0.000000
  O      1.309093   -1.111529    0.000000
  O     -1.309093    1.111529    0.000000
  H      1.675271    2.183812    0.000000
  H     -1.675271   -2.183812    0.000000
  H      3.132307   -0.112935    0.000000
  H     -3.132307    0.112935    0.000000

 Total Charge           Charge          ....    0
 Multiplicity           Mult            ....    1
 Number of Electrons    NEL             ....   56
 Basis Dimension        Dim             ....  460

ORBITAL ENERGIES
----------------

  NO   OCC          E(Eh)            E(eV)
   0   2.0000     -20.631048      -561.3994
   1   2.0000     -20.631044      -561.3993
   2   2.0000     -11.301210      -307.5216
   3   2.0000     -11.301209      -307.5215
   4   2.0000     -11.282544      -307.0136
   5   2.0000     -11.281029      -306.9724
   6   2.0000     -11.248661      -306.0916
   7   2.0000     -11.248659      -306.0916
   8   2.0000      -1.471503       -40.0416
   9   2.0000      -1.449051       -39.4307
  10   2.0000      -1.099367       -29.9153
  11   2.0000      -1.084968       -29.5235
  12   2.0000      -0.985284       -26.8109
  13   2.0000      -0.850075       -23.1317
  14   2.0000      -0.812440       -22.1076
  15   2.0000      -0.777436       -21.1551
  16   2.0000      -0.717961       -19.5367
  17   2.0000      -0.668122       -18.1805
  18   2.0000      -0.663888       -18.0653
  19   2.0000      -0.647905       -17.6304
  20   2.0000      -0.610710       -16.6183
  21   2.0000      -0.590984       -16.0815
  22   2.0000      -0.585988       -15.9455
  23   2.0000      -0.566282       -15.4093
  24   2.0000      -0.513996       -13.9865
  25   2.0000      -0.411189       -11.1890
  26   2.0000      -0.388760       -10.5787
  27   2.0000      -0.288987        -7.8637
  28   0.0000       0.029347         0.7986
  29   0.0000       0.030350         0.8259
  30   0.0000       0.036182         0.9846
  31   0.0000       0.044617         1.2141
  32   0.0000       0.075624         2.0578

MULLIKEN ATOMIC CHARGES
-----------------------
   0 C :   -0.794636
   1 C :   -0.794636
   2 C :   -0.611207
   3 C :   -0.611207
   4 C :    0.686864
   5 C :    0.686864
   6 O :   -0.492127
   7 O :   -0.492127
   8 H :    0.439403
   9 H :    0.439403
  10 H :    0.771702
  11 H :    0.771702
Sum of atomic charges:   -0.0000000

LOEWDIN ATOMIC CHARGES
----------------------
   0 C :    0.235016
   1 C :    0.235016
   2 C :   -0.009158
   3 C :   -0.009158
   4 C :   -0.418242
   5 C :   -0.418242
   6 O :    0.582202
   7 O :    0.582202
   8 H :   -0.193815
   9 H :   -0.193815
  10 H :   -0.196003
  11 H :   -0.196003

  Mayer bond orders larger than 0.100000
B(  0-C ,  1-C ) :   0.1405 B(  0-C ,  2-C ) :   1.4231 B(  0-C ,  4-C ) :   1.0240
B(  0-C ,  8-H ) :   0.9390 B(  1-C ,  3-C ) :   1.4231 B(  1-C ,  5-C ) :   1.0240
B(  1-C ,  9-H ) :   0.9390 B(  2-C ,  4-C ) :  -0.2038 B(  2-C ,  6-O ) :   1.1051
B(  2-C , 10-H ) :   0.3240 B(  3-C ,  5-C ) :  -0.2038 B(  3-C ,  7-O ) :   1.1051
B(  3-C , 11-H ) :   0.3240 B(  4-C ,  5-C ) :   1.5082 B(  4-C ,  7-O ) :   0.8376
B(  5-C ,  6-O ) :   0.8376

MP2 TOTAL ENERGY:     -380.744610317 Eh
FINAL SINGLE POINT ENERGY      -380.744610316921

DIPOLE MOMENT
-------------
                                X             Y             Z
Electronic contribution:      0.00000      -0.00000      -0.00000
Nuclear contribution   :      0.00000       0.00000       0.00000
                        -----------------------------------------
Total Dipole Moment    :      0.00000      -0.00000      -0.00000
                        -----------------------------------------
Magnitude (a.u.)       :      0.00000
Magnitude (Debye)      :      0.00000

Rotational constants in cm-1:     0.180568     0.075161     0.053070
Rotational constants in MHz :  5413.284238  2253.263902  1591.010418

                             ****ORCA TERMINATED NORMALLY****
TOTAL RUN TIME: 0 days 0 hours 3 minutes 34 seconds 85 msec
