                         Program Version 5.0.3 -  RELEASE  -
|  1> !ri-mp2 aug-cc-pvtz aug-cc-pvtz/c tightscf
|  2> %pal nprocs 16 end
|  3>
|  4> * xyz 0 1
|  5> S     -0.392972   -1.265072    0.210669
|  6> C      0.940796    0.017803    0.413655
|  7> C      0.214759    1.365119    0.480256
|  8> C     -1.100528    1.217508   -0.232047
|  9> C     -1.506870   -0.035217   -0.406130
| 10> O      1.821436    0.051740   -0.690597
| 11> H      1.477232   -0.222620    1.331943
| 12> H      0.856678    2.126104    0.033990
| 13> H     -1.678395    2.075102   -0.546595
| 14> H     -2.430535   -0.355577   -0.862849
| 15> H      0.048224    1.648671    1.524486
| 16> H      2.153911   -0.835724   -0.861306
| 17> *
| 18>
| 19>                          ****END OF INPUT****

CARTESIAN COORDINATES (ANGSTROEM)
---------------------------------
  S     -0.392972   -1.265072    0.210669
  C      0.940796    0.017803    0.413655
  C      0.214759    1.365119    0.480256
  C     -1.100528    1.217508   -0.232047
  C     -1.506870   -0.035217   -0.406130
  O      1.821436    0.051740   -0.690597
  H      1.477232   -0.222620    1.331943
  H      0.856678    2.126104    0.033990
  H     -1.678395    2.075102   -0.546595
  H     -2.430535   -0.355577   -0.862849
  H      0.048224    1.648671    1.524486
  H      2.153911   -0.835724   -0.861306

 Total Charge           Charge          ....    0
 Multiplicity           Mult            ....    1
 Number of Electrons    NEL             ....   54
 Basis Dimension        Dim             ....  418

ORBITAL ENERGIES
----------------

  NO   OCC          E(Eh)            E(eV)
   0   2.0000     -91.957112     -2502.2802
   1   2.0000     -20.572147      -559.7966
   2   2.0000     -11.325526      -308.1832
   3   2.0000     -11.260547      -306.4151
   4   2.0000     -11.241660      -305.9011
   5   2.0000     -11.237151      -305.7784
   6   2.0000      -8.957938      -243.7579
   7   2.0000      -6.639034      -180.6573
   8   2.0000      -6.638225      -180.6353
   9   2.0000      -6.637324      -180.6108
  10   2.0000      -1.379740       -37.5446
  11   2.0000      -1.134313       -30.8662
  12   2.0000      -0.986828       -26.8530
  13   2.0000      -0.968234       -26.3470
  14   2.0000      -0.805472       -21.9180
  15   2.0000      -0.753613       -20.5069
  16   2.0000      -0.711978       -19.3739
  17   2.0000      -0.675705       -18.3869
  18   2.0000      -0.602524       -16.3955
  19   2.0000      -0.576392       -15.6844
  20   2.0000      -0.567536       -15.4434
  21   2.0000      -0.544386       -14.8135
  22   2.0000      -0.492032       -13.3889
  23   2.0000      -0.471010       -12.8168
  24   2.0000      -0.435921       -11.8620
  25   2.0000      -0.427993       -11.6463
  26   2.0000      -0.314590        -8.5604
  27   0.0000       0.030059         0.8179
  28   0.0000       0.035029         0.9532
  29   0.0000       0.039577         1.0770
  30   0.0000       0.043633         1.1873
  31   0.0000       0.054308         1.4778

MULLIKEN ATOMIC CHARGES
-----------------------
   0 S :   -0.336439
   1 C :    0.349254
   2 C :   -0.336708
   3 C :   -0.608713
   4 C :   -0.381361
   5 O :   -0.611190
   6 H :    0.275643
   7 H :    0.320299
   8 H :    0.394596
   9 H :    0.496365
  10 H :    0.265725
  11 H :    0.172529
Sum of atomic charges:   -0.0000000

LOEWDIN ATOMIC CHARGES
----------------------
   0 S :    1.168297
   1 C :   -0.559601
   2 C :    0.187969
   3 C :    0.116307
   4 C :   -0.198033
   5 O :    0.779171
   6 H :   -0.216150
   7 H :   -0.163641
   8 H :   -0.190234
   9 H :   -0.261395
  10 H :   -0.155933
  11 H :   -0.506759

  Mayer bond orders larger than 0.100000
B(  0-S ,  1-C ) :   0.9168 B(  0-S ,  4-C ) :   1.0280 B(  1-C ,  2-C ) :   0.9906
B(  1-C ,  5-O ) :   0.6021 B(  1-C ,  6-H ) :   0.9541 B(  2-C ,  3-C ) :   0.8820
B(  2-C ,  7-H ) :   0.9150 B(  2-C , 10-H ) :   0.9416 B(  3-C ,  4-C ) :   1.6321
B(  3-C ,  8-H ) :   0.9160 B(  4-C ,  9-H ) :   0.7414 B(  5-O , 11-H ) :   1.0008

MP2 TOTAL ENERGY:     -628.521440147 Eh
FINAL SINGLE POINT ENERGY      -628.521440147105

DIPOLE MOMENT
-------------
                                X             Y             Z
Electronic contribution:     -0.45608      -4.22247      -0.34472
Nuclear contribution   :      0.46459       4.44360       0.59795
                        -----------------------------------------
Total Dipole Moment    :      0.00851       0.22113       0.25323
                        -----------------------------------------
Magnitude (a.u.)       :      0.33629
Magnitude (Debye)      :      0.85479

Rotational constants in cm-1:     0.133927     0.112255     0.072826
Rotational constants in MHz :  4015.034863  3365.319562  2183.257452

                             ****ORCA TERMINATED NORMALLY****
TOTAL RUN TIME: 0 days 0 hours 2 minutes 47 seconds 576 msec
