                         Program Version 5.0.3 -  RELEASE  -
|  1> !ri-mp2 aug-cc-pvtz aug-cc-pvtz/c tightscf
|  2> %pal nprocs 16 end
|  3>
|  4> * xyz 0 1
|  5> O      0.456164    2.811298    0.519791
|  6> O     -0.456164   -2.811298    0.519791
|  7> O     -1.460125    2.429632   -0.552434
|  8> O      1.460125   -2.429632   -0.552434
|  9> C     -0.456164    2.004868   -0.060552
| 10> C      0.456164   -2.004868   -0.060552
| 11> C     -0.123481    0.588917   -0.035196
| 12> C      0.123481   -0.588917   -0.035196
| 13> H      1.213127    2.300420    0.835627
| 14> H     -1.213127   -2.300420    0.835627
| 15> *
| 16>
| 17>                          ****END OF INPUT****

CARTESIAN COORDINATES (ANGSTROEM)
---------------------------------
  O      0.456164    2.811298    0.519791
  O     -0.456164   -2.811298    0.519791
  O     -1.460125    2.429632   -0.552434
  O      1.460125   -2.429632   -0.552434
  C     -0.456164    2.004868   -0.060552
  C      0.456164   -2.004868   -0.060552
  C     -0.123481    0.588917   -0.035196
  C      0.123481   -0.588917   -0.035196
  H      1.213127    2.300420    0.835627
  H     -1.213127   -2.300420    0.835627

 Total Charge           Charge          ....    0
 Multiplicity           Mult            ....    1
 Number of Electrons    NEL             ....   58
 Basis Dimension        Dim             ....  414

ORBITAL ENERGIES
----------------

  NO   OCC          E(Eh)            E(eV)
   0   2.0000     -20.652329      -561.9784
   1   2.0000     -20.652329      -561.9784
   2   2.0000     -20.590761      -560.3031
   3   2.0000     -20.590761      -560.3031
   4   2.0000     -11.447059      -311.4903
   5   2.0000     -11.447059      -311.4903
   6   2.0000     -11.317807      -307.9732
   7   2.0000     -11.314007      -307.8698
   8   2.0000      -1.503625       -40.9157
   9   2.0000      -1.503062       -40.9004
  10   2.0000      -1.409667       -38.3590
  11   2.0000      -1.409622       -38.3578
  12   2.0000      -1.124365       -30.5955
  13   2.0000      -0.971901       -26.4468
  14   2.0000      -0.902651       -24.5624
  15   2.0000      -0.849890       -23.1267
  16   2.0000      -0.829773       -22.5793
  17   2.0000      -0.705438       -19.1959
  18   2.0000      -0.702703       -19.1215
  19   2.0000      -0.676123       -18.3982
  20   2.0000      -0.671584       -18.2747
  21   2.0000      -0.643340       -17.5062
  22   2.0000      -0.635158       -17.2835
  23   2.0000      -0.530031       -14.4229
  24   2.0000      -0.527722       -14.3600
  25   2.0000      -0.518637       -14.1128
  26   2.0000      -0.508188       -13.8285
  27   2.0000      -0.465811       -12.6754
  28   2.0000      -0.464812       -12.6482
  29   0.0000       0.016245         0.4420
  30   0.0000       0.028487         0.7752
  31   0.0000       0.041361         1.1255
  32   0.0000       0.059529         1.6199
  33   0.0000       0.065224         1.7748

MULLIKEN ATOMIC CHARGES
-----------------------
   0 O :   -0.348057
   1 O :   -0.348057
   2 O :   -0.569601
   3 O :   -0.569601
   4 C :    0.001247
   5 C :    0.001247
   6 C :    0.685822
   7 C :    0.685822
   8 H :    0.230589
   9 H :    0.230589
Sum of atomic charges:   -0.0000000

LOEWDIN ATOMIC CHARGES
----------------------
   0 O :    0.828369
   1 O :    0.828369
   2 O :    0.441147
   3 O :    0.441147
   4 C :   -0.863152
   5 C :   -0.863152
   6 C :    0.072077
   7 C :    0.072077
   8 H :   -0.478441
   9 H :   -0.478441

  Mayer bond orders larger than 0.100000
B(  0-O ,  4-C ) :   1.0981 B(  0-O ,  6-C ) :  -0.1227 B(  0-O ,  8-H ) :   0.9407
B(  1-O ,  5-C ) :   1.0981 B(  1-O ,  7-C ) :  -0.1227 B(  1-O ,  9-H ) :   0.9407
B(  2-O ,  4-C ) :   1.8261 B(  2-O ,  6-C ) :  -0.2237 B(  3-O ,  5-C ) :   1.8261
B(  3-O ,  7-C ) :  -0.2237 B(  4-C ,  5-C ) :   0.1127 B(  4-C ,  6-C ) :   0.4714
B(  4-C ,  7-C ) :  -0.1916 B(  5-C ,  6-C ) :  -0.1916 B(  5-C ,  7-C ) :   0.4714
B(  6-C ,  7-C ) :   2.5865

MP2 TOTAL ENERGY:     -453.766154544 Eh
FINAL SINGLE POINT ENERGY      -453.766154544171

DIPOLE MOMENT
-------------
                                X             Y             Z
Electronic contribution:     -0.00000      -0.00000      -0.55261
Nuclear contribution   :      0.00000       0.00000       1.59513
                        -----------------------------------------
Total Dipole Moment    :     -0.00000      -0.00000       1.04252
                        -----------------------------------------
Magnitude (a.u.)       :      1.04252
Magnitude (Debye)      :      2.64988

Rotational constants in cm-1:     0.195092     0.028382     0.026318
Rotational constants in MHz :  5848.722792   850.863019   788.982775

                             ****ORCA TERMINATED NORMALLY****
TOTAL RUN TIME: 0 days 0 hours 2 minutes 14 seconds 740 msec
