                         Program Version 5.0.3 -  RELEASE  -
|  1> !ri-mp2 aug-cc-pvtz aug-cc-pvtz/c tightscf
|  2> %pal nprocs 16 end
|  3>
|  4> * xyz 0 1
|  5> C      1.117724   -1.621803        0.000000
|  6> C     -0.134070   -2.228093        0.000000
|  7> C      1.198783   -0.239009        0.000000
|  8> C     -1.256435   -1.414617        0.000000
|  9> C      0.000000    0.468958        0.000000
| 10> N     -1.193392   -0.079209        0.000000
| 11> Cl     0.066001    2.226123        0.000000
| 12> H      2.020758   -2.217277        0.000000
| 13> H     -0.237807   -3.303639        0.000000
| 14> H      2.145204    0.279330        0.000000
| 15> H     -2.252452   -1.840652        0.000000
| 16> *
| 17>
| 18>                          ****END OF INPUT****

CARTESIAN COORDINATES (ANGSTROEM)
---------------------------------
  C      1.117724   -1.621803    0.000000
  C     -0.134070   -2.228093    0.000000
  C      1.198783   -0.239009    0.000000
  C     -1.256435   -1.414617    0.000000
  C      0.000000    0.468958    0.000000
  N     -1.193392   -0.079209    0.000000
  Cl     0.066001    2.226123    0.000000
  H      2.020758   -2.217277    0.000000
  H     -0.237807   -3.303639    0.000000
  H      2.145204    0.279330    0.000000
  H     -2.252452   -1.840652    0.000000

 Total Charge           Charge          ....    0
 Multiplicity           Mult            ....    1
 Number of Electrons    NEL             ....   58
 Basis Dimension        Dim             ....  418

ORBITAL ENERGIES
----------------

  NO   OCC          E(Eh)            E(eV)
   0   2.0000    -104.842181     -2852.9008
   1   2.0000     -15.582805      -424.0297
   2   2.0000     -11.346737      -308.7604
   3   2.0000     -11.291932      -307.2691
   4   2.0000     -11.275007      -306.8085
   5   2.0000     -11.259276      -306.3805
   6   2.0000     -11.253760      -306.2304
   7   2.0000     -10.566074      -287.5175
   8   2.0000      -8.032903      -218.5864
   9   2.0000      -8.031034      -218.5355
  10   2.0000      -8.030990      -218.5344
  11   2.0000      -1.294473       -35.2244
  12   2.0000      -1.135467       -30.8976
  13   2.0000      -1.109520       -30.1916
  14   2.0000      -1.022842       -27.8330
  15   2.0000      -0.883344       -24.0370
  16   2.0000      -0.853285       -23.2191
  17   2.0000      -0.723843       -19.6968
  18   2.0000      -0.689444       -18.7607
  19   2.0000      -0.659679       -17.9508
  20   2.0000      -0.604875       -16.4595
  21   2.0000      -0.589910       -16.0523
  22   2.0000      -0.581998       -15.8370
  23   2.0000      -0.536512       -14.5992
  24   2.0000      -0.477991       -13.0068
  25   2.0000      -0.459399       -12.5009
  26   2.0000      -0.438723       -11.9383
  27   2.0000      -0.401052       -10.9132
  28   2.0000      -0.352592        -9.5945
  29   0.0000       0.023386         0.6364
  30   0.0000       0.032064         0.8725
  31   0.0000       0.039720         1.0808
  32   0.0000       0.050833         1.3832
  33   0.0000       0.074941         2.0393

MULLIKEN ATOMIC CHARGES
-----------------------
   0 C :   -0.573851
   1 C :   -0.011539
   2 C :   -0.446442
   3 C :   -0.638711
   4 C :    0.364816
   5 N :   -0.284827
   6 Cl:   -0.368116
   7 H :    0.506736
   8 H :    0.326673
   9 H :    0.465174
  10 H :    0.660086
Sum of atomic charges:    0.0000000

LOEWDIN ATOMIC CHARGES
----------------------
   0 C :    0.186822
   1 C :    0.199859
   2 C :    0.106990
   3 C :    0.006608
   4 C :   -0.962594
   5 N :    0.287115
   6 Cl:    0.934270
   7 H :   -0.172371
   8 H :   -0.189026
   9 H :   -0.208096
  10 H :   -0.189578

  Mayer bond orders larger than 0.100000
B(  0-C ,  1-C ) :   1.0567 B(  0-C ,  2-C ) :   1.3203 B(  0-C ,  3-C ) :   0.2361
B(  0-C ,  4-C ) :   0.2063 B(  0-C ,  7-H ) :   0.8099 B(  0-C ,  8-H ) :  -0.1296
B(  1-C ,  3-C ) :   0.9094 B(  1-C ,  5-N ) :  -0.1601 B(  1-C ,  8-H ) :   0.9995
B(  2-C ,  4-C ) :   1.0589 B(  2-C ,  9-H ) :   0.8246 B(  3-C ,  4-C ) :   0.2594
B(  3-C ,  5-N ) :   1.2237 B(  3-C , 10-H ) :   0.3940 B(  4-C ,  5-N ) :   1.1895
B(  4-C ,  6-Cl) :   0.7481 B(  5-N , 10-H ) :  -0.1060

MP2 TOTAL ENERGY:     -706.903277365 Eh
FINAL SINGLE POINT ENERGY      -706.903277365051

DIPOLE MOMENT
-------------
                                X             Y             Z
Electronic contribution:     -0.81857       8.59553      -0.00000
Nuclear contribution   :      1.51024      -9.84986       0.00000
                        -----------------------------------------
Total Dipole Moment    :      0.69166      -1.25433      -0.00000
                        -----------------------------------------
Magnitude (a.u.)       :      1.43239
Magnitude (Debye)      :      3.64085

Rotational constants in cm-1:     0.197845     0.053834     0.042319
Rotational constants in MHz :  5931.239868  1613.909376  1268.693743

                             ****ORCA TERMINATED NORMALLY****
TOTAL RUN TIME: 0 days 0 hours 2 minutes 36 seconds 269 msec
