                         Program Version 5.0.3 -  RELEASE  -
|  1> !ri-mp2 aug-cc-pvtz aug-cc-pvtz/c tightscf
|  2> %pal nprocs 16 end
|  3>
|  4> * xyz 0 1
|  5> C     -0.019580    1.273801    1.273937
|  6> C     -0.019580    1.273801   -1.273937
|  7> C      0.466570    0.597774    0.000000
|  8> N     -0.019580   -0.850943    0.000000
|  9> O      0.828786   -1.727382    0.000000
| 10> O     -1.224451   -1.038289    0.000000
| 11> H      0.370883    2.290811    1.305811
| 12> H     -1.106994    1.317390    1.296364
| 13> H      0.330843    0.747565    2.161338
| 14> H      0.330843    0.747565   -2.161338
| 15> H      0.370883    2.290811   -1.305811
| 16> H     -1.106994    1.317390   -1.296364
| 17> H      1.548465    0.498180    0.000000
| 18> *
| 19>
| 20>                          ****END OF INPUT****

CARTESIAN COORDINATES (ANGSTROEM)
---------------------------------
  C     -0.019580    1.273801    1.273937
  C     -0.019580    1.273801   -1.273937
  C      0.466570    0.597774    0.000000
  N     -0.019580   -0.850943    0.000000
  O      0.828786   -1.727382    0.000000
  O     -1.224451   -1.038289    0.000000
  H      0.370883    2.290811    1.305811
  H     -1.106994    1.317390    1.296364
  H      0.330843    0.747565    2.161338
  H      0.330843    0.747565   -2.161338
  H      0.370883    2.290811   -1.305811
  H     -1.106994    1.317390   -1.296364
  H      1.548465    0.498180    0.000000

 Total Charge           Charge          ....    0
 Multiplicity           Mult            ....    1
 Number of Electrons    NEL             ....   48
 Basis Dimension        Dim             ....  437

ORBITAL ENERGIES
----------------

  NO   OCC          E(Eh)            E(eV)
   0   2.0000     -20.601769      -560.6026
   1   2.0000     -20.598935      -560.5255
   2   2.0000     -15.838841      -430.9968
   3   2.0000     -11.313801      -307.8642
   4   2.0000     -11.248535      -306.0882
   5   2.0000     -11.248522      -306.0879
   6   2.0000      -1.601961       -43.5916
   7   2.0000      -1.397396       -38.0251
   8   2.0000      -1.138971       -30.9930
   9   2.0000      -0.973254       -26.4836
  10   2.0000      -0.956631       -26.0313
  11   2.0000      -0.817908       -22.2564
  12   2.0000      -0.745254       -20.2794
  13   2.0000      -0.720460       -19.6047
  14   2.0000      -0.714353       -19.4385
  15   2.0000      -0.650452       -17.6997
  16   2.0000      -0.594390       -16.1742
  17   2.0000      -0.588442       -16.0123
  18   2.0000      -0.569595       -15.4995
  19   2.0000      -0.529161       -14.3992
  20   2.0000      -0.525068       -14.2878
  21   2.0000      -0.489917       -13.3313
  22   2.0000      -0.472710       -12.8631
  23   2.0000      -0.450950       -12.2710
  24   0.0000       0.023433         0.6377
  25   0.0000       0.034889         0.9494
  26   0.0000       0.036582         0.9954
  27   0.0000       0.044028         1.1981
  28   0.0000       0.057619         1.5679

MULLIKEN ATOMIC CHARGES
-----------------------
   0 C :   -0.965944
   1 C :   -0.965944
   2 C :    0.278278
   3 N :    0.986030
   4 O :   -0.722807
   5 O :   -0.737888
   6 H :    0.307080
   7 H :    0.298254
   8 H :    0.298109
   9 H :    0.298109
  10 H :    0.307080
  11 H :    0.298254
  12 H :    0.321389
Sum of atomic charges:   -0.0000000

LOEWDIN ATOMIC CHARGES
----------------------
   0 C :    0.594111
   1 C :    0.594111
   2 C :   -0.124682
   3 N :   -0.696459
   4 O :    0.383273
   5 O :    0.388150
   6 H :   -0.160551
   7 H :   -0.169239
   8 H :   -0.159357
   9 H :   -0.159357
  10 H :   -0.160551
  11 H :   -0.169239
  12 H :   -0.160209

  Mayer bond orders larger than 0.100000
B(  0-C ,  1-C ) :   0.1084 B(  0-C ,  2-C ) :   0.7935 B(  0-C ,  6-H ) :   0.9280
B(  0-C ,  7-H ) :   0.9387 B(  0-C ,  8-H ) :   0.9416 B(  1-C ,  2-C ) :   0.7935
B(  1-C ,  9-H ) :   0.9416 B(  1-C , 10-H ) :   0.9280 B(  1-C , 11-H ) :   0.9387
B(  2-C ,  3-N ) :   0.9379 B(  2-C , 12-H ) :   0.8216 B(  3-N ,  4-O ) :   1.0729
B(  3-N ,  5-O ) :   1.0339 B(  4-O ,  5-O ) :   0.1653

MP2 TOTAL ENERGY:     -323.102151188 Eh
FINAL SINGLE POINT ENERGY      -323.102151187869

DIPOLE MOMENT
-------------
                                X             Y             Z
Electronic contribution:     -0.30796      -7.56945       0.00000
Nuclear contribution   :      0.74023       9.26945      -0.00000
                        -----------------------------------------
Total Dipole Moment    :      0.43227       1.70000       0.00000
                        -----------------------------------------
Magnitude (a.u.)       :      1.75410
Magnitude (Debye)      :      4.45856

Rotational constants in cm-1:     0.171645     0.095832     0.089595
Rotational constants in MHz :  5145.792480  2872.976410  2685.998231

                             ****ORCA TERMINATED NORMALLY****
TOTAL RUN TIME: 0 days 0 hours 2 minutes 46 seconds 928 msec
