                         Program Version 5.0.3 -  RELEASE  -
|  1> !ri-mp2 aug-cc-pvtz aug-cc-pvtz/c tightscf
|  2> %pal nprocs 16 end
|  3>
|  4> * xyz 0 1
|  5> Cl     0.000000    0.000000    2.618722
|  6> F      0.000000    0.000000   -3.087327
|  7> N      0.000000    1.187499    0.290904
|  8> N      0.000000   -1.187499    0.290904
|  9> C      0.000000    0.000000    0.875246
| 10> C      0.000000    0.000000   -1.745780
| 11> C      0.000000    1.189332   -1.040282
| 12> C      0.000000   -1.189332   -1.040282
| 13> H      0.000000    2.145496   -1.549203
| 14> H      0.000000   -2.145496   -1.549203
| 15> *
| 16>
| 17>                          ****END OF INPUT****

CARTESIAN COORDINATES (ANGSTROEM)
---------------------------------
  Cl     0.000000    0.000000    2.618722
  F      0.000000    0.000000   -3.087327
  N      0.000000    1.187499    0.290904
  N      0.000000   -1.187499    0.290904
  C      0.000000    0.000000    0.875246
  C      0.000000    0.000000   -1.745780
  C      0.000000    1.189332   -1.040282
  C      0.000000   -1.189332   -1.040282
  H      0.000000    2.145496   -1.549203
  H      0.000000   -2.145496   -1.549203

 Total Charge           Charge          ....    0
 Multiplicity           Mult            ....    1
 Number of Electrons    NEL             ....   66
 Basis Dimension        Dim             ....  418

ORBITAL ENERGIES
----------------

  NO   OCC          E(Eh)            E(eV)
   0   2.0000    -104.853729     -2853.2150
   1   2.0000     -26.344250      -716.8635
   2   2.0000     -15.608288      -424.7231
   3   2.0000     -15.608261      -424.7224
   4   2.0000     -11.392806      -310.0140
   5   2.0000     -11.357278      -309.0472
   6   2.0000     -11.329036      -308.2787
   7   2.0000     -11.329000      -308.2778
   8   2.0000     -10.577863      -287.8383
   9   2.0000      -8.044744      -218.9086
  10   2.0000      -8.042743      -218.8542
  11   2.0000      -8.042639      -218.8513
  12   2.0000      -1.661531       -45.2125
  13   2.0000      -1.361143       -37.0386
  14   2.0000      -1.236433       -33.6451
  15   2.0000      -1.158779       -31.5320
  16   2.0000      -1.070158       -29.1205
  17   2.0000      -0.949631       -25.8408
  18   2.0000      -0.898938       -24.4613
  19   2.0000      -0.784523       -21.3480
  20   2.0000      -0.782127       -21.2828
  21   2.0000      -0.730348       -19.8738
  22   2.0000      -0.724580       -19.7168
  23   2.0000      -0.672975       -18.3126
  24   2.0000      -0.629726       -17.1357
  25   2.0000      -0.623147       -16.9567
  26   2.0000      -0.604333       -16.4447
  27   2.0000      -0.520150       -14.1540
  28   2.0000      -0.491963       -13.3870
  29   2.0000      -0.474088       -12.9006
  30   2.0000      -0.457498       -12.4492
  31   2.0000      -0.442583       -12.0433
  32   2.0000      -0.381569       -10.3830
  33   0.0000       0.026209         0.7132
  34   0.0000       0.032260         0.8778
  35   0.0000       0.052767         1.4359
  36   0.0000       0.059667         1.6236
  37   0.0000       0.065445         1.7809

MULLIKEN ATOMIC CHARGES
-----------------------
   0 Cl:   -0.262821
   1 F :   -0.530055
   2 N :   -0.297517
   3 N :   -0.297517
   4 C :    0.039757
   5 C :    0.870783
   6 C :   -0.407698
   7 C :   -0.407698
   8 H :    0.646384
   9 H :    0.646384
Sum of atomic charges:    0.0000000

LOEWDIN ATOMIC CHARGES
----------------------
   0 Cl:    0.943875
   1 F :    0.498287
   2 N :    0.284581
   3 N :    0.284581
   4 C :   -1.175979
   5 C :   -0.510486
   6 C :    0.012619
   7 C :    0.012619
   8 H :   -0.175048
   9 H :   -0.175048

  Mayer bond orders larger than 0.100000
B(  0-Cl,  4-C ) :   0.8688 B(  1-F ,  5-C ) :   0.6460 B(  1-F ,  6-C ) :   0.1226
B(  1-F ,  7-C ) :   0.1226 B(  2-N ,  4-C ) :   1.3826 B(  2-N ,  5-C ) :  -0.1287
B(  2-N ,  6-C ) :   1.0452 B(  2-N ,  7-C ) :   0.1137 B(  3-N ,  4-C ) :   1.3826
B(  3-N ,  5-C ) :  -0.1287 B(  3-N ,  6-C ) :   0.1137 B(  3-N ,  7-C ) :   1.0452
B(  5-C ,  6-C ) :   1.0473 B(  5-C ,  7-C ) :   1.0473 B(  6-C ,  7-C ) :   0.3071
B(  6-C ,  8-H ) :   0.4570 B(  7-C ,  9-H ) :   0.4570

MP2 TOTAL ENERGY:     -822.067160024 Eh
FINAL SINGLE POINT ENERGY      -822.067160023912

DIPOLE MOMENT
-------------
                                X             Y             Z
Electronic contribution:     -0.00000       0.00000       2.62432
Nuclear contribution   :      0.00000       0.00000      -3.54716
                        -----------------------------------------
Total Dipole Moment    :     -0.00000       0.00000      -0.92283
                        -----------------------------------------
Magnitude (a.u.)       :      0.92283
Magnitude (Debye)      :      2.34566

Rotational constants in cm-1:     0.203685     0.033507     0.028773
Rotational constants in MHz :  6106.317471  1004.504600   862.604060

                             ****ORCA TERMINATED NORMALLY****
TOTAL RUN TIME: 0 days 0 hours 2 minutes 42 seconds 540 msec
