                         Program Version 5.0.3 -  RELEASE  -
|  1> !ri-mp2 aug-cc-pvtz aug-cc-pvtz/c tightscf
|  2> %pal nprocs 16 end
|  3>
|  4> * xyz 0 1
|  5> S      0.486424   -1.562232    0.000000
|  6> C      1.185552    0.135916    0.000000
|  7> C      0.000000    1.049246    0.000000
|  8> C     -1.213614    0.503766    0.000000
|  9> C     -1.274556   -0.989952    0.000000
| 10> O      0.322895    2.373917    0.000000
| 11> H      1.804678    0.296812    0.883239
| 12> H     -2.125549    1.088447    0.000000
| 13> H     -1.777269   -1.389274   -0.882273
| 14> H      1.804678    0.296812   -0.883239
| 15> H     -1.777269   -1.389274    0.882273
| 16> H     -0.479502    2.906985    0.000000
| 17> *
| 18>
| 19>                          ****END OF INPUT****

CARTESIAN COORDINATES (ANGSTROEM)
---------------------------------
  S      0.486424   -1.562232    0.000000
  C      1.185552    0.135916    0.000000
  C      0.000000    1.049246    0.000000
  C     -1.213614    0.503766    0.000000
  C     -1.274556   -0.989952    0.000000
  O      0.322895    2.373917    0.000000
  H      1.804678    0.296812    0.883239
  H     -2.125549    1.088447    0.000000
  H     -1.777269   -1.389274   -0.882273
  H      1.804678    0.296812   -0.883239
  H     -1.777269   -1.389274    0.882273
  H     -0.479502    2.906985    0.000000

 Total Charge           Charge          ....    0
 Multiplicity           Mult            ....    1
 Number of Electrons    NEL             ....   54
 Basis Dimension        Dim             ....  418

ORBITAL ENERGIES
----------------

  NO   OCC          E(Eh)            E(eV)
   0   2.0000     -91.946148     -2501.9819
   1   2.0000     -20.600936      -560.5800
   2   2.0000     -11.309433      -307.7453
   3   2.0000     -11.264638      -306.5264
   4   2.0000     -11.264044      -306.5102
   5   2.0000     -11.228327      -305.5383
   6   2.0000      -8.946164      -243.4375
   7   2.0000      -6.627319      -180.3385
   8   2.0000      -6.626538      -180.3173
   9   2.0000      -6.625488      -180.2887
  10   2.0000      -1.414363       -38.4868
  11   2.0000      -1.130548       -30.7638
  12   2.0000      -0.992195       -26.9990
  13   2.0000      -0.965006       -26.2592
  14   2.0000      -0.818016       -22.2593
  15   2.0000      -0.782329       -21.2882
  16   2.0000      -0.691853       -18.8263
  17   2.0000      -0.649252       -17.6670
  18   2.0000      -0.638937       -17.3864
  19   2.0000      -0.588454       -16.0127
  20   2.0000      -0.560239       -15.2449
  21   2.0000      -0.549096       -14.9417
  22   2.0000      -0.537078       -14.6146
  23   2.0000      -0.493216       -13.4211
  24   2.0000      -0.434889       -11.8339
  25   2.0000      -0.351148        -9.5552
  26   2.0000      -0.332830        -9.0568
  27   0.0000       0.024167         0.6576
  28   0.0000       0.036176         0.9844
  29   0.0000       0.041170         1.1203
  30   0.0000       0.043841         1.1930
  31   0.0000       0.054594         1.4856

MULLIKEN ATOMIC CHARGES
-----------------------
   0 S :   -0.240404
   1 C :   -0.283279
   2 C :    0.398976
   3 C :   -0.679647
   4 C :   -0.239563
   5 O :   -0.583341
   6 H :    0.270440
   7 H :    0.419090
   8 H :    0.258202
   9 H :    0.270440
  10 H :    0.258202
  11 H :    0.150884
Sum of atomic charges:    0.0000000

LOEWDIN ATOMIC CHARGES
----------------------
   0 S :    1.175416
   1 C :   -0.063357
   2 C :   -0.444689
   3 C :    0.145493
   4 C :   -0.078138
   5 O :    0.834277
   6 H :   -0.221133
   7 H :   -0.191146
   8 H :   -0.231773
   9 H :   -0.221133
  10 H :   -0.231773
  11 H :   -0.472045

  Mayer bond orders larger than 0.100000
B(  0-S ,  1-C ) :   0.9807 B(  0-S ,  3-C ) :   0.1018 B(  0-S ,  4-C ) :   0.9286
B(  1-C ,  2-C ) :   0.8109 B(  1-C ,  6-H ) :   0.9635 B(  1-C ,  9-H ) :   0.9635
B(  2-C ,  3-C ) :   1.4975 B(  2-C ,  5-O ) :   0.8879 B(  2-C , 11-H ) :   0.1383
B(  3-C ,  4-C ) :   0.9092 B(  3-C ,  5-O ) :  -0.1638 B(  3-C ,  7-H ) :   0.8342
B(  4-C ,  8-H ) :   0.9432 B(  4-C , 10-H ) :   0.9432 B(  5-O , 11-H ) :   1.0403

MP2 TOTAL ENERGY:     -628.523120834 Eh
FINAL SINGLE POINT ENERGY      -628.523120833997

DIPOLE MOMENT
-------------
                                X             Y             Z
Electronic contribution:      1.80461      -1.20530       0.00000
Nuclear contribution   :     -2.54173       1.88249       0.00000
                        -----------------------------------------
Total Dipole Moment    :     -0.73712       0.67720       0.00000
                        -----------------------------------------
Magnitude (a.u.)       :      1.00097
Magnitude (Debye)      :      2.54426

Rotational constants in cm-1:     0.200362     0.078937     0.057848
Rotational constants in MHz :  6006.690427  2366.463917  1734.249383

                             ****ORCA TERMINATED NORMALLY****
TOTAL RUN TIME: 0 days 0 hours 2 minutes 34 seconds 883 msec
