                         Program Version 5.0.3 -  RELEASE  -
|  1> !ri-mp2 aug-cc-pvtz aug-cc-pvtz/c tightscf
|  2> %pal nprocs 16 end
|  3>
|  4> * xyz 0 1
|  5> F     -0.777482   -0.846334    1.091554
|  6> F     -0.777487   -0.846342   -1.091545
|  7> O      2.802791    0.007738   -0.000006
|  8> N      0.529576    0.669815   -0.000003
|  9> C     -0.715131   -0.014559    0.000002
| 10> C     -1.891632    0.924090    0.000000
| 11> C      1.670848    0.263476   -0.000005
| 12> H     -2.809445    0.341143    0.000005
| 13> H     -1.854854    1.552140   -0.887058
| 14> H     -1.854850    1.552146    0.887056
| 15> *
| 16>
| 17>                          ****END OF INPUT****

CARTESIAN COORDINATES (ANGSTROEM)
---------------------------------
  F     -0.777482   -0.846334    1.091554
  F     -0.777487   -0.846342   -1.091545
  O      2.802791    0.007738   -0.000006
  N      0.529576    0.669815   -0.000003
  C     -0.715131   -0.014559    0.000002
  C     -1.891632    0.924090    0.000000
  C      1.670848    0.263476   -0.000005
  H     -2.809445    0.341143    0.000005
  H     -1.854854    1.552140   -0.887058
  H     -1.854850    1.552146    0.887056

 Total Charge           Charge          ....    0
 Multiplicity           Mult            ....    1
 Number of Electrons    NEL             ....   54
 Basis Dimension        Dim             ....  391

ORBITAL ENERGIES
----------------

  NO   OCC          E(Eh)            E(eV)
   0   2.0000     -26.325261      -716.3468
   1   2.0000     -26.325240      -716.3462
   2   2.0000     -20.642993      -561.7244
   3   2.0000     -15.609585      -424.7584
   4   2.0000     -11.480620      -312.4036
   5   2.0000     -11.435471      -311.1750
   6   2.0000     -11.254860      -306.2603
   7   2.0000      -1.678439       -45.6726
   8   2.0000      -1.612685       -43.8834
   9   2.0000      -1.497277       -40.7430
  10   2.0000      -1.305081       -35.5131
  11   2.0000      -1.076412       -29.2907
  12   2.0000      -0.932532       -25.3755
  13   2.0000      -0.834484       -22.7075
  14   2.0000      -0.784449       -21.3459
  15   2.0000      -0.756806       -20.5937
  16   2.0000      -0.752594       -20.4791
  17   2.0000      -0.693099       -18.8602
  18   2.0000      -0.686898       -18.6914
  19   2.0000      -0.665872       -18.1193
  20   2.0000      -0.661805       -18.0086
  21   2.0000      -0.643748       -17.5173
  22   2.0000      -0.588270       -16.0076
  23   2.0000      -0.584780       -15.9127
  24   2.0000      -0.565719       -15.3940
  25   2.0000      -0.493045       -13.4164
  26   2.0000      -0.471540       -12.8313
  27   0.0000       0.026527         0.7218
  28   0.0000       0.043829         1.1926
  29   0.0000       0.044029         1.1981
  30   0.0000       0.055495         1.5101
  31   0.0000       0.076807         2.0900

MULLIKEN ATOMIC CHARGES
-----------------------
   0 F :   -0.437100
   1 F :   -0.437101
   2 O :   -0.425906
   3 N :   -0.000945
   4 C :    1.513356
   5 C :   -1.107332
   6 C :   -0.103658
   7 H :    0.345700
   8 H :    0.326494
   9 H :    0.326493
Sum of atomic charges:    0.0000000

LOEWDIN ATOMIC CHARGES
----------------------
   0 F :    0.486276
   1 F :    0.486275
   2 O :    0.412762
   3 N :    0.287346
   4 C :   -1.287319
   5 C :    0.571249
   6 C :   -0.444806
   7 H :   -0.171600
   8 H :   -0.170093
   9 H :   -0.170091

  Mayer bond orders larger than 0.100000
B(  0-F ,  4-C ) :   0.5673 B(  1-F ,  4-C ) :   0.5673 B(  2-O ,  3-N ) :  -0.2105
B(  2-O ,  6-C ) :   2.1302 B(  3-N ,  4-C ) :   0.6522 B(  3-N ,  6-C ) :   1.6342
B(  4-C ,  5-C ) :   0.8501 B(  4-C ,  6-C ) :  -0.1199 B(  5-C ,  7-H ) :   0.8927
B(  5-C ,  8-H ) :   0.9112 B(  5-C ,  9-H ) :   0.9112

MP2 TOTAL ENERGY:     -445.158779669 Eh
FINAL SINGLE POINT ENERGY      -445.158779668589

DIPOLE MOMENT
-------------
                                X             Y             Z
Electronic contribution:      3.93369      -4.18439       0.00001
Nuclear contribution   :     -4.67600       4.85122      -0.00001
                        -----------------------------------------
Total Dipole Moment    :     -0.74231       0.66683      -0.00000
                        -----------------------------------------
Magnitude (a.u.)       :      0.99784
Magnitude (Debye)      :      2.53630

Rotational constants in cm-1:     0.175875     0.056742     0.056338
Rotational constants in MHz :  5272.614273  1701.094107  1688.960875

                             ****ORCA TERMINATED NORMALLY****
TOTAL RUN TIME: 0 days 0 hours 1 minutes 59 seconds 173 msec
