                         Program Version 5.0.3 -  RELEASE  -
|  1> !ri-mp2 aug-cc-pvtz aug-cc-pvtz/c tightscf
|  2> %pal nprocs 16 end
|  3>
|  4> * xyz 0 1
|  5> O      0.112000    1.645041    0.000178
|  6> N      0.429060   -0.659026   -0.000089
|  7> N      1.652969   -0.464671   -0.000125
|  8> N      2.770025   -0.386800   -0.000154
|  9> C     -1.813590    0.267150    0.000107
| 10> C     -0.363056    0.533548    0.000075
| 11> C     -2.364559   -0.942577   -0.000011
| 12> H     -2.413662    1.167111    0.000239
| 13> H     -1.760433   -1.838905   -0.000143
| 14> H     -3.439057   -1.063786    0.000022
| 15> *
| 16>
| 17>                          ****END OF INPUT****

CARTESIAN COORDINATES (ANGSTROEM)
---------------------------------
  O      0.112000    1.645041    0.000178
  N      0.429060   -0.659026   -0.000089
  N      1.652969   -0.464671   -0.000125
  N      2.770025   -0.386800   -0.000154
  C     -1.813590    0.267150    0.000107
  C     -0.363056    0.533548    0.000075
  C     -2.364559   -0.942577   -0.000011
  H     -2.413662    1.167111    0.000239
  H     -1.760433   -1.838905   -0.000143
  H     -3.439057   -1.063786    0.000022

 Total Charge           Charge          ....    0
 Multiplicity           Mult            ....    1
 Number of Electrons    NEL             ....   50
 Basis Dimension        Dim             ....  391

ORBITAL ENERGIES
----------------

  NO   OCC          E(Eh)            E(eV)
   0   2.0000     -20.559917      -559.4638
   1   2.0000     -15.809955      -430.2108
   2   2.0000     -15.706449      -427.3942
   3   2.0000     -15.627158      -425.2366
   4   2.0000     -11.384710      -309.7937
   5   2.0000     -11.268668      -306.6360
   6   2.0000     -11.259671      -306.3912
   7   2.0000      -1.541059       -41.9344
   8   2.0000      -1.418618       -38.6026
   9   2.0000      -1.310401       -35.6578
  10   2.0000      -1.096574       -29.8393
  11   2.0000      -0.943228       -25.6666
  12   2.0000      -0.845165       -22.9981
  13   2.0000      -0.739532       -20.1237
  14   2.0000      -0.731800       -19.9133
  15   2.0000      -0.714648       -19.4466
  16   2.0000      -0.692938       -18.8558
  17   2.0000      -0.660057       -17.9611
  18   2.0000      -0.632627       -17.2147
  19   2.0000      -0.577418       -15.7123
  20   2.0000      -0.557359       -15.1665
  21   2.0000      -0.519101       -14.1255
  22   2.0000      -0.441697       -12.0192
  23   2.0000      -0.420429       -11.4405
  24   2.0000      -0.402454       -10.9513
  25   0.0000       0.026159         0.7118
  26   0.0000       0.038447         1.0462
  27   0.0000       0.044938         1.2228
  28   0.0000       0.057727         1.5708
  29   0.0000       0.069285         1.8853

MULLIKEN ATOMIC CHARGES
-----------------------
   0 O :   -0.666713
   1 N :   -0.533951
   2 N :    1.296217
   3 N :   -0.803502
   4 C :   -0.157600
   5 C :    0.640378
   6 C :   -0.908434
   7 H :    0.251410
   8 H :    0.333578
   9 H :    0.548618
Sum of atomic charges:    0.0000000

LOEWDIN ATOMIC CHARGES
----------------------
   0 O :    0.430751
   1 N :    0.195329
   2 N :   -0.218076
   3 N :    0.342173
   4 C :    0.153015
   5 C :   -0.797375
   6 C :    0.537242
   7 H :   -0.208168
   8 H :   -0.227969
   9 H :   -0.206922

  Mayer bond orders larger than 0.100000
B(  0-O ,  5-C ) :   1.3710 B(  1-N ,  2-N ) :   0.6936 B(  1-N ,  3-N ) :   0.6151
B(  1-N ,  4-C ) :  -0.1892 B(  1-N ,  5-C ) :   1.1462 B(  2-N ,  3-N ) :   1.2288
B(  4-C ,  5-C ) :   0.7835 B(  4-C ,  6-C ) :   1.4524 B(  4-C ,  7-H ) :   1.0480
B(  5-C ,  6-C ) :   0.1391 B(  6-C ,  8-H ) :   0.9679 B(  6-C ,  9-H ) :   0.6249

MP2 TOTAL ENERGY:     -354.918656306 Eh
FINAL SINGLE POINT ENERGY      -354.918656305638

DIPOLE MOMENT
-------------
                                X             Y             Z
Electronic contribution:      6.65417       0.72787      -0.00019
Nuclear contribution   :     -7.33503      -1.66234       0.00012
                        -----------------------------------------
Total Dipole Moment    :     -0.68086      -0.93446      -0.00008
                        -----------------------------------------
Magnitude (a.u.)       :      1.15620
Magnitude (Debye)      :      2.93882

Rotational constants in cm-1:     0.224013     0.060816     0.047831
Rotational constants in MHz :  6715.752479  1823.222942  1433.932456

                             ****ORCA TERMINATED NORMALLY****
TOTAL RUN TIME: 0 days 0 hours 2 minutes 22 seconds 995 msec
