                         Program Version 5.0.3 -  RELEASE  -
|  1> !ri-mp2 aug-cc-pvtz aug-cc-pvtz/c tightscf
|  2> %pal nprocs 16 end
|  3>
|  4> * xyz 0 1
|  5> S     -0.341510   -0.991986   -0.000006
|  6> O      2.519011   -1.365713   -0.000008
|  7> O      3.108200    0.731357    0.000007
|  8> N      2.272192   -0.162941    0.000001
|  9> C      0.889034    0.218887    0.000002
| 10> C      0.400378    1.497039    0.000009
| 11> C     -1.005032    1.513710    0.000008
| 12> C     -1.562355    0.249687    0.000001
| 13> C     -2.927020   -0.091395   -0.000003
| 14> C     -4.090699   -0.393484   -0.000005
| 15> H      1.038617    2.365715    0.000015
| 16> H     -1.603763    2.410935    0.000014
| 17> H     -5.119557   -0.656096   -0.000007
| 18> *
| 19>
| 20>                          ****END OF INPUT****

CARTESIAN COORDINATES (ANGSTROEM)
---------------------------------
  S     -0.341510   -0.991986   -0.000006
  O      2.519011   -1.365713   -0.000008
  O      3.108200    0.731357    0.000007
  N      2.272192   -0.162941    0.000001
  C      0.889034    0.218887    0.000002
  C      0.400378    1.497039    0.000009
  C     -1.005032    1.513710    0.000008
  C     -1.562355    0.249687    0.000001
  C     -2.927020   -0.091395   -0.000003
  C     -4.090699   -0.393484   -0.000005
  H      1.038617    2.365715    0.000015
  H     -1.603763    2.410935    0.000014
  H     -5.119557   -0.656096   -0.000007

 Total Charge           Charge          ....    0
 Multiplicity           Mult            ....    1
 Number of Electrons    NEL             ....   78
 Basis Dimension        Dim             ....  533

ORBITAL ENERGIES
----------------

  NO   OCC          E(Eh)            E(eV)
   0   2.0000     -92.032413     -2504.3293
   1   2.0000     -20.611055      -560.8553
   2   2.0000     -20.610655      -560.8444
   3   2.0000     -15.868258      -431.7972
   4   2.0000     -11.338536      -308.5373
   5   2.0000     -11.331974      -308.3587
   6   2.0000     -11.293915      -307.3230
   7   2.0000     -11.281451      -306.9839
   8   2.0000     -11.272267      -306.7340
   9   2.0000     -11.266559      -306.5786
  10   2.0000      -9.031332      -245.7550
  11   2.0000      -6.712014      -182.6432
  12   2.0000      -6.711522      -182.6298
  13   2.0000      -6.710607      -182.6049
  14   2.0000      -1.615442       -43.9584
  15   2.0000      -1.408250       -38.3204
  16   2.0000      -1.231824       -33.5196
  17   2.0000      -1.116637       -30.3852
  18   2.0000      -1.063011       -28.9260
  19   2.0000      -1.029463       -28.0131
  20   2.0000      -0.959141       -26.0996
  21   2.0000      -0.849880       -23.1264
  22   2.0000      -0.807853       -21.9828
  23   2.0000      -0.765137       -20.8204
  24   2.0000      -0.742115       -20.1940
  25   2.0000      -0.732307       -19.9271
  26   2.0000      -0.730147       -19.8683
  27   2.0000      -0.680849       -18.5268
  28   2.0000      -0.629446       -17.1281
  29   2.0000      -0.591671       -16.1002
  30   2.0000      -0.575645       -15.6641
  31   2.0000      -0.531321       -14.4580
  32   2.0000      -0.504412       -13.7258
  33   2.0000      -0.502276       -13.6676
  34   2.0000      -0.465704       -12.6725
  35   2.0000      -0.463769       -12.6198
  36   2.0000      -0.428304       -11.6547
  37   2.0000      -0.388853       -10.5812
  38   2.0000      -0.348157        -9.4738
  39   0.0000       0.006563         0.1786
  40   0.0000       0.021418         0.5828
  41   0.0000       0.026842         0.7304
  42   0.0000       0.042841         1.1658
  43   0.0000       0.060618         1.6495

MULLIKEN ATOMIC CHARGES
-----------------------
   0 S :   -0.113335
   1 O :   -0.669547
   2 O :   -0.679745
   3 N :    0.789414
   4 C :    0.557680
   5 C :   -0.494126
   6 C :   -1.274672
   7 C :    1.473073
   8 C :    1.160377
   9 C :   -2.021887
  10 H :    0.529615
  11 H :    0.404520
  12 H :    0.338633
Sum of atomic charges:    0.0000000

LOEWDIN ATOMIC CHARGES
----------------------
   0 S :    1.339023
   1 O :    0.357553
   2 O :    0.380050
   3 N :   -0.803508
   4 C :   -0.632094
   5 C :    0.125030
   6 C :    0.121240
   7 C :   -0.576488
   8 C :   -0.088808
   9 C :    0.415608
  10 H :   -0.175583
  11 H :   -0.176403
  12 H :   -0.285618

  Mayer bond orders larger than 0.100000
B(  0-S ,  4-C ) :   1.0413 B(  0-S ,  6-C ) :   0.1335 B(  0-S ,  7-C ) :   1.0516
B(  0-S ,  8-C ) :  -0.1206 B(  1-O ,  2-O ) :   0.1169 B(  1-O ,  3-N ) :   1.1127
B(  1-O ,  4-C ) :   0.1584 B(  2-O ,  3-N ) :   1.1285 B(  2-O ,  4-C ) :   0.1624
B(  3-N ,  4-C ) :   1.1950 B(  3-N ,  5-C ) :  -0.2118 B(  4-C ,  5-C ) :   1.1124
B(  4-C ,  6-C ) :  -0.1840 B(  4-C ,  7-C ) :  -0.1009 B(  4-C ,  8-C ) :   0.1210
B(  5-C ,  6-C ) :   1.6445 B(  5-C , 10-H ) :   0.7264 B(  6-C ,  7-C ) :   0.8189
B(  6-C ,  9-C ) :   0.2330 B(  6-C , 11-H ) :   0.9510 B(  7-C ,  8-C ) :   0.8348
B(  7-C ,  9-C ) :  -0.7606 B(  8-C , 12-H ) :  -0.4114 B(  9-C , 12-H ) :   1.4921

MP2 TOTAL ENERGY:     -832.432631738 Eh
FINAL SINGLE POINT ENERGY      -832.432631738418

DIPOLE MOMENT
-------------
                                X             Y             Z
Electronic contribution:      3.35938      -3.15480      -0.00002
Nuclear contribution   :     -5.32962       3.96002       0.00002
                        -----------------------------------------
Total Dipole Moment    :     -1.97024       0.80522       0.00000
                        -----------------------------------------
Magnitude (a.u.)       :      2.12844
Magnitude (Debye)      :      5.41006

Rotational constants in cm-1:     0.120532     0.023452     0.019632
Rotational constants in MHz :  3613.453438   703.080238   588.562002

                             ****ORCA TERMINATED NORMALLY****
TOTAL RUN TIME: 0 days 0 hours 6 minutes 32 seconds 256 msec
