                         Program Version 5.0.3 -  RELEASE  -
|  1> !ri-mp2 aug-cc-pvtz aug-cc-pvtz/c tightscf
|  2> %pal nprocs 16 end
|  3>
|  4> * xyz 0 1
|  5> C      2.814804   -0.001719   -0.301389
|  6> C      2.134649   -1.200607   -0.119441
|  7> C      2.136199    1.201043   -0.142617
|  8> C      0.785938   -1.194095    0.216238
|  9> C      0.787279    1.201961    0.193344
| 10> C      0.091182    0.006113    0.377674
| 11> C     -1.382308    0.006570    0.699381
| 12> C     -2.252301   -0.022112   -0.563342
| 13> O     -3.645434   -0.085015   -0.273276
| 14> H      3.864982   -0.004812   -0.560108
| 15> H      2.655224   -2.142017   -0.234918
| 16> H      2.657691    2.139541   -0.276374
| 17> H      0.266470   -2.133322    0.361844
| 18> H      0.269747    2.144962    0.321584
| 19> H     -1.634273    0.897699    1.281212
| 20> H     -1.639570   -0.859511    1.311331
| 21> H     -2.033440   -0.917594   -1.144566
| 22> H     -2.023001    0.842586   -1.195287
| 23> H     -3.913002    0.729665    0.162405
| 24> *
| 25>
| 26>                          ****END OF INPUT****

CARTESIAN COORDINATES (ANGSTROEM)
---------------------------------
  C      2.814804   -0.001719   -0.301389
  C      2.134649   -1.200607   -0.119441
  C      2.136199    1.201043   -0.142617
  C      0.785938   -1.194095    0.216238
  C      0.787279    1.201961    0.193344
  C      0.091182    0.006113    0.377674
  C     -1.382308    0.006570    0.699381
  C     -2.252301   -0.022112   -0.563342
  O     -3.645434   -0.085015   -0.273276
  H      3.864982   -0.004812   -0.560108
  H      2.655224   -2.142017   -0.234918
  H      2.657691    2.139541   -0.276374
  H      0.266470   -2.133322    0.361844
  H      0.269747    2.144962    0.321584
  H     -1.634273    0.897699    1.281212
  H     -1.639570   -0.859511    1.311331
  H     -2.033440   -0.917594   -1.144566
  H     -2.023001    0.842586   -1.195287
  H     -3.913002    0.729665    0.162405

 Total Charge           Charge          ....    0
 Multiplicity           Mult            ....    1
 Number of Electrons    NEL             ....   66
 Basis Dimension        Dim             ....  644

ORBITAL ENERGIES
----------------

  NO   OCC          E(Eh)            E(eV)
   0   2.0000     -20.559010      -559.4391
   1   2.0000     -11.278024      -306.8906
   2   2.0000     -11.244167      -305.9693
   3   2.0000     -11.236856      -305.7704
   4   2.0000     -11.236500      -305.7607
   5   2.0000     -11.234036      -305.6937
   6   2.0000     -11.233463      -305.6781
   7   2.0000     -11.233197      -305.6708
   8   2.0000     -11.231831      -305.6337
   9   2.0000      -1.359202       -36.9858
  10   2.0000      -1.160016       -31.5656
  11   2.0000      -1.064200       -28.9583
  12   2.0000      -1.017375       -27.6842
  13   2.0000      -0.976525       -26.5726
  14   2.0000      -0.864932       -23.5360
  15   2.0000      -0.830805       -22.6073
  16   2.0000      -0.797969       -21.7138
  17   2.0000      -0.700212       -19.0537
  18   2.0000      -0.693804       -18.8794
  19   2.0000      -0.645554       -17.5664
  20   2.0000      -0.639412       -17.3993
  21   2.0000      -0.609045       -16.5730
  22   2.0000      -0.598861       -16.2958
  23   2.0000      -0.588032       -16.0012
  24   2.0000      -0.556894       -15.1539
  25   2.0000      -0.543423       -14.7873
  26   2.0000      -0.510039       -13.8789
  27   2.0000      -0.494392       -13.4531
  28   2.0000      -0.489938       -13.3319
  29   2.0000      -0.478168       -13.0116
  30   2.0000      -0.446688       -12.1550
  31   2.0000      -0.339708        -9.2439
  32   2.0000      -0.330660        -8.9977
  33   0.0000       0.026946         0.7332
  34   0.0000       0.030603         0.8328
  35   0.0000       0.034346         0.9346
  36   0.0000       0.042265         1.1501
  37   0.0000       0.044341         1.2066

MULLIKEN ATOMIC CHARGES
-----------------------
   0 C :   -0.171435
   1 C :   -0.595604
   2 C :   -0.646622
   3 C :   -0.982744
   4 C :   -0.945476
   5 C :    1.515356
   6 C :   -0.303492
   7 C :   -0.130384
   8 O :   -0.640676
   9 H :    0.386985
  10 H :    0.536912
  11 H :    0.535603
  12 H :    0.114327
  13 H :    0.103592
  14 H :    0.260053
  15 H :    0.200315
  16 H :    0.326863
  17 H :    0.269820
  18 H :    0.166608
Sum of atomic charges:   -0.0000000

LOEWDIN ATOMIC CHARGES
----------------------
   0 C :    0.193240
   1 C :    0.198850
   2 C :    0.197760
   3 C :    0.217145
   4 C :    0.215178
   5 C :   -0.120168
   6 C :    0.269579
   7 C :    0.046363
   8 O :    0.807941
   9 H :   -0.187416
  10 H :   -0.184406
  11 H :   -0.184800
  12 H :   -0.175062
  13 H :   -0.176938
  14 H :   -0.155395
  15 H :   -0.152163
  16 H :   -0.160981
  17 H :   -0.151522
  18 H :   -0.497203

  Mayer bond orders larger than 0.100000
B(  0-C ,  1-C ) :   1.1065 B(  0-C ,  2-C ) :   1.1046 B(  0-C ,  3-C ) :  -0.1592
B(  0-C ,  4-C ) :  -0.1825 B(  0-C ,  9-H ) :   0.9257 B(  1-C ,  2-C ) :   0.1474
B(  1-C ,  3-C ) :   1.3036 B(  1-C ,  5-C ) :   0.1051 B(  1-C ,  9-H ) :  -0.1631
B(  1-C , 10-H ) :   0.7020 B(  2-C ,  4-C ) :   1.2820 B(  2-C ,  9-H ) :  -0.1560
B(  2-C , 11-H ) :   0.6875 B(  3-C ,  4-C ) :  -0.1426 B(  3-C ,  5-C ) :   0.5601
B(  3-C ,  9-H ) :   0.1087 B(  3-C , 12-H ) :   1.3977 B(  3-C , 13-H ) :   0.1490
B(  4-C ,  5-C ) :   0.4880 B(  4-C ,  9-H ) :   0.1156 B(  4-C , 12-H ) :   0.1494
B(  4-C , 13-H ) :   1.4303 B(  5-C ,  6-C ) :   0.5636 B(  5-C , 12-H ) :  -0.1878
B(  5-C , 13-H ) :  -0.1837 B(  6-C ,  7-C ) :   0.8683 B(  6-C , 14-H ) :   0.9856
B(  6-C , 15-H ) :   1.0150 B(  7-C ,  8-O ) :   0.6863 B(  7-C , 16-H ) :   0.9277
B(  7-C , 17-H ) :   0.9740 B(  8-O , 18-H ) :   1.0023

MP2 TOTAL ENERGY:     -385.323113341 Eh
FINAL SINGLE POINT ENERGY      -385.323113340765

DIPOLE MOMENT
-------------
                                X             Y             Z
Electronic contribution:      1.99894      -0.21906       0.15109
Nuclear contribution   :     -1.60983       0.70603       0.02315
                        -----------------------------------------
Total Dipole Moment    :      0.38911       0.48696       0.17424
                        -----------------------------------------
Magnitude (a.u.)       :      0.64723
Magnitude (Debye)      :      1.64512

Rotational constants in cm-1:     0.148796     0.028252     0.025309
Rotational constants in MHz :  4460.778956   846.972594   758.735299

                             ****ORCA TERMINATED NORMALLY****
TOTAL RUN TIME: 0 days 0 hours 9 minutes 35 seconds 554 msec
