                         Program Version 5.0.3 -  RELEASE  -
|  1> !ri-mp2 aug-cc-pvtz aug-cc-pvtz/c tightscf
|  2> %pal nprocs 16 end
|  3>
|  4> * xyz 0 1
|  5> S      1.989323   -0.009549   -0.145290
|  6> O      0.854042   -1.274861    0.212013
|  7> O      0.929171    1.296398    0.203214
|  8> O     -1.541919   -1.139480   -0.026054
|  9> C     -0.315704   -0.615131   -0.021948
| 10> C     -0.319252    0.726214   -0.022953
| 11> C     -1.682955    1.131606   -0.022667
| 12> C     -2.386914   -0.036529   -0.038427
| 13> H     -2.098136    2.123419   -0.033853
| 14> H     -3.432428   -0.264049   -0.118917
| 15> *
| 16>
| 17>                          ****END OF INPUT****

CARTESIAN COORDINATES (ANGSTROEM)
---------------------------------
  S      1.989323   -0.009549   -0.145290
  O      0.854042   -1.274861    0.212013
  O      0.929171    1.296398    0.203214
  O     -1.541919   -1.139480   -0.026054
  C     -0.315704   -0.615131   -0.021948
  C     -0.319252    0.726214   -0.022953
  C     -1.682955    1.131606   -0.022667
  C     -2.386914   -0.036529   -0.038427
  H     -2.098136    2.123419   -0.033853
  H     -3.432428   -0.264049   -0.118917

 Total Charge           Charge          ....    0
 Multiplicity           Mult            ....    1
 Number of Electrons    NEL             ....   66
 Basis Dimension        Dim             ....  418

ORBITAL ENERGIES
----------------

  NO   OCC          E(Eh)            E(eV)
   0   2.0000     -92.084006     -2505.7332
   1   2.0000     -20.654109      -562.0269
   2   2.0000     -20.645154      -561.7832
   3   2.0000     -20.635154      -561.5111
   4   2.0000     -11.359745      -309.1144
   5   2.0000     -11.309760      -307.7542
   6   2.0000     -11.298036      -307.4352
   7   2.0000     -11.263706      -306.5010
   8   2.0000      -9.072648      -246.8793
   9   2.0000      -6.752980      -183.7579
  10   2.0000      -6.751943      -183.7297
  11   2.0000      -6.749463      -183.6622
  12   2.0000      -1.507008       -41.0078
  13   2.0000      -1.452296       -39.5190
  14   2.0000      -1.393586       -37.9214
  15   2.0000      -1.111061       -30.2335
  16   2.0000      -1.019440       -27.7404
  17   2.0000      -0.937116       -25.5002
  18   2.0000      -0.849724       -23.1222
  19   2.0000      -0.809264       -22.0212
  20   2.0000      -0.745997       -20.2996
  21   2.0000      -0.704411       -19.1680
  22   2.0000      -0.679725       -18.4963
  23   2.0000      -0.639898       -17.4125
  24   2.0000      -0.632236       -17.2040
  25   2.0000      -0.611360       -16.6359
  26   2.0000      -0.599018       -16.3001
  27   2.0000      -0.583624       -15.8812
  28   2.0000      -0.569765       -15.5041
  29   2.0000      -0.527073       -14.3424
  30   2.0000      -0.420119       -11.4320
  31   2.0000      -0.384307       -10.4575
  32   2.0000      -0.308980        -8.4078
  33   0.0000       0.027626         0.7517
  34   0.0000       0.036391         0.9902
  35   0.0000       0.051320         1.3965
  36   0.0000       0.054571         1.4850
  37   0.0000       0.069395         1.8883

MULLIKEN ATOMIC CHARGES
-----------------------
   0 S :    0.427199
   1 O :   -0.574359
   2 O :   -0.665719
   3 O :   -0.254910
   4 C :    0.390401
   5 C :    0.758465
   6 C :   -0.629832
   7 C :   -0.644962
   8 H :    0.472249
   9 H :    0.721467
Sum of atomic charges:   -0.0000000

LOEWDIN ATOMIC CHARGES
----------------------
   0 S :    0.780991
   1 O :    0.174758
   2 O :    0.139534
   3 O :    0.579831
   4 C :   -0.882413
   5 C :   -0.595107
   6 C :    0.200341
   7 C :   -0.005482
   8 H :   -0.192720
   9 H :   -0.199735

  Mayer bond orders larger than 0.100000
B(  0-S ,  1-O ) :   0.8258 B(  0-S ,  2-O ) :   0.8677 B(  1-O ,  4-C ) :   0.6864
B(  2-O ,  5-C ) :   0.5800 B(  3-O ,  4-C ) :   1.0422 B(  3-O ,  7-C ) :   0.9811
B(  4-C ,  5-C ) :   1.6277 B(  5-C ,  6-C ) :   0.9580 B(  5-C ,  7-C ) :  -0.1644
B(  6-C ,  7-C ) :   1.4845 B(  6-C ,  8-H ) :   0.8692 B(  7-C ,  9-H ) :   0.3730

MP2 TOTAL ENERGY:     -776.278846016 Eh
FINAL SINGLE POINT ENERGY      -776.278846016213

DIPOLE MOMENT
-------------
                                X             Y             Z
Electronic contribution:      4.88042      -1.36509      -0.03710
Nuclear contribution   :     -5.32341       1.75478      -0.13542
                        -----------------------------------------
Total Dipole Moment    :     -0.44299       0.38969      -0.17252
                        -----------------------------------------
Magnitude (a.u.)       :      0.61470
Magnitude (Debye)      :      1.56245

Rotational constants in cm-1:     0.158156     0.053768     0.040535
Rotational constants in MHz :  4741.383214  1611.938591  1215.216762

                             ****ORCA TERMINATED NORMALLY****
TOTAL RUN TIME: 0 days 0 hours 3 minutes 13 seconds 227 msec
