                         Program Version 5.0.3 -  RELEASE  -
|  1> !ri-mp2 aug-cc-pvtz aug-cc-pvtz/c tightscf
|  2> %pal nprocs 16 end
|  3> %maxcore 3800
|  4>
|  5> * xyz 0 1
|  6> C      0.261359    2.728775    1.263761
|  7> C      0.261359    2.728775   -1.263761
|  8> C      0.261359   -2.190212   -1.255251
|  9> C      0.261359   -2.190212    1.255251
| 10> C     -1.897219   -2.110279    0.000000
| 11> C      0.930924    0.602207    0.000000
| 12> C     -0.435871   -0.089408    0.000000
| 13> C      0.902632    2.145688    0.000000
| 14> C     -0.433736   -1.639048    0.000000
| 15> H      0.722844    2.323751    2.166617
| 16> H     -0.807615    2.513614    1.310589
| 17> H      0.375647    3.813898    1.290358
| 18> H     -0.807615    2.513614   -1.310589
| 19> H      0.375647    3.813898   -1.290358
| 20> H      0.722844    2.323751   -2.166617
| 21> H     -0.197356   -1.795095   -2.164364
| 22> H      1.321852   -1.937870   -1.278005
| 23> H      0.183154   -3.278767   -1.290423
| 24> H      1.321852   -1.937870    1.278005
| 25> H     -0.197356   -1.795095    2.164364
| 26> H      0.183154   -3.278767    1.290423
| 27> H     -2.428479   -1.746411   -0.882025
| 28> H     -2.428479   -1.746411    0.882025
| 29> H     -1.958193   -3.200485    0.000000
| 30> H      1.502655    0.279924   -0.874023
| 31> H      1.502655    0.279924    0.874023
| 32> H     -1.005955    0.238235   -0.873903
| 33> H     -1.005955    0.238235    0.873903
| 34> H      1.951716    2.460219    0.000000
| 35> *
| 36>
| 37>                          ****END OF INPUT****

CARTESIAN COORDINATES (ANGSTROEM)
---------------------------------
  C      0.261359    2.728775    1.263761
  C      0.261359    2.728775   -1.263761
  C      0.261359   -2.190212   -1.255251
  C      0.261359   -2.190212    1.255251
  C     -1.897219   -2.110279    0.000000
  C      0.930924    0.602207    0.000000
  C     -0.435871   -0.089408    0.000000
  C      0.902632    2.145688    0.000000
  C     -0.433736   -1.639048    0.000000
  H      0.722844    2.323751    2.166617
  H     -0.807615    2.513614    1.310589
  H      0.375647    3.813898    1.290358
  H     -0.807615    2.513614   -1.310589
  H      0.375647    3.813898   -1.290358
  H      0.722844    2.323751   -2.166617
  H     -0.197356   -1.795095   -2.164364
  H      1.321852   -1.937870   -1.278005
  H      0.183154   -3.278767   -1.290423
  H      1.321852   -1.937870    1.278005
  H     -0.197356   -1.795095    2.164364
  H      0.183154   -3.278767    1.290423
  H     -2.428479   -1.746411   -0.882025
  H     -2.428479   -1.746411    0.882025
  H     -1.958193   -3.200485    0.000000
  H      1.502655    0.279924   -0.874023
  H      1.502655    0.279924    0.874023
  H     -1.005955    0.238235   -0.873903
  H     -1.005955    0.238235    0.873903
  H      1.951716    2.460219    0.000000

 Total Charge           Charge          ....    0
 Multiplicity           Mult            ....    1
 Number of Electrons    NEL             ....   74
 Basis Dimension        Dim             ....  874

ORBITAL ENERGIES
----------------

  NO   OCC          E(Eh)            E(eV)
   0   2.0000     -11.229832      -305.5793
   1   2.0000     -11.222104      -305.3690
   2   2.0000     -11.210449      -305.0518
   3   2.0000     -11.209525      -305.0267
   4   2.0000     -11.206514      -304.9447
   5   2.0000     -11.206492      -304.9441
   6   2.0000     -11.205606      -304.9200
   7   2.0000     -11.205602      -304.9199
   8   2.0000     -11.205577      -304.9193
   9   2.0000      -1.110958       -30.2307
  10   2.0000      -1.074201       -29.2305
  11   2.0000      -0.972504       -26.4632
  12   2.0000      -0.927484       -25.2381
  13   2.0000      -0.926758       -25.2184
  14   2.0000      -0.925145       -25.1745
  15   2.0000      -0.865042       -23.5390
  16   2.0000      -0.755553       -20.5596
  17   2.0000      -0.720385       -19.6027
  18   2.0000      -0.635386       -17.2897
  19   2.0000      -0.628018       -17.0892
  20   2.0000      -0.602005       -16.3814
  21   2.0000      -0.592914       -16.1340
  22   2.0000      -0.591929       -16.1072
  23   2.0000      -0.578439       -15.7401
  24   2.0000      -0.550670       -14.9845
  25   2.0000      -0.541683       -14.7399
  26   2.0000      -0.531270       -14.4566
  27   2.0000      -0.514682       -14.0052
  28   2.0000      -0.509086       -13.8529
  29   2.0000      -0.507915       -13.8211
  30   2.0000      -0.486429       -13.2364
  31   2.0000      -0.473790       -12.8925
  32   2.0000      -0.464977       -12.6527
  33   2.0000      -0.458366       -12.4728
  34   2.0000      -0.443689       -12.0734
  35   2.0000      -0.431913       -11.7529
  36   2.0000      -0.425099       -11.5675
  37   0.0000       0.028385         0.7724
  38   0.0000       0.032396         0.8815
  39   0.0000       0.034346         0.9346
  40   0.0000       0.035110         0.9554
  41   0.0000       0.046558         1.2669

MULLIKEN ATOMIC CHARGES
-----------------------
   0 C :   -1.115775
   1 C :   -1.115775
   2 C :   -1.378167
   3 C :   -1.378167
   4 C :   -1.491316
   5 C :   -0.602645
   6 C :   -0.354501
   7 C :    0.368972
   8 C :    2.032390
   9 H :    0.241364
  10 H :    0.295342
  11 H :    0.228217
  12 H :    0.295342
  13 H :    0.228217
  14 H :    0.241364
  15 H :    0.249658
  16 H :    0.297692
  17 H :    0.216163
  18 H :    0.297692
  19 H :    0.249658
  20 H :    0.216163
  21 H :    0.226789
  22 H :    0.226789
  23 H :    0.223369
  24 H :    0.162806
  25 H :    0.162804
  26 H :    0.285474
  27 H :    0.285474
  28 H :    0.404605
Sum of atomic charges:   -0.0000000

LOEWDIN ATOMIC CHARGES
----------------------
   0 C :    0.587113
   1 C :    0.587113
   2 C :    0.587171
   3 C :    0.587171
   4 C :    0.581557
   5 C :    0.304067
   6 C :    0.295631
   7 C :   -0.034245
   8 C :   -0.339545
   9 H :   -0.160556
  10 H :   -0.170742
  11 H :   -0.164930
  12 H :   -0.170742
  13 H :   -0.164930
  14 H :   -0.160556
  15 H :   -0.152298
  16 H :   -0.168736
  17 H :   -0.157720
  18 H :   -0.168736
  19 H :   -0.152298
  20 H :   -0.157720
  21 H :   -0.156609
  22 H :   -0.156609
  23 H :   -0.159434
  24 H :   -0.150694
  25 H :   -0.150694
  26 H :   -0.148153
  27 H :   -0.148153
  28 H :   -0.135723

  Mayer bond orders larger than 0.100000
B(  0-C ,  1-C ) :   0.1946 B(  0-C ,  5-C ) :   0.1048 B(  0-C ,  7-C ) :   0.6978
B(  0-C ,  9-H ) :   1.0069 B(  0-C , 10-H ) :   0.9704 B(  0-C , 11-H ) :   1.0557
B(  1-C ,  5-C ) :   0.1048 B(  1-C ,  7-C ) :   0.6978 B(  1-C , 12-H ) :   0.9704
B(  1-C , 13-H ) :   1.0557 B(  1-C , 14-H ) :   1.0069 B(  2-C ,  3-C ) :   0.1612
B(  2-C ,  4-C ) :   0.1067 B(  2-C ,  8-C ) :   0.2475 B(  2-C , 15-H ) :   1.0643
B(  2-C , 16-H ) :   1.0245 B(  2-C , 17-H ) :   1.1097 B(  3-C ,  4-C ) :   0.1067
B(  3-C ,  8-C ) :   0.2475 B(  3-C , 18-H ) :   1.0245 B(  3-C , 19-H ) :   1.0643
B(  3-C , 20-H ) :   1.1097 B(  4-C ,  8-C ) :   0.2627 B(  4-C , 21-H ) :   1.1048
B(  4-C , 22-H ) :   1.1048 B(  4-C , 23-H ) :   1.0848 B(  5-C ,  6-C ) :   1.0128
B(  5-C ,  7-C ) :   0.9211 B(  5-C , 24-H ) :   0.9871 B(  5-C , 25-H ) :   0.9871
B(  6-C ,  8-C ) :   0.8517 B(  6-C , 26-H ) :   0.9300 B(  6-C , 27-H ) :   0.9300
B(  7-C , 28-H ) :   0.8213 B(  8-C , 17-H ) :  -0.1100 B(  8-C , 20-H ) :  -0.1100
B(  8-C , 21-H ) :  -0.1076 B(  8-C , 22-H ) :  -0.1076 B( 24-H , 25-H ) :   0.1280

MP2 TOTAL ENERGY:     -354.217636507 Eh
FINAL SINGLE POINT ENERGY      -354.217636507178

DIPOLE MOMENT
-------------
                                X             Y             Z
Electronic contribution:      0.78336      -0.06946      -0.00000
Nuclear contribution   :     -0.72923       0.08917       0.00000
                        -----------------------------------------
Total Dipole Moment    :      0.05413       0.01971      -0.00000
                        -----------------------------------------
Magnitude (a.u.)       :      0.05761
Magnitude (Debye)      :      0.14644

Rotational constants in cm-1:     0.087484     0.025741     0.024478
Rotational constants in MHz :  2622.708656   771.685710   733.826736

                             ****ORCA TERMINATED NORMALLY****
TOTAL RUN TIME: 0 days 0 hours 23 minutes 44 seconds 709 msec
