                         Program Version 5.0.3 -  RELEASE  -
|  1> !ri-mp2 aug-cc-pvtz aug-cc-pvtz/c tightscf
|  2> %pal nprocs 16 end
|  3>
|  4> * xyz 0 1
|  5> S     0.000000     0.000000    2.851009
|  6> C     0.000000     0.000000    1.185615
|  7> C     0.000000     1.206883    0.400792
|  8> C     0.000000     2.352278   -1.861101
|  9> C     0.000000     1.178354   -0.946461
| 10> O     0.000000     0.000000   -1.631977
| 11> C     0.000000    -1.206883    0.400792
| 12> C     0.000000    -1.178354   -0.946461
| 13> C     0.000000    -2.352278   -1.861101
| 14> H     0.000000     2.159035    0.909125
| 15> H    -0.879753     2.334551   -2.507116
| 16> H     0.879753     2.334551   -2.507116
| 17> H     0.000000     3.277663   -1.291277
| 18> H     0.000000    -2.159035    0.909125
| 19> H    -0.879753    -2.334551   -2.507116
| 20> H     0.000000    -3.277663   -1.291277
| 21> H     0.879753    -2.334551   -2.507116
| 22> *
| 23>
| 24>                          ****END OF INPUT****

CARTESIAN COORDINATES (ANGSTROEM)
---------------------------------
  S      0.000000    0.000000    2.851009
  C      0.000000    0.000000    1.185615
  C      0.000000    1.206883    0.400792
  C      0.000000    2.352278   -1.861101
  C      0.000000    1.178354   -0.946461
  O      0.000000    0.000000   -1.631977
  C      0.000000   -1.206883    0.400792
  C      0.000000   -1.178354   -0.946461
  C      0.000000   -2.352278   -1.861101
  H      0.000000    2.159035    0.909125
  H     -0.879753    2.334551   -2.507116
  H      0.879753    2.334551   -2.507116
  H      0.000000    3.277663   -1.291277
  H      0.000000   -2.159035    0.909125
  H     -0.879753   -2.334551   -2.507116
  H      0.000000   -3.277663   -1.291277
  H      0.879753   -2.334551   -2.507116

 Total Charge           Charge          ....    0
 Multiplicity           Mult            ....    1
 Number of Electrons    NEL             ....   74
 Basis Dimension        Dim             ....  602

ORBITAL ENERGIES
----------------

  NO   OCC          E(Eh)            E(eV)
   0   2.0000     -91.896425     -2500.6288
   1   2.0000     -20.652634      -561.9867
   2   2.0000     -11.346057      -308.7419
   3   2.0000     -11.346030      -308.7412
   4   2.0000     -11.312633      -307.8324
   5   2.0000     -11.256545      -306.3062
   6   2.0000     -11.256544      -306.3061
   7   2.0000     -11.245278      -305.9996
   8   2.0000     -11.245263      -305.9992
   9   2.0000      -8.898510      -242.1408
  10   2.0000      -6.579671      -179.0420
  11   2.0000      -6.578550      -179.0114
  12   2.0000      -6.577390      -178.9799
  13   2.0000      -1.486070       -40.4380
  14   2.0000      -1.140391       -31.0316
  15   2.0000      -1.127200       -30.6727
  16   2.0000      -1.033767       -28.1302
  17   2.0000      -0.970332       -26.4041
  18   2.0000      -0.956570       -26.0296
  19   2.0000      -0.875885       -23.8340
  20   2.0000      -0.794943       -21.6315
  21   2.0000      -0.722876       -19.6705
  22   2.0000      -0.718475       -19.5507
  23   2.0000      -0.683045       -18.5866
  24   2.0000      -0.645508       -17.5652
  25   2.0000      -0.608142       -16.5484
  26   2.0000      -0.606486       -16.5033
  27   2.0000      -0.589042       -16.0286
  28   2.0000      -0.573857       -15.6154
  29   2.0000      -0.573647       -15.6097
  30   2.0000      -0.569696       -15.5022
  31   2.0000      -0.535971       -14.5845
  32   2.0000      -0.484533       -13.1848
  33   2.0000      -0.470027       -12.7901
  34   2.0000      -0.383749       -10.4423
  35   2.0000      -0.314466        -8.5571
  36   2.0000      -0.305764        -8.3203
  37   0.0000       0.019882         0.5410
  38   0.0000       0.025722         0.6999
  39   0.0000       0.034947         0.9510
  40   0.0000       0.039837         1.0840
  41   0.0000       0.047063         1.2806

MULLIKEN ATOMIC CHARGES
-----------------------
   0 S :   -0.687694
   1 C :    0.357259
   2 C :   -0.671259
   3 C :   -0.869020
   4 C :    0.776433
   5 O :   -0.487059
   6 C :   -0.671259
   7 C :    0.776433
   8 C :   -0.869020
   9 H :    0.339720
  10 H :    0.261691
  11 H :    0.261691
  12 H :    0.309491
  13 H :    0.339720
  14 H :    0.261691
  15 H :    0.309491
  16 H :    0.261691
Sum of atomic charges:   -0.0000000

LOEWDIN ATOMIC CHARGES
----------------------
   0 S :    0.876728
   1 C :   -0.866748
   2 C :    0.113143
   3 C :    0.600885
   4 C :   -0.328260
   5 O :    0.628284
   6 C :    0.113143
   7 C :   -0.328260
   8 C :    0.600885
   9 H :   -0.209272
  10 H :   -0.161406
  11 H :   -0.161406
  12 H :   -0.172814
  13 H :   -0.209272
  14 H :   -0.161406
  15 H :   -0.172814
  16 H :   -0.161406

  Mayer bond orders larger than 0.100000
B(  0-S ,  1-C ) :   1.5674 B(  0-S ,  9-H ) :  -0.1238 B(  0-S , 13-H ) :  -0.1238
B(  1-C ,  2-C ) :   1.0981 B(  1-C ,  6-C ) :   1.0981 B(  2-C ,  4-C ) :   1.2019
B(  2-C ,  9-H ) :   1.0442 B(  3-C ,  4-C ) :   0.6006 B(  3-C , 10-H ) :   1.0372
B(  3-C , 11-H ) :   1.0372 B(  3-C , 12-H ) :   0.9725 B(  4-C ,  5-O ) :   0.8676
B(  4-C ,  7-C ) :   0.1170 B(  5-O ,  7-C ) :   0.8676 B(  6-C ,  7-C ) :   1.2019
B(  6-C , 13-H ) :   1.0442 B(  7-C ,  8-C ) :   0.6006 B(  8-C , 14-H ) :   1.0372
B(  8-C , 15-H ) :   0.9725 B(  8-C , 16-H ) :   1.0372

MP2 TOTAL ENERGY:     -743.803326215 Eh
FINAL SINGLE POINT ENERGY      -743.803326215452

DIPOLE MOMENT
-------------
                                X             Y             Z
Electronic contribution:      0.00000       0.00000       8.25727
Nuclear contribution   :      0.00000       0.00000     -10.81136
                        -----------------------------------------
Total Dipole Moment    :      0.00000       0.00000      -2.55409
                        -----------------------------------------
Magnitude (a.u.)       :      2.55409
Magnitude (Debye)      :      6.49199

Rotational constants in cm-1:     0.065488     0.036542     0.023660
Rotational constants in MHz :  1963.290869  1095.501115   709.308648

                             ****ORCA TERMINATED NORMALLY****
TOTAL RUN TIME: 0 days 0 hours 9 minutes 18 seconds 278 msec
