                         Program Version 5.0.3 -  RELEASE  -
|  1> !ri-mp2 aug-cc-pvtz aug-cc-pvtz/c tightscf
|  2> %pal nprocs 16 end
|  3>
|  4> * xyz 0 1
|  5> C      2.353096    0.002148    0.005068
|  6> C      1.834314   -1.289002    0.004046
|  7> C      1.509217    1.100037   -0.001011
|  8> C      0.457168   -1.465035    0.000236
|  9> C      0.115237    0.948254   -0.007408
| 10> C     -0.381938   -0.362325   -0.004647
| 11> N     -0.722435    2.046777   -0.068656
| 12> Cl    -2.123824   -0.611727    0.002158
| 13> H      3.423493    0.156593    0.009813
| 14> H      2.488997   -2.148477    0.007665
| 15> H      1.921615    2.101235   -0.007590
| 16> H      0.024888   -2.455106    0.003520
| 17> H     -0.338871    2.918571    0.253707
| 18> H     -1.680635    1.894648    0.199077
| 19> *
| 20>
| 21>                          ****END OF INPUT****

CARTESIAN COORDINATES (ANGSTROEM)
---------------------------------
  C      2.353096    0.002148    0.005068
  C      1.834314   -1.289002    0.004046
  C      1.509217    1.100037   -0.001011
  C      0.457168   -1.465035    0.000236
  C      0.115237    0.948254   -0.007408
  C     -0.381938   -0.362325   -0.004647
  N     -0.722435    2.046777   -0.068656
  Cl    -2.123824   -0.611727    0.002158
  H      3.423493    0.156593    0.009813
  H      2.488997   -2.148477    0.007665
  H      1.921615    2.101235   -0.007590
  H      0.024888   -2.455106    0.003520
  H     -0.338871    2.918571    0.253707
  H     -1.680635    1.894648    0.199077

 Total Charge           Charge          ....    0
 Multiplicity           Mult            ....    1
 Number of Electrons    NEL             ....   66
 Basis Dimension        Dim             ....  510

ORBITAL ENERGIES
----------------

  NO   OCC          E(Eh)            E(eV)
   0   2.0000    -104.841146     -2852.8726
   1   2.0000     -15.573418      -423.7743
   2   2.0000     -11.296818      -307.4020
   3   2.0000     -11.292407      -307.2820
   4   2.0000     -11.249281      -306.1085
   5   2.0000     -11.244699      -305.9838
   6   2.0000     -11.236188      -305.7522
   7   2.0000     -11.231243      -305.6177
   8   2.0000     -10.564744      -287.4813
   9   2.0000      -8.031597      -218.5509
  10   2.0000      -8.029872      -218.5039
  11   2.0000      -8.029786      -218.5016
  12   2.0000      -1.245141       -33.8820
  13   2.0000      -1.159515       -31.5520
  14   2.0000      -1.115198       -30.3461
  15   2.0000      -1.012509       -27.5518
  16   2.0000      -0.986031       -26.8313
  17   2.0000      -0.844501       -22.9800
  18   2.0000      -0.819051       -22.2875
  19   2.0000      -0.714983       -19.4557
  20   2.0000      -0.706013       -19.2116
  21   2.0000      -0.659574       -17.9479
  22   2.0000      -0.615371       -16.7451
  23   2.0000      -0.611306       -16.6345
  24   2.0000      -0.585003       -15.9187
  25   2.0000      -0.565253       -15.3813
  26   2.0000      -0.529055       -14.3963
  27   2.0000      -0.503493       -13.7007
  28   2.0000      -0.480899       -13.0859
  29   2.0000      -0.457358       -12.4453
  30   2.0000      -0.456549       -12.4233
  31   2.0000      -0.341964        -9.3053
  32   2.0000      -0.303109        -8.2480
  33   0.0000       0.026254         0.7144
  34   0.0000       0.032567         0.8862
  35   0.0000       0.036403         0.9906
  36   0.0000       0.048875         1.3300
  37   0.0000       0.051405         1.3988

MULLIKEN ATOMIC CHARGES
-----------------------
   0 C :   -0.403979
   1 C :   -0.234289
   2 C :   -0.750376
   3 C :   -0.884139
   4 C :    0.670273
   5 C :    0.789028
   6 N :   -0.704517
   7 Cl:   -0.545677
   8 H :    0.450555
   9 H :    0.493979
  10 H :    0.443072
  11 H :    0.494634
  12 H :    0.051220
  13 H :    0.130215
Sum of atomic charges:   -0.0000000

LOEWDIN ATOMIC CHARGES
----------------------
   0 C :    0.183844
   1 C :    0.179256
   2 C :    0.207303
   3 C :    0.093851
   4 C :   -0.330128
   5 C :   -0.703462
   6 N :    0.828459
   7 Cl:    0.985199
   8 H :   -0.181700
   9 H :   -0.193191
  10 H :   -0.183767
  11 H :   -0.201930
  12 H :   -0.305738
  13 H :   -0.377997

  Mayer bond orders larger than 0.100000
B(  0-C ,  1-C ) :   1.0914 B(  0-C ,  2-C ) :   1.2047 B(  0-C ,  8-H ) :   0.7965
B(  1-C ,  2-C ) :  -0.1024 B(  1-C ,  3-C ) :   1.1588 B(  1-C ,  4-C ) :   0.1349
B(  1-C ,  9-H ) :   0.7895 B(  2-C ,  4-C ) :   1.0308 B(  2-C ,  5-C ) :   0.1105
B(  2-C ,  6-N ) :  -0.1229 B(  2-C , 10-H ) :   0.7711 B(  3-C ,  5-C ) :   1.0772
B(  3-C ,  9-H ) :  -0.1095 B(  3-C , 11-H ) :   0.7508 B(  4-C ,  5-C ) :   1.0643
B(  4-C ,  6-N ) :   0.5161 B(  4-C ,  7-Cl) :   0.3003 B(  5-C ,  6-N ) :  -0.1219
B(  5-C ,  7-Cl) :   0.4387 B(  6-N , 12-H ) :   1.1458 B(  6-N , 13-H ) :   1.0782

MP2 TOTAL ENERGY:     -746.142074468 Eh
FINAL SINGLE POINT ENERGY      -746.142074468128

DIPOLE MOMENT
-------------
                                X             Y             Z
Electronic contribution:     -8.14123      -2.75802      -0.12188
Nuclear contribution   :      8.62183       3.25943       0.44957
                        -----------------------------------------
Total Dipole Moment    :      0.48060       0.50140       0.32769
                        -----------------------------------------
Magnitude (a.u.)       :      0.76796
Magnitude (Debye)      :      1.95200

Rotational constants in cm-1:     0.098118     0.051007     0.033582
Rotational constants in MHz :  2941.490712  1529.142418  1006.768459

                             ****ORCA TERMINATED NORMALLY****
TOTAL RUN TIME: 0 days 0 hours 5 minutes 30 seconds 7 msec
