                         Program Version 5.0.3 -  RELEASE  -
|  1> !ri-mp2 aug-cc-pvtz aug-cc-pvtz/c tightscf
|  2> %pal nprocs 16 end
|  3>
|  4> * xyz 0 1
|  5> C    -0.230967     0.739015    0.000000
|  6> C     0.230967     1.496803    1.250954
|  7> C     0.230967     1.496803   -1.250954
|  8> H    -0.181582     1.079091    2.167949
|  9> H     1.320994     1.480162    1.335695
| 10> H     1.320994     1.480162   -1.335695
| 11> H    -0.181582     1.079091   -2.167949
| 12> H    -0.077437     2.542265    1.200790
| 13> H    -0.077437     2.542265   -1.200790
| 14> H    -1.328230     0.732224    0.000000
| 15> C     0.230967    -0.739015    0.000000
| 16> C    -0.230967    -1.496803    1.250954
| 17> C    -0.230967    -1.496803   -1.250954
| 18> H     0.181582    -1.079091    2.167949
| 19> H    -1.320994    -1.480162    1.335695
| 20> H    -1.320994    -1.480162   -1.335695
| 21> H     0.077437    -2.542265   -1.200790
| 22> H     0.181582    -1.079091   -2.167949
| 23> H     0.077437    -2.542265    1.200790
| 24> H     1.328230    -0.732224    0.000000
| 25> *
| 26>
| 27>                          ****END OF INPUT****

CARTESIAN COORDINATES (ANGSTROEM)
---------------------------------
  C     -0.230967    0.739015    0.000000
  C      0.230967    1.496803    1.250954
  C      0.230967    1.496803   -1.250954
  H     -0.181582    1.079091    2.167949
  H      1.320994    1.480162    1.335695
  H      1.320994    1.480162   -1.335695
  H     -0.181582    1.079091   -2.167949
  H     -0.077437    2.542265    1.200790
  H     -0.077437    2.542265   -1.200790
  H     -1.328230    0.732224    0.000000
  C      0.230967   -0.739015    0.000000
  C     -0.230967   -1.496803    1.250954
  C     -0.230967   -1.496803   -1.250954
  H      0.181582   -1.079091    2.167949
  H     -1.320994   -1.480162    1.335695
  H     -1.320994   -1.480162   -1.335695
  H      0.077437   -2.542265   -1.200790
  H      0.181582   -1.079091   -2.167949
  H      0.077437   -2.542265    1.200790
  H      1.328230   -0.732224    0.000000

 Total Charge           Charge          ....    0
 Multiplicity           Mult            ....    1
 Number of Electrons    NEL             ....   50
 Basis Dimension        Dim             ....  598

ORBITAL ENERGIES
----------------

  NO   OCC          E(Eh)            E(eV)
   0   2.0000     -11.222056      -305.3677
   1   2.0000     -11.221485      -305.3521
   2   2.0000     -11.206314      -304.9393
   3   2.0000     -11.206307      -304.9391
   4   2.0000     -11.206289      -304.9386
   5   2.0000     -11.206288      -304.9386
   6   2.0000      -1.099699       -29.9243
   7   2.0000      -1.010475       -27.4964
   8   2.0000      -0.937736       -25.5171
   9   2.0000      -0.909522       -24.7493
  10   2.0000      -0.830449       -22.5977
  11   2.0000      -0.748681       -20.3726
  12   2.0000      -0.623421       -16.9642
  13   2.0000      -0.619929       -16.8691
  14   2.0000      -0.589942       -16.0531
  15   2.0000      -0.577258       -15.7080
  16   2.0000      -0.543908       -14.8005
  17   2.0000      -0.537823       -14.6349
  18   2.0000      -0.526035       -14.3141
  19   2.0000      -0.508385       -13.8339
  20   2.0000      -0.497873       -13.5478
  21   2.0000      -0.479759       -13.0549
  22   2.0000      -0.451621       -12.2892
  23   2.0000      -0.443057       -12.0562
  24   2.0000      -0.436366       -11.8741
  25   0.0000       0.031640         0.8610
  26   0.0000       0.035739         0.9725
  27   0.0000       0.036256         0.9866
  28   0.0000       0.038026         1.0348
  29   0.0000       0.052362         1.4249

MULLIKEN ATOMIC CHARGES
-----------------------
   0 C :    0.453259
   1 C :   -1.156979
   2 C :   -1.156979
   3 H :    0.282035
   4 H :    0.242337
   5 H :    0.242337
   6 H :    0.282035
   7 H :    0.236284
   8 H :    0.236284
   9 H :    0.339388
  10 C :    0.453259
  11 C :   -1.156979
  12 C :   -1.156979
  13 H :    0.282035
  14 H :    0.242337
  15 H :    0.242337
  16 H :    0.236284
  17 H :    0.282035
  18 H :    0.236284
  19 H :    0.339389
Sum of atomic charges:    0.0000000

LOEWDIN ATOMIC CHARGES
----------------------
   0 C :   -0.036396
   1 C :    0.585827
   2 C :    0.585827
   3 H :   -0.181093
   4 H :   -0.153776
   5 H :   -0.153776
   6 H :   -0.181093
   7 H :   -0.166805
   8 H :   -0.166805
   9 H :   -0.131910
  10 C :   -0.036396
  11 C :    0.585827
  12 C :    0.585827
  13 H :   -0.181093
  14 H :   -0.153776
  15 H :   -0.153776
  16 H :   -0.166805
  17 H :   -0.181093
  18 H :   -0.166805
  19 H :   -0.131910

  Mayer bond orders larger than 0.100000
B(  0-C ,  1-C ) :   0.5892 B(  0-C ,  2-C ) :   0.5892 B(  0-C ,  9-H ) :   0.8442
B(  0-C , 10-C ) :   1.0350 B(  1-C ,  2-C ) :   0.1393 B(  1-C ,  3-H ) :   0.9653
B(  1-C ,  4-H ) :   1.0274 B(  1-C ,  7-H ) :   1.0415 B(  2-C ,  5-H ) :   1.0274
B(  2-C ,  6-H ) :   0.9653 B(  2-C ,  8-H ) :   1.0415 B( 10-C , 11-C ) :   0.5892
B( 10-C , 12-C ) :   0.5892 B( 10-C , 19-H ) :   0.8442 B( 11-C , 12-C ) :   0.1393
B( 11-C , 13-H ) :   0.9653 B( 11-C , 14-H ) :   1.0274 B( 11-C , 18-H ) :   1.0415
B( 12-C , 15-H ) :   1.0274 B( 12-C , 16-H ) :   1.0415 B( 12-C , 17-H ) :   0.9653

MP2 TOTAL ENERGY:     -236.538374801 Eh
FINAL SINGLE POINT ENERGY      -236.538374801147

DIPOLE MOMENT
-------------
                                X             Y             Z
Electronic contribution:      0.00000       0.00000      -0.00000
Nuclear contribution   :      0.00000       0.00000       0.00000
                        -----------------------------------------
Total Dipole Moment    :      0.00000       0.00000      -0.00000
                        -----------------------------------------
Magnitude (a.u.)       :      0.00000
Magnitude (Debye)      :      0.00000

Rotational constants in cm-1:     0.140684     0.095771     0.062326
Rotational constants in MHz :  4217.591196  2871.131215  1868.479515

                             ****ORCA TERMINATED NORMALLY****
TOTAL RUN TIME: 0 days 0 hours 6 minutes 32 seconds 726 msec
