                         Program Version 5.0.3 -  RELEASE  -
|  1> !ri-mp2 aug-cc-pvtz aug-cc-pvtz/c tightscf
|  2> %pal nprocs 16 end
|  3>
|  4> * xyz 0 1
|  5> C     -0.858750    0.493126    0.000000
|  6> C      0.656851    0.425801    0.000000
|  7> F      1.143435   -0.195496    1.084579
|  8> F      1.143435    1.687623    0.000000
|  9> F      1.143435   -0.195496   -1.084579
| 10> Cl    -1.605455   -1.130914    0.000000
| 11> H     -1.184311    1.021148    0.890634
| 12> H     -1.184311    1.021148   -0.890634
| 13> *
| 14>
| 15>                          ****END OF INPUT****

CARTESIAN COORDINATES (ANGSTROEM)
---------------------------------
  C     -0.858750    0.493126    0.000000
  C      0.656851    0.425801    0.000000
  F      1.143435   -0.195496    1.084579
  F      1.143435    1.687623    0.000000
  F      1.143435   -0.195496   -1.084579
  Cl    -1.605455   -1.130914    0.000000
  H     -1.184311    1.021148    0.890634
  H     -1.184311    1.021148   -0.890634

 Total Charge           Charge          ....    0
 Multiplicity           Mult            ....    1
 Number of Electrons    NEL             ....   58
 Basis Dimension        Dim             ....  326

ORBITAL ENERGIES
----------------

  NO   OCC          E(Eh)            E(eV)
   0   2.0000    -104.857405     -2853.3151
   1   2.0000     -26.351593      -717.0633
   2   2.0000     -26.350356      -717.0297
   3   2.0000     -26.350335      -717.0291
   4   2.0000     -11.526010      -313.6387
   5   2.0000     -11.337683      -308.5140
   6   2.0000     -10.581179      -287.9285
   7   2.0000      -8.048069      -218.9991
   8   2.0000      -8.046080      -218.9450
   9   2.0000      -8.046019      -218.9433
  10   2.0000      -1.739154       -47.3248
  11   2.0000      -1.645499       -44.7763
  12   2.0000      -1.644689       -44.7543
  13   2.0000      -1.174084       -31.9484
  14   2.0000      -1.035203       -28.1693
  15   2.0000      -0.924490       -25.1566
  16   2.0000      -0.836191       -22.7539
  17   2.0000      -0.833235       -22.6735
  18   2.0000      -0.793470       -21.5914
  19   2.0000      -0.724004       -19.7011
  20   2.0000      -0.721036       -19.6204
  21   2.0000      -0.681154       -18.5351
  22   2.0000      -0.675631       -18.3848
  23   2.0000      -0.660114       -17.9626
  24   2.0000      -0.644610       -17.5407
  25   2.0000      -0.608418       -16.5559
  26   2.0000      -0.574524       -15.6336
  27   2.0000      -0.469284       -12.7699
  28   2.0000      -0.465290       -12.6612
  29   0.0000       0.028311         0.7704
  30   0.0000       0.041586         1.1316
  31   0.0000       0.062256         1.6941
  32   0.0000       0.064826         1.7640
  33   0.0000       0.095482         2.5982

MULLIKEN ATOMIC CHARGES
-----------------------
   0 C :   -0.459690
   1 C :    1.258588
   2 F :   -0.374940
   3 F :   -0.388442
   4 F :   -0.374940
   5 Cl:   -0.260085
   6 H :    0.299754
   7 H :    0.299754
Sum of atomic charges:   -0.0000000

LOEWDIN ATOMIC CHARGES
----------------------
   0 C :   -0.313511
   1 C :   -1.584843
   2 F :    0.491353
   3 F :    0.489179
   4 F :    0.491353
   5 Cl:    0.919581
   6 H :   -0.246556
   7 H :   -0.246556

  Mayer bond orders larger than 0.100000
B(  0-C ,  1-C ) :   0.9795 B(  0-C ,  5-Cl) :   0.8673 B(  0-C ,  6-H ) :   0.9006
B(  0-C ,  7-H ) :   0.9006 B(  1-C ,  2-F ) :   0.7910 B(  1-C ,  3-F ) :   0.7861
B(  1-C ,  4-F ) :   0.7910

MP2 TOTAL ENERGY:     -836.192904143 Eh
FINAL SINGLE POINT ENERGY      -836.192904143140

DIPOLE MOMENT
-------------
                                X             Y             Z
Electronic contribution:      2.57017      -1.59688       0.00000
Nuclear contribution   :     -3.18047       2.18776       0.00000
                        -----------------------------------------
Total Dipole Moment    :     -0.61029       0.59088       0.00000
                        -----------------------------------------
Magnitude (a.u.)       :      0.84947
Magnitude (Debye)      :      2.15918

Rotational constants in cm-1:     0.176208     0.058607     0.057986
Rotational constants in MHz :  5282.580036  1756.988957  1738.371767

                             ****ORCA TERMINATED NORMALLY****
TOTAL RUN TIME: 0 days 0 hours 1 minutes 9 seconds 767 msec
