                         Program Version 5.0.3 -  RELEASE  -
|  1> !ri-mp2 aug-cc-pvtz aug-cc-pvtz/c tightscf
|  2> %pal nprocs 16 end
|  3>
|  4> * xyz 0 1
|  5> S    -0.692409   -1.055906    0.000000
|  6> C    -0.026867    0.686541    0.000000
|  7> C    -1.284091    1.562967    0.000000
|  8> C     0.800267   -2.097232    0.000000
|  9> H     0.440552   -3.124595    0.000000
| 10> H    -0.998307    2.616921    0.000000
| 11> C     0.800267    0.953171    1.259728
| 12> C     0.800267    0.953171   -1.259728
| 13> H     1.404795   -1.943574    0.891889
| 14> H     1.404795   -1.943574   -0.891889
| 15> H     0.214552    0.768111   -2.159589
| 16> H     0.214552    0.768111    2.159589
| 17> H     1.131617    1.995073    1.274003
| 18> H     1.131617    1.995073   -1.274003
| 19> H     1.692762    0.328379    1.299095
| 20> H     1.692762    0.328379   -1.299095
| 21> H    -1.895101    1.377247   -0.883681
| 22> H    -1.895101    1.377247    0.883681
| 23> *
| 24>
| 25>                          ****END OF INPUT****

CARTESIAN COORDINATES (ANGSTROEM)
---------------------------------
  S     -0.692409   -1.055906    0.000000
  C     -0.026867    0.686541    0.000000
  C     -1.284091    1.562967    0.000000
  C      0.800267   -2.097232    0.000000
  H      0.440552   -3.124595    0.000000
  H     -0.998307    2.616921    0.000000
  C      0.800267    0.953171    1.259728
  C      0.800267    0.953171   -1.259728
  H      1.404795   -1.943574    0.891889
  H      1.404795   -1.943574   -0.891889
  H      0.214552    0.768111   -2.159589
  H      0.214552    0.768111    2.159589
  H      1.131617    1.995073    1.274003
  H      1.131617    1.995073   -1.274003
  H      1.692762    0.328379    1.299095
  H      1.692762    0.328379   -1.299095
  H     -1.895101    1.377247   -0.883681
  H     -1.895101    1.377247    0.883681

 Total Charge           Charge          ....    0
 Multiplicity           Mult            ....    1
 Number of Electrons    NEL             ....   58
 Basis Dimension        Dim             ....  556

ORBITAL ENERGIES
----------------

  NO   OCC          E(Eh)            E(eV)
   0   2.0000     -91.935824     -2501.7010
   1   2.0000     -11.269666      -306.6632
   2   2.0000     -11.246933      -306.0446
   3   2.0000     -11.218543      -305.2721
   4   2.0000     -11.218529      -305.2717
   5   2.0000     -11.218312      -305.2658
   6   2.0000      -8.935923      -243.1588
   7   2.0000      -6.617155      -180.0619
   8   2.0000      -6.616134      -180.0342
   9   2.0000      -6.615279      -180.0109
  10   2.0000      -1.112899       -30.2835
  11   2.0000      -1.006797       -27.3963
  12   2.0000      -0.940175       -25.5835
  13   2.0000      -0.940134       -25.5823
  14   2.0000      -0.856221       -23.2990
  15   2.0000      -0.726177       -19.7603
  16   2.0000      -0.626558       -17.0495
  17   2.0000      -0.608091       -16.5470
  18   2.0000      -0.607867       -16.5409
  19   2.0000      -0.588472       -16.0131
  20   2.0000      -0.565134       -15.3781
  21   2.0000      -0.548185       -14.9169
  22   2.0000      -0.539332       -14.6760
  23   2.0000      -0.519807       -14.1447
  24   2.0000      -0.489627       -13.3234
  25   2.0000      -0.479931       -13.0596
  26   2.0000      -0.455550       -12.3961
  27   2.0000      -0.406945       -11.0735
  28   2.0000      -0.332625        -9.0512
  29   0.0000       0.029516         0.8032
  30   0.0000       0.034641         0.9426
  31   0.0000       0.038747         1.0544
  32   0.0000       0.039741         1.0814
  33   0.0000       0.052665         1.4331

MULLIKEN ATOMIC CHARGES
-----------------------
   0 S :   -0.501274
   1 C :    1.412217
   2 C :   -1.202313
   3 C :   -0.887468
   4 H :    0.283211
   5 H :    0.261783
   6 C :   -1.148596
   7 C :   -1.148596
   8 H :    0.277400
   9 H :    0.277400
  10 H :    0.308758
  11 H :    0.308758
  12 H :    0.245942
  13 H :    0.245942
  14 H :    0.334503
  15 H :    0.334503
  16 H :    0.298916
  17 H :    0.298916
Sum of atomic charges:   -0.0000000

LOEWDIN ATOMIC CHARGES
----------------------
   0 S :    1.231249
   1 C :   -0.669323
   2 C :    0.485447
   3 C :    0.229421
   4 H :   -0.257831
   5 H :   -0.162882
   6 C :    0.513427
   7 C :    0.513427
   8 H :   -0.248486
   9 H :   -0.248486
  10 H :   -0.170528
  11 H :   -0.170528
  12 H :   -0.161726
  13 H :   -0.161726
  14 H :   -0.184314
  15 H :   -0.184314
  16 H :   -0.176413
  17 H :   -0.176413

  Mayer bond orders larger than 0.100000
B(  0-S ,  1-C ) :   0.5068 B(  0-S ,  3-C ) :   0.9598 B(  1-C ,  2-C ) :   0.4138
B(  1-C ,  6-C ) :   0.6399 B(  1-C ,  7-C ) :   0.6399 B(  2-C ,  5-H ) :   1.0172
B(  2-C , 16-H ) :   0.9961 B(  2-C , 17-H ) :   0.9961 B(  3-C ,  4-H ) :   0.9776
B(  3-C ,  8-H ) :   0.9230 B(  3-C ,  9-H ) :   0.9230 B(  6-C , 11-H ) :   0.9848
B(  6-C , 12-H ) :   0.9720 B(  6-C , 14-H ) :   0.9506 B(  7-C , 10-H ) :   0.9848
B(  7-C , 13-H ) :   0.9720 B(  7-C , 15-H ) :   0.9506

MP2 TOTAL ENERGY:     -595.036992552 Eh
FINAL SINGLE POINT ENERGY      -595.036992551701

DIPOLE MOMENT
-------------
                                X             Y             Z
Electronic contribution:     -4.12844      -4.48370      -0.00000
Nuclear contribution   :      4.76731       4.78249       0.00000
                        -----------------------------------------
Total Dipole Moment    :      0.63887       0.29878      -0.00000
                        -----------------------------------------
Magnitude (a.u.)       :      0.70528
Magnitude (Debye)      :      1.79269

Rotational constants in cm-1:     0.124865     0.069805     0.064403
Rotational constants in MHz :  3743.361107  2092.710337  1930.763902

                             ****ORCA TERMINATED NORMALLY****
TOTAL RUN TIME: 0 days 0 hours 6 minutes 10 seconds 787 msec
