                         Program Version 5.0.3 -  RELEASE  -
|  1> !ri-mp2 aug-cc-pvtz aug-cc-pvtz/c tightscf
|  2> %pal nprocs 16 end
|  3> %maxcore 3800
|  4>
|  5> * xyz 0 1
|  6> C      2.531827    0.838284    0.000719
|  7> C     -2.531828    0.838284    0.000727
|  8> C      2.945670   -0.478119    0.001541
|  9> C     -2.945670   -0.478119    0.001498
| 10> C      1.115603    0.798316   -0.000163
| 11> C     -1.115604    0.798316   -0.000047
| 12> C      0.708404   -0.539305    0.000275
| 13> C     -0.708404   -0.539305    0.000396
| 14> N      1.844970   -1.314880    0.000405
| 15> N     -1.844969   -1.314880    0.000310
| 16> N      0.000000    1.623424   -0.012899
| 17> H      3.182514    1.695453    0.001317
| 18> H     -3.182515    1.695453    0.001272
| 19> H      3.941593   -0.883817    0.003112
| 20> H     -3.941593   -0.883818    0.003098
| 21> H      1.888002   -2.315552   -0.003863
| 22> H     -1.887996   -2.315553   -0.003452
| 23> H      0.000005    2.622059    0.054138
| 24> *
| 25>
| 26>                          ****END OF INPUT****

CARTESIAN COORDINATES (ANGSTROEM)
---------------------------------
  C      2.531827    0.838284    0.000719
  C     -2.531828    0.838284    0.000727
  C      2.945670   -0.478119    0.001541
  C     -2.945670   -0.478119    0.001498
  C      1.115603    0.798316   -0.000163
  C     -1.115604    0.798316   -0.000047
  C      0.708404   -0.539305    0.000275
  C     -0.708404   -0.539305    0.000396
  N      1.844970   -1.314880    0.000405
  N     -1.844969   -1.314880    0.000310
  N      0.000000    1.623424   -0.012899
  H      3.182514    1.695453    0.001317
  H     -3.182515    1.695453    0.001272
  H      3.941593   -0.883817    0.003112
  H     -3.941593   -0.883818    0.003098
  H      1.888002   -2.315552   -0.003863
  H     -1.887996   -2.315553   -0.003452
  H      0.000005    2.622059    0.054138

 Total Charge           Charge          ....    0
 Multiplicity           Mult            ....    1
 Number of Electrons    NEL             ....   76
 Basis Dimension        Dim             ....  667

ORBITAL ENERGIES
----------------

  NO   OCC          E(Eh)            E(eV)
   0   2.0000     -15.598584      -424.4590
   1   2.0000     -15.598583      -424.4590
   2   2.0000     -15.581639      -423.9979
   3   2.0000     -11.254144      -306.2408
   4   2.0000     -11.254144      -306.2408
   5   2.0000     -11.244014      -305.9652
   6   2.0000     -11.243038      -305.9386
   7   2.0000     -11.239068      -305.8306
   8   2.0000     -11.239056      -305.8303
   9   2.0000     -11.212818      -305.1163
  10   2.0000     -11.212816      -305.1162
  11   2.0000      -1.306156       -35.5423
  12   2.0000      -1.274766       -34.6882
  13   2.0000      -1.238058       -33.6893
  14   2.0000      -1.040858       -28.3232
  15   2.0000      -1.022169       -27.8146
  16   2.0000      -1.019190       -27.7336
  17   2.0000      -0.930207       -25.3122
  18   2.0000      -0.817513       -22.2457
  19   2.0000      -0.795554       -21.6481
  20   2.0000      -0.769221       -20.9316
  21   2.0000      -0.760169       -20.6852
  22   2.0000      -0.756977       -20.5984
  23   2.0000      -0.651992       -17.7416
  24   2.0000      -0.641238       -17.4490
  25   2.0000      -0.608592       -16.5606
  26   2.0000      -0.603061       -16.4101
  27   2.0000      -0.582312       -15.8455
  28   2.0000      -0.575769       -15.6675
  29   2.0000      -0.557525       -15.1710
  30   2.0000      -0.549681       -14.9576
  31   2.0000      -0.515061       -14.0155
  32   2.0000      -0.507630       -13.8133
  33   2.0000      -0.500327       -13.6146
  34   2.0000      -0.352709        -9.5977
  35   2.0000      -0.350667        -9.5421
  36   2.0000      -0.285410        -7.7664
  37   2.0000      -0.230077        -6.2607
  38   0.0000       0.022505         0.6124
  39   0.0000       0.030295         0.8244
  40   0.0000       0.031832         0.8662
  41   0.0000       0.041507         1.1295
  42   0.0000       0.043188         1.1752

MULLIKEN ATOMIC CHARGES
-----------------------
   0 C :   -0.880744
   1 C :   -0.880788
   2 C :   -0.811254
   3 C :   -0.811268
   4 C :    0.783945
   5 C :    0.783984
   6 C :    0.178239
   7 C :    0.178264
   8 N :   -0.205389
   9 N :   -0.205378
  10 N :   -0.372397
  11 H :    0.378085
  12 H :    0.378095
  13 H :    0.731046
  14 H :    0.731052
  15 H :   -0.001065
  16 H :   -0.001080
  17 H :    0.026655
Sum of atomic charges:   -0.0000000

LOEWDIN ATOMIC CHARGES
----------------------
   0 C :    0.235407
   1 C :    0.235406
   2 C :    0.115529
   3 C :    0.115529
   4 C :   -0.226026
   5 C :   -0.226025
   6 C :   -0.165540
   7 C :   -0.165540
   8 N :    0.532243
   9 N :    0.532244
  10 N :    0.578600
  11 H :   -0.202116
  12 H :   -0.202115
  13 H :   -0.185475
  14 H :   -0.185475
  15 H :   -0.261863
  16 H :   -0.261864
  17 H :   -0.262920

  Mayer bond orders larger than 0.100000
B(  0-C ,  2-C ) :   1.2176 B(  0-C ,  4-C ) :   0.6626 B(  0-C ,  6-C ) :   0.3811
B(  0-C ,  8-N ) :  -0.2476 B(  0-C , 11-H ) :   1.0039 B(  1-C ,  3-C ) :   1.2176
B(  1-C ,  5-C ) :   0.6626 B(  1-C ,  7-C ) :   0.3811 B(  1-C ,  9-N ) :  -0.2476
B(  1-C , 12-H ) :   1.0039 B(  2-C ,  4-C ) :  -0.2483 B(  2-C ,  6-C ) :  -0.1654
B(  2-C ,  8-N ) :   1.1993 B(  2-C , 13-H ) :   0.3172 B(  3-C ,  5-C ) :  -0.2484
B(  3-C ,  7-C ) :  -0.1654 B(  3-C ,  9-N ) :   1.1993 B(  3-C , 14-H ) :   0.3172
B(  4-C ,  6-C ) :   1.1136 B(  4-C ,  8-N ) :  -0.1439 B(  4-C , 10-N ) :   0.8811
B(  5-C ,  7-C ) :   1.1135 B(  5-C ,  9-N ) :  -0.1439 B(  5-C , 10-N ) :   0.8810
B(  6-C ,  7-C ) :   0.9592 B(  6-C ,  8-N ) :   0.8170 B(  6-C ,  9-N ) :  -0.1270
B(  6-C , 10-N ) :  -0.1057 B(  7-C ,  8-N ) :  -0.1270 B(  7-C ,  9-N ) :   0.8170
B(  7-C , 10-N ) :  -0.1056 B(  8-N , 15-H ) :   1.2243 B(  9-N , 16-H ) :   1.2243
B( 10-N , 17-H ) :   1.2597

MP2 TOTAL ENERGY:     -472.370489846 Eh
FINAL SINGLE POINT ENERGY      -472.370489846028

DIPOLE MOMENT
-------------
                                X             Y             Z
Electronic contribution:     -0.00000      -0.31237      -0.01917
Nuclear contribution   :      0.00001      -0.38512       0.05462
                        -----------------------------------------
Total Dipole Moment    :      0.00001      -0.69749       0.03545
                        -----------------------------------------
Magnitude (a.u.)       :      0.69839
Magnitude (Debye)      :      1.77518

Rotational constants in cm-1:     0.108667     0.030175     0.023617
Rotational constants in MHz :  3257.753039   904.622599   708.028412

                             ****ORCA TERMINATED NORMALLY****
TOTAL RUN TIME: 0 days 0 hours 12 minutes 31 seconds 180 msec
