                         Program Version 5.0.3 -  RELEASE  -
|  1> !ri-mp2 aug-cc-pvtz aug-cc-pvtz/c tightscf
|  2> %pal nprocs 16 end
|  3>
|  4> * xyz 0 1
|  5> C     1.188334    -1.577198    0.000000
|  6> H     1.793080    -1.322397    0.871672
|  7> H     0.948796    -2.636600    0.000000
|  8> H     1.793080    -1.322397   -0.871672
|  9> C    -1.188334     1.577198    0.000000
| 10> H    -1.793080     1.322397    0.871672
| 11> H    -0.948796     2.636600    0.000000
| 12> H    -1.793080     1.322397   -0.871672
| 13> C     0.078985     0.772271    0.000000
| 14> O     1.188334     1.252788    0.000000
| 15> C    -0.078985    -0.772271    0.000000
| 16> O    -1.188334    -1.252788    0.000000
| 17> *
| 18>
| 19>                          ****END OF INPUT****

CARTESIAN COORDINATES (ANGSTROEM)
---------------------------------
  C      1.188334   -1.577198    0.000000
  H      1.793080   -1.322397    0.871672
  H      0.948796   -2.636600    0.000000
  H      1.793080   -1.322397   -0.871672
  C     -1.188334    1.577198    0.000000
  H     -1.793080    1.322397    0.871672
  H     -0.948796    2.636600    0.000000
  H     -1.793080    1.322397   -0.871672
  C      0.078985    0.772271    0.000000
  O      1.188334    1.252788    0.000000
  C     -0.078985   -0.772271    0.000000
  O     -1.188334   -1.252788    0.000000

 Total Charge           Charge          ....    0
 Multiplicity           Mult            ....    1
 Number of Electrons    NEL             ....   46
 Basis Dimension        Dim             ....  414

ORBITAL ENERGIES
----------------

  NO   OCC          E(Eh)            E(eV)
   0   2.0000     -20.580077      -560.0124
   1   2.0000     -20.580077      -560.0124
   2   2.0000     -11.353553      -308.9459
   3   2.0000     -11.353001      -308.9309
   4   2.0000     -11.242255      -305.9173
   5   2.0000     -11.242253      -305.9173
   6   2.0000      -1.427475       -38.8436
   7   2.0000      -1.409060       -38.3425
   8   2.0000      -1.037170       -28.2228
   9   2.0000      -1.022955       -27.8360
  10   2.0000      -0.870647       -23.6915
  11   2.0000      -0.729649       -19.8548
  12   2.0000      -0.699183       -19.0257
  13   2.0000      -0.665111       -18.0986
  14   2.0000      -0.633375       -17.2350
  15   2.0000      -0.615384       -16.7454
  16   2.0000      -0.592880       -16.1331
  17   2.0000      -0.588073       -16.0023
  18   2.0000      -0.553259       -15.0549
  19   2.0000      -0.522441       -14.2164
  20   2.0000      -0.510823       -13.9002
  21   2.0000      -0.507607       -13.8127
  22   2.0000      -0.409563       -11.1448
  23   0.0000       0.029031         0.7900
  24   0.0000       0.032613         0.8875
  25   0.0000       0.041902         1.1402
  26   0.0000       0.047507         1.2927
  27   0.0000       0.055327         1.5055

MULLIKEN ATOMIC CHARGES
-----------------------
   0 C :   -0.766233
   1 H :    0.319678
   2 H :    0.306862
   3 H :    0.319678
   4 C :   -0.766233
   5 H :    0.319678
   6 H :    0.306862
   7 H :    0.319678
   8 C :    0.572463
   9 O :   -0.752448
  10 C :    0.572463
  11 O :   -0.752448
Sum of atomic charges:    0.0000000

LOEWDIN ATOMIC CHARGES
----------------------
   0 C :    0.571650
   1 H :   -0.174484
   2 H :   -0.182398
   3 H :   -0.174484
   4 C :    0.571650
   5 H :   -0.174484
   6 H :   -0.182398
   7 H :   -0.174484
   8 C :   -0.515012
   9 O :    0.474728
  10 C :   -0.515012
  11 O :    0.474728

  Mayer bond orders larger than 0.100000
B(  0-C ,  1-H ) :   0.9170 B(  0-C ,  2-H ) :   0.9517 B(  0-C ,  3-H ) :   0.9170
B(  0-C , 10-C ) :   0.8711 B(  4-C ,  5-H ) :   0.9170 B(  4-C ,  6-H ) :   0.9517
B(  4-C ,  7-H ) :   0.9170 B(  4-C ,  8-C ) :   0.8711 B(  8-C ,  9-O ) :   1.3877
B(  8-C , 10-C ) :   0.9041 B( 10-C , 11-O ) :   1.3877

MP2 TOTAL ENERGY:     -305.937306599 Eh
FINAL SINGLE POINT ENERGY      -305.937306599495

DIPOLE MOMENT
-------------
                                X             Y             Z
Electronic contribution:      0.00000       0.00000       0.00000
Nuclear contribution   :      0.00000       0.00000       0.00000
                        -----------------------------------------
Total Dipole Moment    :      0.00000       0.00000       0.00000
                        -----------------------------------------
Magnitude (a.u.)       :      0.00000
Magnitude (Debye)      :      0.00000

Rotational constants in cm-1:     0.177401     0.112006     0.070415
Rotational constants in MHz :  5318.359746  3357.866134  2110.986076

                             ****ORCA TERMINATED NORMALLY****
TOTAL RUN TIME: 0 days 0 hours 2 minutes 46 seconds 87 msec
