                         Program Version 5.0.3 -  RELEASE  -
|  1> !ri-mp2 aug-cc-pvtz aug-cc-pvtz/c tightscf
|  2> %pal nprocs 16 end
|  3>
|  4> * xyz 0 1
|  5> C      0.590555    1.457337    0.129753
|  6> C      1.694739   -0.815651    0.002549
|  7> C     -0.789368   -0.654893    0.262196
|  8> C      0.447978    0.006154   -0.333326
|  9> O     -1.954191    0.041487   -0.185733
| 10> H      1.450174    1.933176   -0.344932
| 11> H      0.740265    1.505313    1.211861
| 12> H     -0.298201    2.037207   -0.113238
| 13> H      2.583805   -0.370690   -0.445730
| 14> H      1.613928   -1.840373   -0.364710
| 15> H      1.858337   -0.858604    1.082387
| 16> H     -0.832465   -1.704406   -0.050526
| 17> H     -0.727572   -0.631330    1.357984
| 18> H      0.314167    0.004019   -1.419727
| 19> H     -2.732335   -0.363889    0.205458
| 20> *
| 21>
| 22>                          ****END OF INPUT****

CARTESIAN COORDINATES (ANGSTROEM)
---------------------------------
  C      0.590555    1.457337    0.129753
  C      1.694739   -0.815651    0.002549
  C     -0.789368   -0.654893    0.262196
  C      0.447978    0.006154   -0.333326
  O     -1.954191    0.041487   -0.185733
  H      1.450174    1.933176   -0.344932
  H      0.740265    1.505313    1.211861
  H     -0.298201    2.037207   -0.113238
  H      2.583805   -0.370690   -0.445730
  H      1.613928   -1.840373   -0.364710
  H      1.858337   -0.858604    1.082387
  H     -0.832465   -1.704406   -0.050526
  H     -0.727572   -0.631330    1.357984
  H      0.314167    0.004019   -1.419727
  H     -2.732335   -0.363889    0.205458

 Total Charge           Charge          ....    0
 Multiplicity           Mult            ....    1
 Number of Electrons    NEL             ....   42
 Basis Dimension        Dim             ....  460

ORBITAL ENERGIES
----------------

  NO   OCC          E(Eh)            E(eV)
   0   2.0000     -20.554647      -559.3204
   1   2.0000     -11.271208      -306.7051
   2   2.0000     -11.223391      -305.4040
   3   2.0000     -11.212679      -305.1125
   4   2.0000     -11.203496      -304.8626
   5   2.0000      -1.354417       -36.8556
   6   2.0000      -1.076921       -29.3045
   7   2.0000      -0.927409       -25.2361
   8   2.0000      -0.913105       -24.8468
   9   2.0000      -0.770073       -20.9548
  10   2.0000      -0.691150       -18.8071
  11   2.0000      -0.649012       -17.6605
  12   2.0000      -0.605627       -16.4799
  13   2.0000      -0.585699       -15.9377
  14   2.0000      -0.542029       -14.7494
  15   2.0000      -0.532987       -14.5033
  16   2.0000      -0.527602       -14.3568
  17   2.0000      -0.476088       -12.9550
  18   2.0000      -0.471800       -12.8383
  19   2.0000      -0.456789       -12.4298
  20   2.0000      -0.439743       -11.9660
  21   0.0000       0.029475         0.8020
  22   0.0000       0.035771         0.9734
  23   0.0000       0.039800         1.0830
  24   0.0000       0.040598         1.1047
  25   0.0000       0.056769         1.5448

MULLIKEN ATOMIC CHARGES
-----------------------
   0 C :   -1.045084
   1 C :   -1.035846
   2 C :   -0.245024
   3 C :    0.214136
   4 O :   -0.587234
   5 H :    0.283673
   6 H :    0.256718
   7 H :    0.305479
   8 H :    0.270258
   9 H :    0.261732
  10 H :    0.268772
  11 H :    0.279973
  12 H :    0.263488
  13 H :    0.379610
  14 H :    0.129350
Sum of atomic charges:   -0.0000000

LOEWDIN ATOMIC CHARGES
----------------------
   0 C :    0.580248
   1 C :    0.576781
   2 C :    0.035160
   3 C :   -0.074435
   4 O :    0.815337
   5 H :   -0.167551
   6 H :   -0.163821
   7 H :   -0.174797
   8 H :   -0.165852
   9 H :   -0.167384
  10 H :   -0.162560
  11 H :   -0.153405
  12 H :   -0.148144
  13 H :   -0.136033
  14 H :   -0.493542

  Mayer bond orders larger than 0.100000
B(  0-C ,  1-C ) :   0.1117 B(  0-C ,  2-C ) :   0.1164 B(  0-C ,  3-C ) :   0.7546
B(  0-C ,  5-H ) :   0.9615 B(  0-C ,  6-H ) :   0.9726 B(  0-C ,  7-H ) :   0.9514
B(  1-C ,  3-C ) :   0.7801 B(  1-C ,  8-H ) :   0.9729 B(  1-C ,  9-H ) :   0.9831
B(  1-C , 10-H ) :   0.9657 B(  2-C ,  3-C ) :   0.8171 B(  2-C ,  4-O ) :   0.7557
B(  2-C , 11-H ) :   0.9749 B(  2-C , 12-H ) :   0.9650 B(  3-C , 13-H ) :   0.8067
B(  4-O , 14-H ) :   1.0509

MP2 TOTAL ENERGY:     -233.210754150 Eh
FINAL SINGLE POINT ENERGY      -233.210754150209

DIPOLE MOMENT
-------------
                                X             Y             Z
Electronic contribution:     -4.18562      -0.18870      -0.83586
Nuclear contribution   :      4.19206      -0.30746       1.18750
                        -----------------------------------------
Total Dipole Moment    :      0.00644      -0.49616       0.35164
                        -----------------------------------------
Magnitude (a.u.)       :      0.60817
Magnitude (Debye)      :      1.54585

Rotational constants in cm-1:     0.253051     0.117153     0.088440
Rotational constants in MHz :  7586.275560  3512.161150  2651.378020

                             ****ORCA TERMINATED NORMALLY****
TOTAL RUN TIME: 0 days 0 hours 3 minutes 14 seconds 308 msec
