                         Program Version 5.0.3 -  RELEASE  -
|  1> !ri-mp2 aug-cc-pvtz aug-cc-pvtz/c tightscf
|  2> %pal nprocs 16 end
|  3>
|  4> * xyz 0 1
|  5> O    -0.433596    1.791440   -0.034122
|  6> C     0.092369    0.494830   -0.264861
|  7> C    -0.760877   -0.602898    0.406048
|  8> S    -2.513763   -0.566762   -0.143480
|  9> S     2.654148   -0.553579   -0.123783
| 10> C     1.477017    0.465249    0.314637
| 11> H    -1.327788    1.811360   -0.398006
| 12> H     0.147240    0.280150   -1.336058
| 13> H    -0.734102   -0.508767    1.489120
| 14> H    -0.369979   -1.580613    0.134186
| 15> H    -2.975713    0.256316    0.814023
| 16> H     1.631903    1.192396    1.110975
| 17> *
| 18>
| 19>                          ****END OF INPUT****

CARTESIAN COORDINATES (ANGSTROEM)
---------------------------------
  O     -0.433596    1.791440   -0.034122
  C      0.092369    0.494830   -0.264861
  C     -0.760877   -0.602898    0.406048
  S     -2.513763   -0.566762   -0.143480
  S      2.654148   -0.553579   -0.123783
  C      1.477017    0.465249    0.314637
  H     -1.327788    1.811360   -0.398006
  H      0.147240    0.280150   -1.336058
  H     -0.734102   -0.508767    1.489120
  H     -0.369979   -1.580613    0.134186
  H     -2.975713    0.256316    0.814023
  H      1.631903    1.192396    1.110975

 Total Charge           Charge          ....    0
 Multiplicity           Mult            ....    1
 Number of Electrons    NEL             ....   64
 Basis Dimension        Dim             ....  422

ORBITAL ENERGIES
----------------

  NO   OCC          E(Eh)            E(eV)
   0   2.0000     -91.976583     -2502.8101
   1   2.0000     -91.952127     -2502.1446
   2   2.0000     -20.582778      -560.0859
   3   2.0000     -11.326820      -308.2184
   4   2.0000     -11.319296      -308.0137
   5   2.0000     -11.287495      -307.1483
   6   2.0000      -8.977446      -244.2887
   7   2.0000      -8.954367      -243.6607
   8   2.0000      -6.658707      -181.1926
   9   2.0000      -6.657766      -181.1670
  10   2.0000      -6.656803      -181.1408
  11   2.0000      -6.635127      -180.5510
  12   2.0000      -6.634637      -180.5376
  13   2.0000      -6.632880      -180.4899
  14   2.0000      -1.391687       -37.8697
  15   2.0000      -1.114606       -30.3300
  16   2.0000      -1.056175       -28.7400
  17   2.0000      -0.953873       -25.9562
  18   2.0000      -0.860477       -23.4148
  19   2.0000      -0.787976       -21.4419
  20   2.0000      -0.709905       -19.3175
  21   2.0000      -0.664800       -18.0901
  22   2.0000      -0.644189       -17.5293
  23   2.0000      -0.605878       -16.4868
  24   2.0000      -0.551458       -15.0059
  25   2.0000      -0.539488       -14.6802
  26   2.0000      -0.531006       -14.4494
  27   2.0000      -0.486368       -13.2347
  28   2.0000      -0.471842       -12.8395
  29   2.0000      -0.408561       -11.1175
  30   2.0000      -0.382976       -10.4213
  31   2.0000      -0.352021        -9.5790
  32   0.0000       0.027612         0.7513
  33   0.0000       0.036236         0.9860
  34   0.0000       0.038024         1.0347
  35   0.0000       0.042117         1.1461
  36   0.0000       0.043087         1.1725

MULLIKEN ATOMIC CHARGES
-----------------------
   0 O :   -0.698655
   1 C :    0.653370
   2 C :   -0.517297
   3 S :   -0.382436
   4 S :   -0.360209
   5 C :   -0.423015
   6 H :    0.192657
   7 H :    0.368228
   8 H :    0.303255
   9 H :    0.298427
  10 H :    0.162256
  11 H :    0.403419
Sum of atomic charges:    0.0000000

LOEWDIN ATOMIC CHARGES
----------------------
   0 O :    0.804647
   1 C :   -0.467478
   2 C :   -0.094834
   3 S :    1.300544
   4 S :    0.973433
   5 C :   -0.498850
   6 H :   -0.540008
   7 H :   -0.180393
   8 H :   -0.219162
   9 H :   -0.242875
  10 H :   -0.567017
  11 H :   -0.268008

  Mayer bond orders larger than 0.100000
B(  0-O ,  1-C ) :   0.5575 B(  0-O ,  2-C ) :   0.1117 B(  0-O ,  5-C ) :   0.1003
B(  0-O ,  6-H ) :   0.9814 B(  1-C ,  2-C ) :   0.9217 B(  1-C ,  5-C ) :   0.7233
B(  1-C ,  7-H ) :   0.9220 B(  2-C ,  3-S ) :   0.9692 B(  2-C ,  5-C ) :   0.1633
B(  2-C ,  8-H ) :   0.8880 B(  2-C ,  9-H ) :   0.9412 B(  3-S , 10-H ) :   1.0282
B(  4-S ,  5-C ) :   1.7934 B(  5-C , 11-H ) :   0.7892

MP2 TOTAL ENERGY:     -988.205971508 Eh
FINAL SINGLE POINT ENERGY      -988.205971508465

DIPOLE MOMENT
-------------
                                X             Y             Z
Electronic contribution:      2.82602      -1.33629      -1.46076
Nuclear contribution   :     -3.57994       1.48884       1.79208
                        -----------------------------------------
Total Dipole Moment    :     -0.75392       0.15255       0.33132
                        -----------------------------------------
Magnitude (a.u.)       :      0.83752
Magnitude (Debye)      :      2.12881

Rotational constants in cm-1:     0.168079     0.034406     0.029694
Rotational constants in MHz :  5038.890775  1031.470054   890.202053

                             ****ORCA TERMINATED NORMALLY****
TOTAL RUN TIME: 0 days 0 hours 2 minutes 56 seconds 4 msec
