                         Program Version 5.0.3 -  RELEASE  -
|  1> !ri-mp2 aug-cc-pvtz aug-cc-pvtz/c tightscf
|  2> %pal nprocs 16 end
|  3>
|  4> * xyz 0 1
|  5> C     0.000000     0.000000   -1.831849
|  6> C     0.000000     1.195324   -1.129066
|  7> C     0.000000    -1.195324   -1.129066
|  8> C     0.000000     1.155404    0.265392
|  9> C     0.000000    -1.155404    0.265392
| 10> C     0.000000     2.411589    1.091716
| 11> C     0.000000    -2.411589    1.091716
| 12> N     0.000000     0.000000    0.937784
| 13> H     0.000000     0.000000   -2.914051
| 14> H     0.000000     2.144159   -1.647425
| 15> H     0.000000    -2.144159   -1.647425
| 16> H    -0.876787     2.436350    1.740225
| 17> H     0.876787     2.436350    1.740225
| 18> H     0.000000     3.304826    0.469053
| 19> H     0.000000    -3.304826    0.469053
| 20> H     0.876787    -2.436350    1.740225
| 21> H    -0.876787    -2.436350    1.740225
| 22> *
| 23>
| 24>                          ****END OF INPUT****

CARTESIAN COORDINATES (ANGSTROEM)
---------------------------------
  C      0.000000    0.000000   -1.831849
  C      0.000000    1.195324   -1.129066
  C      0.000000   -1.195324   -1.129066
  C      0.000000    1.155404    0.265392
  C      0.000000   -1.155404    0.265392
  C      0.000000    2.411589    1.091716
  C      0.000000   -2.411589    1.091716
  N      0.000000    0.000000    0.937784
  H      0.000000    0.000000   -2.914051
  H      0.000000    2.144159   -1.647425
  H      0.000000   -2.144159   -1.647425
  H     -0.876787    2.436350    1.740225
  H      0.876787    2.436350    1.740225
  H      0.000000    3.304826    0.469053
  H      0.000000   -3.304826    0.469053
  H      0.876787   -2.436350    1.740225
  H     -0.876787   -2.436350    1.740225

 Total Charge           Charge          ....    0
 Multiplicity           Mult            ....    1
 Number of Electrons    NEL             ....   58
 Basis Dimension        Dim             ....  575

ORBITAL ENERGIES
----------------

  NO   OCC          E(Eh)            E(eV)
   0   2.0000     -15.548542      -423.0973
   1   2.0000     -11.276556      -306.8507
   2   2.0000     -11.276539      -306.8502
   3   2.0000     -11.252004      -306.1826
   4   2.0000     -11.227255      -305.5091
   5   2.0000     -11.227211      -305.5079
   6   2.0000     -11.219485      -305.2977
   7   2.0000     -11.219484      -305.2977
   8   2.0000      -1.255870       -34.1739
   9   2.0000      -1.081354       -29.4251
  10   2.0000      -1.070529       -29.1306
  11   2.0000      -0.976181       -26.5632
  12   2.0000      -0.932977       -25.3876
  13   2.0000      -0.831627       -22.6297
  14   2.0000      -0.810682       -22.0598
  15   2.0000      -0.685316       -18.6484
  16   2.0000      -0.670373       -18.2418
  17   2.0000      -0.618980       -16.8433
  18   2.0000      -0.592818       -16.1314
  19   2.0000      -0.577327       -15.7099
  20   2.0000      -0.569185       -15.4883
  21   2.0000      -0.567166       -15.4334
  22   2.0000      -0.534344       -14.5402
  23   2.0000      -0.534037       -14.5319
  24   2.0000      -0.502196       -13.6654
  25   2.0000      -0.498970       -13.5777
  26   2.0000      -0.404765       -11.0142
  27   2.0000      -0.375091       -10.2068
  28   2.0000      -0.327391        -8.9088
  29   0.0000       0.028269         0.7692
  30   0.0000       0.032097         0.8734
  31   0.0000       0.034921         0.9502
  32   0.0000       0.045399         1.2354
  33   0.0000       0.047326         1.2878

MULLIKEN ATOMIC CHARGES
-----------------------
   0 C :   -0.650191
   1 C :   -0.509753
   2 C :   -0.509753
   3 C :    0.715505
   4 C :    0.715505
   5 C :   -0.824207
   6 C :   -0.824207
   7 N :   -0.615945
   8 H :    0.521490
   9 H :    0.161644
  10 H :    0.161644
  11 H :    0.251426
  12 H :    0.251426
  13 H :    0.326283
  14 H :    0.326283
  15 H :    0.251426
  16 H :    0.251426
Sum of atomic charges:   -0.0000000

LOEWDIN ATOMIC CHARGES
----------------------
   0 C :    0.198649
   1 C :    0.217028
   2 C :    0.217028
   3 C :   -0.305090
   4 C :   -0.305090
   5 C :    0.578773
   6 C :    0.578773
   7 N :    0.420412
   8 H :   -0.173015
   9 H :   -0.189668
  10 H :   -0.189668
  11 H :   -0.169997
  12 H :   -0.169997
  13 H :   -0.184072
  14 H :   -0.184072
  15 H :   -0.169997
  16 H :   -0.169997

  Mayer bond orders larger than 0.100000
B(  0-C ,  1-C ) :   1.1362 B(  0-C ,  2-C ) :   1.1362 B(  0-C ,  3-C ) :   0.1527
B(  0-C ,  4-C ) :   0.1527 B(  0-C ,  8-H ) :   0.7817 B(  0-C ,  9-H ) :  -0.1263
B(  0-C , 10-H ) :  -0.1263 B(  1-C ,  2-C ) :  -0.1184 B(  1-C ,  3-C ) :   1.0307
B(  1-C ,  7-N ) :  -0.1030 B(  1-C ,  9-H ) :   1.2571 B(  2-C ,  4-C ) :   1.0307
B(  2-C ,  7-N ) :  -0.1030 B(  2-C , 10-H ) :   1.2571 B(  3-C ,  5-C ) :   0.4194
B(  3-C ,  7-N ) :   0.8781 B(  3-C ,  9-H ) :  -0.1044 B(  4-C ,  6-C ) :   0.4194
B(  4-C ,  7-N ) :   0.8781 B(  4-C , 10-H ) :  -0.1044 B(  5-C , 11-H ) :   1.0402
B(  5-C , 12-H ) :   1.0402 B(  5-C , 13-H ) :   0.9387 B(  6-C , 14-H ) :   0.9387
B(  6-C , 15-H ) :   1.0402 B(  6-C , 16-H ) :   1.0402

MP2 TOTAL ENERGY:     -326.242282159 Eh
FINAL SINGLE POINT ENERGY      -326.242282159400

DIPOLE MOMENT
-------------
                                X             Y             Z
Electronic contribution:     -0.00000       0.00000      -2.31819
Nuclear contribution   :      0.00000       0.00000       1.72365
                        -----------------------------------------
Total Dipole Moment    :     -0.00000       0.00000      -0.59453
                        -----------------------------------------
Magnitude (a.u.)       :      0.59453
Magnitude (Debye)      :      1.51119

Rotational constants in cm-1:     0.117617     0.063754     0.041982
Rotational constants in MHz :  3526.062802  1911.298088  1258.589007

                             ****ORCA TERMINATED NORMALLY****
TOTAL RUN TIME: 0 days 0 hours 6 minutes 51 seconds 212 msec
