                         Program Version 5.0.3 -  RELEASE  -
|  1> !ri-mp2 aug-cc-pvtz aug-cc-pvtz/c tightscf
|  2> %pal nprocs 16 end
|  3>
|  4> * xyz 0 1
|  5> S      1.003766   -1.201120   -0.007299
|  6> H      1.244543   -0.995639    1.301926
|  7> C      1.183258    1.587414   -0.017139
|  8> H      1.384325    1.633112    1.054995
|  9> H      0.747685    2.544290   -0.314961
| 10> C      0.224532    0.446006   -0.342190
| 11> H      0.071406    0.407063   -1.423635
| 12> C     -1.135558    0.616531    0.342215
| 13> H     -1.467515    1.642836    0.153798
| 14> H     -0.998475    0.536154    1.424474
| 15> C     -2.218912   -0.353099   -0.120370
| 16> H     -2.402233   -0.253586   -1.192432
| 17> H     -1.934408   -1.386199    0.075183
| 18> H     -3.159570   -0.156548    0.395174
| 19> H      2.134068    1.465332   -0.532831
| 20> *
| 21>
| 22>                          ****END OF INPUT****

CARTESIAN COORDINATES (ANGSTROEM)
---------------------------------
  S      1.003766   -1.201120   -0.007299
  H      1.244543   -0.995639    1.301926
  C      1.183258    1.587414   -0.017139
  H      1.384325    1.633112    1.054995
  H      0.747685    2.544290   -0.314961
  C      0.224532    0.446006   -0.342190
  H      0.071406    0.407063   -1.423635
  C     -1.135558    0.616531    0.342215
  H     -1.467515    1.642836    0.153798
  H     -0.998475    0.536154    1.424474
  C     -2.218912   -0.353099   -0.120370
  H     -2.402233   -0.253586   -1.192432
  H     -1.934408   -1.386199    0.075183
  H     -3.159570   -0.156548    0.395174
  H      2.134068    1.465332   -0.532831

 Total Charge           Charge          ....    0
 Multiplicity           Mult            ....    1
 Number of Electrons    NEL             ....   50
 Basis Dimension        Dim             ....  464

ORBITAL ENERGIES
----------------

  NO   OCC          E(Eh)            E(eV)
   0   2.0000     -91.945617     -2501.9674
   1   2.0000     -11.268096      -306.6205
   2   2.0000     -11.228891      -305.5536
   3   2.0000     -11.223335      -305.4025
   4   2.0000     -11.212175      -305.0988
   5   2.0000      -8.946660      -243.4510
   6   2.0000      -6.627998      -180.3570
   7   2.0000      -6.626910      -180.3274
   8   2.0000      -6.626001      -180.3026
   9   2.0000      -1.101746       -29.9800
  10   2.0000      -1.000940       -27.2370
  11   2.0000      -0.939513       -25.5655
  12   2.0000      -0.864245       -23.5173
  13   2.0000      -0.779983       -21.2244
  14   2.0000      -0.632324       -17.2064
  15   2.0000      -0.604190       -16.4408
  16   2.0000      -0.595247       -16.1975
  17   2.0000      -0.572589       -15.5810
  18   2.0000      -0.538990       -14.6667
  19   2.0000      -0.511369       -13.9151
  20   2.0000      -0.500441       -13.6177
  21   2.0000      -0.481894       -13.1130
  22   2.0000      -0.474486       -12.9114
  23   2.0000      -0.429448       -11.6859
  24   2.0000      -0.353404        -9.6166
  25   0.0000       0.029709         0.8084
  26   0.0000       0.036345         0.9890
  27   0.0000       0.036786         1.0010
  28   0.0000       0.042034         1.1438
  29   0.0000       0.055495         1.5101

MULLIKEN ATOMIC CHARGES
-----------------------
   0 S :   -0.503150
   1 H :    0.120077
   2 C :   -1.051966
   3 H :    0.279096
   4 H :    0.273382
   5 C :    0.197304
   6 H :    0.376379
   7 C :   -0.484323
   8 H :    0.283745
   9 H :    0.295723
  10 C :   -0.965740
  11 H :    0.261899
  12 H :    0.324566
  13 H :    0.271720
  14 H :    0.321288
Sum of atomic charges:   -0.0000000

LOEWDIN ATOMIC CHARGES
----------------------
   0 S :    1.309249
   1 H :   -0.559390
   2 C :    0.505530
   3 H :   -0.177216
   4 H :   -0.170654
   5 C :   -0.394495
   6 H :   -0.216558
   7 C :    0.185632
   8 H :   -0.154923
   9 H :   -0.158255
  10 C :    0.558764
  11 H :   -0.171014
  12 H :   -0.199275
  13 H :   -0.173079
  14 H :   -0.184317

  Mayer bond orders larger than 0.100000
B(  0-S ,  1-H ) :   1.0519 B(  0-S ,  2-C ) :   0.1116 B(  0-S ,  5-C ) :   0.8068
B(  0-S ,  7-C ) :   0.1362 B(  2-C ,  3-H ) :   0.9698 B(  2-C ,  4-H ) :   0.9420
B(  2-C ,  5-C ) :   0.7999 B(  2-C , 14-H ) :   0.9714 B(  5-C ,  6-H ) :   0.8529
B(  5-C ,  7-C ) :   0.8508 B(  7-C ,  8-H ) :   0.9076 B(  7-C ,  9-H ) :   0.9499
B(  7-C , 10-C ) :   0.8732 B( 10-C , 11-H ) :   0.9720 B( 10-C , 12-H ) :   0.9313
B( 10-C , 13-H ) :   0.9801

MP2 TOTAL ENERGY:     -555.808979734 Eh
FINAL SINGLE POINT ENERGY      -555.808979733825

DIPOLE MOMENT
-------------
                                X             Y             Z
Electronic contribution:      4.32522      -5.04640      -0.81712
Nuclear contribution   :     -4.59309       5.69965       0.98076
                        -----------------------------------------
Total Dipole Moment    :     -0.26786       0.65324       0.16365
                        -----------------------------------------
Magnitude (a.u.)       :      0.72475
Magnitude (Debye)      :      1.84216

Rotational constants in cm-1:     0.148785     0.100142     0.065376
Rotational constants in MHz :  4460.461128  3002.178999  1959.936317

                             ****ORCA TERMINATED NORMALLY****
TOTAL RUN TIME: 0 days 0 hours 3 minutes 21 seconds 886 msec
