                         Program Version 5.0.3 -  RELEASE  -
|  1> !ri-mp2 aug-cc-pvtz aug-cc-pvtz/c tightscf
|  2> %pal nprocs 16 end
|  3>
|  4> * xyz 0 1
|  5> C      0.287231   -0.610477    1.268740
|  6> C      0.287231   -0.610477   -1.268740
|  7> C      0.287231    0.234800    0.000000
|  8> O     -0.802494    1.166277    0.000000
|  9> H      1.168231   -1.253175    1.311423
| 10> H      0.281273    0.027361    2.152009
| 11> H     -0.596203   -1.253979    1.303814
| 12> H      1.168231   -1.253175   -1.311423
| 13> H      0.281273    0.027361   -2.152009
| 14> H     -0.596203   -1.253979   -1.303814
| 15> H      1.172769    0.873582    0.000000
| 16> H     -1.629582    0.672719    0.000000
| 17> *
| 18>
| 19>                          ****END OF INPUT****

CARTESIAN COORDINATES (ANGSTROEM)
---------------------------------
  C      0.287231   -0.610477    1.268740
  C      0.287231   -0.610477   -1.268740
  C      0.287231    0.234800    0.000000
  O     -0.802494    1.166277    0.000000
  H      1.168231   -1.253175    1.311423
  H      0.281273    0.027361    2.152009
  H     -0.596203   -1.253979    1.303814
  H      1.168231   -1.253175   -1.311423
  H      0.281273    0.027361   -2.152009
  H     -0.596203   -1.253979   -1.303814
  H      1.172769    0.873582    0.000000
  H     -1.629582    0.672719    0.000000

 Total Charge           Charge          ....    0
 Multiplicity           Mult            ....    1
 Number of Electrons    NEL             ....   34
 Basis Dimension        Dim             ....  368

ORBITAL ENERGIES
----------------

  NO   OCC          E(Eh)            E(eV)
   0   2.0000     -20.551519      -559.2353
   1   2.0000     -11.279812      -306.9393
   2   2.0000     -11.216262      -305.2100
   3   2.0000     -11.216247      -305.2096
   4   2.0000      -1.353458       -36.8295
   5   2.0000      -1.042523       -28.3685
   6   2.0000      -0.940611       -25.5953
   7   2.0000      -0.814736       -22.1701
   8   2.0000      -0.660524       -17.9738
   9   2.0000      -0.639021       -17.3886
  10   2.0000      -0.599749       -16.3200
  11   2.0000      -0.577107       -15.7039
  12   2.0000      -0.544382       -14.8134
  13   2.0000      -0.514911       -14.0115
  14   2.0000      -0.510452       -13.8901
  15   2.0000      -0.469473       -12.7750
  16   2.0000      -0.438349       -11.9281
  17   0.0000       0.029691         0.8079
  18   0.0000       0.037616         1.0236
  19   0.0000       0.039473         1.0741
  20   0.0000       0.043178         1.1749
  21   0.0000       0.061446         1.6720

MULLIKEN ATOMIC CHARGES
-----------------------
   0 C :   -1.011083
   1 C :   -1.011083
   2 C :    0.438192
   3 O :   -0.701664
   4 H :    0.300309
   5 H :    0.280665
   6 H :    0.281106
   7 H :    0.300309
   8 H :    0.280665
   9 H :    0.281106
  10 H :    0.399774
  11 H :    0.161704
Sum of atomic charges:    0.0000000

LOEWDIN ATOMIC CHARGES
----------------------
   0 C :    0.579808
   1 C :    0.579808
   2 C :   -0.300159
   3 O :    0.814034
   4 H :   -0.170126
   5 H :   -0.171225
   6 H :   -0.171100
   7 H :   -0.170126
   8 H :   -0.171225
   9 H :   -0.171100
  10 H :   -0.152901
  11 H :   -0.495688

  Mayer bond orders larger than 0.100000
B(  0-C ,  2-C ) :   0.8598 B(  0-C ,  4-H ) :   0.9367 B(  0-C ,  5-H ) :   0.9490
B(  0-C ,  6-H ) :   0.9304 B(  1-C ,  2-C ) :   0.8598 B(  1-C ,  7-H ) :   0.9367
B(  1-C ,  8-H ) :   0.9490 B(  1-C ,  9-H ) :   0.9304 B(  2-C ,  3-O ) :   0.4619
B(  2-C , 10-H ) :   0.8536 B(  3-O , 11-H ) :   0.9946

MP2 TOTAL ENERGY:     -193.988593777 Eh
FINAL SINGLE POINT ENERGY      -193.988593777389

DIPOLE MOMENT
-------------
                                X             Y             Z
Electronic contribution:     -1.27913       2.90138      -0.00000
Nuclear contribution   :      1.31451      -3.60722       0.00000
                        -----------------------------------------
Total Dipole Moment    :      0.03538      -0.70585      -0.00000
                        -----------------------------------------
Magnitude (a.u.)       :      0.70673
Magnitude (Debye)      :      1.79637

Rotational constants in cm-1:     0.282411     0.267466     0.158344
Rotational constants in MHz :  8466.481008  8018.420023  4747.031513

                             ****ORCA TERMINATED NORMALLY****
TOTAL RUN TIME: 0 days 0 hours 1 minutes 28 seconds 306 msec
