                         Program Version 5.0.3 -  RELEASE  -
|  1> !ri-mp2 aug-cc-pvtz aug-cc-pvtz/c tightscf
|  2> %pal nprocs 16 end
|  3>
|  4> * xyz 0 1
|  5> Cl    -0.526261    1.700246   -0.274259
|  6> Cl    -1.582683   -1.029630    0.088524
|  7> N      2.158124    0.361415    0.398415
|  8> N      1.210052   -1.612358   -0.532489
|  9> C     -0.238755    0.057016    0.456190
| 10> C      1.125544   -0.473565    0.016892
| 11> H     -0.244149    0.225219    1.527203
| 12> H      1.958781    1.347469    0.456439
| 13> H      3.066064    0.149391    0.018031
| 14> H      2.173371   -1.866660   -0.744155
| 15> *
| 16>
| 17>                          ****END OF INPUT****

CARTESIAN COORDINATES (ANGSTROEM)
---------------------------------
  Cl    -0.526261    1.700246   -0.274259
  Cl    -1.582683   -1.029630    0.088524
  N      2.158124    0.361415    0.398415
  N      1.210052   -1.612358   -0.532489
  C     -0.238755    0.057016    0.456190
  C      1.125544   -0.473565    0.016892
  H     -0.244149    0.225219    1.527203
  H      1.958781    1.347469    0.456439
  H      3.066064    0.149391    0.018031
  H      2.173371   -1.866660   -0.744155

 Total Charge           Charge          ....    0
 Multiplicity           Mult            ....    1
 Number of Electrons    NEL             ....   64
 Basis Dimension        Dim             ....  376

ORBITAL ENERGIES
----------------

  NO   OCC          E(Eh)            E(eV)
   0   2.0000    -104.855732     -2853.2695
   1   2.0000    -104.845673     -2852.9958
   2   2.0000     -15.596949      -424.4146
   3   2.0000     -15.549836      -423.1326
   4   2.0000     -11.381964      -309.7190
   5   2.0000     -11.348119      -308.7980
   6   2.0000     -10.579684      -287.8878
   7   2.0000     -10.569565      -287.6125
   8   2.0000      -8.046399      -218.9536
   9   2.0000      -8.044563      -218.9037
  10   2.0000      -8.044463      -218.9010
  11   2.0000      -8.036415      -218.6820
  12   2.0000      -8.034349      -218.6257
  13   2.0000      -8.034261      -218.6234
  14   2.0000      -1.294422       -35.2230
  15   2.0000      -1.185704       -32.2647
  16   2.0000      -1.167470       -31.7685
  17   2.0000      -1.093389       -29.7526
  18   2.0000      -0.943243       -25.6669
  19   2.0000      -0.792366       -21.5614
  20   2.0000      -0.733743       -19.9662
  21   2.0000      -0.720323       -19.6010
  22   2.0000      -0.647308       -17.6142
  23   2.0000      -0.604663       -16.4537
  24   2.0000      -0.582360       -15.8468
  25   2.0000      -0.540820       -14.7165
  26   2.0000      -0.479022       -13.0348
  27   2.0000      -0.475855       -12.9487
  28   2.0000      -0.451962       -12.2985
  29   2.0000      -0.448150       -12.1948
  30   2.0000      -0.437083       -11.8936
  31   2.0000      -0.396065       -10.7775
  32   0.0000       0.021261         0.5786
  33   0.0000       0.037595         1.0230
  34   0.0000       0.041896         1.1400
  35   0.0000       0.056613         1.5405
  36   0.0000       0.072844         1.9822

MULLIKEN ATOMIC CHARGES
-----------------------
   0 Cl:   -0.326242
   1 Cl:   -0.273578
   2 N :   -0.358221
   3 N :   -0.645429
   4 C :    0.388524
   5 C :    0.555936
   6 H :    0.268633
   7 H :    0.153847
   8 H :    0.120549
   9 H :    0.115980
Sum of atomic charges:   -0.0000000

LOEWDIN ATOMIC CHARGES
----------------------
   0 Cl:    0.864492
   1 Cl:    0.918465
   2 N :    0.824727
   3 N :    0.604540
   4 C :   -1.163159
   5 C :   -0.620151
   6 H :   -0.331417
   7 H :   -0.368600
   8 H :   -0.298903
   9 H :   -0.429993

  Mayer bond orders larger than 0.100000
B(  0-Cl,  4-C ) :   0.7801 B(  1-Cl,  4-C ) :   0.8593 B(  2-N ,  5-C ) :   0.9022
B(  2-N ,  7-H ) :   1.0194 B(  2-N ,  8-H ) :   1.0306 B(  3-N ,  5-C ) :   1.3517
B(  3-N ,  9-H ) :   1.0044 B(  4-C ,  5-C ) :   0.8103 B(  4-C ,  6-H ) :   0.9354

MP2 TOTAL ENERGY:    -1107.197777849 Eh
FINAL SINGLE POINT ENERGY     -1107.197777848984

DIPOLE MOMENT
-------------
                                X             Y             Z
Electronic contribution:     -8.17941       1.77022      -1.02578
Nuclear contribution   :      9.45773      -1.05203       1.44119
                        -----------------------------------------
Total Dipole Moment    :      1.27832       0.71820       0.41541
                        -----------------------------------------
Magnitude (a.u.)       :      1.52397
Magnitude (Debye)      :      3.87361

Rotational constants in cm-1:     0.083847     0.072508     0.041708
Rotational constants in MHz :  2513.683530  2173.742324  1250.386620

                             ****ORCA TERMINATED NORMALLY****
TOTAL RUN TIME: 0 days 0 hours 2 minutes 1 seconds 606 msec
