                         Program Version 5.0.3 -  RELEASE  -
|  1> !ri-mp2 aug-cc-pvtz aug-cc-pvtz/c tightscf
|  2> %pal nprocs 16 end
|  3>
|  4> * xyz 0 1
|  5> C     0.941514   -0.098483   -0.014842
|  6> C    -1.781018   -0.019406    0.390258
|  7> C    -1.091888   -1.260357   -0.181491
|  8> C    -1.137073    1.235394   -0.190517
|  9> C     2.440033   -0.025730    0.105285
| 10> N     0.363471   -1.238193   -0.066973
| 11> N     0.305683    1.121283   -0.051204
| 12> H    -2.849215   -0.030386    0.168731
| 13> H    -1.669794   -0.010999    1.476831
| 14> H    -1.454663   -2.156545    0.325164
| 15> H    -1.359693   -1.380641   -1.237877
| 16> H    -1.420985    1.347734   -1.243241
| 17> H    -1.475506    2.129505    0.335358
| 18> H     2.734140    0.509347    1.011023
| 19> H     2.874653    0.500871   -0.747674
| 20> H     2.842634   -1.033035    0.140948
| 21> H     0.864952    1.954010   -0.054174
| 22> *
| 23>
| 24>                          ****END OF INPUT****

CARTESIAN COORDINATES (ANGSTROEM)
---------------------------------
  C      0.941514   -0.098483   -0.014842
  C     -1.781018   -0.019406    0.390258
  C     -1.091888   -1.260357   -0.181491
  C     -1.137073    1.235394   -0.190517
  C      2.440033   -0.025730    0.105285
  N      0.363471   -1.238193   -0.066973
  N      0.305683    1.121283   -0.051204
  H     -2.849215   -0.030386    0.168731
  H     -1.669794   -0.010999    1.476831
  H     -1.454663   -2.156545    0.325164
  H     -1.359693   -1.380641   -1.237877
  H     -1.420985    1.347734   -1.243241
  H     -1.475506    2.129505    0.335358
  H      2.734140    0.509347    1.011023
  H      2.874653    0.500871   -0.747674
  H      2.842634   -1.033035    0.140948
  H      0.864952    1.954010   -0.054174

 Total Charge           Charge          ....    0
 Multiplicity           Mult            ....    1
 Number of Electrons    NEL             ....   54
 Basis Dimension        Dim             ....  552

ORBITAL ENERGIES
----------------

  NO   OCC          E(Eh)            E(eV)
   0   2.0000     -15.568636      -423.6441
   1   2.0000     -15.510032      -422.0494
   2   2.0000     -11.301130      -307.5194
   3   2.0000     -11.263285      -306.4896
   4   2.0000     -11.235022      -305.7205
   5   2.0000     -11.221485      -305.3521
   6   2.0000     -11.220006      -305.3119
   7   2.0000      -1.274861       -34.6907
   8   2.0000      -1.156490       -31.4697
   9   2.0000      -1.061644       -28.8888
  10   2.0000      -0.966447       -26.2984
  11   2.0000      -0.904147       -24.6031
  12   2.0000      -0.835569       -22.7370
  13   2.0000      -0.732987       -19.9456
  14   2.0000      -0.686599       -18.6833
  15   2.0000      -0.643209       -17.5026
  16   2.0000      -0.630041       -17.1443
  17   2.0000      -0.584908       -15.9162
  18   2.0000      -0.578724       -15.7479
  19   2.0000      -0.557420       -15.1682
  20   2.0000      -0.548362       -14.9217
  21   2.0000      -0.530628       -14.4391
  22   2.0000      -0.508907       -13.8481
  23   2.0000      -0.476656       -12.9705
  24   2.0000      -0.440152       -11.9771
  25   2.0000      -0.378174       -10.2906
  26   2.0000      -0.332449        -9.0464
  27   0.0000       0.024886         0.6772
  28   0.0000       0.033075         0.9000
  29   0.0000       0.037945         1.0325
  30   0.0000       0.039726         1.0810
  31   0.0000       0.052411         1.4262

MULLIKEN ATOMIC CHARGES
-----------------------
   0 C :    0.054932
   1 C :   -0.478351
   2 C :   -0.310613
   3 C :   -0.369275
   4 C :   -0.729380
   5 N :   -0.593611
   6 N :   -0.214056
   7 H :    0.352961
   8 H :    0.207655
   9 H :    0.299735
  10 H :    0.234274
  11 H :    0.224442
  12 H :    0.330220
  13 H :    0.289713
  14 H :    0.298097
  15 H :    0.317904
  16 H :    0.085353
Sum of atomic charges:    0.0000000

LOEWDIN ATOMIC CHARGES
----------------------
   0 C :   -0.434135
   1 C :    0.283003
   2 C :    0.099888
   3 C :    0.200428
   4 C :    0.584023
   5 N :    0.403711
   6 N :    0.572994
   7 H :   -0.144621
   8 H :   -0.144745
   9 H :   -0.168013
  10 H :   -0.158848
  11 H :   -0.139936
  12 H :   -0.144043
  13 H :   -0.169436
  14 H :   -0.169807
  15 H :   -0.184516
  16 H :   -0.285946

  Mayer bond orders larger than 0.100000
B(  0-C ,  4-C ) :   0.4206 B(  0-C ,  5-N ) :   1.1759 B(  0-C ,  6-N ) :   1.0031
B(  1-C ,  2-C ) :   0.9295 B(  1-C ,  3-C ) :   0.9295 B(  1-C ,  7-H ) :   0.8595
B(  1-C ,  8-H ) :   0.9914 B(  2-C ,  5-N ) :   0.6989 B(  2-C ,  9-H ) :   0.9455
B(  2-C , 10-H ) :   0.9606 B(  3-C ,  6-N ) :   0.7086 B(  3-C , 11-H ) :   0.9828
B(  3-C , 12-H ) :   0.9140 B(  4-C , 13-H ) :   0.9855 B(  4-C , 14-H ) :   0.9729
B(  4-C , 15-H ) :   0.9461 B(  6-N , 16-H ) :   1.0773

MP2 TOTAL ENERGY:     -305.436860535 Eh
FINAL SINGLE POINT ENERGY      -305.436860534884

DIPOLE MOMENT
-------------
                                X             Y             Z
Electronic contribution:      0.76486      -0.63251      -0.19542
Nuclear contribution   :     -0.93983       1.89006       0.18020
                        -----------------------------------------
Total Dipole Moment    :     -0.17496       1.25755      -0.01522
                        -----------------------------------------
Magnitude (a.u.)       :      1.26975
Magnitude (Debye)      :      3.22745

Rotational constants in cm-1:     0.160430     0.081308     0.057675
Rotational constants in MHz :  4809.583134  2437.566288  1729.063899

                             ****ORCA TERMINATED NORMALLY****
TOTAL RUN TIME: 0 days 0 hours 6 minutes 38 seconds 517 msec
