                         Program Version 5.0.3 -  RELEASE  -
|  1> !ri-mp2 aug-cc-pvtz aug-cc-pvtz/c tightscf
|  2> %pal nprocs 16 end
|  3>
|  4> * xyz 0 1
|  5> S    -1.764262   -0.028731    0.281446
|  6> O     0.586821   -1.114709   -0.509303
|  7> N    -0.251683    0.006912   -0.828675
|  8> N     0.614061    1.105043   -0.503142
|  9> C     1.485936   -0.681423    0.451316
| 10> C     1.501411    0.645466    0.492509
| 11> H    -1.126094    0.003515    1.472452
| 12> H     0.064649    1.928199   -0.298450
| 13> H     2.039233   -1.439683    0.972831
| 14> H     2.095103    1.317395    1.084212
| 15> *
| 16>
| 17>                          ****END OF INPUT****

CARTESIAN COORDINATES (ANGSTROEM)
---------------------------------
  S     -1.764262   -0.028731    0.281446
  O      0.586821   -1.114709   -0.509303
  N     -0.251683    0.006912   -0.828675
  N      0.614061    1.105043   -0.503142
  C      1.485936   -0.681423    0.451316
  C      1.501411    0.645466    0.492509
  H     -1.126094    0.003515    1.472452
  H      0.064649    1.928199   -0.298450
  H      2.039233   -1.439683    0.972831
  H      2.095103    1.317395    1.084212

 Total Charge           Charge          ....    0
 Multiplicity           Mult            ....    1
 Number of Electrons    NEL             ....   54
 Basis Dimension        Dim             ....  372

ORBITAL ENERGIES
----------------

  NO   OCC          E(Eh)            E(eV)
   0   2.0000     -91.986319     -2503.0750
   1   2.0000     -20.628965      -561.3427
   2   2.0000     -15.705033      -427.3557
   3   2.0000     -15.620524      -425.0561
   4   2.0000     -11.298433      -307.4460
   5   2.0000     -11.281273      -306.9791
   6   2.0000      -8.984727      -244.4869
   7   2.0000      -6.665521      -181.3781
   8   2.0000      -6.664477      -181.3496
   9   2.0000      -6.663350      -181.3190
  10   2.0000      -1.480231       -40.2791
  11   2.0000      -1.266088       -34.4520
  12   2.0000      -1.112945       -30.2848
  13   2.0000      -0.981364       -26.7043
  14   2.0000      -0.899790       -24.4845
  15   2.0000      -0.832110       -22.6429
  16   2.0000      -0.757341       -20.6083
  17   2.0000      -0.673137       -18.3170
  18   2.0000      -0.634888       -17.2762
  19   2.0000      -0.628279       -17.0963
  20   2.0000      -0.605405       -16.4739
  21   2.0000      -0.562743       -15.3130
  22   2.0000      -0.528636       -14.3849
  23   2.0000      -0.489268       -13.3137
  24   2.0000      -0.437289       -11.8992
  25   2.0000      -0.384349       -10.4587
  26   2.0000      -0.315977        -8.5982
  27   0.0000       0.023594         0.6420
  28   0.0000       0.034783         0.9465
  29   0.0000       0.041537         1.1303
  30   0.0000       0.049066         1.3352
  31   0.0000       0.077169         2.0999

MULLIKEN ATOMIC CHARGES
-----------------------
   0 S :   -0.090771
   1 O :   -0.413789
   2 N :   -0.203801
   3 N :   -0.054461
   4 C :   -0.329316
   5 C :   -0.415362
   6 H :    0.198954
   7 H :    0.123420
   8 H :    0.632446
   9 H :    0.552679
Sum of atomic charges:    0.0000000

LOEWDIN ATOMIC CHARGES
----------------------
   0 S :    1.100482
   1 O :    0.356484
   2 N :   -0.333116
   3 N :    0.309083
   4 C :   -0.100251
   5 C :    0.033081
   6 H :   -0.621845
   7 H :   -0.353197
   8 H :   -0.204055
   9 H :   -0.186667

  Mayer bond orders larger than 0.100000
B(  0-S ,  2-N ) :   0.8165 B(  0-S ,  6-H ) :   0.9776 B(  1-O ,  2-N ) :   0.7767
B(  1-O ,  4-C ) :   0.8991 B(  2-N ,  3-N ) :   0.7315 B(  3-N ,  4-C ) :  -0.1131
B(  3-N ,  5-C ) :   0.8686 B(  3-N ,  7-H ) :   1.0291 B(  4-C ,  5-C ) :   1.6588
B(  4-C ,  8-H ) :   0.5910 B(  5-C ,  9-H ) :   0.6985

MP2 TOTAL ENERGY:     -660.467680806 Eh
FINAL SINGLE POINT ENERGY      -660.467680806253

DIPOLE MOMENT
-------------
                                X             Y             Z
Electronic contribution:     -2.47714      -1.09147      -1.93920
Nuclear contribution   :      3.05699       1.75242       3.12303
                        -----------------------------------------
Total Dipole Moment    :      0.57985       0.66095       1.18383
                        -----------------------------------------
Magnitude (a.u.)       :      1.47463
Magnitude (Debye)      :      3.74822

Rotational constants in cm-1:     0.199193     0.082477     0.073270
Rotational constants in MHz :  5971.641703  2472.601118  2196.573152

                             ****ORCA TERMINATED NORMALLY****
TOTAL RUN TIME: 0 days 0 hours 2 minutes 17 seconds 919 msec
