                         Program Version 5.0.3 -  RELEASE  -
|  1> !ri-mp2 aug-cc-pvtz aug-cc-pvtz/c tightscf
|  2> %pal nprocs 16 end
|  3>
|  4> * xyz 0 1
|  5> S     -1.237044    0.001448   -0.107671
|  6> N      0.008561   -1.244800    0.162871
|  7> N      1.291262   -0.667661   -0.105066
|  8> C     -0.008423    1.263519    0.104972
|  9> C      1.217607    0.751160    0.046079
| 10> H     -0.002263   -1.404163    1.165699
| 11> H      1.571441   -0.928185   -1.047847
| 12> H     -0.273152    2.302314    0.208260
| 13> H      2.142819    1.306025    0.085693
| 14> *
| 15>
| 16>                          ****END OF INPUT****

CARTESIAN COORDINATES (ANGSTROEM)
---------------------------------
  S     -1.237044    0.001448   -0.107671
  N      0.008561   -1.244800    0.162871
  N      1.291262   -0.667661   -0.105066
  C     -0.008423    1.263519    0.104972
  C      1.217607    0.751160    0.046079
  H     -0.002263   -1.404163    1.165699
  H      1.571441   -0.928185   -1.047847
  H     -0.273152    2.302314    0.208260
  H      2.142819    1.306025    0.085693

 Total Charge           Charge          ....    0
 Multiplicity           Mult            ....    1
 Number of Electrons    NEL             ....   46
 Basis Dimension        Dim             ....  326

ORBITAL ENERGIES
----------------

  NO   OCC          E(Eh)            E(eV)
   0   2.0000     -91.986634     -2503.0836
   1   2.0000     -15.618025      -424.9881
   2   2.0000     -15.605595      -424.6498
   3   2.0000     -11.276958      -306.8616
   4   2.0000     -11.264922      -306.5341
   5   2.0000      -8.984168      -244.4716
   6   2.0000      -6.665163      -181.3683
   7   2.0000      -6.664255      -181.3436
   8   2.0000      -6.662987      -181.3091
   9   2.0000      -1.320753       -35.9395
  10   2.0000      -1.086862       -29.5750
  11   2.0000      -1.063205       -28.9313
  12   2.0000      -0.873800       -23.7773
  13   2.0000      -0.784929       -21.3590
  14   2.0000      -0.708637       -19.2830
  15   2.0000      -0.675784       -18.3890
  16   2.0000      -0.613325       -16.6894
  17   2.0000      -0.575315       -15.6551
  18   2.0000      -0.504122       -13.7178
  19   2.0000      -0.483155       -13.1473
  20   2.0000      -0.442718       -12.0470
  21   2.0000      -0.402996       -10.9661
  22   2.0000      -0.309893        -8.4326
  23   0.0000       0.028196         0.7673
  24   0.0000       0.037425         1.0184
  25   0.0000       0.043347         1.1795
  26   0.0000       0.047047         1.2802
  27   0.0000       0.073217         1.9923

MULLIKEN ATOMIC CHARGES
-----------------------
   0 S :   -0.018076
   1 N :   -0.314901
   2 N :   -0.130073
   3 C :   -0.381432
   4 C :   -0.389855
   5 H :    0.119109
   6 H :    0.109410
   7 H :    0.462856
   8 H :    0.542963
Sum of atomic charges:   -0.0000000

LOEWDIN ATOMIC CHARGES
----------------------
   0 S :    1.032436
   1 N :    0.113410
   2 N :    0.334847
   3 C :   -0.210013
   4 C :   -0.033220
   5 H :   -0.444020
   6 H :   -0.326901
   7 H :   -0.271696
   8 H :   -0.194842

  Mayer bond orders larger than 0.100000
B(  0-S ,  1-N ) :   0.9196 B(  0-S ,  3-C ) :   0.9839 B(  1-N ,  2-N ) :   0.7032
B(  1-N ,  5-H ) :   0.9504 B(  2-N ,  4-C ) :   0.8572 B(  2-N ,  6-H ) :   0.9951
B(  3-C ,  4-C ) :   1.6132 B(  3-C ,  7-H ) :   0.7973 B(  4-C ,  8-H ) :   0.6682

MP2 TOTAL ENERGY:     -585.412439862 Eh
FINAL SINGLE POINT ENERGY      -585.412439862225

DIPOLE MOMENT
-------------
                                X             Y             Z
Electronic contribution:     -2.94489      -0.63307      -0.37070
Nuclear contribution   :      3.41598       1.23980       0.40728
                        -----------------------------------------
Total Dipole Moment    :      0.47109       0.60673       0.03657
                        -----------------------------------------
Magnitude (a.u.)       :      0.76901
Magnitude (Debye)      :      1.95467

Rotational constants in cm-1:     0.250331     0.167107     0.104637
Rotational constants in MHz :  7504.738066  5009.744626  3136.933123

                             ****ORCA TERMINATED NORMALLY****
TOTAL RUN TIME: 0 days 0 hours 1 minutes 33 seconds 597 msec
