                         Program Version 5.0.3 -  RELEASE  -
|  1> !ri-mp2 aug-cc-pvtz aug-cc-pvtz/c tightscf
|  2> %pal nprocs 16 end
|  3>
|  4> * xyz 0 1
|  5> C      0.291567    0.213459    0.000000
|  6> N     -0.907457    1.063947    0.000000
|  7> H      1.214879    0.812042    0.000000
|  8> C      0.291567   -0.643023    1.262440
|  9> C      0.291567   -0.643023   -1.262440
| 10> H     -0.926663    1.665263   -0.815022
| 11> H     -0.926663    1.665263    0.815022
| 12> H     -0.596181   -1.276761    1.290536
| 13> H     -0.596181   -1.276761   -1.290536
| 14> H      1.176573   -1.279494    1.299902
| 15> H      1.176573   -1.279494   -1.299902
| 16> H      0.290826   -0.021081    2.160146
| 17> H      0.290826   -0.021081   -2.160146
| 18> *
| 19>
| 20>                          ****END OF INPUT****

CARTESIAN COORDINATES (ANGSTROEM)
---------------------------------
  C      0.291567    0.213459    0.000000
  N     -0.907457    1.063947    0.000000
  H      1.214879    0.812042    0.000000
  C      0.291567   -0.643023    1.262440
  C      0.291567   -0.643023   -1.262440
  H     -0.926663    1.665263   -0.815022
  H     -0.926663    1.665263    0.815022
  H     -0.596181   -1.276761    1.290536
  H     -0.596181   -1.276761   -1.290536
  H      1.176573   -1.279494    1.299902
  H      1.176573   -1.279494   -1.299902
  H      0.290826   -0.021081    2.160146
  H      0.290826   -0.021081   -2.160146

 Total Charge           Charge          ....    0
 Multiplicity           Mult            ....    1
 Number of Electrons    NEL             ....   34
 Basis Dimension        Dim             ....  391

ORBITAL ENERGIES
----------------

  NO   OCC          E(Eh)            E(eV)
   0   2.0000     -15.535307      -422.7372
   1   2.0000     -11.252356      -306.1922
   2   2.0000     -11.208456      -304.9976
   3   2.0000     -11.208442      -304.9972
   4   2.0000      -1.180648       -32.1271
   5   2.0000      -1.012522       -27.5521
   6   2.0000      -0.931235       -25.3402
   7   2.0000      -0.780435       -21.2367
   8   2.0000      -0.650812       -17.7095
   9   2.0000      -0.650302       -17.6956
  10   2.0000      -0.597235       -16.2516
  11   2.0000      -0.538009       -14.6400
  12   2.0000      -0.527442       -14.3524
  13   2.0000      -0.506408       -13.7801
  14   2.0000      -0.489803       -13.3282
  15   2.0000      -0.473675       -12.8894
  16   2.0000      -0.386154       -10.5078
  17   0.0000       0.029485         0.8023
  18   0.0000       0.039141         1.0651
  19   0.0000       0.039731         1.0811
  20   0.0000       0.041843         1.1386
  21   0.0000       0.059035         1.6064

MULLIKEN ATOMIC CHARGES
-----------------------
   0 C :    0.504500
   1 N :   -0.659015
   2 H :    0.287439
   3 C :   -1.012909
   4 C :   -1.012909
   5 H :    0.097715
   6 H :    0.097715
   7 H :    0.286788
   8 H :    0.286788
   9 H :    0.286668
  10 H :    0.286668
  11 H :    0.275277
  12 H :    0.275277
Sum of atomic charges:   -0.0000000

LOEWDIN ATOMIC CHARGES
----------------------
   0 C :   -0.199885
   1 N :    0.845767
   2 H :   -0.136218
   3 C :    0.575816
   4 C :    0.575816
   5 H :   -0.325511
   6 H :   -0.325511
   7 H :   -0.165609
   8 H :   -0.165609
   9 H :   -0.169316
  10 H :   -0.169316
  11 H :   -0.170212
  12 H :   -0.170212

  Mayer bond orders larger than 0.100000
B(  0-C ,  1-N ) :   0.5148 B(  0-C ,  2-H ) :   0.9168 B(  0-C ,  3-C ) :   0.7696
B(  0-C ,  4-C ) :   0.7696 B(  1-N ,  5-H ) :   0.9993 B(  1-N ,  6-H ) :   0.9993
B(  3-C ,  4-C ) :   0.1075 B(  3-C ,  7-H ) :   0.9471 B(  3-C ,  9-H ) :   0.9514
B(  3-C , 11-H ) :   0.9652 B(  4-C ,  8-H ) :   0.9471 B(  4-C , 10-H ) :   0.9514
B(  4-C , 12-H ) :   0.9652

MP2 TOTAL ENERGY:     -174.124931681 Eh
FINAL SINGLE POINT ENERGY      -174.124931680981

DIPOLE MOMENT
-------------
                                X             Y             Z
Electronic contribution:     -0.76951       1.39476      -0.00000
Nuclear contribution   :      1.18681      -1.08656       0.00000
                        -----------------------------------------
Total Dipole Moment    :      0.41730       0.30820      -0.00000
                        -----------------------------------------
Magnitude (a.u.)       :      0.51878
Magnitude (Debye)      :      1.31862

Rotational constants in cm-1:     0.278015     0.265776     0.154943
Rotational constants in MHz :  8334.675571  7967.755451  4645.080603

                             ****ORCA TERMINATED NORMALLY****
TOTAL RUN TIME: 0 days 0 hours 1 minutes 43 seconds 152 msec
