                         Program Version 5.0.3 -  RELEASE  -
|  1> !ri-mp2 aug-cc-pvtz aug-cc-pvtz/c tightscf
|  2> %pal nprocs 16 end
|  3>
|  4> * xyz 0 1
|  5> O      0.216355   -1.131231   -0.000019
|  6> N     -1.034393   -0.361708    0.000007
|  7> C      1.141200   -0.042903    0.000000
|  8> C     -1.003508    0.912444    0.000005
|  9> C      0.486277    1.267077   -0.000055
| 10> H     -1.812094   -1.012004    0.000017
| 11> H      1.788873   -0.112783    0.883419
| 12> H      1.789317   -0.113121   -0.883034
| 13> *
| 14>
| 15>                          ****END OF INPUT****

CARTESIAN COORDINATES (ANGSTROEM)
---------------------------------
  O      0.216355   -1.131231   -0.000019
  N     -1.034393   -0.361708    0.000007
  C      1.141200   -0.042903    0.000000
  C     -1.003508    0.912444    0.000005
  C      0.486277    1.267077   -0.000055
  H     -1.812094   -1.012004    0.000017
  H      1.788873   -0.112783    0.883419
  H      1.789317   -0.113121   -0.883034

 Total Charge           Charge          ....    0
 Multiplicity           Mult            ....    1
 Number of Electrons    NEL             ....   36
 Basis Dimension        Dim             ....  299

ORBITAL ENERGIES
----------------

  NO   OCC          E(Eh)            E(eV)
   0   2.0000     -20.639638      -561.6331
   1   2.0000     -15.708697      -427.4554
   2   2.0000     -11.307752      -307.6996
   3   2.0000     -11.292070      -307.2729
   4   2.0000     -11.269390      -306.6557
   5   2.0000      -1.468172       -39.9510
   6   2.0000      -1.227760       -33.4090
   7   2.0000      -1.069958       -29.1150
   8   2.0000      -0.883358       -24.0374
   9   2.0000      -0.808235       -21.9932
  10   2.0000      -0.702318       -19.1110
  11   2.0000      -0.699925       -19.0459
  12   2.0000      -0.628288       -17.0966
  13   2.0000      -0.564487       -15.3605
  14   2.0000      -0.561340       -15.2748
  15   2.0000      -0.462811       -12.5937
  16   2.0000      -0.397887       -10.8271
  17   2.0000      -0.367936       -10.0120
  18   0.0000       0.015727         0.4280
  19   0.0000       0.024416         0.6644
  20   0.0000       0.035998         0.9795
  21   0.0000       0.042174         1.1476
  22   0.0000       0.069318         1.8862

MULLIKEN ATOMIC CHARGES
-----------------------
   0 O :   -0.562365
   1 N :    0.354581
   2 C :    0.052998
   3 C :   -0.444349
   4 C :   -0.314728
   5 H :    0.216907
   6 H :    0.348422
   7 H :    0.348535
Sum of atomic charges:   -0.0000000

LOEWDIN ATOMIC CHARGES
----------------------
   0 O :    0.483445
   1 N :    0.188793
   2 C :   -0.153946
   3 C :   -0.032510
   4 C :    0.170685
   5 H :   -0.293400
   6 H :   -0.181536
   7 H :   -0.181530

  Mayer bond orders larger than 0.100000
B(  0-O ,  1-N ) :   0.7458 B(  0-O ,  2-C ) :   0.7829 B(  1-N ,  3-C ) :   1.3932
B(  1-N ,  5-H ) :   0.9885 B(  2-C ,  4-C ) :   0.6893 B(  2-C ,  6-H ) :   0.8769
B(  2-C ,  7-H ) :   0.8768 B(  3-C ,  4-C ) :   0.5259

MP2 TOTAL ENERGY:     -245.374984337 Eh
FINAL SINGLE POINT ENERGY      -245.374984337184

DIPOLE MOMENT
-------------
                                X             Y             Z
Electronic contribution:     -1.47430      -0.03902      -0.00032
Nuclear contribution   :      1.72635      -1.23141       0.00039
                        -----------------------------------------
Total Dipole Moment    :      0.25205      -1.27043       0.00007
                        -----------------------------------------
Magnitude (a.u.)       :      1.29519
Magnitude (Debye)      :      3.29212

Rotational constants in cm-1:     0.313784     0.290144     0.155114
Rotational constants in MHz :  9407.008007  8698.291749  4650.186256

                             ****ORCA TERMINATED NORMALLY****
TOTAL RUN TIME: 0 days 0 hours 1 minutes 8 seconds 318 msec
