                         Program Version 5.0.3 -  RELEASE  -
|  1> !ri-mp2 aug-cc-pvtz aug-cc-pvtz/c tightscf
|  2> %pal nprocs 16 end
|  3>
|  4> * xyz 0 1
|  5> C     -1.909658   -1.067465    0.000000
|  6> C      0.899358   -0.498996    1.255256
|  7> C      0.899358    1.663266    0.000000
|  8> C      0.899358   -0.498996   -1.255256
|  9> C     -1.169008    0.270451    0.000000
| 10> C      0.377490    0.217634    0.000000
| 11> H     -1.674987   -1.665724    0.881080
| 12> H     -2.987965   -0.901561    0.000000
| 13> H     -1.674987   -1.665724   -0.881080
| 14> H      0.598153   -1.546802    1.280112
| 15> H      0.527055   -0.021077    2.164092
| 16> H      1.990351   -0.471536    1.288745
| 17> H      0.553781    2.206619   -0.882017
| 18> H      0.553781    2.206619    0.882017
| 19> H      1.990950    1.686803    0.000000
| 20> H      0.598153   -1.546802   -1.280112
| 21> H      1.990351   -0.471536   -1.288745
| 22> H      0.527055   -0.021077   -2.164092
| 23> H     -1.486539    0.848219    0.873569
| 24> H     -1.486539    0.848219   -0.873569
| 25> *
| 26>
| 27>                          ****END OF INPUT****

CARTESIAN COORDINATES (ANGSTROEM)
---------------------------------
  C     -1.909658   -1.067465    0.000000
  C      0.899358   -0.498996    1.255256
  C      0.899358    1.663266    0.000000
  C      0.899358   -0.498996   -1.255256
  C     -1.169008    0.270451    0.000000
  C      0.377490    0.217634    0.000000
  H     -1.674987   -1.665724    0.881080
  H     -2.987965   -0.901561    0.000000
  H     -1.674987   -1.665724   -0.881080
  H      0.598153   -1.546802    1.280112
  H      0.527055   -0.021077    2.164092
  H      1.990351   -0.471536    1.288745
  H      0.553781    2.206619   -0.882017
  H      0.553781    2.206619    0.882017
  H      1.990950    1.686803    0.000000
  H      0.598153   -1.546802   -1.280112
  H      1.990351   -0.471536   -1.288745
  H      0.527055   -0.021077   -2.164092
  H     -1.486539    0.848219    0.873569
  H     -1.486539    0.848219   -0.873569

 Total Charge           Charge          ....    0
 Multiplicity           Mult            ....    1
 Number of Electrons    NEL             ....   50
 Basis Dimension        Dim             ....  598

ORBITAL ENERGIES
----------------

  NO   OCC          E(Eh)            E(eV)
   0   2.0000     -11.229686      -305.5753
   1   2.0000     -11.213474      -305.1341
   2   2.0000     -11.207957      -304.9840
   3   2.0000     -11.206028      -304.9315
   4   2.0000     -11.206013      -304.9311
   5   2.0000     -11.205939      -304.9291
   6   2.0000      -1.106084       -30.0981
   7   2.0000      -0.995998       -27.1025
   8   2.0000      -0.927459       -25.2374
   9   2.0000      -0.927160       -25.2293
  10   2.0000      -0.849476       -23.1154
  11   2.0000      -0.722795       -19.6682
  12   2.0000      -0.622617       -16.9423
  13   2.0000      -0.621928       -16.9235
  14   2.0000      -0.595692       -16.2096
  15   2.0000      -0.580184       -15.7876
  16   2.0000      -0.550201       -14.9717
  17   2.0000      -0.530431       -14.4338
  18   2.0000      -0.524572       -14.2743
  19   2.0000      -0.509049       -13.8519
  20   2.0000      -0.500194       -13.6110
  21   2.0000      -0.484870       -13.1940
  22   2.0000      -0.447712       -12.1829
  23   2.0000      -0.444978       -12.1085
  24   2.0000      -0.437274       -11.8988
  25   0.0000       0.030425         0.8279
  26   0.0000       0.035723         0.9721
  27   0.0000       0.036936         1.0051
  28   0.0000       0.037940         1.0324
  29   0.0000       0.053871         1.4659

MULLIKEN ATOMIC CHARGES
-----------------------
   0 C :   -1.043715
   1 C :   -1.283962
   2 C :   -1.366089
   3 C :   -1.283962
   4 C :   -0.645486
   5 C :    1.935293
   6 H :    0.264050
   7 H :    0.256509
   8 H :    0.264050
   9 H :    0.289211
  10 H :    0.247501
  11 H :    0.247508
  12 H :    0.254968
  13 H :    0.254968
  14 H :    0.235388
  15 H :    0.289211
  16 H :    0.247508
  17 H :    0.247501
  18 H :    0.294774
  19 H :    0.294774
Sum of atomic charges:   -0.0000000

LOEWDIN ATOMIC CHARGES
----------------------
   0 C :    0.588205
   1 C :    0.581640
   2 C :    0.577087
   3 C :    0.581640
   4 C :    0.272896
   5 C :   -0.355649
   6 H :   -0.175069
   7 H :   -0.168086
   8 H :   -0.175069
   9 H :   -0.169330
  10 H :   -0.153879
  11 H :   -0.158205
  12 H :   -0.157664
  13 H :   -0.157664
  14 H :   -0.159512
  15 H :   -0.169330
  16 H :   -0.158205
  17 H :   -0.153879
  18 H :   -0.144964
  19 H :   -0.144964

  Mayer bond orders larger than 0.100000
B(  0-C ,  4-C ) :   0.8757 B(  0-C ,  6-H ) :   0.9669 B(  0-C ,  7-H ) :   1.0165
B(  0-C ,  8-H ) :   0.9669 B(  1-C ,  3-C ) :   0.1500 B(  1-C ,  5-C ) :   0.3449
B(  1-C ,  9-H ) :   1.0041 B(  1-C , 10-H ) :   1.0525 B(  1-C , 11-H ) :   1.0467
B(  2-C ,  5-C ) :   0.3379 B(  2-C , 12-H ) :   1.0465 B(  2-C , 13-H ) :   1.0465
B(  2-C , 14-H ) :   1.0568 B(  3-C ,  5-C ) :   0.3449 B(  3-C , 15-H ) :   1.0041
B(  3-C , 16-H ) :   1.0467 B(  3-C , 17-H ) :   1.0525 B(  4-C ,  5-C ) :   0.7725
B(  4-C , 18-H ) :   0.9472 B(  4-C , 19-H ) :   0.9472

MP2 TOTAL ENERGY:     -236.541340747 Eh
FINAL SINGLE POINT ENERGY      -236.541340746997

DIPOLE MOMENT
-------------
                                X             Y             Z
Electronic contribution:     -0.04052       0.56420       0.00000
Nuclear contribution   :      0.02028      -0.56156       0.00000
                        -----------------------------------------
Total Dipole Moment    :     -0.02024       0.00263       0.00000
                        -----------------------------------------
Magnitude (a.u.)       :      0.02041
Magnitude (Debye)      :      0.05188

Rotational constants in cm-1:     0.142933     0.082832     0.082545
Rotational constants in MHz :  4285.038442  2483.242815  2474.626663

                             ****ORCA TERMINATED NORMALLY****
TOTAL RUN TIME: 0 days 0 hours 7 minutes 23 seconds 402 msec
