                         Program Version 5.0.3 -  RELEASE  -
|  1> !ri-mp2 aug-cc-pvtz aug-cc-pvtz/c tightscf
|  2> %pal nprocs 16 end
|  3>
|  4> * xyz 0 1
|  5> C     0.000000     0.000000    0.681952
|  6> C     0.000000     0.000000   -0.681952
|  7> C     0.000000     0.000000    1.889462
|  8> C     0.000000     0.000000   -1.889462
|  9> C     0.000000     0.000000    3.341026
| 10> C     0.000000     0.000000   -3.341026
| 11> H     0.000000     1.019522    3.732419
| 12> H    -0.882932    -0.509761    3.732419
| 13> H     0.882932    -0.509761    3.732419
| 14> H     0.000000     1.019522   -3.732419
| 15> H     0.882932    -0.509761   -3.732419
| 16> H    -0.882932    -0.509761   -3.732419
| 17> *
| 18>
| 19>                          ****END OF INPUT****

CARTESIAN COORDINATES (ANGSTROEM)
---------------------------------
  C      0.000000    0.000000    0.681952
  C      0.000000    0.000000   -0.681952
  C      0.000000    0.000000    1.889462
  C      0.000000    0.000000   -1.889462
  C      0.000000    0.000000    3.341026
  C      0.000000    0.000000   -3.341026
  H      0.000000    1.019522    3.732419
  H     -0.882932   -0.509761    3.732419
  H      0.882932   -0.509761    3.732419
  H      0.000000    1.019522   -3.732419
  H      0.882932   -0.509761   -3.732419
  H     -0.882932   -0.509761   -3.732419

 Total Charge           Charge          ....    0
 Multiplicity           Mult            ....    1
 Number of Electrons    NEL             ....   42
 Basis Dimension        Dim             ....  414

ORBITAL ENERGIES
----------------

  NO   OCC          E(Eh)            E(eV)
   0   2.0000     -11.252481      -306.1956
   1   2.0000     -11.252481      -306.1956
   2   2.0000     -11.242669      -305.9286
   3   2.0000     -11.242593      -305.9265
   4   2.0000     -11.236202      -305.7526
   5   2.0000     -11.235016      -305.7203
   6   2.0000      -1.087708       -29.5981
   7   2.0000      -1.055192       -28.7132
   8   2.0000      -0.995255       -27.0823
   9   2.0000      -0.942147       -25.6371
  10   2.0000      -0.796239       -21.6668
  11   2.0000      -0.641530       -17.4569
  12   2.0000      -0.629246       -17.1226
  13   2.0000      -0.596433       -16.2298
  14   2.0000      -0.596433       -16.2298
  15   2.0000      -0.592821       -16.1315
  16   2.0000      -0.592821       -16.1315
  17   2.0000      -0.458614       -12.4795
  18   2.0000      -0.458614       -12.4795
  19   2.0000      -0.334435        -9.1004
  20   2.0000      -0.334435        -9.1004
  21   0.0000       0.027600         0.7510
  22   0.0000       0.028504         0.7756
  23   0.0000       0.046036         1.2527
  24   0.0000       0.046036         1.2527
  25   0.0000       0.053027         1.4429

MULLIKEN ATOMIC CHARGES
-----------------------
   0 C :   -0.119565
   1 C :   -0.119565
   2 C :    0.033113
   3 C :    0.033113
   4 C :   -0.800181
   5 C :   -0.800181
   6 H :    0.295544
   7 H :    0.295544
   8 H :    0.295544
   9 H :    0.295544
  10 H :    0.295544
  11 H :    0.295544
Sum of atomic charges:    0.0000000

LOEWDIN ATOMIC CHARGES
----------------------
   0 C :   -0.043214
   1 C :   -0.043214
   2 C :    0.078190
   3 C :    0.078190
   4 C :    0.515701
   5 C :    0.515701
   6 H :   -0.183559
   7 H :   -0.183559
   8 H :   -0.183559
   9 H :   -0.183559
  10 H :   -0.183559
  11 H :   -0.183559

  Mayer bond orders larger than 0.100000
B(  0-C ,  1-C ) :  11.8611 B(  0-C ,  2-C ) :  -1.7316 B(  0-C ,  3-C ) : -16.2289
B(  0-C ,  4-C ) :  -1.4739 B(  0-C ,  5-C ) :  -1.4828 B(  0-C ,  9-H ) :  -0.1006
B(  0-C , 10-H ) :  -0.1006 B(  0-C , 11-H ) :  -0.1006 B(  1-C ,  2-C ) : -16.2289
B(  1-C ,  3-C ) :  -1.7316 B(  1-C ,  4-C ) :  -1.4828 B(  1-C ,  5-C ) :  -1.4739
B(  1-C ,  6-H ) :  -0.1006 B(  1-C ,  7-H ) :  -0.1006 B(  1-C ,  8-H ) :  -0.1006
B(  2-C ,  3-C ) :  18.3997 B(  2-C ,  4-C ) :   0.5962 B(  2-C ,  5-C ) :   2.7920
B(  2-C ,  9-H ) :   0.1310 B(  2-C , 10-H ) :   0.1310 B(  2-C , 11-H ) :   0.1310
B(  3-C ,  4-C ) :   2.7920 B(  3-C ,  5-C ) :   0.5962 B(  3-C ,  6-H ) :   0.1310
B(  3-C ,  7-H ) :   0.1310 B(  3-C ,  8-H ) :   0.1310 B(  4-C ,  5-C ) :   0.4154
B(  4-C ,  6-H ) :   0.9422 B(  4-C ,  7-H ) :   0.9422 B(  4-C ,  8-H ) :   0.9422
B(  5-C ,  9-H ) :   0.9422 B(  5-C , 10-H ) :   0.9422 B(  5-C , 11-H ) :   0.9422

MP2 TOTAL ENERGY:     -231.631073874 Eh
FINAL SINGLE POINT ENERGY      -231.631073873914

DIPOLE MOMENT
-------------
                                X             Y             Z
Electronic contribution:     -0.00000       0.00000       0.00000
Nuclear contribution   :      0.00000       0.00000       0.00000
                        -----------------------------------------
Total Dipole Moment    :     -0.00000       0.00000       0.00000
                        -----------------------------------------
Magnitude (a.u.)       :      0.00000
Magnitude (Debye)      :      0.00000

Rotational constants in cm-1:     2.681587     0.037257     0.037257
Rotational constants in MHz : 80391.955760  1116.925198  1116.925197

                             ****ORCA TERMINATED NORMALLY****
TOTAL RUN TIME: 0 days 0 hours 1 minutes 39 seconds 63 msec
