                         Program Version 5.0.3 -  RELEASE  -
|  1> !ri-mp2 aug-cc-pvtz aug-cc-pvtz/c tightscf
|  2> %pal nprocs 16 end
|  3> %maxcore 3800
|  4>
|  5> * xyz 0 1
|  6> N      0.859731   -0.762092   -0.403390
|  7> N      2.049387   -0.946307   -0.188347
|  8> N      3.137721   -1.220267   -0.036056
|  9> C      0.291648    0.571345    0.012070
| 10> C     -1.196524    0.509338   -0.367515
| 11> C      0.982348    1.682950   -0.785949
| 12> C      0.502842    0.782356    1.515246
| 13> C     -2.032716   -0.571619    0.318400
| 14> C     -3.460252   -0.628326   -0.225082
| 15> H     -1.253030    0.365417   -1.449882
| 16> H     -1.630745    1.492153   -0.162114
| 17> H      0.564501    2.654726   -0.520022
| 18> H      2.052937    1.712880   -0.577082
| 19> H      0.845343    1.530789   -1.856315
| 20> H      0.024062    1.708878    1.835252
| 21> H      1.564949    0.858780    1.752680
| 22> H      0.084771   -0.038464    2.094828
| 23> H     -1.547898   -1.539559    0.179221
| 24> H     -2.067572   -0.392248    1.395396
| 25> H     -3.978282    0.323071   -0.084883
| 26> H     -3.466515   -0.852334   -1.293656
| 27> H     -4.044468   -1.399694    0.278104
| 28> *
| 29>
| 30>                          ****END OF INPUT****

CARTESIAN COORDINATES (ANGSTROEM)
---------------------------------
  N      0.859731   -0.762092   -0.403390
  N      2.049387   -0.946307   -0.188347
  N      3.137721   -1.220267   -0.036056
  C      0.291648    0.571345    0.012070
  C     -1.196524    0.509338   -0.367515
  C      0.982348    1.682950   -0.785949
  C      0.502842    0.782356    1.515246
  C     -2.032716   -0.571619    0.318400
  C     -3.460252   -0.628326   -0.225082
  H     -1.253030    0.365417   -1.449882
  H     -1.630745    1.492153   -0.162114
  H      0.564501    2.654726   -0.520022
  H      2.052937    1.712880   -0.577082
  H      0.845343    1.530789   -1.856315
  H      0.024062    1.708878    1.835252
  H      1.564949    0.858780    1.752680
  H      0.084771   -0.038464    2.094828
  H     -1.547898   -1.539559    0.179221
  H     -2.067572   -0.392248    1.395396
  H     -3.978282    0.323071   -0.084883
  H     -3.466515   -0.852334   -1.293656
  H     -4.044468   -1.399694    0.278104

 Total Charge           Charge          ....    0
 Multiplicity           Mult            ....    1
 Number of Electrons    NEL             ....   70
 Basis Dimension        Dim             ....  713

ORBITAL ENERGIES
----------------

  NO   OCC          E(Eh)            E(eV)
   0   2.0000     -15.774618      -429.2492
   1   2.0000     -15.653403      -425.9507
   2   2.0000     -15.595501      -424.3751
   3   2.0000     -11.290979      -307.2432
   4   2.0000     -11.225352      -305.4574
   5   2.0000     -11.225034      -305.4487
   6   2.0000     -11.224948      -305.4464
   7   2.0000     -11.217823      -305.2525
   8   2.0000     -11.212543      -305.1088
   9   2.0000      -1.497397       -40.7462
  10   2.0000      -1.287182       -35.0260
  11   2.0000      -1.109820       -30.1997
  12   2.0000      -1.038935       -28.2709
  13   2.0000      -0.951270       -25.8854
  14   2.0000      -0.933407       -25.3993
  15   2.0000      -0.848480       -23.0883
  16   2.0000      -0.806215       -21.9382
  17   2.0000      -0.704523       -19.1710
  18   2.0000      -0.697680       -18.9848
  19   2.0000      -0.688419       -18.7328
  20   2.0000      -0.661618       -18.0035
  21   2.0000      -0.625684       -17.0257
  22   2.0000      -0.610069       -16.6008
  23   2.0000      -0.593972       -16.1628
  24   2.0000      -0.568729       -15.4759
  25   2.0000      -0.560585       -15.2543
  26   2.0000      -0.551079       -14.9956
  27   2.0000      -0.532920       -14.5015
  28   2.0000      -0.523027       -14.2323
  29   2.0000      -0.506975       -13.7955
  30   2.0000      -0.475660       -12.9434
  31   2.0000      -0.468303       -12.7432
  32   2.0000      -0.461705       -12.5636
  33   2.0000      -0.418316       -11.3830
  34   2.0000      -0.369244       -10.0476
  35   0.0000       0.028039         0.7630
  36   0.0000       0.032358         0.8805
  37   0.0000       0.034291         0.9331
  38   0.0000       0.040057         1.0900
  39   0.0000       0.049698         1.3524

MULLIKEN ATOMIC CHARGES
-----------------------
   0 N :   -0.907893
   1 N :    1.345280
   2 N :   -1.007186
   3 C :    1.564394
   4 C :   -0.451659
   5 C :   -1.339794
   6 C :   -1.145225
   7 C :   -0.528325
   8 C :   -1.014652
   9 H :    0.302289
  10 H :    0.329453
  11 H :    0.241493
  12 H :    0.264719
  13 H :    0.251961
  14 H :    0.249767
  15 H :    0.275969
  16 H :    0.265223
  17 H :    0.277477
  18 H :    0.222829
  19 H :    0.252513
  20 H :    0.262410
  21 H :    0.288956
Sum of atomic charges:   -0.0000000

LOEWDIN ATOMIC CHARGES
----------------------
   0 N :    0.266266
   1 N :   -0.244301
   2 N :    0.288188
   3 C :   -0.504103
   4 C :    0.265449
   5 C :    0.577872
   6 C :    0.580216
   7 C :    0.262249
   8 C :    0.585564
   9 H :   -0.143197
  10 H :   -0.136539
  11 H :   -0.156288
  12 H :   -0.168450
  13 H :   -0.159060
  14 H :   -0.151682
  15 H :   -0.167605
  16 H :   -0.170154
  17 H :   -0.156531
  18 H :   -0.156918
  19 H :   -0.169362
  20 H :   -0.169822
  21 H :   -0.171792

  Mayer bond orders larger than 0.100000
B(  0-N ,  1-N ) :   0.8687 B(  0-N ,  2-N ) :   0.8636 B(  0-N ,  3-C ) :   0.5129
B(  0-N ,  4-C ) :   0.1303 B(  1-N ,  2-N ) :   0.5025 B(  3-C ,  4-C ) :   0.6199
B(  3-C ,  5-C ) :   0.3290 B(  3-C ,  6-C ) :   0.4672 B(  4-C ,  7-C ) :   0.9163
B(  4-C ,  9-H ) :   0.9623 B(  4-C , 10-H ) :   0.9249 B(  5-C ,  6-C ) :   0.1486
B(  5-C , 11-H ) :   1.0291 B(  5-C , 12-H ) :   1.0424 B(  5-C , 13-H ) :   1.0493
B(  6-C , 14-H ) :   1.0070 B(  6-C , 15-H ) :   1.0262 B(  6-C , 16-H ) :   1.0024
B(  7-C ,  8-C ) :   0.8773 B(  7-C , 17-H ) :   0.9388 B(  7-C , 18-H ) :   0.9823
B(  8-C , 19-H ) :   0.9905 B(  8-C , 20-H ) :   0.9818 B(  8-C , 21-H ) :   0.9797

MP2 TOTAL ENERGY:     -399.886702156 Eh
FINAL SINGLE POINT ENERGY      -399.886702155771

DIPOLE MOMENT
-------------
                                X             Y             Z
Electronic contribution:     12.75555      -5.88815      -1.41530
Nuclear contribution   :    -13.24714       6.62251       1.64120
                        -----------------------------------------
Total Dipole Moment    :     -0.49159       0.73436       0.22590
                        -----------------------------------------
Magnitude (a.u.)       :      0.91212
Magnitude (Debye)      :      2.31843

Rotational constants in cm-1:     0.091773     0.030207     0.027296
Rotational constants in MHz :  2751.282376   905.585214   818.312924

                             ****ORCA TERMINATED NORMALLY****
TOTAL RUN TIME: 0 days 0 hours 16 minutes 0 seconds 171 msec
