                         Program Version 5.0.3 -  RELEASE  -
|  1> !ri-mp2 aug-cc-pvtz aug-cc-pvtz/c tightscf
|  2> %pal nprocs 16 end
|  3>
|  4> * xyz 0 1
|  5> C     0.000000    1.278542    0.000000
|  6> C     1.107250   -0.639271    0.000000
|  7> C    -1.107250   -0.639271    0.000000
|  8> N     0.000000   -1.366438    0.000000
|  9> N    -1.183370    0.683219    0.000000
| 10> N     1.183370    0.683219    0.000000
| 11> Cl    0.000000    3.006062    0.000000
| 12> Cl    2.603326   -1.503031    0.000000
| 13> Cl   -2.603326   -1.503031    0.000000
| 14> *
| 15>
| 16>                          ****END OF INPUT****

CARTESIAN COORDINATES (ANGSTROEM)
---------------------------------
  C      0.000000    1.278542    0.000000
  C      1.107250   -0.639271    0.000000
  C     -1.107250   -0.639271    0.000000
  N      0.000000   -1.366438    0.000000
  N     -1.183370    0.683219    0.000000
  N      1.183370    0.683219    0.000000
  Cl     0.000000    3.006062    0.000000
  Cl     2.603326   -1.503031    0.000000
  Cl    -2.603326   -1.503031    0.000000

 Total Charge           Charge          ....    0
 Multiplicity           Mult            ....    1
 Number of Electrons    NEL             ....   90
 Basis Dimension        Dim             ....  426

ORBITAL ENERGIES
----------------

  NO   OCC          E(Eh)            E(eV)
   0   2.0000    -104.882585     -2854.0002
   1   2.0000    -104.882585     -2854.0002
   2   2.0000    -104.882585     -2854.0002
   3   2.0000     -15.624066      -425.1525
   4   2.0000     -15.624065      -425.1524
   5   2.0000     -15.624024      -425.1513
   6   2.0000     -11.436030      -311.1902
   7   2.0000     -11.436029      -311.1902
   8   2.0000     -11.436029      -311.1902
   9   2.0000     -10.606716      -288.6234
  10   2.0000     -10.606716      -288.6234
  11   2.0000     -10.606716      -288.6234
  12   2.0000      -8.073591      -219.6936
  13   2.0000      -8.073591      -219.6936
  14   2.0000      -8.073589      -219.6935
  15   2.0000      -8.071520      -219.6372
  16   2.0000      -8.071520      -219.6372
  17   2.0000      -8.071518      -219.6372
  18   2.0000      -8.071330      -219.6321
  19   2.0000      -8.071329      -219.6320
  20   2.0000      -8.071329      -219.6320
  21   2.0000      -1.429414       -38.8963
  22   2.0000      -1.288457       -35.0607
  23   2.0000      -1.288457       -35.0607
  24   2.0000      -1.160653       -31.5830
  25   2.0000      -1.160653       -31.5830
  26   2.0000      -1.151661       -31.3383
  27   2.0000      -0.923811       -25.1382
  28   2.0000      -0.923810       -25.1382
  29   2.0000      -0.818987       -22.2858
  30   2.0000      -0.727239       -19.7892
  31   2.0000      -0.686424       -18.6785
  32   2.0000      -0.629849       -17.1391
  33   2.0000      -0.629849       -17.1391
  34   2.0000      -0.611078       -16.6283
  35   2.0000      -0.560296       -15.2464
  36   2.0000      -0.560296       -15.2464
  37   2.0000      -0.503982       -13.7141
  38   2.0000      -0.503982       -13.7141
  39   2.0000      -0.490258       -13.3406
  40   2.0000      -0.488476       -13.2921
  41   2.0000      -0.480919       -13.0865
  42   2.0000      -0.480919       -13.0865
  43   2.0000      -0.446205       -12.1419
  44   2.0000      -0.446205       -12.1418
  45   0.0000       0.045379         1.2348
  46   0.0000       0.052707         1.4342
  47   0.0000       0.052708         1.4342
  48   0.0000       0.059224         1.6116
  49   0.0000       0.059224         1.6116

MULLIKEN ATOMIC CHARGES
-----------------------
   0 C :    0.494625
   1 C :    0.494622
   2 C :    0.494622
   3 N :   -0.282956
   4 N :   -0.282957
   5 N :   -0.282957
   6 Cl:   -0.211667
   7 Cl:   -0.211666
   8 Cl:   -0.211666
Sum of atomic charges:    0.0000000

LOEWDIN ATOMIC CHARGES
----------------------
   0 C :   -1.209193
   1 C :   -1.209192
   2 C :   -1.209192
   3 N :    0.203425
   4 N :    0.203424
   5 N :    0.203424
   6 Cl:    1.005768
   7 Cl:    1.005768
   8 Cl:    1.005768

  Mayer bond orders larger than 0.100000
B(  0-C ,  4-N ) :   1.1019 B(  0-C ,  5-N ) :   1.1019 B(  0-C ,  6-Cl) :   0.8731
B(  1-C ,  3-N ) :   1.1019 B(  1-C ,  5-N ) :   1.1019 B(  1-C ,  7-Cl) :   0.8731
B(  2-C ,  3-N ) :   1.1019 B(  2-C ,  4-N ) :   1.1019 B(  2-C ,  8-Cl) :   0.8731

MP2 TOTAL ENERGY:    -1657.219637280 Eh
FINAL SINGLE POINT ENERGY     -1657.219637279984

DIPOLE MOMENT
-------------
                                X             Y             Z
Electronic contribution:     -0.00000      -0.00000      -0.00000
Nuclear contribution   :      0.00000       0.00000       0.00000
                        -----------------------------------------
Total Dipole Moment    :     -0.00000      -0.00000      -0.00000
                        -----------------------------------------
Magnitude (a.u.)       :      0.00000
Magnitude (Debye)      :      0.00001

Rotational constants in cm-1:     0.030693     0.030693     0.015347
Rotational constants in MHz :   920.155777   920.155752   460.077882

                             ****ORCA TERMINATED NORMALLY****
TOTAL RUN TIME: 0 days 0 hours 3 minutes 30 seconds 196 msec
