                         Program Version 5.0.3 -  RELEASE  -
|  1> !ri-mp2 aug-cc-pvtz aug-cc-pvtz/c tightscf
|  2> %pal nprocs 16 end
|  3>
|  4> * xyz 0 1
|  5> C      1.299716   -1.582465    0.000000
|  6> C     -0.088674   -1.564388    0.000000
|  7> C      1.965699   -0.367634    0.000000
|  8> C     -0.770283   -0.353502    0.000000
|  9> C      0.000000    0.825444    0.000000
| 10> C     -2.273731   -0.308186    0.000000
| 11> C     -0.652970    2.180273    0.000000
| 12> N      1.335751    0.807581    0.000000
| 13> H      1.849802   -2.513184    0.000000
| 14> H     -0.646412   -2.492987    0.000000
| 15> H      3.049088   -0.329331    0.000000
| 16> H     -2.693885   -1.312990    0.000000
| 17> H     -2.659868    0.216687    0.876553
| 18> H     -2.659868    0.216687   -0.876553
| 19> H     -1.290044    2.316709    0.877173
| 20> H      0.112433    2.951380    0.000000
| 21> H     -1.290044    2.316709   -0.877173
| 22> *
| 23>
| 24>                          ****END OF INPUT****

CARTESIAN COORDINATES (ANGSTROEM)
---------------------------------
  C      1.299716   -1.582465    0.000000
  C     -0.088674   -1.564388    0.000000
  C      1.965699   -0.367634    0.000000
  C     -0.770283   -0.353502    0.000000
  C      0.000000    0.825444    0.000000
  C     -2.273731   -0.308186    0.000000
  C     -0.652970    2.180273    0.000000
  N      1.335751    0.807581    0.000000
  H      1.849802   -2.513184    0.000000
  H     -0.646412   -2.492987    0.000000
  H      3.049088   -0.329331    0.000000
  H     -2.693885   -1.312990    0.000000
  H     -2.659868    0.216687    0.876553
  H     -2.659868    0.216687   -0.876553
  H     -1.290044    2.316709    0.877173
  H      0.112433    2.951380    0.000000
  H     -1.290044    2.316709   -0.877173

 Total Charge           Charge          ....    0
 Multiplicity           Mult            ....    1
 Number of Electrons    NEL             ....   58
 Basis Dimension        Dim             ....  575

ORBITAL ENERGIES
----------------

  NO   OCC          E(Eh)            E(eV)
   0   2.0000     -15.554712      -423.2652
   1   2.0000     -11.274376      -306.7914
   2   2.0000     -11.263538      -306.4965
   3   2.0000     -11.247946      -306.0722
   4   2.0000     -11.241033      -305.8841
   5   2.0000     -11.231137      -305.6148
   6   2.0000     -11.229923      -305.5818
   7   2.0000     -11.219622      -305.3014
   8   2.0000      -1.254697       -34.1421
   9   2.0000      -1.096837       -29.8465
  10   2.0000      -1.063558       -28.9409
  11   2.0000      -0.973849       -26.4998
  12   2.0000      -0.931789       -25.3553
  13   2.0000      -0.835337       -22.7307
  14   2.0000      -0.813911       -22.1476
  15   2.0000      -0.689765       -18.7695
  16   2.0000      -0.674522       -18.3547
  17   2.0000      -0.617690       -16.8082
  18   2.0000      -0.602284       -16.3890
  19   2.0000      -0.574723       -15.6390
  20   2.0000      -0.564595       -15.3634
  21   2.0000      -0.557007       -15.1569
  22   2.0000      -0.553782       -15.0692
  23   2.0000      -0.530951       -14.4479
  24   2.0000      -0.513374       -13.9696
  25   2.0000      -0.497924       -13.5492
  26   2.0000      -0.406690       -11.0666
  27   2.0000      -0.373415       -10.1611
  28   2.0000      -0.326016        -8.8714
  29   0.0000       0.027293         0.7427
  30   0.0000       0.031459         0.8560
  31   0.0000       0.035659         0.9703
  32   0.0000       0.045291         1.2324
  33   0.0000       0.045663         1.2425

MULLIKEN ATOMIC CHARGES
-----------------------
   0 C :   -0.164900
   1 C :   -1.085781
   2 C :   -0.730108
   3 C :    1.392837
   4 C :    0.190726
   5 C :   -0.825007
   6 C :   -0.961863
   7 N :   -0.585731
   8 H :    0.329612
   9 H :    0.241156
  10 H :    0.641166
  11 H :    0.172089
  12 H :    0.264640
  13 H :    0.264640
  14 H :    0.279108
  15 H :    0.298310
  16 H :    0.279108
Sum of atomic charges:    0.0000000

LOEWDIN ATOMIC CHARGES
----------------------
   0 C :    0.199900
   1 C :    0.210870
   2 C :    0.011199
   3 C :   -0.096126
   4 C :   -0.280903
   5 C :    0.574064
   6 C :    0.575595
   7 N :    0.396593
   8 H :   -0.191222
   9 H :   -0.172650
  10 H :   -0.194924
  11 H :   -0.177296
  12 H :   -0.166938
  13 H :   -0.166938
  14 H :   -0.169260
  15 H :   -0.182702
  16 H :   -0.169260

  Mayer bond orders larger than 0.100000
B(  0-C ,  1-C ) :   1.0403 B(  0-C ,  2-C ) :   0.7778 B(  0-C ,  7-N ) :  -0.2164
B(  0-C ,  8-H ) :   1.0535 B(  1-C ,  2-C ) :   0.3290 B(  1-C ,  3-C ) :   0.4758
B(  1-C ,  4-C ) :   0.7350 B(  1-C ,  7-N ) :   0.1156 B(  1-C ,  9-H ) :   1.1498
B(  2-C ,  3-C ) :  -0.4953 B(  2-C ,  4-C ) :   0.4104 B(  2-C ,  7-N ) :   1.4604
B(  2-C , 10-H ) :   0.4134 B(  3-C ,  4-C ) :   0.4985 B(  3-C ,  5-C ) :   0.5833
B(  3-C ,  6-C ) :   0.2133 B(  3-C ,  7-N ) :  -0.1668 B(  3-C ,  8-H ) :  -0.1146
B(  3-C , 10-H ) :   0.1128 B(  4-C ,  5-C ) :  -0.1513 B(  4-C ,  6-C ) :   0.5805
B(  4-C ,  7-N ) :   0.6126 B(  4-C ,  9-H ) :  -0.1183 B(  5-C , 11-H ) :   1.0633
B(  5-C , 12-H ) :   1.0169 B(  5-C , 13-H ) :   1.0169 B(  6-C , 14-H ) :   1.0061
B(  6-C , 15-H ) :   0.9576 B(  6-C , 16-H ) :   1.0061

MP2 TOTAL ENERGY:     -326.240458477 Eh
FINAL SINGLE POINT ENERGY      -326.240458477295

DIPOLE MOMENT
-------------
                                X             Y             Z
Electronic contribution:      5.64698      -1.94432      -0.00000
Nuclear contribution   :     -6.32384       1.39715       0.00000
                        -----------------------------------------
Total Dipole Moment    :     -0.67687      -0.54716      -0.00000
                        -----------------------------------------
Magnitude (a.u.)       :      0.87037
Magnitude (Debye)      :      2.21229

Rotational constants in cm-1:     0.106741     0.075077     0.044802
Rotational constants in MHz :  3200.000305  2250.763110  1343.138086

                             ****ORCA TERMINATED NORMALLY****
TOTAL RUN TIME: 0 days 0 hours 7 minutes 16 seconds 433 msec
