                         Program Version 5.0.3 -  RELEASE  -
|  1> !ri-mp2 aug-cc-pvtz aug-cc-pvtz/c tightscf
|  2> %pal nprocs 16 end
|  3>
|  4> * xyz 0 1
|  5> C     -0.211213    2.098944    0.000000
|  6> H     -0.763664    2.429115    0.882489
|  7> H      0.758858    2.588726    0.000000
|  8> H     -0.763664    2.429115   -0.882489
|  9> N     -1.022980   -0.282177    0.000000
| 10> H     -2.004898   -0.069530    0.000000
| 11> C      0.000000    0.624449    0.000000
| 12> N      1.160665    0.009381    0.000000
| 13> C      0.880939   -1.338149    0.000000
| 14> H      1.664738   -2.075911    0.000000
| 15> C     -0.467672   -1.544500    0.000000
| 16> H     -1.067486   -2.436412    0.000000
| 17> *
| 18>
| 19>                          ****END OF INPUT****

CARTESIAN COORDINATES (ANGSTROEM)
---------------------------------
  C     -0.211213    2.098944    0.000000
  H     -0.763664    2.429115    0.882489
  H      0.758858    2.588726    0.000000
  H     -0.763664    2.429115   -0.882489
  N     -1.022980   -0.282177    0.000000
  H     -2.004898   -0.069530    0.000000
  C      0.000000    0.624449    0.000000
  N      1.160665    0.009381    0.000000
  C      0.880939   -1.338149    0.000000
  H      1.664738   -2.075911    0.000000
  C     -0.467672   -1.544500    0.000000
  H     -1.067486   -2.436412    0.000000

 Total Charge           Charge          ....    0
 Multiplicity           Mult            ....    1
 Number of Electrons    NEL             ....   44
 Basis Dimension        Dim             ....  414

ORBITAL ENERGIES
----------------

  NO   OCC          E(Eh)            E(eV)
   0   2.0000     -15.613101      -424.8541
   1   2.0000     -15.535335      -422.7380
   2   2.0000     -11.298120      -307.4375
   3   2.0000     -11.254207      -306.2425
   4   2.0000     -11.236847      -305.7702
   5   2.0000     -11.236296      -305.7552
   6   2.0000      -1.336864       -36.3779
   7   2.0000      -1.160184       -31.5702
   8   2.0000      -1.045127       -28.4394
   9   2.0000      -0.944916       -25.7125
  10   2.0000      -0.814549       -22.1650
  11   2.0000      -0.793034       -21.5795
  12   2.0000      -0.715541       -19.4708
  13   2.0000      -0.619321       -16.8526
  14   2.0000      -0.611242       -16.6327
  15   2.0000      -0.596005       -16.2181
  16   2.0000      -0.556909       -15.1543
  17   2.0000      -0.552373       -15.0308
  18   2.0000      -0.541286       -14.7291
  19   2.0000      -0.429272       -11.6811
  20   2.0000      -0.396010       -10.7760
  21   2.0000      -0.310740        -8.4557
  22   0.0000       0.022096         0.6013
  23   0.0000       0.031805         0.8654
  24   0.0000       0.040708         1.1077
  25   0.0000       0.044595         1.2135
  26   0.0000       0.051047         1.3891

MULLIKEN ATOMIC CHARGES
-----------------------
   0 C :   -0.669117
   1 H :    0.277911
   2 H :    0.300790
   3 H :    0.277911
   4 N :    0.033325
   5 H :    0.068275
   6 C :   -0.024849
   7 N :   -0.409339
   8 C :   -0.372442
   9 H :    0.547913
  10 C :   -0.621442
  11 H :    0.591063
Sum of atomic charges:    0.0000000

LOEWDIN ATOMIC CHARGES
----------------------
   0 C :    0.596015
   1 H :   -0.172207
   2 H :   -0.179892
   3 H :   -0.172207
   4 N :    0.518773
   5 H :   -0.247460
   6 C :   -0.423555
   7 N :    0.369383
   8 C :   -0.006964
   9 H :   -0.208448
  10 C :    0.114576
  11 H :   -0.188015

  Mayer bond orders larger than 0.100000
B(  0-C ,  1-H ) :   0.9702 B(  0-C ,  2-H ) :   0.9666 B(  0-C ,  3-H ) :   0.9702
B(  0-C ,  6-C ) :   0.4898 B(  4-N ,  5-H ) :   1.1325 B(  4-N ,  6-C ) :   1.0295
B(  4-N ,  7-N ) :  -0.1375 B(  4-N ,  8-C ) :  -0.1576 B(  4-N , 10-C ) :   1.0801
B(  6-C ,  7-N ) :   1.0955 B(  6-C , 10-C ) :  -0.1203 B(  7-N ,  8-C ) :   0.9592
B(  8-C ,  9-H ) :   0.7469 B(  8-C , 10-C ) :   1.4358 B( 10-C , 11-H ) :   0.6624

MP2 TOTAL ENERGY:     -265.026402775 Eh
FINAL SINGLE POINT ENERGY      -265.026402775101

DIPOLE MOMENT
-------------
                                X             Y             Z
Electronic contribution:      0.73049      -2.74417       0.00000
Nuclear contribution   :     -2.18933       2.88196       0.00000
                        -----------------------------------------
Total Dipole Moment    :     -1.45884       0.13779       0.00000
                        -----------------------------------------
Magnitude (a.u.)       :      1.46534
Magnitude (Debye)      :      3.72459

Rotational constants in cm-1:     0.299450     0.120147     0.087136
Rotational constants in MHz :  8977.278203  3601.913651  2612.267099

                             ****ORCA TERMINATED NORMALLY****
TOTAL RUN TIME: 0 days 0 hours 2 minutes 26 seconds 45 msec
