                         Program Version 5.0.3 -  RELEASE  -
|  1> !ri-mp2 aug-cc-pvtz aug-cc-pvtz/c tightscf
|  2> %pal nprocs 16 end
|  3>
|  4> * xyz 0 1
|  5> S    -2.712144   -0.669688     0.037222
|  6> O     0.933735    2.198989     0.455731
|  7> O    -0.813211    1.753882    -0.838351
|  8> O     3.132632   -1.292925    -0.368579
|  9> N     1.364274   -0.584057     0.618722
| 10> N     2.135784   -0.617460    -0.478845
| 11> C     0.002543   -0.066606     0.511530
| 12> C    -0.932563   -0.985226    -0.286130
| 13> C    -0.000890    1.370282    -0.050456
| 14> H    -0.365039    0.012010     1.536683
| 15> H    -0.768377   -0.838439    -1.350349
| 16> H    -0.717791   -2.023048    -0.047362
| 17> H     1.618464   -1.240568     1.355307
| 18> H    -2.888807   -1.681239     0.906858
| 19> H     1.575667    1.706649     0.984110
| 20> *
| 21>
| 22>                          ****END OF INPUT****

CARTESIAN COORDINATES (ANGSTROEM)
---------------------------------
  S     -2.712144   -0.669688    0.037222
  O      0.933735    2.198989    0.455731
  O     -0.813211    1.753882   -0.838351
  O      3.132632   -1.292925   -0.368579
  N      1.364274   -0.584057    0.618722
  N      2.135784   -0.617460   -0.478845
  C      0.002543   -0.066606    0.511530
  C     -0.932563   -0.985226   -0.286130
  C     -0.000890    1.370282   -0.050456
  H     -0.365039    0.012010    1.536683
  H     -0.768377   -0.838439   -1.350349
  H     -0.717791   -2.023048   -0.047362
  H      1.618464   -1.240568    1.355307
  H     -2.888807   -1.681239    0.906858
  H      1.575667    1.706649    0.984110

 Total Charge           Charge          ....    0
 Multiplicity           Mult            ....    1
 Number of Electrons    NEL             ....   78
 Basis Dimension        Dim             ....  556

ORBITAL ENERGIES
----------------

  NO   OCC          E(Eh)            E(eV)
   0   2.0000     -91.972094     -2502.6879
   1   2.0000     -20.629090      -561.3461
   2   2.0000     -20.626078      -561.2641
   3   2.0000     -20.566581      -559.6451
   4   2.0000     -15.764012      -428.9606
   5   2.0000     -15.662342      -426.1940
   6   2.0000     -11.407526      -310.4146
   7   2.0000     -11.336753      -308.4887
   8   2.0000     -11.292471      -307.2837
   9   2.0000      -8.972496      -244.1540
  10   2.0000      -6.653642      -181.0548
  11   2.0000      -6.652687      -181.0288
  12   2.0000      -6.651645      -181.0005
  13   2.0000      -1.555553       -42.3287
  14   2.0000      -1.481410       -40.3112
  15   2.0000      -1.387692       -37.7610
  16   2.0000      -1.309237       -35.6261
  17   2.0000      -1.109054       -30.1789
  18   2.0000      -1.012120       -27.5412
  19   2.0000      -0.937666       -25.5152
  20   2.0000      -0.886327       -24.1182
  21   2.0000      -0.839694       -22.8492
  22   2.0000      -0.772955       -21.0332
  23   2.0000      -0.768353       -20.9080
  24   2.0000      -0.716726       -19.5031
  25   2.0000      -0.689091       -18.7511
  26   2.0000      -0.665620       -18.1124
  27   2.0000      -0.647508       -17.6196
  28   2.0000      -0.645730       -17.5712
  29   2.0000      -0.622766       -16.9463
  30   2.0000      -0.592437       -16.1210
  31   2.0000      -0.574867       -15.6429
  32   2.0000      -0.543943       -14.8014
  33   2.0000      -0.499778       -13.5997
  34   2.0000      -0.490960       -13.3597
  35   2.0000      -0.468251       -12.7418
  36   2.0000      -0.450685       -12.2638
  37   2.0000      -0.444400       -12.0927
  38   2.0000      -0.375649       -10.2219
  39   0.0000       0.013461         0.3663
  40   0.0000       0.028567         0.7774
  41   0.0000       0.036621         0.9965
  42   0.0000       0.042631         1.1601
  43   0.0000       0.052487         1.4283

MULLIKEN ATOMIC CHARGES
-----------------------
   0 S :   -0.346440
   1 O :   -0.495860
   2 O :   -0.754928
   3 O :   -0.567913
   4 N :   -0.137150
   5 N :    0.040448
   6 C :    0.645352
   7 C :   -0.336318
   8 C :    0.578361
   9 H :    0.364548
  10 H :    0.301231
  11 H :    0.257715
  12 H :    0.117314
  13 H :    0.104009
  14 H :    0.229631
Sum of atomic charges:   -0.0000000

LOEWDIN ATOMIC CHARGES
----------------------
   0 S :    1.310298
   1 O :    0.847358
   2 O :    0.460607
   3 O :    0.257252
   4 N :    0.352263
   5 N :   -0.137735
   6 C :   -0.210174
   7 C :   -0.095045
   8 C :   -0.798130
   9 H :   -0.163719
  10 H :   -0.234328
  11 H :   -0.222998
  12 H :   -0.279355
  13 H :   -0.579842
  14 H :   -0.506452

  Mayer bond orders larger than 0.100000
B(  0-S ,  7-C ) :   0.9099 B(  0-S , 13-H ) :   1.0656 B(  1-O ,  8-C ) :   0.7859
B(  1-O , 14-H ) :   0.9329 B(  2-O ,  8-C ) :   1.4652 B(  3-O ,  4-N ) :   0.1589
B(  3-O ,  5-N ) :   1.2120 B(  4-N ,  5-N ) :   0.8655 B(  4-N ,  6-C ) :   0.6710
B(  4-N ,  8-C ) :   0.1137 B(  4-N , 12-H ) :   1.0417 B(  5-N ,  6-C ) :  -0.1261
B(  6-C ,  7-C ) :   0.9281 B(  6-C ,  8-C ) :   0.5893 B(  6-C ,  9-H ) :   0.8450
B(  7-C , 10-H ) :   0.9370 B(  7-C , 11-H ) :   0.9280

MP2 TOTAL ENERGY:     -850.031084102 Eh
FINAL SINGLE POINT ENERGY      -850.031084102253

DIPOLE MOMENT
-------------
                                X             Y             Z
Electronic contribution:      1.51027       2.62686      -1.54789
Nuclear contribution   :     -1.35646      -3.91131       3.29080
                        -----------------------------------------
Total Dipole Moment    :      0.15381      -1.28444       1.74292
                        -----------------------------------------
Magnitude (a.u.)       :      2.17053
Magnitude (Debye)      :      5.51706

Rotational constants in cm-1:     0.064519     0.029572     0.022277
Rotational constants in MHz :  1934.239116   886.538497   667.859946

                             ****ORCA TERMINATED NORMALLY****
TOTAL RUN TIME: 0 days 0 hours 7 minutes 22 seconds 17 msec
