                         Program Version 5.0.3 -  RELEASE  -
|  1> !ri-mp2 aug-cc-pvtz aug-cc-pvtz/c tightscf
|  2> %pal nprocs 16 end
|  3>
|  4> * xyz 0 1
|  5> C      1.691694   -1.059638    0.022200
|  6> C      0.834706    0.103985   -0.438962
|  7> C     -0.626301   -0.051282   -0.007120
|  8> O      1.377143    1.294553    0.099907
|  9> F     -1.202071   -1.107944   -0.616961
| 10> F     -0.772758   -0.215589    1.316667
| 11> F     -1.341353    1.047142   -0.354298
| 12> H      1.723765   -1.097280    1.109737
| 13> H      2.704918   -0.923400   -0.350521
| 14> H      1.303296   -2.003475   -0.356524
| 15> H      0.809896    0.144005   -1.533728
| 16> H      0.886012    2.052862   -0.233600
| 17> *
| 18>
| 19>                          ****END OF INPUT****

CARTESIAN COORDINATES (ANGSTROEM)
---------------------------------
  C      1.691694   -1.059638    0.022200
  C      0.834706    0.103985   -0.438962
  C     -0.626301   -0.051282   -0.007120
  O      1.377143    1.294553    0.099907
  F     -1.202071   -1.107944   -0.616961
  F     -0.772758   -0.215589    1.316667
  F     -1.341353    1.047142   -0.354298
  H      1.723765   -1.097280    1.109737
  H      2.704918   -0.923400   -0.350521
  H      1.303296   -2.003475   -0.356524
  H      0.809896    0.144005   -1.533728
  H      0.886012    2.052862   -0.233600

 Total Charge           Charge          ....    0
 Multiplicity           Mult            ....    1
 Number of Electrons    NEL             ....   58
 Basis Dimension        Dim             ....  437

ORBITAL ENERGIES
----------------

  NO   OCC          E(Eh)            E(eV)
   0   2.0000     -26.342417      -716.8136
   1   2.0000     -26.341775      -716.7961
   2   2.0000     -26.339787      -716.7420
   3   2.0000     -20.587749      -560.2211
   4   2.0000     -11.506001      -313.0942
   5   2.0000     -11.324332      -308.1508
   6   2.0000     -11.237268      -305.7816
   7   2.0000      -1.727740       -47.0142
   8   2.0000      -1.635308       -44.4990
   9   2.0000      -1.634033       -44.4643
  10   2.0000      -1.395205       -37.9655
  11   2.0000      -1.077509       -29.3205
  12   2.0000      -0.974362       -26.5137
  13   2.0000      -0.881620       -23.9901
  14   2.0000      -0.823985       -22.4218
  15   2.0000      -0.820981       -22.3400
  16   2.0000      -0.788146       -21.4465
  17   2.0000      -0.732889       -19.9429
  18   2.0000      -0.712983       -19.4013
  19   2.0000      -0.699967       -19.0471
  20   2.0000      -0.667746       -18.1703
  21   2.0000      -0.664904       -18.0930
  22   2.0000      -0.651551       -17.7296
  23   2.0000      -0.634174       -17.2567
  24   2.0000      -0.599808       -16.3216
  25   2.0000      -0.561258       -15.2726
  26   2.0000      -0.553128       -15.0514
  27   2.0000      -0.521864       -14.2006
  28   2.0000      -0.481884       -13.1127
  29   0.0000       0.027794         0.7563
  30   0.0000       0.038155         1.0382
  31   0.0000       0.042662         1.1609
  32   0.0000       0.049142         1.3372
  33   0.0000       0.061366         1.6699

MULLIKEN ATOMIC CHARGES
-----------------------
   0 C :   -0.952021
   1 C :    0.219639
   2 C :    1.224930
   3 O :   -0.666975
   4 F :   -0.417504
   5 F :   -0.417746
   6 F :   -0.426192
   7 H :    0.307461
   8 H :    0.300796
   9 H :    0.305989
  10 H :    0.332877
  11 H :    0.188748
Sum of atomic charges:   -0.0000000

LOEWDIN ATOMIC CHARGES
----------------------
   0 C :    0.583752
   1 C :   -0.316310
   2 C :   -1.466042
   3 O :    0.831886
   4 F :    0.502998
   5 F :    0.511623
   6 F :    0.493089
   7 H :   -0.169113
   8 H :   -0.165384
   9 H :   -0.170722
  10 H :   -0.147274
  11 H :   -0.488502

  Mayer bond orders larger than 0.100000
B(  0-C ,  1-C ) :   0.8214 B(  0-C ,  7-H ) :   0.9203 B(  0-C ,  8-H ) :   0.9369
B(  0-C ,  9-H ) :   0.9377 B(  1-C ,  2-C ) :   0.9971 B(  1-C ,  3-O ) :   0.6169
B(  1-C ,  6-F ) :   0.1253 B(  1-C , 10-H ) :   0.9032 B(  2-C ,  4-F ) :   0.7443
B(  2-C ,  5-F ) :   0.7364 B(  2-C ,  6-F ) :   0.7247 B(  3-O , 11-H ) :   0.9969

MP2 TOTAL ENERGY:     -491.431146242 Eh
FINAL SINGLE POINT ENERGY      -491.431146241743

DIPOLE MOMENT
-------------
                                X             Y             Z
Electronic contribution:     -9.75561       1.45653       1.02505
Nuclear contribution   :     10.24157      -1.46483      -1.62742
                        -----------------------------------------
Total Dipole Moment    :      0.48596      -0.00829      -0.60237
                        -----------------------------------------
Magnitude (a.u.)       :      0.77400
Magnitude (Debye)      :      1.96735

Rotational constants in cm-1:     0.116768     0.079281     0.065036
Rotational constants in MHz :  3500.624039  2376.793361  1949.731357

                             ****ORCA TERMINATED NORMALLY****
TOTAL RUN TIME: 0 days 0 hours 2 minutes 25 seconds 655 msec
