                         Program Version 5.0.3 -  RELEASE  -
|  1> !ri-mp2 aug-cc-pvtz aug-cc-pvtz/c tightscf
|  2> %pal nprocs 16 end
|  3>
|  4> * xyz 0 1
|  5> C     -0.657272   -0.503422    0.000000
|  6> C      0.000000    0.795889    0.000000
|  7> C      0.514208    1.878089    0.000000
|  8> O      0.326252   -1.539360    0.000000
|  9> H     -1.299934   -0.577228    0.884602
| 10> H     -1.299934   -0.577228   -0.884602
| 11> H      0.977878    2.832712    0.000000
| 12> H     -0.129644   -2.386711    0.000000
| 13> *
| 14>
| 15>                          ****END OF INPUT****

CARTESIAN COORDINATES (ANGSTROEM)
---------------------------------
  C     -0.657272   -0.503422    0.000000
  C      0.000000    0.795889    0.000000
  C      0.514208    1.878089    0.000000
  O      0.326252   -1.539360    0.000000
  H     -1.299934   -0.577228    0.884602
  H     -1.299934   -0.577228   -0.884602
  H      0.977878    2.832712    0.000000
  H     -0.129644   -2.386711    0.000000

 Total Charge           Charge          ....    0
 Multiplicity           Mult            ....    1
 Number of Electrons    NEL             ....   30
 Basis Dimension        Dim             ....  276

ORBITAL ENERGIES
----------------

  NO   OCC          E(Eh)            E(eV)
   0   2.0000     -20.573982      -559.8465
   1   2.0000     -11.313580      -307.8582
   2   2.0000     -11.236367      -305.7571
   3   2.0000     -11.228309      -305.5378
   4   2.0000      -1.373895       -37.3856
   5   2.0000      -1.054146       -28.6848
   6   2.0000      -0.948981       -25.8231
   7   2.0000      -0.730985       -19.8911
   8   2.0000      -0.710936       -19.3456
   9   2.0000      -0.653689       -17.7878
  10   2.0000      -0.643157       -17.5012
  11   2.0000      -0.539712       -14.6863
  12   2.0000      -0.478480       -13.0201
  13   2.0000      -0.401501       -10.9254
  14   2.0000      -0.390185       -10.6175
  15   0.0000       0.025505         0.6940
  16   0.0000       0.034014         0.9256
  17   0.0000       0.044840         1.2202
  18   0.0000       0.046299         1.2599
  19   0.0000       0.077853         2.1185

MULLIKEN ATOMIC CHARGES
-----------------------
   0 C :   -0.143430
   1 C :    0.745178
   2 C :   -1.435553
   3 O :   -0.516341
   4 H :    0.311715
   5 H :    0.311715
   6 H :    0.555953
   7 H :    0.170762
Sum of atomic charges:    0.0000000

LOEWDIN ATOMIC CHARGES
----------------------
   0 C :   -0.044932
   1 C :    0.008905
   2 C :    0.389628
   3 O :    0.793140
   4 H :   -0.174211
   5 H :   -0.174211
   6 H :   -0.301377
   7 H :   -0.496942

  Mayer bond orders larger than 0.100000
B(  0-C ,  1-C ) :   1.0973 B(  0-C ,  3-O ) :   0.8337 B(  0-C ,  4-H ) :   0.9146
B(  0-C ,  5-H ) :   0.9146 B(  1-C ,  2-C ) :   1.1363 B(  2-C ,  6-H ) :   0.7343
B(  3-O ,  7-H ) :   1.0201

MP2 TOTAL ENERGY:     -191.512044141 Eh
FINAL SINGLE POINT ENERGY      -191.512044141014

DIPOLE MOMENT
-------------
                                X             Y             Z
Electronic contribution:      1.00209       0.49914      -0.00000
Nuclear contribution   :     -1.75516      -0.73636       0.00000
                        -----------------------------------------
Total Dipole Moment    :     -0.75306      -0.23722      -0.00000
                        -----------------------------------------
Magnitude (a.u.)       :      0.78954
Magnitude (Debye)      :      2.00685

Rotational constants in cm-1:     1.171531     0.155242     0.140687
Rotational constants in MHz : 35121.614027  4654.052796  4217.702446

                             ****ORCA TERMINATED NORMALLY****
TOTAL RUN TIME: 0 days 0 hours 0 minutes 46 seconds 70 msec
