                         Program Version 5.0.3 -  RELEASE  -
|  1> !ri-mp2 aug-cc-pvtz aug-cc-pvtz/c tightscf
|  2> %pal nprocs 16 end
|  3>
|  4> * xyz 0 1
|  5> C     -0.078596   -1.271647    0.190282
|  6> H     -0.054339   -1.558641    1.240593
|  7> H      0.112578   -2.148979   -0.421154
|  8> C     -1.395081   -0.560009   -0.160033
|  9> H     -2.213837   -0.949245    0.447464
| 10> H     -1.665515   -0.738605   -1.207404
| 11> C      0.114747    1.280233    0.074877
| 12> H      0.490719    2.289118    0.151229
| 13> C     -1.163345    0.913938    0.056193
| 14> H     -1.979816    1.619897    0.117529
| 15> S      1.277741   -0.043040   -0.081011
| 16> *
| 17>
| 18>                          ****END OF INPUT****

CARTESIAN COORDINATES (ANGSTROEM)
---------------------------------
  C     -0.078596   -1.271647    0.190282
  H     -0.054339   -1.558641    1.240593
  H      0.112578   -2.148979   -0.421154
  C     -1.395081   -0.560009   -0.160033
  H     -2.213837   -0.949245    0.447464
  H     -1.665515   -0.738605   -1.207404
  C      0.114747    1.280233    0.074877
  H      0.490719    2.289118    0.151229
  C     -1.163345    0.913938    0.056193
  H     -1.979816    1.619897    0.117529
  S      1.277741   -0.043040   -0.081011

 Total Charge           Charge          ....    0
 Multiplicity           Mult            ....    1
 Number of Electrons    NEL             ....   46
 Basis Dimension        Dim             ....  372

ORBITAL ENERGIES
----------------

  NO   OCC          E(Eh)            E(eV)
   0   2.0000     -91.952014     -2502.1415
   1   2.0000     -11.262122      -306.4579
   2   2.0000     -11.258156      -306.3500
   3   2.0000     -11.241525      -305.8974
   4   2.0000     -11.233525      -305.6798
   5   2.0000      -8.952295      -243.6043
   6   2.0000      -6.633482      -180.5062
   7   2.0000      -6.632649      -180.4836
   8   2.0000      -6.631649      -180.4564
   9   2.0000      -1.138342       -30.9759
  10   2.0000      -0.989301       -26.9203
  11   2.0000      -0.968116       -26.3438
  12   2.0000      -0.802634       -21.8408
  13   2.0000      -0.739228       -20.1154
  14   2.0000      -0.671301       -18.2670
  15   2.0000      -0.640172       -17.4200
  16   2.0000      -0.547854       -14.9079
  17   2.0000      -0.531339       -14.4585
  18   2.0000      -0.514854       -14.0099
  19   2.0000      -0.492189       -13.3931
  20   2.0000      -0.446434       -12.1481
  21   2.0000      -0.426593       -11.6082
  22   2.0000      -0.303376        -8.2553
  23   0.0000       0.029181         0.7940
  24   0.0000       0.036162         0.9840
  25   0.0000       0.041184         1.1207
  26   0.0000       0.042403         1.1538
  27   0.0000       0.054201         1.4749

MULLIKEN ATOMIC CHARGES
-----------------------
   0 C :   -0.409362
   1 H :    0.237704
   2 H :    0.279667
   3 C :   -0.281315
   4 H :    0.291545
   5 H :    0.266843
   6 C :   -0.341625
   7 H :    0.497062
   8 C :   -0.604295
   9 H :    0.362236
  10 S :   -0.298460
Sum of atomic charges:   -0.0000000

LOEWDIN ATOMIC CHARGES
----------------------
   0 C :   -0.024875
   1 H :   -0.222156
   2 H :   -0.224994
   3 C :    0.185492
   4 H :   -0.161199
   5 H :   -0.157559
   6 C :   -0.205416
   7 H :   -0.261879
   8 C :    0.113546
   9 H :   -0.194444
  10 S :    1.153483

  Mayer bond orders larger than 0.100000
B(  0-C ,  1-H ) :   0.9459 B(  0-C ,  2-H ) :   0.9369 B(  0-C ,  3-C ) :   0.9975
B(  0-C , 10-S ) :   0.9587 B(  3-C ,  4-H ) :   0.9444 B(  3-C ,  5-H ) :   0.9121
B(  3-C ,  8-C ) :   0.8617 B(  6-C ,  7-H ) :   0.7425 B(  6-C ,  8-C ) :   1.6247
B(  6-C , 10-S ) :   1.0102 B(  8-C ,  9-H ) :   0.9423

MP2 TOTAL ENERGY:     -553.391308643 Eh
FINAL SINGLE POINT ENERGY      -553.391308642877

DIPOLE MOMENT
-------------
                                X             Y             Z
Electronic contribution:      4.64761       1.34222      -0.26095
Nuclear contribution   :     -5.36450      -1.48925       0.33168
                        -----------------------------------------
Total Dipole Moment    :     -0.71688      -0.14703       0.07073
                        -----------------------------------------
Magnitude (a.u.)       :      0.73522
Magnitude (Debye)      :      1.86877

Rotational constants in cm-1:     0.228172     0.155572     0.097297
Rotational constants in MHz :  6840.434941  4663.920063  2916.877626

                             ****ORCA TERMINATED NORMALLY****
TOTAL RUN TIME: 0 days 0 hours 2 minutes 19 seconds 789 msec
