                         Program Version 5.0.3 -  RELEASE  -
|  1> !ri-mp2 aug-cc-pvtz aug-cc-pvtz/c tightscf
|  2> %pal nprocs 16 end
|  3>
|  4> * xyz 0 1
|  5> O    -2.366456   -0.102241    0.000000
|  6> O     2.366456   -0.102242    0.000000
|  7> N     0.000000    1.711499    0.000000
|  8> N     0.000000    2.831814    0.000000
|  9> C     0.000000    0.410913    0.000000
| 10> C    -1.204476   -0.433611    0.000000
| 11> C     1.204475   -0.433612    0.000000
| 12> C    -0.666466   -1.837920    0.000000
| 13> C     0.666466   -1.837921    0.000000
| 14> H    -1.332425   -2.687206    0.000000
| 15> H     1.332424   -2.687207    0.000000
| 16> *
| 17>
| 18>                          ****END OF INPUT****

CARTESIAN COORDINATES (ANGSTROEM)
---------------------------------
  O     -2.366456   -0.102241    0.000000
  O      2.366456   -0.102242    0.000000
  N      0.000000    1.711499    0.000000
  N      0.000000    2.831814    0.000000
  C      0.000000    0.410913    0.000000
  C     -1.204476   -0.433611    0.000000
  C      1.204475   -0.433612    0.000000
  C     -0.666466   -1.837920    0.000000
  C      0.666466   -1.837921    0.000000
  H     -1.332425   -2.687206    0.000000
  H      1.332424   -2.687207    0.000000

 Total Charge           Charge          ....    0
 Multiplicity           Mult            ....    1
 Number of Electrons    NEL             ....   62
 Basis Dimension        Dim             ....  460

ORBITAL ENERGIES
----------------

  NO   OCC          E(Eh)            E(eV)
   0   2.0000     -20.572342      -559.8019
   1   2.0000     -20.572342      -559.8019
   2   2.0000     -15.794143      -429.7805
   3   2.0000     -15.732871      -428.1132
   4   2.0000     -11.371722      -309.4403
   5   2.0000     -11.371715      -309.4401
   6   2.0000     -11.302317      -307.5517
   7   2.0000     -11.289020      -307.1899
   8   2.0000     -11.287274      -307.1424
   9   2.0000      -1.529980       -41.6329
  10   2.0000      -1.417997       -38.5857
  11   2.0000      -1.412766       -38.4433
  12   2.0000      -1.208005       -32.8715
  13   2.0000      -1.137088       -30.9417
  14   2.0000      -0.926688       -25.2165
  15   2.0000      -0.925370       -25.1806
  16   2.0000      -0.805597       -21.9214
  17   2.0000      -0.736358       -20.0373
  18   2.0000      -0.723623       -19.6908
  19   2.0000      -0.717285       -19.5183
  20   2.0000      -0.693067       -18.8593
  21   2.0000      -0.682101       -18.5609
  22   2.0000      -0.640748       -17.4356
  23   2.0000      -0.626574       -17.0499
  24   2.0000      -0.614183       -16.7128
  25   2.0000      -0.601018       -16.3545
  26   2.0000      -0.555424       -15.1139
  27   2.0000      -0.476470       -12.9654
  28   2.0000      -0.430562       -11.7162
  29   2.0000      -0.427077       -11.6214
  30   2.0000      -0.369868       -10.0646
  31   0.0000       0.024317         0.6617
  32   0.0000       0.035419         0.9638
  33   0.0000       0.038615         1.0508
  34   0.0000       0.052375         1.4252
  35   0.0000       0.061151         1.6640

MULLIKEN ATOMIC CHARGES
-----------------------
   0 O :   -0.879131
   1 O :   -0.879132
   2 N :    0.440269
   3 N :   -0.805544
   4 C :    0.629736
   5 C :    0.770895
   6 C :    0.770897
   7 C :   -0.590319
   8 C :   -0.590326
   9 H :    0.566327
  10 H :    0.566328
Sum of atomic charges:   -0.0000000

LOEWDIN ATOMIC CHARGES
----------------------
   0 O :    0.442998
   1 O :    0.442998
   2 N :    0.054062
   3 N :    0.405132
   4 C :   -0.293425
   5 C :   -0.596428
   6 C :   -0.596428
   7 C :    0.242278
   8 C :    0.242278
   9 H :   -0.171733
  10 H :   -0.171733

  Mayer bond orders larger than 0.100000
B(  0-O ,  4-C ) :   0.1010 B(  0-O ,  5-C ) :   0.9990 B(  1-O ,  4-C ) :   0.1010
B(  1-O ,  6-C ) :   0.9990 B(  2-N ,  3-N ) :   1.5035 B(  2-N ,  4-C ) :   1.2117
B(  2-N ,  5-C ) :  -0.1782 B(  2-N ,  6-C ) :  -0.1782 B(  3-N ,  4-C ) :  -0.3655
B(  4-C ,  5-C ) :   0.7775 B(  4-C ,  6-C ) :   0.7775 B(  5-C ,  7-C ) :   0.9845
B(  5-C ,  8-C ) :  -0.1010 B(  6-C ,  7-C ) :  -0.1010 B(  6-C ,  8-C ) :   0.9845
B(  7-C ,  8-C ) :   1.6243 B(  7-C ,  9-H ) :   0.6192 B(  8-C , 10-H ) :   0.6192

MP2 TOTAL ENERGY:     -450.844178297 Eh
FINAL SINGLE POINT ENERGY      -450.844178296569

DIPOLE MOMENT
-------------
                                X             Y             Z
Electronic contribution:     -0.00000       4.45011       0.00000
Nuclear contribution   :     -0.00000      -5.10366       0.00000
                        -----------------------------------------
Total Dipole Moment    :     -0.00000      -0.65355       0.00000
                        -----------------------------------------
Magnitude (a.u.)       :      0.65355
Magnitude (Debye)      :      1.66119

Rotational constants in cm-1:     0.073843     0.065926     0.034830
Rotational constants in MHz :  2213.743772  1976.419538  1044.180410

                             ****ORCA TERMINATED NORMALLY****
TOTAL RUN TIME: 0 days 0 hours 4 minutes 13 seconds 863 msec
