                         Program Version 5.0.3 -  RELEASE  -
|  1> !ri-mp2 aug-cc-pvtz aug-cc-pvtz/c tightscf
|  2> %pal nprocs 16 end
|  3>
|  4> * xyz 0 1
|  5> C      0.000000    0.160391    0.000000
|  6> C      1.341166   -0.522197    0.000000
|  7> C     -1.204165   -0.750105    0.000000
|  8> N     -0.046207    1.430440    0.000000
|  9> H      2.139324    0.215075    0.000000
| 10> H      1.444083   -1.166052    0.876901
| 11> H      1.444083   -1.166052   -0.876901
| 12> H     -2.134256   -0.183538    0.000000
| 13> H     -1.190635   -1.402345    0.876352
| 14> H     -1.190635   -1.402345   -0.876352
| 15> H     -1.010521    1.763644    0.000000
| 16> *
| 17>
| 18>                          ****END OF INPUT****

CARTESIAN COORDINATES (ANGSTROEM)
---------------------------------
  C      0.000000    0.160391    0.000000
  C      1.341166   -0.522197    0.000000
  C     -1.204165   -0.750105    0.000000
  N     -0.046207    1.430440    0.000000
  H      2.139324    0.215075    0.000000
  H      1.444083   -1.166052    0.876901
  H      1.444083   -1.166052   -0.876901
  H     -2.134256   -0.183538    0.000000
  H     -1.190635   -1.402345    0.876352
  H     -1.190635   -1.402345   -0.876352
  H     -1.010521    1.763644    0.000000

 Total Charge           Charge          ....    0
 Multiplicity           Mult            ....    1
 Number of Electrons    NEL             ....   32
 Basis Dimension        Dim             ....  345

ORBITAL ENERGIES
----------------

  NO   OCC          E(Eh)            E(eV)
   0   2.0000     -15.538426      -422.8221
   1   2.0000     -11.285358      -307.0902
   2   2.0000     -11.234752      -305.7131
   3   2.0000     -11.222761      -305.3869
   4   2.0000      -1.210687       -32.9445
   5   2.0000      -1.011497       -27.5242
   6   2.0000      -0.957534       -26.0558
   7   2.0000      -0.744679       -20.2637
   8   2.0000      -0.650427       -17.6990
   9   2.0000      -0.607521       -16.5315
  10   2.0000      -0.604433       -16.4475
  11   2.0000      -0.550172       -14.9709
  12   2.0000      -0.544358       -14.8127
  13   2.0000      -0.519727       -14.1425
  14   2.0000      -0.414895       -11.2899
  15   2.0000      -0.410870       -11.1803
  16   0.0000       0.027134         0.7383
  17   0.0000       0.036686         0.9983
  18   0.0000       0.041996         1.1428
  19   0.0000       0.044623         1.2143
  20   0.0000       0.060893         1.6570

MULLIKEN ATOMIC CHARGES
-----------------------
   0 C :    0.590822
   1 C :   -0.844658
   2 C :   -0.811870
   3 N :   -0.757144
   4 H :    0.311634
   5 H :    0.282576
   6 H :    0.282576
   7 H :    0.268059
   8 H :    0.297278
   9 H :    0.297278
  10 H :    0.083450
Sum of atomic charges:   -0.0000000

LOEWDIN ATOMIC CHARGES
----------------------
   0 C :   -0.329476
   1 C :    0.563738
   2 C :    0.585258
   3 N :    0.662307
   4 H :   -0.184549
   5 H :   -0.171809
   6 H :   -0.171809
   7 H :   -0.181624
   8 H :   -0.168117
   9 H :   -0.168117
  10 H :   -0.435803

  Mayer bond orders larger than 0.100000
B(  0-C ,  1-C ) :   0.8692 B(  0-C ,  2-C ) :   0.9050 B(  0-C ,  3-N ) :   1.1929
B(  1-C ,  4-H ) :   0.9189 B(  1-C ,  5-H ) :   0.9544 B(  1-C ,  6-H ) :   0.9544
B(  2-C ,  7-H ) :   0.9683 B(  2-C ,  8-H ) :   0.9323 B(  2-C ,  9-H ) :   0.9323
B(  3-N , 10-H ) :   1.0445

MP2 TOTAL ENERGY:     -172.914500948 Eh
FINAL SINGLE POINT ENERGY      -172.914500947578

DIPOLE MOMENT
-------------
                                X             Y             Z
Electronic contribution:      0.03631       2.57795      -0.00000
Nuclear contribution   :     -0.52506      -3.50849       0.00000
                        -----------------------------------------
Total Dipole Moment    :     -0.48875      -0.93054      -0.00000
                        -----------------------------------------
Magnitude (a.u.)       :      1.05108
Magnitude (Debye)      :      2.67164

Rotational constants in cm-1:     0.325462     0.283438     0.160435
Rotational constants in MHz :  9757.119528  8497.245557  4809.717119

                             ****ORCA TERMINATED NORMALLY****
TOTAL RUN TIME: 0 days 0 hours 1 minutes 22 seconds 876 msec
