                         Program Version 5.0.3 -  RELEASE  -
|  1> !ri-mp2 aug-cc-pvtz aug-cc-pvtz/c tightscf
|  2> %pal nprocs 16 end
|  3>
|  4> * xyz 0 1
|  5> C     0.336343    2.129295    0.000000
|  6> C     0.540978   -1.506450    0.000000
|  7> C    -0.989729   -1.289163    0.000000
|  8> N    -1.159293    0.170312    0.000000
|  9> O     1.078204   -0.160300    0.000000
| 10> C     0.000000    0.680984    0.000000
| 11> H     0.910587   -2.017738    0.887540
| 12> H     0.910587   -2.017738   -0.887540
| 13> H    -1.473240   -1.716662    0.879292
| 14> H    -1.473240   -1.716662   -0.879292
| 15> H     0.932661    2.376888    0.879004
| 16> H     0.932661    2.376888   -0.879004
| 17> H    -0.576148    2.717242    0.000000
| 18> *
| 19>
| 20>                          ****END OF INPUT****

CARTESIAN COORDINATES (ANGSTROEM)
---------------------------------
  C      0.336343    2.129295    0.000000
  C      0.540978   -1.506450    0.000000
  C     -0.989729   -1.289163    0.000000
  N     -1.159293    0.170312    0.000000
  O      1.078204   -0.160300    0.000000
  C      0.000000    0.680984    0.000000
  H      0.910587   -2.017738    0.887540
  H      0.910587   -2.017738   -0.887540
  H     -1.473240   -1.716662    0.879292
  H     -1.473240   -1.716662   -0.879292
  H      0.932661    2.376888    0.879004
  H      0.932661    2.376888   -0.879004
  H     -0.576148    2.717242    0.000000

 Total Charge           Charge          ....    0
 Multiplicity           Mult            ....    1
 Number of Electrons    NEL             ....   46
 Basis Dimension        Dim             ....  437

ORBITAL ENERGIES
----------------

  NO   OCC          E(Eh)            E(eV)
   0   2.0000     -20.589025      -560.2559
   1   2.0000     -15.538465      -422.8231
   2   2.0000     -11.330340      -308.3142
   3   2.0000     -11.288537      -307.1767
   4   2.0000     -11.256881      -306.3153
   5   2.0000     -11.233878      -305.6894
   6   2.0000      -1.428822       -38.8802
   7   2.0000      -1.206773       -32.8380
   8   2.0000      -1.052943       -28.6520
   9   2.0000      -0.961243       -26.1568
  10   2.0000      -0.858424       -23.3589
  11   2.0000      -0.753956       -20.5162
  12   2.0000      -0.686598       -18.6833
  13   2.0000      -0.680781       -18.5250
  14   2.0000      -0.621065       -16.9001
  15   2.0000      -0.591756       -16.1025
  16   2.0000      -0.562227       -15.2990
  17   2.0000      -0.551064       -14.9952
  18   2.0000      -0.544116       -14.8062
  19   2.0000      -0.512139       -13.9360
  20   2.0000      -0.505431       -13.7535
  21   2.0000      -0.428026       -11.6472
  22   2.0000      -0.373993       -10.1769
  23   0.0000       0.029465         0.8018
  24   0.0000       0.034389         0.9358
  25   0.0000       0.039781         1.0825
  26   0.0000       0.043179         1.1750
  27   0.0000       0.056064         1.5256

MULLIKEN ATOMIC CHARGES
-----------------------
   0 C :   -0.721107
   1 C :   -0.300460
   2 C :   -0.255722
   3 N :   -0.610371
   4 O :   -0.525178
   5 C :    0.355191
   6 H :    0.298870
   7 H :    0.298870
   8 H :    0.286861
   9 H :    0.286861
  10 H :    0.287020
  11 H :    0.287020
  12 H :    0.312146
Sum of atomic charges:   -0.0000000

LOEWDIN ATOMIC CHARGES
----------------------
   0 C :    0.588757
   1 C :    0.101759
   2 C :    0.119097
   3 N :    0.396725
   4 O :    0.578360
   5 C :   -0.600911
   6 H :   -0.161889
   7 H :   -0.161889
   8 H :   -0.168371
   9 H :   -0.168371
  10 H :   -0.171096
  11 H :   -0.171096
  12 H :   -0.181075

  Mayer bond orders larger than 0.100000
B(  0-C ,  5-C ) :   0.4919 B(  0-C , 10-H ) :   0.9831 B(  0-C , 11-H ) :   0.9831
B(  0-C , 12-H ) :   0.9469 B(  1-C ,  2-C ) :   1.0294 B(  1-C ,  4-O ) :   0.7484
B(  1-C ,  6-H ) :   0.9271 B(  1-C ,  7-H ) :   0.9271 B(  2-C ,  3-N ) :   0.7198
B(  2-C ,  8-H ) :   0.9241 B(  2-C ,  9-H ) :   0.9241 B(  3-N ,  5-C ) :   1.3697
B(  4-O ,  5-C ) :   0.9471

MP2 TOTAL ENERGY:     -286.070845467 Eh
FINAL SINGLE POINT ENERGY      -286.070845467298

DIPOLE MOMENT
-------------
                                X             Y             Z
Electronic contribution:      0.23501      -0.34684       0.00000
Nuclear contribution   :      0.17669       0.00070       0.00000
                        -----------------------------------------
Total Dipole Moment    :      0.41170      -0.34614       0.00000
                        -----------------------------------------
Magnitude (a.u.)       :      0.53787
Magnitude (Debye)      :      1.36717

Rotational constants in cm-1:     0.259956     0.114055     0.082943
Rotational constants in MHz :  7793.284750  3419.271235  2486.583027

                             ****ORCA TERMINATED NORMALLY****
TOTAL RUN TIME: 0 days 0 hours 3 minutes 17 seconds 980 msec
