                         Program Version 5.0.3 -  RELEASE  -
|  1> !ri-mp2 aug-cc-pvtz aug-cc-pvtz/c tightscf
|  2> %pal nprocs 16 end
|  3>
|  4> * xyz 0 1
|  5> Cl    -2.213770   -1.116422    0.019613
|  6> S      1.043133    0.085348   -0.719629
|  7> S      2.876136   -0.099112    0.233234
|  8> C     -1.513151    0.487919    0.204363
|  9> C     -0.101760    0.501799    0.686458
| 10> C     -2.230617    1.563308   -0.088361
| 11> H      2.830146   -1.417869    0.524098
| 12> H      0.054997   -0.235049    1.469729
| 13> H      0.155816    1.491757    1.054508
| 14> H     -3.249590    1.496805   -0.437101
| 15> H     -1.792416    2.545606    0.022903
| 16> *
| 17>
| 18>                          ****END OF INPUT****

CARTESIAN COORDINATES (ANGSTROEM)
---------------------------------
  Cl    -2.213770   -1.116422    0.019613
  S      1.043133    0.085348   -0.719629
  S      2.876136   -0.099112    0.233234
  C     -1.513151    0.487919    0.204363
  C     -0.101760    0.501799    0.686458
  C     -2.230617    1.563308   -0.088361
  H      2.830146   -1.417869    0.524098
  H      0.054997   -0.235049    1.469729
  H      0.155816    1.491757    1.054508
  H     -3.249590    1.496805   -0.437101
  H     -1.792416    2.545606    0.022903

 Total Charge           Charge          ....    0
 Multiplicity           Mult            ....    1
 Number of Electrons    NEL             ....   72
 Basis Dimension        Dim             ....  403

ORBITAL ENERGIES
----------------

  NO   OCC          E(Eh)            E(eV)
   0   2.0000    -104.845575     -2852.9931
   1   2.0000     -91.990623     -2503.1921
   2   2.0000     -91.989603     -2503.1644
   3   2.0000     -11.320421      -308.0443
   4   2.0000     -11.288314      -307.1706
   5   2.0000     -11.254162      -306.2413
   6   2.0000     -10.569436      -287.6090
   7   2.0000      -8.989568      -244.6186
   8   2.0000      -8.987351      -244.5582
   9   2.0000      -8.036283      -218.6784
  10   2.0000      -8.034413      -218.6275
  11   2.0000      -8.034402      -218.6272
  12   2.0000      -6.670571      -181.5155
  13   2.0000      -6.669581      -181.4885
  14   2.0000      -6.668529      -181.4599
  15   2.0000      -6.668204      -181.4510
  16   2.0000      -6.667040      -181.4194
  17   2.0000      -6.665992      -181.3909
  18   2.0000      -1.177665       -32.0459
  19   2.0000      -1.078113       -29.3369
  20   2.0000      -1.031548       -28.0698
  21   2.0000      -0.970481       -26.4081
  22   2.0000      -0.844437       -22.9783
  23   2.0000      -0.754444       -20.5295
  24   2.0000      -0.665235       -18.1020
  25   2.0000      -0.648504       -17.6467
  26   2.0000      -0.594165       -16.1681
  27   2.0000      -0.580197       -15.7880
  28   2.0000      -0.535759       -14.5788
  29   2.0000      -0.529591       -14.4109
  30   2.0000      -0.494476       -13.4554
  31   2.0000      -0.463639       -12.6163
  32   2.0000      -0.457866       -12.4592
  33   2.0000      -0.391157       -10.6439
  34   2.0000      -0.370986       -10.0950
  35   2.0000      -0.363499        -9.8913
  36   0.0000       0.029059         0.7907
  37   0.0000       0.033848         0.9211
  38   0.0000       0.042300         1.1510
  39   0.0000       0.046579         1.2675
  40   0.0000       0.059261         1.6126

MULLIKEN ATOMIC CHARGES
-----------------------
   0 Cl:   -0.370826
   1 S :   -0.057493
   2 S :   -0.280606
   3 C :    0.469114
   4 C :   -0.169757
   5 C :   -1.112147
   6 H :    0.152593
   7 H :    0.270030
   8 H :    0.270811
   9 H :    0.460279
  10 H :    0.368002
Sum of atomic charges:   -0.0000000

LOEWDIN ATOMIC CHARGES
----------------------
   0 Cl:    0.941257
   1 S :    0.642921
   2 S :    0.749864
   3 C :   -0.864017
   4 C :   -0.249182
   5 C :    0.423242
   6 H :   -0.670015
   7 H :   -0.265113
   8 H :   -0.249394
   9 H :   -0.236815
  10 H :   -0.222749

  Mayer bond orders larger than 0.100000
B(  0-Cl,  3-C ) :   0.7867 B(  1-S ,  2-S ) :   1.0452 B(  1-S ,  4-C ) :   0.8345
B(  2-S ,  6-H ) :   1.0137 B(  3-C ,  4-C ) :   0.9720 B(  3-C ,  5-C ) :   1.5368
B(  4-C ,  7-H ) :   0.9637 B(  4-C ,  8-H ) :   0.9255 B(  5-C ,  9-H ) :   0.7891
B(  5-C , 10-H ) :   0.8964

MP2 TOTAL ENERGY:    -1372.202696861 Eh
FINAL SINGLE POINT ENERGY     -1372.202696861265

DIPOLE MOMENT
-------------
                                X             Y             Z
Electronic contribution:     -1.17394      -4.85230      -1.97545
Nuclear contribution   :      1.00485       5.26757       2.51999
                        -----------------------------------------
Total Dipole Moment    :     -0.16909       0.41527       0.54454
                        -----------------------------------------
Magnitude (a.u.)       :      0.70538
Magnitude (Debye)      :      1.79294

Rotational constants in cm-1:     0.139740     0.027541     0.024934
Rotational constants in MHz :  4189.310774   825.649297   747.492311

                             ****ORCA TERMINATED NORMALLY****
TOTAL RUN TIME: 0 days 0 hours 2 minutes 28 seconds 259 msec
