                         Program Version 5.0.3 -  RELEASE  -
|  1> !ri-mp2 aug-cc-pvtz aug-cc-pvtz/c tightscf
|  2> %pal nprocs 16 end
|  3>
|  4> * xyz 0 1
|  5> C      1.914502   -1.078827   -0.104407
|  6> C      1.061527    0.128342   -0.489304
|  7> C      1.601028    1.440504    0.068529
|  8> S     -0.649449   -0.198934    0.095737
|  9> C     -1.646361    1.149604   -0.566671
| 10> O     -1.109835   -1.428241   -0.547411
| 11> O     -0.671628   -0.094970    1.553917
| 12> H      1.500968   -2.001807   -0.504676
| 13> H      2.919668   -0.945747   -0.505540
| 14> H      1.988659   -1.170348    0.978888
| 15> H      0.955561    0.177066   -1.574814
| 16> H      2.625979    1.581977   -0.276903
| 17> H      1.023346    2.303886   -0.259803
| 18> H      1.607003    1.421611    1.157570
| 19> H     -1.554403    1.165975   -1.649467
| 20> H     -2.667243    0.908253   -0.279320
| 21> H     -1.340836    2.090018   -0.118649
| 22> *
| 23>
| 24>                          ****END OF INPUT****

CARTESIAN COORDINATES (ANGSTROEM)
---------------------------------
  C      1.914502   -1.078827   -0.104407
  C      1.061527    0.128342   -0.489304
  C      1.601028    1.440504    0.068529
  S     -0.649449   -0.198934    0.095737
  C     -1.646361    1.149604   -0.566671
  O     -1.109835   -1.428241   -0.547411
  O     -0.671628   -0.094970    1.553917
  H      1.500968   -2.001807   -0.504676
  H      2.919668   -0.945747   -0.505540
  H      1.988659   -1.170348    0.978888
  H      0.955561    0.177066   -1.574814
  H      2.625979    1.581977   -0.276903
  H      1.023346    2.303886   -0.259803
  H      1.607003    1.421611    1.157570
  H     -1.554403    1.165975   -1.649467
  H     -2.667243    0.908253   -0.279320
  H     -1.340836    2.090018   -0.118649

 Total Charge           Charge          ....    0
 Multiplicity           Mult            ....    1
 Number of Electrons    NEL             ....   66
 Basis Dimension        Dim             ....  556

ORBITAL ENERGIES
----------------

  NO   OCC          E(Eh)            E(eV)
   0   2.0000     -92.171246     -2508.1071
   1   2.0000     -20.536929      -558.8382
   2   2.0000     -20.536260      -558.8200
   3   2.0000     -11.286671      -307.1259
   4   2.0000     -11.275351      -306.8179
   5   2.0000     -11.244653      -305.9826
   6   2.0000     -11.235254      -305.7268
   7   2.0000      -9.141555      -248.7544
   8   2.0000      -6.825970      -185.7441
   9   2.0000      -6.825512      -185.7316
  10   2.0000      -6.825468      -185.7304
  11   2.0000      -1.434549       -39.0361
  12   2.0000      -1.323432       -36.0124
  13   2.0000      -1.110525       -30.2189
  14   2.0000      -1.034521       -28.1508
  15   2.0000      -0.960804       -26.1448
  16   2.0000      -0.886988       -24.1362
  17   2.0000      -0.781362       -21.2619
  18   2.0000      -0.694787       -18.9061
  19   2.0000      -0.659689       -17.9510
  20   2.0000      -0.653267       -17.7763
  21   2.0000      -0.640113       -17.4184
  22   2.0000      -0.606810       -16.5121
  23   2.0000      -0.595654       -16.2086
  24   2.0000      -0.585625       -15.9357
  25   2.0000      -0.563004       -15.3201
  26   2.0000      -0.555524       -15.1166
  27   2.0000      -0.516585       -14.0570
  28   2.0000      -0.515524       -14.0281
  29   2.0000      -0.487132       -13.2555
  30   2.0000      -0.480368       -13.0715
  31   2.0000      -0.460547       -12.5321
  32   2.0000      -0.422089       -11.4856
  33   0.0000       0.021617         0.5882
  34   0.0000       0.031079         0.8457
  35   0.0000       0.035832         0.9750
  36   0.0000       0.040683         1.1070
  37   0.0000       0.051341         1.3971

MULLIKEN ATOMIC CHARGES
-----------------------
   0 C :   -1.076260
   1 C :    0.114482
   2 C :   -1.025694
   3 S :    2.264213
   4 C :   -1.109490
   5 O :   -1.069028
   6 O :   -1.097843
   7 H :    0.315077
   8 H :    0.272388
   9 H :    0.299018
  10 H :    0.369502
  11 H :    0.282161
  12 H :    0.294022
  13 H :    0.275108
  14 H :    0.289193
  15 H :    0.284096
  16 H :    0.319056
Sum of atomic charges:    0.0000000

LOEWDIN ATOMIC CHARGES
----------------------
   0 C :    0.551711
   1 C :   -0.130986
   2 C :    0.553681
   3 S :    0.283138
   4 C :    0.511804
   5 O :    0.028780
   6 O :    0.028635
   7 H :   -0.179763
   8 H :   -0.164782
   9 H :   -0.165963
  10 H :   -0.176036
  11 H :   -0.162389
  12 H :   -0.181646
  13 H :   -0.169818
  14 H :   -0.203396
  15 H :   -0.206864
  16 H :   -0.216105

  Mayer bond orders larger than 0.100000
B(  0-C ,  1-C ) :   0.7415 B(  0-C ,  2-C ) :   0.1403 B(  0-C ,  7-H ) :   0.9419
B(  0-C ,  8-H ) :   0.9770 B(  0-C ,  9-H ) :   0.9504 B(  1-C ,  2-C ) :   0.7519
B(  1-C ,  3-S ) :   0.9428 B(  1-C , 10-H ) :   0.7700 B(  2-C , 11-H ) :   0.9589
B(  2-C , 12-H ) :   0.9403 B(  2-C , 13-H ) :   0.9682 B(  3-S ,  4-C ) :   0.8194
B(  3-S ,  5-O ) :   1.1328 B(  3-S ,  6-O ) :   1.1320 B(  4-C , 14-H ) :   0.9053
B(  4-C , 15-H ) :   0.9751 B(  4-C , 16-H ) :   0.8856

MP2 TOTAL ENERGY:     -706.048055157 Eh
FINAL SINGLE POINT ENERGY      -706.048055157458

DIPOLE MOMENT
-------------
                                X             Y             Z
Electronic contribution:     -6.30362      -4.05050       1.97444
Nuclear contribution   :      7.15285       5.59291      -3.06357
                        -----------------------------------------
Total Dipole Moment    :      0.84923       1.54242      -1.08913
                        -----------------------------------------
Magnitude (a.u.)       :      2.07037
Magnitude (Debye)      :      5.26247

Rotational constants in cm-1:     0.099101     0.065358     0.054291
Rotational constants in MHz :  2970.984282  1959.376335  1627.613595

                             ****ORCA TERMINATED NORMALLY****
TOTAL RUN TIME: 0 days 0 hours 6 minutes 12 seconds 166 msec
