                         Program Version 5.0.3 -  RELEASE  -
|  1> !ri-mp2 aug-cc-pvtz aug-cc-pvtz/c tightscf
|  2> %pal nprocs 16 end
|  3>
|  4> * xyz 0 1
|  5> N      0.544724    1.387269    0.000000
|  6> H      0.216989    1.895686    0.813925
|  7> H      0.216989    1.895686   -0.813925
|  8> C     -1.527556   -0.018978    0.000000
|  9> H     -1.923151    0.487103    0.883105
| 10> H     -1.923151    0.487103   -0.883105
| 11> H     -1.910040   -1.041945    0.000000
| 12> C      0.544724   -0.686055    1.255867
| 13> H      1.634333   -0.676871    1.262856
| 14> H      0.196491   -0.179088    2.158818
| 15> H      0.203288   -1.720826    1.303577
| 16> C      0.011620    0.010930    0.000000
| 17> C      0.544724   -0.686055   -1.255867
| 18> H      1.634333   -0.676871   -1.262856
| 19> H      0.203288   -1.720826   -1.303577
| 20> H      0.196491   -0.179088   -2.158818
| 21> *
| 22>
| 23>                          ****END OF INPUT****

CARTESIAN COORDINATES (ANGSTROEM)
---------------------------------
  N      0.544724    1.387269    0.000000
  H      0.216989    1.895686    0.813925
  H      0.216989    1.895686   -0.813925
  C     -1.527556   -0.018978    0.000000
  H     -1.923151    0.487103    0.883105
  H     -1.923151    0.487103   -0.883105
  H     -1.910040   -1.041945    0.000000
  C      0.544724   -0.686055    1.255867
  H      1.634333   -0.676871    1.262856
  H      0.196491   -0.179088    2.158818
  H      0.203288   -1.720826    1.303577
  C      0.011620    0.010930    0.000000
  C      0.544724   -0.686055   -1.255867
  H      1.634333   -0.676871   -1.262856
  H      0.203288   -1.720826   -1.303577
  H      0.196491   -0.179088   -2.158818

 Total Charge           Charge          ....    0
 Multiplicity           Mult            ....    1
 Number of Electrons    NEL             ....   42
 Basis Dimension        Dim             ....  483

ORBITAL ENERGIES
----------------

  NO   OCC          E(Eh)            E(eV)
   0   2.0000     -15.533680      -422.6929
   1   2.0000     -11.259653      -306.3907
   2   2.0000     -11.210622      -305.0565
   3   2.0000     -11.207489      -304.9713
   4   2.0000     -11.207475      -304.9709
   5   2.0000      -1.187739       -32.3200
   6   2.0000      -1.028789       -27.9948
   7   2.0000      -0.932523       -25.3752
   8   2.0000      -0.932403       -25.3720
   9   2.0000      -0.750385       -20.4190
  10   2.0000      -0.655061       -17.8251
  11   2.0000      -0.628033       -17.0897
  12   2.0000      -0.602597       -16.3975
  13   2.0000      -0.575507       -15.6603
  14   2.0000      -0.546045       -14.8586
  15   2.0000      -0.527068       -14.3423
  16   2.0000      -0.511889       -13.9292
  17   2.0000      -0.502051       -13.6615
  18   2.0000      -0.473939       -12.8965
  19   2.0000      -0.461425       -12.5560
  20   2.0000      -0.385533       -10.4909
  21   0.0000       0.029001         0.7891
  22   0.0000       0.037660         1.0248
  23   0.0000       0.038352         1.0436
  24   0.0000       0.040581         1.1043
  25   0.0000       0.058078         1.5804

MULLIKEN ATOMIC CHARGES
-----------------------
   0 N :   -0.844508
   1 H :    0.089896
   2 H :    0.089896
   3 C :   -1.146873
   4 H :    0.264077
   5 H :    0.264077
   6 H :    0.283686
   7 C :   -1.175422
   8 H :    0.266564
   9 H :    0.265134
  10 H :    0.275232
  11 C :    1.736734
  12 C :   -1.175422
  13 H :    0.266564
  14 H :    0.275232
  15 H :    0.265134
Sum of atomic charges:    0.0000000

LOEWDIN ATOMIC CHARGES
----------------------
   0 N :    0.857908
   1 H :   -0.318323
   2 H :   -0.318323
   3 C :    0.584418
   4 H :   -0.165081
   5 H :   -0.165081
   6 H :   -0.162064
   7 C :    0.577597
   8 H :   -0.161396
   9 H :   -0.162366
  10 H :   -0.161253
  11 C :   -0.498619
  12 C :    0.577597
  13 H :   -0.161396
  14 H :   -0.161253
  15 H :   -0.162366

  Mayer bond orders larger than 0.100000
B(  0-N ,  1-H ) :   0.9998 B(  0-N ,  2-H ) :   0.9998 B(  0-N ,  3-C ) :   0.1219
B(  0-N , 11-C ) :   0.1258 B(  3-C ,  4-H ) :   1.0132 B(  3-C ,  5-H ) :   1.0132
B(  3-C ,  6-H ) :   0.9491 B(  3-C , 11-C ) :   0.5600 B(  7-C ,  8-H ) :   1.0258
B(  7-C ,  9-H ) :   1.0184 B(  7-C , 10-H ) :   0.9826 B(  7-C , 11-C ) :   0.4371
B( 11-C , 12-C ) :   0.4371 B( 12-C , 13-H ) :   1.0258 B( 12-C , 14-H ) :   0.9826
B( 12-C , 15-H ) :   1.0184

MP2 TOTAL ENERGY:     -213.355325462 Eh
FINAL SINGLE POINT ENERGY      -213.355325461942

DIPOLE MOMENT
-------------
                                X             Y             Z
Electronic contribution:      0.85358       1.52938       0.00000
Nuclear contribution   :     -1.34912      -1.53338       0.00000
                        -----------------------------------------
Total Dipole Moment    :     -0.49554      -0.00400       0.00000
                        -----------------------------------------
Magnitude (a.u.)       :      0.49555
Magnitude (Debye)      :      1.25960

Rotational constants in cm-1:     0.153136     0.152088     0.149308
Rotational constants in MHz :  4590.889116  4559.488868  4476.127317

                             ****ORCA TERMINATED NORMALLY****
TOTAL RUN TIME: 0 days 0 hours 3 minutes 42 seconds 920 msec
