                         Program Version 5.0.3 -  RELEASE  -
|  1> !ri-mp2 aug-cc-pvtz aug-cc-pvtz/c tightscf
|  2> %pal nprocs 16 end
|  3>
|  4> * xyz 0 1
|  5> C     -1.883170   -0.506701    0.017217
|  6> H     -2.671790    0.234445   -0.081330
|  7> H     -2.008340   -1.043418    0.960588
|  8> H     -1.965083   -1.246251   -0.781367
|  9> C      2.019993   -0.020927    0.024676
| 10> H      2.107093    0.570058    0.935544
| 11> H      2.127700    0.662992   -0.815819
| 12> C      0.683365   -0.747236   -0.030294
| 13> H      0.608044   -1.363355   -0.932946
| 14> H      0.580955   -1.453175    0.800501
| 15> C     -0.528385    0.169660   -0.010123
| 16> O     -0.421739    1.375414   -0.011414
| 17> H      2.844518   -0.733384   -0.002718
| 18> *
| 19>
| 20>                          ****END OF INPUT****

CARTESIAN COORDINATES (ANGSTROEM)
---------------------------------
  C     -1.883170   -0.506701    0.017217
  H     -2.671790    0.234445   -0.081330
  H     -2.008340   -1.043418    0.960588
  H     -1.965083   -1.246251   -0.781367
  C      2.019993   -0.020927    0.024676
  H      2.107093    0.570058    0.935544
  H      2.127700    0.662992   -0.815819
  C      0.683365   -0.747236   -0.030294
  H      0.608044   -1.363355   -0.932946
  H      0.580955   -1.453175    0.800501
  C     -0.528385    0.169660   -0.010123
  O     -0.421739    1.375414   -0.011414
  H      2.844518   -0.733384   -0.002718

 Total Charge           Charge          ....    0
 Multiplicity           Mult            ....    1
 Number of Electrons    NEL             ....   40
 Basis Dimension        Dim             ....  414

ORBITAL ENERGIES
----------------

  NO   OCC          E(Eh)            E(eV)
   0   2.0000     -20.543892      -559.0277
   1   2.0000     -11.328800      -308.2723
   2   2.0000     -11.239440      -305.8407
   3   2.0000     -11.233777      -305.6866
   4   2.0000     -11.216708      -305.2221
   5   2.0000      -1.386337       -37.7241
   6   2.0000      -1.062736       -28.9185
   7   2.0000      -1.000795       -27.2330
   8   2.0000      -0.878275       -23.8991
   9   2.0000      -0.732060       -19.9204
  10   2.0000      -0.657017       -17.8783
  11   2.0000      -0.639083       -17.3903
  12   2.0000      -0.622156       -16.9297
  13   2.0000      -0.581874       -15.8336
  14   2.0000      -0.570433       -15.5223
  15   2.0000      -0.521362       -14.1870
  16   2.0000      -0.514130       -13.9902
  17   2.0000      -0.506713       -13.7884
  18   2.0000      -0.484636       -13.1876
  19   2.0000      -0.409648       -11.1471
  20   0.0000       0.026191         0.7127
  21   0.0000       0.034145         0.9291
  22   0.0000       0.038610         1.0506
  23   0.0000       0.044562         1.2126
  24   0.0000       0.056189         1.5290

MULLIKEN ATOMIC CHARGES
-----------------------
   0 C :   -0.800924
   1 H :    0.295431
   2 H :    0.312573
   3 H :    0.308873
   4 C :   -0.898812
   5 H :    0.276677
   6 H :    0.285632
   7 C :   -0.369850
   8 H :    0.284570
   9 H :    0.287735
  10 C :    0.535781
  11 O :   -0.794134
  12 H :    0.276447
Sum of atomic charges:   -0.0000000

LOEWDIN ATOMIC CHARGES
----------------------
   0 C :    0.586809
   1 H :   -0.182960
   2 H :   -0.172267
   3 H :   -0.175197
   4 C :    0.568720
   5 H :   -0.171451
   6 H :   -0.173046
   7 C :    0.250877
   8 H :   -0.153943
   9 H :   -0.154425
  10 C :   -0.519585
  11 O :    0.470971
  12 H :   -0.174503

  Mayer bond orders larger than 0.100000
B(  0-C ,  1-H ) :   0.9597 B(  0-C ,  2-H ) :   0.9201 B(  0-C ,  3-H ) :   0.9278
B(  0-C , 10-C ) :   0.8404 B(  4-C ,  5-H ) :   0.9469 B(  4-C ,  6-H ) :   0.9416
B(  4-C ,  7-C ) :   0.8898 B(  4-C , 12-H ) :   0.9706 B(  7-C ,  8-H ) :   0.9362
B(  7-C ,  9-H ) :   0.9406 B(  7-C , 10-C ) :   0.8523 B( 10-C , 11-O ) :   1.3053

MP2 TOTAL ENERGY:     -232.015302702 Eh
FINAL SINGLE POINT ENERGY      -232.015302701874

DIPOLE MOMENT
-------------
                                X             Y             Z
Electronic contribution:     -1.76459       3.25706      -0.08073
Nuclear contribution   :      1.68406      -4.53236       0.08571
                        -----------------------------------------
Total Dipole Moment    :     -0.08053      -1.27531       0.00499
                        -----------------------------------------
Magnitude (a.u.)       :      1.27786
Magnitude (Debye)      :      3.24805

Rotational constants in cm-1:     0.319539     0.119413     0.091310
Rotational constants in MHz :  9579.550563  3579.913541  2737.409436

                             ****ORCA TERMINATED NORMALLY****
TOTAL RUN TIME: 0 days 0 hours 2 minutes 21 seconds 86 msec
