                         Program Version 5.0.3 -  RELEASE  -
|  1> !ri-mp2 aug-cc-pvtz aug-cc-pvtz/c tightscf
|  2> %pal nprocs 16 end
|  3>
|  4> * xyz 0 1
|  5> Cl    -1.849785   -1.123139   -0.022675
|  6> Cl    -0.868753    1.577128   -0.107884
|  7> O      3.067182   -0.524320   -0.216469
|  8> N     -0.501598   -0.072327    0.461280
|  9> C      0.718626   -0.556060   -0.215103
| 10> C      1.945213    0.179416    0.310336
| 11> H      0.651673   -0.480227   -1.301963
| 12> H      0.800148   -1.607945    0.057284
| 13> H      1.941056    0.161427    1.404237
| 14> H      1.942057    1.219714   -0.021165
| 15> H      3.870903   -0.050056    0.012492
| 16> *
| 17>
| 18>                          ****END OF INPUT****

CARTESIAN COORDINATES (ANGSTROEM)
---------------------------------
  Cl    -1.849785   -1.123139   -0.022675
  Cl    -0.868753    1.577128   -0.107884
  O      3.067182   -0.524320   -0.216469
  N     -0.501598   -0.072327    0.461280
  C      0.718626   -0.556060   -0.215103
  C      1.945213    0.179416    0.310336
  H      0.651673   -0.480227   -1.301963
  H      0.800148   -1.607945    0.057284
  H      1.941056    0.161427    1.404237
  H      1.942057    1.219714   -0.021165
  H      3.870903   -0.050056    0.012492

 Total Charge           Charge          ....    0
 Multiplicity           Mult            ....    1
 Number of Electrons    NEL             ....   66
 Basis Dimension        Dim             ....  399

ORBITAL ENERGIES
----------------

  NO   OCC          E(Eh)            E(eV)
   0   2.0000    -104.873086     -2853.7418
   1   2.0000    -104.872702     -2853.7313
   2   2.0000     -20.576480      -559.9145
   3   2.0000     -15.700760      -427.2394
   4   2.0000     -11.296332      -307.3888
   5   2.0000     -11.285678      -307.0989
   6   2.0000     -10.594408      -288.2885
   7   2.0000     -10.594185      -288.2824
   8   2.0000      -8.061225      -219.3571
   9   2.0000      -8.060984      -219.3505
  10   2.0000      -8.058808      -219.2913
  11   2.0000      -8.058640      -219.2868
  12   2.0000      -8.058625      -219.2863
  13   2.0000      -8.058461      -219.2819
  14   2.0000      -1.377807       -37.4920
  15   2.0000      -1.294157       -35.2158
  16   2.0000      -1.102272       -29.9943
  17   2.0000      -1.065688       -28.9988
  18   2.0000      -0.945051       -25.7161
  19   2.0000      -0.836872       -22.7725
  20   2.0000      -0.718620       -19.5546
  21   2.0000      -0.690007       -18.7760
  22   2.0000      -0.641433       -17.4543
  23   2.0000      -0.616767       -16.7831
  24   2.0000      -0.614990       -16.7347
  25   2.0000      -0.565511       -15.3883
  26   2.0000      -0.531427       -14.4609
  27   2.0000      -0.518176       -14.1003
  28   2.0000      -0.478309       -13.0154
  29   2.0000      -0.472117       -12.8469
  30   2.0000      -0.465607       -12.6698
  31   2.0000      -0.450589       -12.2611
  32   2.0000      -0.409327       -11.1383
  33   0.0000       0.026005         0.7076
  34   0.0000       0.041974         1.1422
  35   0.0000       0.043405         1.1811
  36   0.0000       0.047744         1.2992
  37   0.0000       0.058845         1.6012

MULLIKEN ATOMIC CHARGES
-----------------------
   0 Cl:   -0.124209
   1 Cl:   -0.129361
   2 O :   -0.559988
   3 N :   -0.348772
   4 C :   -0.063143
   5 C :   -0.231310
   6 H :    0.351699
   7 H :    0.368893
   8 H :    0.279717
   9 H :    0.302591
  10 H :    0.153883
Sum of atomic charges:   -0.0000000

LOEWDIN ATOMIC CHARGES
----------------------
   0 Cl:    0.677197
   1 Cl:    0.685240
   2 O :    0.809152
   3 N :   -0.786969
   4 C :   -0.137269
   5 C :   -0.009916
   6 H :   -0.188157
   7 H :   -0.203290
   8 H :   -0.160336
   9 H :   -0.195470
  10 H :   -0.490184

  Mayer bond orders larger than 0.100000
B(  0-Cl,  3-N ) :   1.0005 B(  1-Cl,  3-N ) :   0.9277 B(  2-O ,  5-C ) :   0.7692
B(  2-O , 10-H ) :   1.0230 B(  3-N ,  4-C ) :   0.6501 B(  4-C ,  5-C ) :   0.9139
B(  4-C ,  6-H ) :   0.9418 B(  4-C ,  7-H ) :   0.8496 B(  5-C ,  8-H ) :   0.9497
B(  5-C ,  9-H ) :   0.9258

MP2 TOTAL ENERGY:    -1128.176611411 Eh
FINAL SINGLE POINT ENERGY     -1128.176611410722

DIPOLE MOMENT
-------------
                                X             Y             Z
Electronic contribution:    -11.74384       1.64732      -0.24533
Nuclear contribution   :     12.53179      -1.34971       0.32136
                        -----------------------------------------
Total Dipole Moment    :      0.78794       0.29761       0.07602
                        -----------------------------------------
Magnitude (a.u.)       :      0.84570
Magnitude (Debye)      :      2.14959

Rotational constants in cm-1:     0.108484     0.043697     0.032290
Rotational constants in MHz :  3252.260880  1310.000481   968.043637

                             ****ORCA TERMINATED NORMALLY****
TOTAL RUN TIME: 0 days 0 hours 2 minutes 21 seconds 997 msec
