                         Program Version 5.0.3 -  RELEASE  -
|  1> !ri-mp2 aug-cc-pvtz aug-cc-pvtz/c tightscf
|  2> %pal nprocs 16 end
|  3>
|  4> * xyz 0 1
|  5> S     -1.312415   -1.115521   -0.000006
|  6> N      1.348922   -0.797364    0.000029
|  7> N      2.371560   -0.112910   -0.000008
|  8> N      3.375724    0.402319   -0.000020
|  9> C      0.117911   -0.130110    0.000011
| 10> C     -0.182896    1.205002    0.000013
| 11> C     -2.320123    0.290783   -0.000010
| 12> C     -1.585097    1.436766    0.000000
| 13> H      0.562508    1.986411    0.000024
| 14> H     -3.390599    0.180287   -0.000019
| 15> H     -2.025487    2.422671    0.000000
| 16> *
| 17>
| 18>                          ****END OF INPUT****

CARTESIAN COORDINATES (ANGSTROEM)
---------------------------------
  S     -1.312415   -1.115521   -0.000006
  N      1.348922   -0.797364    0.000029
  N      2.371560   -0.112910   -0.000008
  N      3.375724    0.402319   -0.000020
  C      0.117911   -0.130110    0.000011
  C     -0.182896    1.205002    0.000013
  C     -2.320123    0.290783   -0.000010
  C     -1.585097    1.436766    0.000000
  H      0.562508    1.986411    0.000024
  H     -3.390599    0.180287   -0.000019
  H     -2.025487    2.422671    0.000000

 Total Charge           Charge          ....    0
 Multiplicity           Mult            ....    1
 Number of Electrons    NEL             ....   64
 Basis Dimension        Dim             ....  441

ORBITAL ENERGIES
----------------

  NO   OCC          E(Eh)            E(eV)
   0   2.0000     -91.994386     -2503.2945
   1   2.0000     -15.803220      -430.0275
   2   2.0000     -15.692390      -427.0116
   3   2.0000     -15.634645      -425.4403
   4   2.0000     -11.323447      -308.1266
   5   2.0000     -11.266119      -306.5667
   6   2.0000     -11.248442      -306.0857
   7   2.0000     -11.243801      -305.9594
   8   2.0000      -8.994449      -244.7514
   9   2.0000      -6.675400      -181.6469
  10   2.0000      -6.674912      -181.6336
  11   2.0000      -6.674057      -181.6103
  12   2.0000      -1.529863       -41.6297
  13   2.0000      -1.326308       -36.0907
  14   2.0000      -1.178879       -32.0789
  15   2.0000      -1.014707       -27.6116
  16   2.0000      -0.997687       -27.1484
  17   2.0000      -0.868250       -23.6263
  18   2.0000      -0.781395       -21.2628
  19   2.0000      -0.726697       -19.7744
  20   2.0000      -0.723801       -19.6956
  21   2.0000      -0.717764       -19.5314
  22   2.0000      -0.690644       -18.7934
  23   2.0000      -0.631230       -17.1766
  24   2.0000      -0.571700       -15.5568
  25   2.0000      -0.548629       -14.9290
  26   2.0000      -0.545756       -14.8508
  27   2.0000      -0.486069       -13.2266
  28   2.0000      -0.469432       -12.7739
  29   2.0000      -0.445498       -12.1226
  30   2.0000      -0.359052        -9.7703
  31   2.0000      -0.305875        -8.3233
  32   0.0000       0.028595         0.7781
  33   0.0000       0.035321         0.9611
  34   0.0000       0.044350         1.2068
  35   0.0000       0.062462         1.6997
  36   0.0000       0.072409         1.9704

MULLIKEN ATOMIC CHARGES
-----------------------
   0 S :   -0.204321
   1 N :   -0.851513
   2 N :    1.154220
   3 N :   -0.762274
   4 C :    0.861345
   5 C :   -0.692199
   6 C :   -0.381491
   7 C :   -0.626756
   8 H :    0.509285
   9 H :    0.514398
  10 H :    0.479305
Sum of atomic charges:   -0.0000000

LOEWDIN ATOMIC CHARGES
----------------------
   0 S :    1.254604
   1 N :    0.132346
   2 N :   -0.228673
   3 N :    0.312649
   4 C :   -0.741250
   5 C :    0.073463
   6 C :   -0.194828
   7 C :    0.055696
   8 H :   -0.201016
   9 H :   -0.268031
  10 H :   -0.194958

  Mayer bond orders larger than 0.100000
B(  0-S ,  4-C ) :   0.9192 B(  0-S ,  5-C ) :   0.1960 B(  0-S ,  6-C ) :   1.1746
B(  1-N ,  2-N ) :   0.8086 B(  1-N ,  3-N ) :   0.5739 B(  1-N ,  4-C ) :   0.8987
B(  1-N ,  5-C ) :  -0.2393 B(  2-N ,  3-N ) :   1.3448 B(  2-N ,  4-C ) :   0.1156
B(  4-C ,  5-C ) :   1.2416 B(  4-C ,  7-C ) :  -0.1545 B(  5-C ,  7-C ) :   1.3783
B(  5-C ,  8-H ) :   0.7829 B(  6-C ,  7-C ) :   1.4143 B(  6-C ,  9-H ) :   0.7480
B(  7-C , 10-H ) :   0.8090

MP2 TOTAL ENERGY:     -715.545507375 Eh
FINAL SINGLE POINT ENERGY      -715.545507374840

DIPOLE MOMENT
-------------
                                X             Y             Z
Electronic contribution:      4.26248      -3.86400      -0.00002
Nuclear contribution   :     -4.58262       4.43796       0.00000
                        -----------------------------------------
Total Dipole Moment    :     -0.32014       0.57396      -0.00001
                        -----------------------------------------
Magnitude (a.u.)       :      0.65721
Magnitude (Debye)      :      1.67048

Rotational constants in cm-1:     0.161482     0.039164     0.031520
Rotational constants in MHz :  4841.122160  1174.116454   944.940268

                             ****ORCA TERMINATED NORMALLY****
TOTAL RUN TIME: 0 days 0 hours 3 minutes 43 seconds 399 msec
