                         Program Version 5.0.3 -  RELEASE  -
|  1> !ri-mp2 aug-cc-pvtz aug-cc-pvtz/c tightscf
|  2> %pal nprocs 16 end
|  3>
|  4> * xyz 0 1
|  5> C    -1.022816    0.186174   -0.000039
|  6> C    -0.513038   -1.102920   -0.000143
|  7> C    -0.116583    1.240174    0.000005
|  8> C     1.559349   -0.205422    0.000000
|  9> C    -1.388160   -2.314502    0.000022
| 10> N     0.818742   -1.284102   -0.000133
| 11> N     1.178216    1.060469    0.000038
| 12> F    -2.341445    0.427343    0.000001
| 13> F    -0.566309    2.486423    0.000014
| 14> F     2.872628   -0.397773    0.000055
| 15> H    -1.162280   -2.925605   -0.874234
| 16> H    -1.170278   -2.919635    0.880532
| 17> H    -2.442518   -2.054287   -0.005320
| 18> *
| 19>
| 20>                          ****END OF INPUT****

CARTESIAN COORDINATES (ANGSTROEM)
---------------------------------
  C     -1.022816    0.186174   -0.000039
  C     -0.513038   -1.102920   -0.000143
  C     -0.116583    1.240174    0.000005
  C      1.559349   -0.205422    0.000000
  C     -1.388160   -2.314502    0.000022
  N      0.818742   -1.284102   -0.000133
  N      1.178216    1.060469    0.000038
  F     -2.341445    0.427343    0.000001
  F     -0.566309    2.486423    0.000014
  F      2.872628   -0.397773    0.000055
  H     -1.162280   -2.925605   -0.874234
  H     -1.170278   -2.919635    0.880532
  H     -2.442518   -2.054287   -0.005320

 Total Charge           Charge          ....    0
 Multiplicity           Mult            ....    1
 Number of Electrons    NEL             ....   74
 Basis Dimension        Dim             ....  529

ORBITAL ENERGIES
----------------

  NO   OCC          E(Eh)            E(eV)
   0   2.0000     -26.360377      -717.3023
   1   2.0000     -26.346358      -716.9208
   2   2.0000     -26.341932      -716.8004
   3   2.0000     -15.610958      -424.7958
   4   2.0000     -15.602049      -424.5533
   5   2.0000     -11.432393      -311.0912
   6   2.0000     -11.424377      -310.8731
   7   2.0000     -11.357996      -309.0668
   8   2.0000     -11.347216      -308.7734
   9   2.0000     -11.259261      -306.3801
  10   2.0000      -1.687024       -45.9062
  11   2.0000      -1.670009       -45.4433
  12   2.0000      -1.661550       -45.2131
  13   2.0000      -1.363486       -37.1024
  14   2.0000      -1.254726       -34.1428
  15   2.0000      -1.116489       -30.3812
  16   2.0000      -1.033389       -28.1199
  17   2.0000      -0.943746       -25.6806
  18   2.0000      -0.910979       -24.7890
  19   2.0000      -0.835186       -22.7266
  20   2.0000      -0.813406       -22.1339
  21   2.0000      -0.785996       -21.3880
  22   2.0000      -0.759094       -20.6560
  23   2.0000      -0.751033       -20.4366
  24   2.0000      -0.731016       -19.8919
  25   2.0000      -0.722479       -19.6596
  26   2.0000      -0.700521       -19.0621
  27   2.0000      -0.680026       -18.5044
  28   2.0000      -0.647160       -17.6101
  29   2.0000      -0.624428       -16.9916
  30   2.0000      -0.602734       -16.4012
  31   2.0000      -0.583474       -15.8771
  32   2.0000      -0.573861       -15.6155
  33   2.0000      -0.552123       -15.0240
  34   2.0000      -0.461038       -12.5455
  35   2.0000      -0.456265       -12.4156
  36   2.0000      -0.393385       -10.7045
  37   0.0000       0.023060         0.6275
  38   0.0000       0.040607         1.1050
  39   0.0000       0.043314         1.1786
  40   0.0000       0.051709         1.4071
  41   0.0000       0.068403         1.8613

MULLIKEN ATOMIC CHARGES
-----------------------
   0 C :    0.788227
   1 C :    0.703453
   2 C :    0.291872
   3 C :    0.082272
   4 C :   -0.861136
   5 N :   -0.423020
   6 N :   -0.253276
   7 F :   -0.612073
   8 F :   -0.312706
   9 F :   -0.352139
  10 H :    0.285114
  11 H :    0.285761
  12 H :    0.377649
Sum of atomic charges:   -0.0000000

LOEWDIN ATOMIC CHARGES
----------------------
   0 C :   -0.493780
   1 C :   -0.319115
   2 C :   -0.716887
   3 C :   -0.905925
   4 C :    0.606955
   5 N :    0.390144
   6 N :    0.370109
   7 F :    0.515469
   8 F :    0.539869
   9 F :    0.516789
  10 H :   -0.161091
  11 H :   -0.160891
  12 H :   -0.181645

  Mayer bond orders larger than 0.100000
B(  0-C ,  1-C ) :   1.0185 B(  0-C ,  2-C ) :   0.8500 B(  0-C ,  5-N ) :  -0.2435
B(  0-C ,  6-N ) :  -0.1419 B(  0-C ,  7-F ) :   0.5346 B(  0-C ,  8-F ) :   0.1217
B(  1-C ,  2-C ) :   0.3281 B(  1-C ,  3-C ) :  -0.2568 B(  1-C ,  4-C ) :   0.4276
B(  1-C ,  5-N ) :   0.7112 B(  1-C ,  7-F ) :   0.1429 B(  2-C ,  3-C ) :  -0.1136
B(  2-C ,  5-N ) :   0.1640 B(  2-C ,  6-N ) :   1.1205 B(  2-C ,  7-F ) :   0.1273
B(  2-C ,  8-F ) :   0.6972 B(  3-C ,  5-N ) :   1.5397 B(  3-C ,  6-N ) :   1.1847
B(  3-C ,  9-F ) :   0.9680 B(  4-C , 10-H ) :   1.0061 B(  4-C , 11-H ) :   1.0046
B(  4-C , 12-H ) :   0.8939 B(  5-N ,  9-F ) :  -0.1012

MP2 TOTAL ENERGY:     -600.466714303 Eh
FINAL SINGLE POINT ENERGY      -600.466714303413

DIPOLE MOMENT
-------------
                                X             Y             Z
Electronic contribution:      3.51060       8.94336      -0.00061
Nuclear contribution   :     -4.43778      -9.74674       0.00085
                        -----------------------------------------
Total Dipole Moment    :     -0.92718      -0.80338       0.00024
                        -----------------------------------------
Magnitude (a.u.)       :      1.22682
Magnitude (Debye)      :      3.11833

Rotational constants in cm-1:     0.060027     0.044733     0.025753
Rotational constants in MHz :  1799.568692  1341.068703   772.069093

                             ****ORCA TERMINATED NORMALLY****
TOTAL RUN TIME: 0 days 0 hours 5 minutes 29 seconds 556 msec
