                         Program Version 5.0.3 -  RELEASE  -
|  1> !ri-mp2 aug-cc-pvtz aug-cc-pvtz/c tightscf
|  2> %pal nprocs 16 end
|  3>
|  4> * xyz 0 1
|  5> C     -1.079574    0.025415   -0.000044
|  6> C     -0.317064    1.276053    0.000024
|  7> C      1.029994    1.272817    0.000051
|  8> C      1.811253    0.048223   -0.000048
|  9> C      1.208607   -1.145981   -0.000088
| 10> C     -0.278700   -1.273628    0.000176
| 11> O     -2.298529    0.003675   -0.000115
| 12> H     -0.888882    2.193888    0.000022
| 13> H      1.565350    2.214743    0.000240
| 14> H      2.890068    0.123598   -0.000248
| 15> H      1.792087   -2.058324   -0.000305
| 16> H     -0.608643   -1.860082    0.864683
| 17> H     -0.608845   -1.860624   -0.863902
| 18> *
| 19>
| 20>                          ****END OF INPUT****

CARTESIAN COORDINATES (ANGSTROEM)
---------------------------------
  C     -1.079574    0.025415   -0.000044
  C     -0.317064    1.276053    0.000024
  C      1.029994    1.272817    0.000051
  C      1.811253    0.048223   -0.000048
  C      1.208607   -1.145981   -0.000088
  C     -0.278700   -1.273628    0.000176
  O     -2.298529    0.003675   -0.000115
  H     -0.888882    2.193888    0.000022
  H      1.565350    2.214743    0.000240
  H      2.890068    0.123598   -0.000248
  H      1.792087   -2.058324   -0.000305
  H     -0.608643   -1.860082    0.864683
  H     -0.608845   -1.860624   -0.863902

 Total Charge           Charge          ....    0
 Multiplicity           Mult            ....    1
 Number of Electrons    NEL             ....   50
 Basis Dimension        Dim             ....  460

ORBITAL ENERGIES
----------------

  NO   OCC          E(Eh)            E(eV)
   0   2.0000     -20.536322      -558.8217
   1   2.0000     -11.331366      -308.3421
   2   2.0000     -11.271965      -306.7258
   3   2.0000     -11.262810      -306.4766
   4   2.0000     -11.250664      -306.1461
   5   2.0000     -11.248834      -306.0963
   6   2.0000     -11.240939      -305.8815
   7   2.0000      -1.376978       -37.4695
   8   2.0000      -1.150390       -31.3037
   9   2.0000      -1.044122       -28.4120
  10   2.0000      -0.999466       -27.1969
  11   2.0000      -0.859809       -23.3966
  12   2.0000      -0.808586       -22.0028
  13   2.0000      -0.708152       -19.2698
  14   2.0000      -0.667754       -18.1705
  15   2.0000      -0.658584       -17.9210
  16   2.0000      -0.620806       -16.8930
  17   2.0000      -0.612074       -16.6554
  18   2.0000      -0.593871       -16.1601
  19   2.0000      -0.535830       -14.5807
  20   2.0000      -0.524463       -14.2714
  21   2.0000      -0.508796       -13.8450
  22   2.0000      -0.455149       -12.3852
  23   2.0000      -0.411286       -11.1917
  24   2.0000      -0.333629        -9.0785
  25   0.0000       0.023519         0.6400
  26   0.0000       0.030666         0.8345
  27   0.0000       0.038119         1.0373
  28   0.0000       0.045470         1.2373
  29   0.0000       0.050611         1.3772

MULLIKEN ATOMIC CHARGES
-----------------------
   0 C :    0.761077
   1 C :   -0.577812
   2 C :   -0.366660
   3 C :   -0.428089
   4 C :   -0.732081
   5 C :   -0.006215
   6 O :   -1.001097
   7 H :    0.418804
   8 H :    0.523461
   9 H :    0.475623
  10 H :    0.354123
  11 H :    0.289462
  12 H :    0.289406
Sum of atomic charges:   -0.0000000

LOEWDIN ATOMIC CHARGES
----------------------
   0 C :   -0.542310
   1 C :    0.222830
   2 C :    0.203113
   3 C :    0.200101
   4 C :    0.234894
   5 C :    0.271537
   6 O :    0.444438
   7 H :   -0.194449
   8 H :   -0.176430
   9 H :   -0.193452
  10 H :   -0.171818
  11 H :   -0.149227
  12 H :   -0.149226

  Mayer bond orders larger than 0.100000
B(  0-C ,  1-C ) :   0.9773 B(  0-C ,  5-C ) :   0.7336 B(  0-C ,  6-O ) :   1.0659
B(  1-C ,  2-C ) :   1.6157 B(  1-C ,  7-H ) :   0.7677 B(  2-C ,  3-C ) :   1.0242
B(  2-C ,  8-H ) :   0.6515 B(  3-C ,  4-C ) :   1.5766 B(  3-C ,  9-H ) :   0.7861
B(  4-C ,  5-C ) :   0.8580 B(  4-C , 10-H ) :   0.9220 B(  5-C ,  6-O ) :  -0.1118
B(  5-C , 11-H ) :   0.9438 B(  5-C , 12-H ) :   0.9439

MP2 TOTAL ENERGY:     -306.838499043 Eh
FINAL SINGLE POINT ENERGY      -306.838499042650

DIPOLE MOMENT
-------------
                                X             Y             Z
Electronic contribution:     -2.46193       1.08119      -0.00036
Nuclear contribution   :      4.09577      -1.24397       0.00049
                        -----------------------------------------
Total Dipole Moment    :      1.63384      -0.16278       0.00013
                        -----------------------------------------
Magnitude (a.u.)       :      1.64193
Magnitude (Debye)      :      4.17344

Rotational constants in cm-1:     0.174048     0.089976     0.059949
Rotational constants in MHz :  5217.826104  2697.411672  1797.214039

                             ****ORCA TERMINATED NORMALLY****
TOTAL RUN TIME: 0 days 0 hours 3 minutes 56 seconds 700 msec
