                         Program Version 5.0.3 -  RELEASE  -
|  1> !ri-mp2 aug-cc-pvtz aug-cc-pvtz/c tightscf
|  2> %pal nprocs 16 end
|  3> %maxcore 3800
|  4>
|  5> * xyz 0 1
|  6> C      0.266243   -2.381801   -0.314834
|  7> C      2.705992    0.000050    0.290476
|  8> C      0.265910    2.381868   -0.314817
|  9> C     -0.892239   -0.000056    0.940151
| 10> C      0.318956    0.000034   -0.011152
| 11> O      0.356269   -1.082293   -0.886845
| 12> O      1.407928    0.000118    0.889584
| 13> O      0.356106    1.082375   -0.886837
| 14> Cl    -2.460390   -0.000138    0.062875
| 15> H      0.547176   -3.074651   -1.104011
| 16> H     -0.754234   -2.608050    0.002453
| 17> H      0.948511   -2.502078    0.529039
| 18> H      2.859400   -0.886862   -0.324693
| 19> H      3.413060    0.000864    1.115990
| 20> H      2.858879    0.886125   -0.326020
| 21> H      0.948187    2.502235    0.529035
| 22> H     -0.754592    2.607970    0.002494
| 23> H      0.546724    3.074761   -1.104000
| 24> H     -0.869091    0.879866    1.572354
| 25> H     -0.868985   -0.879996    1.572325
| 26> *
| 27>
| 28>                          ****END OF INPUT****

CARTESIAN COORDINATES (ANGSTROEM)
---------------------------------
  C      0.266243   -2.381801   -0.314834
  C      2.705992    0.000050    0.290476
  C      0.265910    2.381868   -0.314817
  C     -0.892239   -0.000056    0.940151
  C      0.318956    0.000034   -0.011152
  O      0.356269   -1.082293   -0.886845
  O      1.407928    0.000118    0.889584
  O      0.356106    1.082375   -0.886837
  Cl    -2.460390   -0.000138    0.062875
  H      0.547176   -3.074651   -1.104011
  H     -0.754234   -2.608050    0.002453
  H      0.948511   -2.502078    0.529039
  H      2.859400   -0.886862   -0.324693
  H      3.413060    0.000864    1.115990
  H      2.858879    0.886125   -0.326020
  H      0.948187    2.502235    0.529035
  H     -0.754592    2.607970    0.002494
  H      0.546724    3.074761   -1.104000
  H     -0.869091    0.879866    1.572354
  H     -0.868985   -0.879996    1.572325

 Total Charge           Charge          ....    0
 Multiplicity           Mult            ....    1
 Number of Electrons    NEL             ....   82
 Basis Dimension        Dim             ....  671

ORBITAL ENERGIES
----------------

  NO   OCC          E(Eh)            E(eV)
   0   2.0000    -104.826491     -2852.4738
   1   2.0000     -20.575570      -559.8897
   2   2.0000     -20.571010      -559.7656
   3   2.0000     -20.570996      -559.7653
   4   2.0000     -11.407080      -310.4024
   5   2.0000     -11.297576      -307.4227
   6   2.0000     -11.278678      -306.9084
   7   2.0000     -11.278675      -306.9083
   8   2.0000     -11.276972      -306.8620
   9   2.0000     -10.550327      -287.0890
  10   2.0000      -8.017167      -218.1582
  11   2.0000      -8.015358      -218.1090
  12   2.0000      -8.015357      -218.1089
  13   2.0000      -1.465481       -39.8778
  14   2.0000      -1.359239       -36.9868
  15   2.0000      -1.358959       -36.9792
  16   2.0000      -1.132999       -30.8305
  17   2.0000      -1.012579       -27.5537
  18   2.0000      -0.968147       -26.3446
  19   2.0000      -0.922808       -25.1109
  20   2.0000      -0.912015       -24.8172
  21   2.0000      -0.791805       -21.5461
  22   2.0000      -0.727363       -19.7926
  23   2.0000      -0.718018       -19.5383
  24   2.0000      -0.696346       -18.9485
  25   2.0000      -0.662330       -18.0229
  26   2.0000      -0.622760       -16.9462
  27   2.0000      -0.613873       -16.7043
  28   2.0000      -0.605526       -16.4772
  29   2.0000      -0.590848       -16.0778
  30   2.0000      -0.588713       -16.0197
  31   2.0000      -0.573067       -15.5940
  32   2.0000      -0.541532       -14.7358
  33   2.0000      -0.531871       -14.4729
  34   2.0000      -0.518273       -14.1029
  35   2.0000      -0.481866       -13.1122
  36   2.0000      -0.462504       -12.5854
  37   2.0000      -0.455379       -12.3915
  38   2.0000      -0.455312       -12.3897
  39   2.0000      -0.436480       -11.8772
  40   2.0000      -0.427523       -11.6335
  41   0.0000       0.027379         0.7450
  42   0.0000       0.034320         0.9339
  43   0.0000       0.036200         0.9850
  44   0.0000       0.040645         1.1060
  45   0.0000       0.051228         1.3940

MULLIKEN ATOMIC CHARGES
-----------------------
   0 C :   -1.013370
   1 C :   -1.011396
   2 C :   -1.013412
   3 C :   -0.382103
   4 C :    2.056219
   5 O :   -0.671567
   6 O :   -0.637977
   7 O :   -0.671416
   8 Cl:   -0.409027
   9 H :    0.330283
  10 H :    0.329965
  11 H :    0.413678
  12 H :    0.372380
  13 H :    0.327187
  14 H :    0.372423
  15 H :    0.413630
  16 H :    0.329975
  17 H :    0.330243
  18 H :    0.267146
  19 H :    0.267138
Sum of atomic charges:   -0.0000000

LOEWDIN ATOMIC CHARGES
----------------------
   0 C :    0.327127
   1 C :    0.347020
   2 C :    0.327133
   3 C :   -0.279749
   4 C :   -1.204293
   5 O :    0.565075
   6 O :    0.563195
   7 O :    0.565065
   8 Cl:    0.940244
   9 H :   -0.178224
  10 H :   -0.191558
  11 H :   -0.181477
  12 H :   -0.183149
  13 H :   -0.183245
  14 H :   -0.183155
  15 H :   -0.181465
  16 H :   -0.191562
  17 H :   -0.178227
  18 H :   -0.249377
  19 H :   -0.249378

  Mayer bond orders larger than 0.100000
B(  0-C ,  4-C ) :  -0.1030 B(  0-C ,  5-O ) :   1.0736 B(  0-C ,  9-H ) :   0.9620
B(  0-C , 10-H ) :   0.9137 B(  0-C , 11-H ) :   0.8223 B(  1-C ,  6-O ) :   0.9389
B(  1-C , 12-H ) :   0.8634 B(  1-C , 13-H ) :   0.9443 B(  1-C , 14-H ) :   0.8633
B(  2-C ,  4-C ) :  -0.1030 B(  2-C ,  7-O ) :   1.0735 B(  2-C , 15-H ) :   0.8223
B(  2-C , 16-H ) :   0.9137 B(  2-C , 17-H ) :   0.9621 B(  3-C ,  4-C ) :   0.9025
B(  3-C ,  6-O ) :   0.1137 B(  3-C ,  8-Cl) :   0.7732 B(  3-C , 18-H ) :   0.9426
B(  3-C , 19-H ) :   0.9426 B(  4-C ,  5-O ) :   0.2679 B(  4-C ,  6-O ) :   0.4978
B(  4-C ,  7-O ) :   0.2682

MP2 TOTAL ENERGY:     -881.781657380 Eh
FINAL SINGLE POINT ENERGY      -881.781657380094

DIPOLE MOMENT
-------------
                                X             Y             Z
Electronic contribution:    -11.55386      -0.00038      -1.56504
Nuclear contribution   :     12.38091       0.00038       2.35205
                        -----------------------------------------
Total Dipole Moment    :      0.82705       0.00001       0.78701
                        -----------------------------------------
Magnitude (a.u.)       :      1.14166
Magnitude (Debye)      :      2.90188

Rotational constants in cm-1:     0.059417     0.037920     0.027843
Rotational constants in MHz :  1781.266576  1136.802033   834.720383

                             ****ORCA TERMINATED NORMALLY****
TOTAL RUN TIME: 0 days 0 hours 10 minutes 50 seconds 403 msec
