                         Program Version 5.0.3 -  RELEASE  -
|  1> !ri-mp2 aug-cc-pvtz aug-cc-pvtz/c tightscf
|  2> %pal nprocs 16 end
|  3>
|  4> * xyz 0 1
|  5> O      1.710629   -2.268770    0.000000
|  6> C      0.839149   -1.437452    0.000000
|  7> N      1.061346   -0.070202    0.000000
|  8> C      0.000000    0.800619    0.000000
|  9> S      0.108303    2.432861    0.000000
| 10> C     -0.653681   -1.727173    0.000000
| 11> S     -1.508948   -0.111223    0.000000
| 12> H      2.004537    0.291896    0.000000
| 13> H     -0.910734   -2.306252    0.884785
| 14> H     -0.910734   -2.306252   -0.884785
| 15> *
| 16>
| 17>                          ****END OF INPUT****

CARTESIAN COORDINATES (ANGSTROEM)
---------------------------------
  O      1.710629   -2.268770    0.000000
  C      0.839149   -1.437452    0.000000
  N      1.061346   -0.070202    0.000000
  C      0.000000    0.800619    0.000000
  S      0.108303    2.432861    0.000000
  C     -0.653681   -1.727173    0.000000
  S     -1.508948   -0.111223    0.000000
  H      2.004537    0.291896    0.000000
  H     -0.910734   -2.306252    0.884785
  H     -0.910734   -2.306252   -0.884785

 Total Charge           Charge          ....    0
 Multiplicity           Mult            ....    1
 Number of Electrons    NEL             ....   68
 Basis Dimension        Dim             ....  399

ORBITAL ENERGIES
----------------

  NO   OCC          E(Eh)            E(eV)
   0   2.0000     -92.015251     -2503.8623
   1   2.0000     -91.938004     -2501.7603
   2   2.0000     -20.576437      -559.9133
   3   2.0000     -15.655610      -426.0108
   4   2.0000     -11.407612      -310.4169
   5   2.0000     -11.406341      -310.3823
   6   2.0000     -11.313105      -307.8452
   7   2.0000      -9.015677      -245.3291
   8   2.0000      -8.940954      -243.2957
   9   2.0000      -6.696552      -182.2224
  10   2.0000      -6.695623      -182.1972
  11   2.0000      -6.694631      -182.1702
  12   2.0000      -6.622236      -180.2002
  13   2.0000      -6.620654      -180.1572
  14   2.0000      -6.619658      -180.1301
  15   2.0000      -1.441750       -39.2320
  16   2.0000      -1.326212       -36.0881
  17   2.0000      -1.112478       -30.2721
  18   2.0000      -1.069853       -29.1122
  19   2.0000      -0.939189       -25.5566
  20   2.0000      -0.859793       -23.3962
  21   2.0000      -0.835048       -22.7228
  22   2.0000      -0.704799       -19.1785
  23   2.0000      -0.688482       -18.7346
  24   2.0000      -0.650543       -17.7022
  25   2.0000      -0.633970       -17.2512
  26   2.0000      -0.598066       -16.2742
  27   2.0000      -0.547598       -14.9009
  28   2.0000      -0.536465       -14.5979
  29   2.0000      -0.529659       -14.4127
  30   2.0000      -0.466304       -12.6888
  31   2.0000      -0.419055       -11.4031
  32   2.0000      -0.359523        -9.7831
  33   2.0000      -0.357492        -9.7279
  34   0.0000       0.023317         0.6345
  35   0.0000       0.038162         1.0384
  36   0.0000       0.039045         1.0625
  37   0.0000       0.050545         1.3754
  38   0.0000       0.057600         1.5674

MULLIKEN ATOMIC CHARGES
-----------------------
   0 O :   -0.731875
   1 C :    0.308741
   2 N :    0.190810
   3 C :    0.217269
   4 S :   -0.411536
   5 C :   -0.209925
   6 S :   -0.062219
   7 H :    0.135659
   8 H :    0.281538
   9 H :    0.281538
Sum of atomic charges:    0.0000000

LOEWDIN ATOMIC CHARGES
----------------------
   0 O :    0.453519
   1 C :   -0.709981
   2 N :    0.380133
   3 C :   -1.386888
   4 S :    0.825747
   5 C :   -0.022254
   6 S :    1.177901
   7 H :   -0.283673
   8 H :   -0.217252
   9 H :   -0.217252

  Mayer bond orders larger than 0.100000
B(  0-O ,  1-C ) :   1.4921 B(  1-C ,  2-N ) :   0.8955 B(  1-C ,  3-C ) :  -0.1757
B(  1-C ,  5-C ) :   0.7115 B(  2-N ,  3-C ) :   1.1339 B(  2-N ,  7-H ) :   1.0308
B(  3-C ,  4-S ) :   1.6812 B(  3-C ,  6-S ) :   0.9783 B(  5-C ,  6-S ) :   0.9581
B(  5-C ,  8-H ) :   0.9279 B(  5-C ,  9-H ) :   0.9279

MP2 TOTAL ENERGY:    -1041.130667144 Eh
FINAL SINGLE POINT ENERGY     -1041.130667143852

DIPOLE MOMENT
-------------
                                X             Y             Z
Electronic contribution:     -0.74749       3.42153       0.00000
Nuclear contribution   :      0.24882      -4.24641       0.00000
                        -----------------------------------------
Total Dipole Moment    :     -0.49867      -0.82488       0.00000
                        -----------------------------------------
Magnitude (a.u.)       :      0.96390
Magnitude (Debye)      :      2.45003

Rotational constants in cm-1:     0.114781     0.046420     0.033259
Rotational constants in MHz :  3441.062082  1391.632557   997.065858

                             ****ORCA TERMINATED NORMALLY****
TOTAL RUN TIME: 0 days 0 hours 2 minutes 44 seconds 743 msec
