                         Program Version 5.0.3 -  RELEASE  -
|  1> !ri-mp2 aug-cc-pvtz aug-cc-pvtz/c tightscf
|  2> %pal nprocs 16 end
|  3>
|  4> * xyz 0 1
|  5> C     1.021460    0.038369    0.000000
|  6> C     0.640074   -1.308976    0.000000
|  7> C     0.000000    0.987794    0.000000
|  8> C    -1.528760   -0.650022    0.000000
|  9> C     1.636021   -2.424461    0.000000
| 10> N    -0.656618   -1.639019    0.000000
| 11> N    -1.273552    0.646231    0.000000
| 12> Cl    2.695285    0.484019    0.000000
| 13> Cl    0.352375    2.685355    0.000000
| 14> Cl   -3.211246   -1.098954    0.000000
| 15> H     2.284076   -2.364524    0.875642
| 16> H     1.111227   -3.374788    0.000000
| 17> H     2.284076   -2.364524   -0.875642
| 18> *
| 19>
| 20>                          ****END OF INPUT****

CARTESIAN COORDINATES (ANGSTROEM)
---------------------------------
  C      1.021460    0.038369    0.000000
  C      0.640074   -1.308976    0.000000
  C      0.000000    0.987794    0.000000
  C     -1.528760   -0.650022    0.000000
  C      1.636021   -2.424461    0.000000
  N     -0.656618   -1.639019    0.000000
  N     -1.273552    0.646231    0.000000
  Cl     2.695285    0.484019    0.000000
  Cl     0.352375    2.685355    0.000000
  Cl    -3.211246   -1.098954    0.000000
  H      2.284076   -2.364524    0.875642
  H      1.111227   -3.374788    0.000000
  H      2.284076   -2.364524   -0.875642

 Total Charge           Charge          ....    0
 Multiplicity           Mult            ....    1
 Number of Electrons    NEL             ....   98
 Basis Dimension        Dim             ....  541

ORBITAL ENERGIES
----------------

  NO   OCC          E(Eh)            E(eV)
   0   2.0000    -104.872480     -2853.7253
   1   2.0000    -104.872190     -2853.7174
   2   2.0000    -104.859540     -2853.3732
   3   2.0000     -15.608251      -424.7221
   4   2.0000     -15.602787      -424.5734
   5   2.0000     -11.402611      -310.2808
   6   2.0000     -11.392838      -310.0149
   7   2.0000     -11.345377      -308.7234
   8   2.0000     -11.333611      -308.4032
   9   2.0000     -11.254478      -306.2499
  10   2.0000     -10.596352      -288.3414
  11   2.0000     -10.595693      -288.3235
  12   2.0000     -10.583617      -287.9949
  13   2.0000      -8.063205      -219.4110
  14   2.0000      -8.062619      -219.3950
  15   2.0000      -8.061192      -219.3562
  16   2.0000      -8.061062      -219.3527
  17   2.0000      -8.060596      -219.3400
  18   2.0000      -8.060565      -219.3391
  19   2.0000      -8.050488      -219.0649
  20   2.0000      -8.048482      -219.0103
  21   2.0000      -8.048353      -219.0068
  22   2.0000      -1.373322       -37.3700
  23   2.0000      -1.256906       -34.2021
  24   2.0000      -1.212010       -32.9805
  25   2.0000      -1.150290       -31.3010
  26   2.0000      -1.135463       -30.8975
  27   2.0000      -1.055826       -28.7305
  28   2.0000      -1.004240       -27.3268
  29   2.0000      -0.886770       -24.1302
  30   2.0000      -0.871152       -23.7053
  31   2.0000      -0.776389       -21.1266
  32   2.0000      -0.698075       -18.9956
  33   2.0000      -0.657647       -17.8955
  34   2.0000      -0.635747       -17.2996
  35   2.0000      -0.615656       -16.7529
  36   2.0000      -0.597735       -16.2652
  37   2.0000      -0.596067       -16.2198
  38   2.0000      -0.574017       -15.6198
  39   2.0000      -0.549868       -14.9627
  40   2.0000      -0.513475       -13.9724
  41   2.0000      -0.512290       -13.9401
  42   2.0000      -0.507043       -13.7973
  43   2.0000      -0.483899       -13.1676
  44   2.0000      -0.477545       -12.9947
  45   2.0000      -0.473421       -12.8825
  46   2.0000      -0.439916       -11.9707
  47   2.0000      -0.436928       -11.8894
  48   2.0000      -0.372225       -10.1288
  49   0.0000       0.025621         0.6972
  50   0.0000       0.042103         1.1457
  51   0.0000       0.045479         1.2376
  52   0.0000       0.053849         1.4653
  53   0.0000       0.064137         1.7453

MULLIKEN ATOMIC CHARGES
-----------------------
   0 C :    0.784839
   1 C :    0.537128
   2 C :    0.268739
   3 C :   -0.036077
   4 C :   -0.897528
   5 N :   -0.369447
   6 N :   -0.266593
   7 Cl:   -0.411021
   8 Cl:   -0.329045
   9 Cl:   -0.245690
  10 H :    0.340711
  11 H :    0.283273
  12 H :    0.340711
Sum of atomic charges:    0.0000000

LOEWDIN ATOMIC CHARGES
----------------------
   0 C :   -0.837728
   1 C :   -0.408131
   2 C :   -1.071909
   3 C :   -1.176635
   4 C :    0.556278
   5 N :    0.309645
   6 N :    0.194061
   7 Cl:    1.012166
   8 Cl:    0.991209
   9 Cl:    0.962400
  10 H :   -0.176325
  11 H :   -0.178707
  12 H :   -0.176325

  Mayer bond orders larger than 0.100000
B(  0-C ,  1-C ) :   0.9428 B(  0-C ,  2-C ) :   0.8774 B(  0-C ,  4-C ) :   0.1196
B(  0-C ,  6-N ) :   0.1115 B(  0-C ,  7-Cl) :   0.4130 B(  0-C ,  8-Cl) :   0.2392
B(  1-C ,  2-C ) :   0.6352 B(  1-C ,  3-C ) :  -0.3774 B(  1-C ,  4-C ) :   0.6854
B(  1-C ,  5-N ) :   0.3271 B(  1-C ,  7-Cl) :   0.1139 B(  2-C ,  6-N ) :   0.7361
B(  2-C ,  8-Cl) :   0.5089 B(  3-C ,  5-N ) :   1.4726 B(  3-C ,  6-N ) :   1.1262
B(  3-C ,  9-Cl) :   0.9161 B(  4-C , 10-H ) :   0.9480 B(  4-C , 11-H ) :   0.9591
B(  4-C , 12-H ) :   0.9480

MP2 TOTAL ENERGY:    -1680.414751649 Eh
FINAL SINGLE POINT ENERGY     -1680.414751648858

DIPOLE MOMENT
-------------
                                X             Y             Z
Electronic contribution:     -4.51691       9.81042       0.00000
Nuclear contribution   :      5.50152     -10.32029       0.00000
                        -----------------------------------------
Total Dipole Moment    :      0.98461      -0.50987       0.00000
                        -----------------------------------------
Magnitude (a.u.)       :      1.10880
Magnitude (Debye)      :      2.81834

Rotational constants in cm-1:     0.040601     0.020714     0.013751
Rotational constants in MHz :  1217.178556   620.982448   412.234056

                             ****ORCA TERMINATED NORMALLY****
TOTAL RUN TIME: 0 days 0 hours 6 minutes 53 seconds 611 msec
