                         Program Version 5.0.3 -  RELEASE  -
|  1> !ri-mp2 aug-cc-pvtz aug-cc-pvtz/c tightscf
|  2> %pal nprocs 16 end
|  3>
|  4> * xyz 0 1
|  5> C      2.068952   -0.029590    0.114749
|  6> C     -1.781327   -0.695111    0.003653
|  7> C      0.738327   -0.671951   -0.270753
|  8> C     -0.478716    0.030019    0.319827
|  9> O     -0.490635    1.363576   -0.211065
| 10> H      2.209786   -0.036654    1.197896
| 11> H      2.114065    1.005156   -0.221346
| 12> H      2.905645   -0.568790   -0.331134
| 13> H     -1.921866   -0.773729   -1.075400
| 14> H     -1.779793   -1.700291    0.428681
| 15> H     -2.637934   -0.160756    0.420748
| 16> H      0.719889   -1.714419    0.057213
| 17> H      0.628666   -0.681241   -1.358792
| 18> H     -0.354839    0.083409    1.410162
| 19> H     -1.241958    1.838511    0.155634
| 20> *
| 21>
| 22>                          ****END OF INPUT****

CARTESIAN COORDINATES (ANGSTROEM)
---------------------------------
  C      2.068952   -0.029590    0.114749
  C     -1.781327   -0.695111    0.003653
  C      0.738327   -0.671951   -0.270753
  C     -0.478716    0.030019    0.319827
  O     -0.490635    1.363576   -0.211065
  H      2.209786   -0.036654    1.197896
  H      2.114065    1.005156   -0.221346
  H      2.905645   -0.568790   -0.331134
  H     -1.921866   -0.773729   -1.075400
  H     -1.779793   -1.700291    0.428681
  H     -2.637934   -0.160756    0.420748
  H      0.719889   -1.714419    0.057213
  H      0.628666   -0.681241   -1.358792
  H     -0.354839    0.083409    1.410162
  H     -1.241958    1.838511    0.155634

 Total Charge           Charge          ....    0
 Multiplicity           Mult            ....    1
 Number of Electrons    NEL             ....   42
 Basis Dimension        Dim             ....  460

ORBITAL ENERGIES
----------------

  NO   OCC          E(Eh)            E(eV)
   0   2.0000     -20.551583      -559.2370
   1   2.0000     -11.277556      -306.8779
   2   2.0000     -11.216367      -305.2129
   3   2.0000     -11.215586      -305.1916
   4   2.0000     -11.204433      -304.8881
   5   2.0000      -1.353635       -36.8343
   6   2.0000      -1.059490       -28.8302
   7   2.0000      -0.983647       -26.7664
   8   2.0000      -0.867818       -23.6145
   9   2.0000      -0.785873       -21.3847
  10   2.0000      -0.697191       -18.9715
  11   2.0000      -0.622941       -16.9511
  12   2.0000      -0.598157       -16.2767
  13   2.0000      -0.580649       -15.8003
  14   2.0000      -0.562250       -15.2996
  15   2.0000      -0.538123       -14.6431
  16   2.0000      -0.509662       -13.8686
  17   2.0000      -0.495430       -13.4813
  18   2.0000      -0.480185       -13.0665
  19   2.0000      -0.456613       -12.4251
  20   2.0000      -0.435234       -11.8433
  21   0.0000       0.029025         0.7898
  22   0.0000       0.036243         0.9862
  23   0.0000       0.038491         1.0474
  24   0.0000       0.041761         1.1364
  25   0.0000       0.055752         1.5171

MULLIKEN ATOMIC CHARGES
-----------------------
   0 C :   -0.962471
   1 C :   -1.041688
   2 C :   -0.495967
   3 C :    0.513523
   4 O :   -0.667156
   5 H :    0.257058
   6 H :    0.310064
   7 H :    0.276864
   8 H :    0.270005
   9 H :    0.278974
  10 H :    0.262390
  11 H :    0.284446
  12 H :    0.275021
  13 H :    0.301515
  14 H :    0.137421
Sum of atomic charges:    0.0000000

LOEWDIN ATOMIC CHARGES
----------------------
   0 C :    0.580107
   1 C :    0.587149
   2 C :    0.251792
   3 C :   -0.285378
   4 O :    0.825808
   5 H :   -0.171333
   6 H :   -0.178268
   7 H :   -0.174448
   8 H :   -0.165425
   9 H :   -0.168540
  10 H :   -0.172909
  11 H :   -0.150980
  12 H :   -0.146943
  13 H :   -0.138760
  14 H :   -0.491871

  Mayer bond orders larger than 0.100000
B(  0-C ,  2-C ) :   0.8796 B(  0-C ,  5-H ) :   0.9670 B(  0-C ,  6-H ) :   0.9259
B(  0-C ,  7-H ) :   0.9759 B(  1-C ,  3-C ) :   0.8405 B(  1-C ,  8-H ) :   0.9461
B(  1-C ,  9-H ) :   0.9575 B(  1-C , 10-H ) :   0.9871 B(  2-C ,  3-C ) :   0.8156
B(  2-C , 11-H ) :   0.9354 B(  2-C , 12-H ) :   0.9507 B(  3-C ,  4-O ) :   0.5281
B(  3-C , 13-H ) :   0.9414 B(  4-O , 14-H ) :   1.0258

MP2 TOTAL ENERGY:     -233.214113428 Eh
FINAL SINGLE POINT ENERGY      -233.214113427580

DIPOLE MOMENT
-------------
                                X             Y             Z
Electronic contribution:     -1.11367       2.57065      -0.32279
Nuclear contribution   :      0.67460      -2.85974       0.72399
                        -----------------------------------------
Total Dipole Moment    :     -0.43907      -0.28909       0.40120
                        -----------------------------------------
Magnitude (a.u.)       :      0.66130
Magnitude (Debye)      :      1.68089

Rotational constants in cm-1:     0.269222     0.114573     0.088814
Rotational constants in MHz :  8071.076606  3434.799118  2662.589117

                             ****ORCA TERMINATED NORMALLY****
TOTAL RUN TIME: 0 days 0 hours 2 minutes 54 seconds 334 msec
