                         Program Version 5.0.3 -  RELEASE  -
|  1> !ri-mp2 aug-cc-pvtz aug-cc-pvtz/c tightscf
|  2> %pal nprocs 16 end
|  3>
|  4> * xyz 0 1
|  5> S     2.590627   -0.398383     0.022037
|  6> O    -1.809480   -1.599735    -0.671452
|  7> O    -2.549580    0.115934     0.577774
|  8> O    -0.025063    2.199939    -0.680860
|  9> N    -0.181727    1.093324    -1.068444
| 10> N    -0.043483    0.595039     1.433653
| 11> C    -0.211472    0.021895     0.148750
| 12> C    -1.585305   -0.610668    -0.028144
| 13> C     0.874555   -0.989357    -0.229063
| 14> H     2.628680   -0.584070     1.353771
| 15> H    -3.394862   -0.321472     0.396688
| 16> H    -0.824033    1.185978     1.685952
| 17> H     0.803667    1.150378     1.462821
| 18> H     0.792491   -1.224457    -1.287032
| 19> H     0.726816   -1.911112     0.325783
| 20> *
| 21>
| 22>                          ****END OF INPUT****

CARTESIAN COORDINATES (ANGSTROEM)
---------------------------------
  S      2.590627   -0.398383    0.022037
  O     -1.809480   -1.599735   -0.671452
  O     -2.549580    0.115934    0.577774
  O     -0.025063    2.199939   -0.680860
  N     -0.181727    1.093324   -1.068444
  N     -0.043483    0.595039    1.433653
  C     -0.211472    0.021895    0.148750
  C     -1.585305   -0.610668   -0.028144
  C      0.874555   -0.989357   -0.229063
  H      2.628680   -0.584070    1.353771
  H     -3.394862   -0.321472    0.396688
  H     -0.824033    1.185978    1.685952
  H      0.803667    1.150378    1.462821
  H      0.792491   -1.224457   -1.287032
  H      0.726816   -1.911112    0.325783

 Total Charge           Charge          ....    0
 Multiplicity           Mult            ....    1
 Number of Electrons    NEL             ....   78
 Basis Dimension        Dim             ....  556

ORBITAL ENERGIES
----------------

  NO   OCC          E(Eh)            E(eV)
   0   2.0000     -91.971515     -2502.6722
   1   2.0000     -20.656317      -562.0870
   2   2.0000     -20.639870      -561.6394
   3   2.0000     -20.579977      -560.0096
   4   2.0000     -15.720335      -427.7721
   5   2.0000     -15.577064      -423.8734
   6   2.0000     -11.415484      -310.6311
   7   2.0000     -11.342421      -308.6430
   8   2.0000     -11.286234      -307.1140
   9   2.0000      -8.972299      -244.1487
  10   2.0000      -6.653575      -181.0530
  11   2.0000      -6.652618      -181.0269
  12   2.0000      -6.651610      -180.9995
  13   2.0000      -1.554719       -42.3061
  14   2.0000      -1.494701       -40.6729
  15   2.0000      -1.393276       -37.9130
  16   2.0000      -1.245481       -33.8913
  17   2.0000      -1.087060       -29.5804
  18   2.0000      -1.017529       -27.6884
  19   2.0000      -0.925993       -25.1976
  20   2.0000      -0.892139       -24.2763
  21   2.0000      -0.798523       -21.7289
  22   2.0000      -0.748039       -20.3552
  23   2.0000      -0.739549       -20.1242
  24   2.0000      -0.728520       -19.8240
  25   2.0000      -0.689640       -18.7660
  26   2.0000      -0.667816       -18.1722
  27   2.0000      -0.653606       -17.7855
  28   2.0000      -0.629234       -17.1223
  29   2.0000      -0.608642       -16.5620
  30   2.0000      -0.604403       -16.4466
  31   2.0000      -0.572364       -15.5748
  32   2.0000      -0.538243       -14.6463
  33   2.0000      -0.513123       -13.9628
  34   2.0000      -0.487203       -13.2575
  35   2.0000      -0.479798       -13.0560
  36   2.0000      -0.468847       -12.7580
  37   2.0000      -0.390981       -10.6391
  38   2.0000      -0.372880       -10.1466
  39   0.0000       0.024542         0.6678
  40   0.0000       0.033077         0.9001
  41   0.0000       0.040186         1.0935
  42   0.0000       0.050122         1.3639
  43   0.0000       0.052382         1.4254

MULLIKEN ATOMIC CHARGES
-----------------------
   0 S :   -0.456335
   1 O :   -0.841094
   2 O :   -0.426387
   3 O :   -0.422517
   4 N :   -0.150934
   5 N :   -0.771557
   6 C :    1.454004
   7 C :    0.662682
   8 C :   -0.274657
   9 H :    0.151555
  10 H :    0.240522
  11 H :    0.087360
  12 H :    0.121842
  13 H :    0.313143
  14 H :    0.312371
Sum of atomic charges:   -0.0000000

LOEWDIN ATOMIC CHARGES
----------------------
   0 S :    1.308181
   1 O :    0.483584
   2 O :    0.849322
   3 O :    0.285032
   4 N :    0.016562
   5 N :    0.810072
   6 C :   -0.650132
   7 C :   -0.807591
   8 C :   -0.121431
   9 H :   -0.561328
  10 H :   -0.453933
  11 H :   -0.340882
  12 H :   -0.361602
  13 H :   -0.239844
  14 H :   -0.216010

  Mayer bond orders larger than 0.100000
B(  0-S ,  8-C ) :   0.9203 B(  0-S ,  9-H ) :   1.0501 B(  1-O ,  7-C ) :   1.2646
B(  2-O ,  7-C ) :   1.0053 B(  2-O , 10-H ) :   0.9479 B(  3-O ,  4-N ) :   1.5086
B(  3-O ,  6-C ) :  -0.1160 B(  4-N ,  5-N ) :   0.1107 B(  4-N ,  6-C ) :   0.7980
B(  5-N ,  6-C ) :   0.4306 B(  5-N , 11-H ) :   0.9995 B(  5-N , 12-H ) :   0.9844
B(  6-C ,  7-C ) :   0.6119 B(  6-C ,  8-C ) :   0.9794 B(  8-C , 13-H ) :   0.9368
B(  8-C , 14-H ) :   0.8806

MP2 TOTAL ENERGY:     -850.040259407 Eh
FINAL SINGLE POINT ENERGY      -850.040259407137

DIPOLE MOMENT
-------------
                                X             Y             Z
Electronic contribution:     -1.05390       1.61287      -2.95581
Nuclear contribution   :      0.56818      -1.63050       3.83145
                        -----------------------------------------
Total Dipole Moment    :     -0.48572      -0.01763       0.87564
                        -----------------------------------------
Magnitude (a.u.)       :      1.00149
Magnitude (Debye)      :      2.54558

Rotational constants in cm-1:     0.068993     0.033230     0.027948
Rotational constants in MHz :  2068.366866   996.203614   837.861036

                             ****ORCA TERMINATED NORMALLY****
TOTAL RUN TIME: 0 days 0 hours 7 minutes 33 seconds 354 msec
