                         Program Version 5.0.3 -  RELEASE  -
|  1> !ri-mp2 aug-cc-pvtz aug-cc-pvtz/c tightscf
|  2> %pal nprocs 16 end
|  3>
|  4> * xyz 0 1
|  5> C     -0.367218    2.951058    0.128332
|  6> C      0.367218   -2.951058    0.128332
|  7> C     -0.964817    1.668994    0.237015
|  8> C      0.964817   -1.668994    0.237015
|  9> C      0.964817    2.761561   -0.145704
| 10> C     -0.964817   -2.761561   -0.145704
| 11> C      0.021536    0.722146    0.022813
| 12> C     -0.021536   -0.722146    0.022813
| 13> N      1.189772    1.410224   -0.205634
| 14> N     -1.189772   -1.410224   -0.205634
| 15> H     -0.856131    3.902314    0.249268
| 16> H      0.856131   -3.902314    0.249268
| 17> H     -1.992085    1.462515    0.486567
| 18> H      1.992085   -1.462515    0.486567
| 19> H      1.761222    3.466788   -0.303118
| 20> H     -1.761222   -3.466788   -0.303118
| 21> H      2.062056    0.976796   -0.448014
| 22> H     -2.062056   -0.976796   -0.448014
| 23> *
| 24>
| 25>                          ****END OF INPUT****

CARTESIAN COORDINATES (ANGSTROEM)
---------------------------------
  C     -0.367218    2.951058    0.128332
  C      0.367218   -2.951058    0.128332
  C     -0.964817    1.668994    0.237015
  C      0.964817   -1.668994    0.237015
  C      0.964817    2.761561   -0.145704
  C     -0.964817   -2.761561   -0.145704
  C      0.021536    0.722146    0.022813
  C     -0.021536   -0.722146    0.022813
  N      1.189772    1.410224   -0.205634
  N     -1.189772   -1.410224   -0.205634
  H     -0.856131    3.902314    0.249268
  H      0.856131   -3.902314    0.249268
  H     -1.992085    1.462515    0.486567
  H      1.992085   -1.462515    0.486567
  H      1.761222    3.466788   -0.303118
  H     -1.761222   -3.466788   -0.303118
  H      2.062056    0.976796   -0.448014
  H     -2.062056   -0.976796   -0.448014

 Total Charge           Charge          ....    0
 Multiplicity           Mult            ....    1
 Number of Electrons    NEL             ....   70
 Basis Dimension        Dim             ....  644

ORBITAL ENERGIES
----------------

  NO   OCC          E(Eh)            E(eV)
   0   2.0000     -15.607114      -424.6912
   1   2.0000     -15.607113      -424.6911
   2   2.0000     -11.268077      -306.6200
   3   2.0000     -11.267202      -306.5962
   4   2.0000     -11.255775      -306.2852
   5   2.0000     -11.255775      -306.2852
   6   2.0000     -11.214954      -305.1744
   7   2.0000     -11.214953      -305.1744
   8   2.0000     -11.213161      -305.1256
   9   2.0000     -11.213161      -305.1256
  10   2.0000      -1.305673       -35.5292
  11   2.0000      -1.288493       -35.0617
  12   2.0000      -1.052964       -28.6526
  13   2.0000      -1.043936       -28.4069
  14   2.0000      -1.032523       -28.0964
  15   2.0000      -0.947020       -25.7697
  16   2.0000      -0.813995       -22.1499
  17   2.0000      -0.796722       -21.6799
  18   2.0000      -0.780446       -21.2370
  19   2.0000      -0.775692       -21.1077
  20   2.0000      -0.753635       -20.5075
  21   2.0000      -0.662974       -18.0404
  22   2.0000      -0.606544       -16.5049
  23   2.0000      -0.596349       -16.2275
  24   2.0000      -0.589929       -16.0528
  25   2.0000      -0.575355       -15.6562
  26   2.0000      -0.570569       -15.5260
  27   2.0000      -0.557071       -15.1587
  28   2.0000      -0.549440       -14.9510
  29   2.0000      -0.542285       -14.7563
  30   2.0000      -0.520311       -14.1584
  31   2.0000      -0.355386        -9.6705
  32   2.0000      -0.354835        -9.6556
  33   2.0000      -0.347067        -9.4442
  34   2.0000      -0.257359        -7.0031
  35   0.0000       0.026696         0.7264
  36   0.0000       0.029075         0.7912
  37   0.0000       0.033544         0.9128
  38   0.0000       0.041104         1.1185
  39   0.0000       0.043564         1.1854

MULLIKEN ATOMIC CHARGES
-----------------------
   0 C :   -0.627951
   1 C :   -0.627951
   2 C :   -1.125030
   3 C :   -1.125031
   4 C :   -0.812091
   5 C :   -0.812091
   6 C :    0.910948
   7 C :    0.910949
   8 N :   -0.009970
   9 N :   -0.009970
  10 H :    0.469897
  11 H :    0.469897
  12 H :    0.428855
  13 H :    0.428855
  14 H :    0.673818
  15 H :    0.673818
  16 H :    0.091523
  17 H :    0.091523
Sum of atomic charges:    0.0000000

LOEWDIN ATOMIC CHARGES
----------------------
   0 C :    0.180749
   1 C :    0.180749
   2 C :    0.201558
   3 C :    0.201558
   4 C :    0.124565
   5 C :    0.124565
   6 C :   -0.207422
   7 C :   -0.207422
   8 N :    0.521065
   9 N :    0.521065
  10 H :   -0.199125
  11 H :   -0.199125
  12 H :   -0.191848
  13 H :   -0.191848
  14 H :   -0.179723
  15 H :   -0.179723
  16 H :   -0.249819
  17 H :   -0.249819

  Mayer bond orders larger than 0.100000
B(  0-C ,  2-C ) :   1.4113 B(  0-C ,  4-C ) :   1.0577 B(  0-C ,  8-N ) :  -0.2278
B(  0-C , 10-H ) :   0.8758 B(  1-C ,  3-C ) :   1.4113 B(  1-C ,  5-C ) :   1.0577
B(  1-C ,  9-N ) :  -0.2278 B(  1-C , 11-H ) :   0.8758 B(  2-C ,  4-C ) :   0.1648
B(  2-C ,  6-C ) :   0.8685 B(  2-C ,  8-N ) :  -0.1189 B(  2-C , 12-H ) :   0.9999
B(  3-C ,  5-C ) :   0.1648 B(  3-C ,  7-C ) :   0.8685 B(  3-C ,  9-N ) :  -0.1189
B(  3-C , 13-H ) :   0.9999 B(  4-C ,  6-C ) :  -0.2265 B(  4-C ,  8-N ) :   1.1626
B(  4-C , 14-H ) :   0.4683 B(  5-C ,  7-C ) :  -0.2265 B(  5-C ,  9-N ) :   1.1626
B(  5-C , 15-H ) :   0.4683 B(  6-C ,  7-C ) :   0.5307 B(  6-C ,  8-N ) :   0.8535
B(  6-C ,  9-N ) :  -0.1554 B(  7-C ,  8-N ) :  -0.1554 B(  7-C ,  9-N ) :   0.8535
B(  8-N , 16-H ) :   1.1313 B(  9-N , 17-H ) :   1.1313

MP2 TOTAL ENERGY:     -418.328426392 Eh
FINAL SINGLE POINT ENERGY      -418.328426392171

DIPOLE MOMENT
-------------
                                X             Y             Z
Electronic contribution:     -0.00000      -0.00000      -0.23745
Nuclear contribution   :      0.00000       0.00000      -0.03283
                        -----------------------------------------
Total Dipole Moment    :     -0.00000      -0.00000      -0.27028
                        -----------------------------------------
Magnitude (a.u.)       :      0.27028
Magnitude (Debye)      :      0.68700

Rotational constants in cm-1:     0.151459     0.028160     0.024060
Rotational constants in MHz :  4540.630046   844.216713   721.301274

                             ****ORCA TERMINATED NORMALLY****
TOTAL RUN TIME: 0 days 0 hours 10 minutes 1 seconds 554 msec
