                         Program Version 5.0.3 -  RELEASE  -
|  1> !ri-mp2 aug-cc-pvtz aug-cc-pvtz/c tightscf
|  2> %pal nprocs 16 end
|  3>
|  4> * xyz 0 1
|  5> C     -0.983062   -2.154025    0.000000
|  6> C     -1.860094   -1.080555    0.000000
|  7> C      0.392477   -1.934250    0.000000
|  8> C     -1.369349    0.225898    0.000000
|  9> C      0.887643   -0.641461    0.000000
| 10> C      0.000000    0.446658    0.000000
| 11> C     -0.195214    2.837494    0.000000
| 12> O      2.233459   -0.428850    0.000000
| 13> O      0.616159    1.672471    0.000000
| 14> H     -1.361602   -3.166654    0.000000
| 15> H     -2.928255   -1.246184    0.000000
| 16> H      1.093761   -2.757095    0.000000
| 17> H     -2.058350    1.057052    0.000000
| 18> H     -0.824743    2.879274    0.891811
| 19> H     -0.824743    2.879274   -0.891811
| 20> H      0.488417    3.681876    0.000000
| 21> H      2.384168    0.524940    0.000000
| 22> *
| 23>
| 24>                          ****END OF INPUT****

CARTESIAN COORDINATES (ANGSTROEM)
---------------------------------
  C     -0.983062   -2.154025    0.000000
  C     -1.860094   -1.080555    0.000000
  C      0.392477   -1.934250    0.000000
  C     -1.369349    0.225898    0.000000
  C      0.887643   -0.641461    0.000000
  C      0.000000    0.446658    0.000000
  C     -0.195214    2.837494    0.000000
  O      2.233459   -0.428850    0.000000
  O      0.616159    1.672471    0.000000
  H     -1.361602   -3.166654    0.000000
  H     -2.928255   -1.246184    0.000000
  H      1.093761   -2.757095    0.000000
  H     -2.058350    1.057052    0.000000
  H     -0.824743    2.879274    0.891811
  H     -0.824743    2.879274   -0.891811
  H      0.488417    3.681876    0.000000
  H      2.384168    0.524940    0.000000

 Total Charge           Charge          ....    0
 Multiplicity           Mult            ....    1
 Number of Electrons    NEL             ....   66
 Basis Dimension        Dim             ....  598

ORBITAL ENERGIES
----------------

  NO   OCC          E(Eh)            E(eV)
   0   2.0000     -20.597580      -560.4886
   1   2.0000     -20.580984      -560.0370
   2   2.0000     -11.298634      -307.4515
   3   2.0000     -11.294756      -307.3459
   4   2.0000     -11.294241      -307.3319
   5   2.0000     -11.237758      -305.7950
   6   2.0000     -11.231000      -305.6111
   7   2.0000     -11.229699      -305.5756
   8   2.0000     -11.228308      -305.5378
   9   2.0000      -1.427086       -38.8330
  10   2.0000      -1.389614       -37.8133
  11   2.0000      -1.146447       -31.1964
  12   2.0000      -1.023007       -27.8374
  13   2.0000      -1.012867       -27.5615
  14   2.0000      -0.950579       -25.8666
  15   2.0000      -0.830968       -22.6118
  16   2.0000      -0.825831       -22.4720
  17   2.0000      -0.744769       -20.2662
  18   2.0000      -0.708331       -19.2747
  19   2.0000      -0.677423       -18.4336
  20   2.0000      -0.667896       -18.1744
  21   2.0000      -0.630927       -17.1684
  22   2.0000      -0.619935       -16.8693
  23   2.0000      -0.597269       -16.2525
  24   2.0000      -0.585805       -15.9406
  25   2.0000      -0.567617       -15.4456
  26   2.0000      -0.542550       -14.7635
  27   2.0000      -0.513992       -13.9864
  28   2.0000      -0.508779       -13.8446
  29   2.0000      -0.496055       -13.4983
  30   2.0000      -0.469472       -12.7750
  31   2.0000      -0.334052        -9.0900
  32   2.0000      -0.303282        -8.2527
  33   0.0000       0.025248         0.6870
  34   0.0000       0.032452         0.8831
  35   0.0000       0.036549         0.9945
  36   0.0000       0.044358         1.2070
  37   0.0000       0.047799         1.3007

MULLIKEN ATOMIC CHARGES
-----------------------
   0 C :   -0.543191
   1 C :   -0.567929
   2 C :   -0.935943
   3 C :   -0.550437
   4 C :    0.668286
   5 C :    1.120293
   6 C :   -0.938575
   7 O :   -0.836638
   8 O :   -0.714372
   9 H :    0.532474
  10 H :    0.401429
  11 H :    0.584406
  12 H :    0.448793
  13 H :    0.366767
  14 H :    0.366767
  15 H :    0.359600
  16 H :    0.238271
Sum of atomic charges:    0.0000000

LOEWDIN ATOMIC CHARGES
----------------------
   0 C :    0.178459
   1 C :    0.181939
   2 C :    0.205532
   3 C :    0.195603
   4 C :   -0.366614
   5 C :   -0.354447
   6 C :    0.353476
   7 O :    0.845385
   8 O :    0.580310
   9 H :   -0.188644
  10 H :   -0.190532
  11 H :   -0.181205
  12 H :   -0.202947
  13 H :   -0.172825
  14 H :   -0.172825
  15 H :   -0.179473
  16 H :   -0.531191

  Mayer bond orders larger than 0.100000
B(  0-C ,  1-C ) :   1.2353 B(  0-C ,  2-C ) :   1.3184 B(  0-C ,  9-H ) :   0.6090
B(  1-C ,  3-C ) :   1.0974 B(  1-C ,  4-C ) :   0.1516 B(  1-C ,  5-C ) :  -0.3304
B(  1-C , 10-H ) :   0.8801 B(  2-C ,  4-C ) :   0.9517 B(  2-C , 11-H ) :   0.4685
B(  3-C ,  5-C ) :   0.9231 B(  3-C ,  8-O ) :  -0.4037 B(  3-C , 10-H ) :  -0.1114
B(  3-C , 12-H ) :   0.7227 B(  4-C ,  5-C ) :   1.3032 B(  4-C ,  7-O ) :   0.3157
B(  4-C ,  8-O ) :   0.2097 B(  5-C ,  8-O ) :   0.4264 B(  6-C ,  8-O ) :   1.0751
B(  6-C , 13-H ) :   0.8680 B(  6-C , 14-H ) :   0.8680 B(  6-C , 15-H ) :   0.9325
B(  7-O , 16-H ) :   0.9766

MP2 TOTAL ENERGY:     -421.218604009 Eh
FINAL SINGLE POINT ENERGY      -421.218604008557

DIPOLE MOMENT
-------------
                                X             Y             Z
Electronic contribution:      3.33785      -2.96129      -0.00000
Nuclear contribution   :     -3.98045       3.86628       0.00000
                        -----------------------------------------
Total Dipole Moment    :     -0.64259       0.90499      -0.00000
                        -----------------------------------------
Magnitude (a.u.)       :      1.10993
Magnitude (Debye)      :      2.82121

Rotational constants in cm-1:     0.087359     0.051898     0.032760
Rotational constants in MHz :  2618.969385  1555.869052   982.113791

                             ****ORCA TERMINATED NORMALLY****
TOTAL RUN TIME: 0 days 0 hours 8 minutes 1 seconds 293 msec
