                         Program Version 5.0.3 -  RELEASE  -
|  1> !ri-mp2 aug-cc-pvtz aug-cc-pvtz/c tightscf
|  2> %pal nprocs 16 end
|  3>
|  4> * xyz 0 1
|  5> C     0.000000    0.000000     0.352403
|  6> Cl    1.474178    0.000000    -0.722182
|  7> Cl   -1.474178    0.000000    -0.722182
|  8> C     0.000000    1.271429     1.177208
|  9> C     0.000000   -1.271429     1.177208
| 10> H     0.000000    2.149972     0.537521
| 11> H     0.000000   -2.149972     0.537521
| 12> H    -0.887342    1.294212     1.809560
| 13> H     0.887342    1.294212     1.809560
| 14> H     0.887342   -1.294212     1.809560
| 15> H    -0.887342   -1.294212     1.809560
| 16> *
| 17>
| 18>                          ****END OF INPUT****

CARTESIAN COORDINATES (ANGSTROEM)
---------------------------------
  C      0.000000    0.000000    0.352403
  Cl     1.474178    0.000000   -0.722182
  Cl    -1.474178    0.000000   -0.722182
  C      0.000000    1.271429    1.177208
  C      0.000000   -1.271429    1.177208
  H      0.000000    2.149972    0.537521
  H      0.000000   -2.149972    0.537521
  H     -0.887342    1.294212    1.809560
  H      0.887342    1.294212    1.809560
  H      0.887342   -1.294212    1.809560
  H     -0.887342   -1.294212    1.809560

 Total Charge           Charge          ....    0
 Multiplicity           Mult            ....    1
 Number of Electrons    NEL             ....   58
 Basis Dimension        Dim             ....  376

ORBITAL ENERGIES
----------------

  NO   OCC          E(Eh)            E(eV)
   0   2.0000    -104.836220     -2852.7386
   1   2.0000    -104.836220     -2852.7386
   2   2.0000     -11.379046      -309.6396
   3   2.0000     -11.247073      -306.0484
   4   2.0000     -11.247059      -306.0480
   5   2.0000     -10.560458      -287.3647
   6   2.0000     -10.560450      -287.3645
   7   2.0000      -8.027139      -218.4296
   8   2.0000      -8.027139      -218.4296
   9   2.0000      -8.025361      -218.3812
  10   2.0000      -8.025360      -218.3812
  11   2.0000      -8.025310      -218.3798
  12   2.0000      -8.025310      -218.3798
  13   2.0000      -1.195623       -32.5345
  14   2.0000      -1.080379       -29.3986
  15   2.0000      -1.022568       -27.8255
  16   2.0000      -0.975848       -26.5542
  17   2.0000      -0.777215       -21.1491
  18   2.0000      -0.646298       -17.5867
  19   2.0000      -0.639144       -17.3920
  20   2.0000      -0.623888       -16.9769
  21   2.0000      -0.577365       -15.7109
  22   2.0000      -0.539637       -14.6843
  23   2.0000      -0.536572       -14.6009
  24   2.0000      -0.511078       -13.9071
  25   2.0000      -0.462426       -12.5832
  26   2.0000      -0.454984       -12.3807
  27   2.0000      -0.442101       -12.0302
  28   2.0000      -0.432683       -11.7739
  29   0.0000       0.028422         0.7734
  30   0.0000       0.038918         1.0590
  31   0.0000       0.044169         1.2019
  32   0.0000       0.049050         1.3347
  33   0.0000       0.061005         1.6600

MULLIKEN ATOMIC CHARGES
-----------------------
   0 C :    0.903670
   1 Cl:   -0.455268
   2 Cl:   -0.455268
   3 C :   -0.964145
   4 C :   -0.964145
   5 H :    0.367327
   6 H :    0.367327
   7 H :    0.300126
   8 H :    0.300126
   9 H :    0.300126
  10 H :    0.300126
Sum of atomic charges:    0.0000000

LOEWDIN ATOMIC CHARGES
----------------------
   0 C :   -1.428636
   1 Cl:    0.884091
   2 Cl:    0.884091
   3 C :    0.395265
   4 C :    0.395265
   5 H :   -0.198387
   6 H :   -0.198387
   7 H :   -0.183325
   8 H :   -0.183325
   9 H :   -0.183325
  10 H :   -0.183325

  Mayer bond orders larger than 0.100000
B(  0-C ,  1-Cl) :   0.6621 B(  0-C ,  2-Cl) :   0.6621 B(  0-C ,  3-C ) :   0.7775
B(  0-C ,  4-C ) :   0.7775 B(  3-C ,  5-H ) :   0.9300 B(  3-C ,  7-H ) :   0.9170
B(  3-C ,  8-H ) :   0.9170 B(  4-C ,  6-H ) :   0.9300 B(  4-C ,  9-H ) :   0.9170
B(  4-C , 10-H ) :   0.9170

MP2 TOTAL ENERGY:    -1037.110731601 Eh
FINAL SINGLE POINT ENERGY     -1037.110731600604

DIPOLE MOMENT
-------------
                                X             Y             Z
Electronic contribution:      0.00000      -0.00000      -8.97919
Nuclear contribution   :      0.00000       0.00000      10.00681
                        -----------------------------------------
Total Dipole Moment    :      0.00000      -0.00000       1.02761
                        -----------------------------------------
Magnitude (a.u.)       :      1.02761
Magnitude (Debye)      :      2.61198

Rotational constants in cm-1:     0.120834     0.079453     0.069696
Rotational constants in MHz :  3622.516209  2381.930111  2089.435326

                             ****ORCA TERMINATED NORMALLY****
TOTAL RUN TIME: 0 days 0 hours 2 minutes 3 seconds 884 msec
