                         Program Version 5.0.3 -  RELEASE  -
|  1> !ri-mp2 aug-cc-pvtz aug-cc-pvtz/c tightscf
|  2> %pal nprocs 16 end
|  3> %maxcore 3800
|  4>
|  5> * xyz 0 1
|  6> C      1.213746   -0.485195   -0.451299
|  7> C     -0.186751    1.291886   -0.452061
|  8> C     -1.025519   -0.809540   -0.451492
|  9> C      3.106193   -1.226077    1.022311
| 10> C     -0.489286    3.302497    1.020270
| 11> C     -2.620272   -2.070057    1.021573
| 12> C      2.607524   -1.040956   -0.418867
| 13> C     -0.402257    2.776850   -0.420576
| 14> C     -2.203885   -1.738495   -0.419487
| 15> N      1.071093    0.842916   -0.451579
| 16> N      0.196001   -1.350037   -0.450873
| 17> N     -1.265574    0.504278   -0.451645
| 18> H      3.118887   -0.274436    1.553900
| 19> H      4.118823   -1.629272    1.024095
| 20> H      2.464865   -1.917378    1.569345
| 21> H     -1.319148    2.838266    1.553364
| 22> H     -0.646245    4.381085    1.021356
| 23> H      0.430754    3.093039    1.566254
| 24> H     -1.805223   -2.554587    1.559462
| 25> H     -3.476138   -2.744948    1.022972
| 26> H     -2.900234   -1.165995    1.562599
| 27> H      2.608917   -2.000696   -0.934359
| 28> H      3.265833   -0.353860   -0.949473
| 29> H      0.427560    3.257459   -0.937555
| 30> H     -1.327118    3.003015   -0.950185
| 31> H     -3.033410   -1.262410   -0.941151
| 32> H     -1.935724   -2.654865   -0.944181
| 33> *
| 34>
| 35>                          ****END OF INPUT****

CARTESIAN COORDINATES (ANGSTROEM)
---------------------------------
  C      1.213746   -0.485195   -0.451299
  C     -0.186751    1.291886   -0.452061
  C     -1.025519   -0.809540   -0.451492
  C      3.106193   -1.226077    1.022311
  C     -0.489286    3.302497    1.020270
  C     -2.620272   -2.070057    1.021573
  C      2.607524   -1.040956   -0.418867
  C     -0.402257    2.776850   -0.420576
  C     -2.203885   -1.738495   -0.419487
  N      1.071093    0.842916   -0.451579
  N      0.196001   -1.350037   -0.450873
  N     -1.265574    0.504278   -0.451645
  H      3.118887   -0.274436    1.553900
  H      4.118823   -1.629272    1.024095
  H      2.464865   -1.917378    1.569345
  H     -1.319148    2.838266    1.553364
  H     -0.646245    4.381085    1.021356
  H      0.430754    3.093039    1.566254
  H     -1.805223   -2.554587    1.559462
  H     -3.476138   -2.744948    1.022972
  H     -2.900234   -1.165995    1.562599
  H      2.608917   -2.000696   -0.934359
  H      3.265833   -0.353860   -0.949473
  H      0.427560    3.257459   -0.937555
  H     -1.327118    3.003015   -0.950185
  H     -3.033410   -1.262410   -0.941151
  H     -1.935724   -2.654865   -0.944181

 Total Charge           Charge          ....    0
 Multiplicity           Mult            ....    1
 Number of Electrons    NEL             ....   90
 Basis Dimension        Dim             ....  897

ORBITAL ENERGIES
----------------

  NO   OCC          E(Eh)            E(eV)
   0   2.0000     -15.557228      -423.3337
   1   2.0000     -15.557218      -423.3334
   2   2.0000     -15.557182      -423.3324
   3   2.0000     -11.325596      -308.1851
   4   2.0000     -11.325594      -308.1851
   5   2.0000     -11.325582      -308.1847
   6   2.0000     -11.231147      -305.6151
   7   2.0000     -11.231144      -305.6150
   8   2.0000     -11.231142      -305.6149
   9   2.0000     -11.222212      -305.3719
  10   2.0000     -11.222211      -305.3719
  11   2.0000     -11.222207      -305.3718
  12   2.0000      -1.345874       -36.6231
  13   2.0000      -1.202823       -32.7305
  14   2.0000      -1.202815       -32.7303
  15   2.0000      -1.051791       -28.6207
  16   2.0000      -1.051764       -28.6199
  17   2.0000      -1.041214       -28.3329
  18   2.0000      -0.919238       -25.0137
  19   2.0000      -0.919195       -25.0126
  20   2.0000      -0.874404       -23.7938
  21   2.0000      -0.804008       -21.8782
  22   2.0000      -0.803960       -21.8769
  23   2.0000      -0.748009       -20.3544
  24   2.0000      -0.670184       -18.2366
  25   2.0000      -0.619746       -16.8641
  26   2.0000      -0.619737       -16.8639
  27   2.0000      -0.613626       -16.6976
  28   2.0000      -0.595757       -16.2114
  29   2.0000      -0.595654       -16.2086
  30   2.0000      -0.595591       -16.2068
  31   2.0000      -0.563597       -15.3362
  32   2.0000      -0.536634       -14.6026
  33   2.0000      -0.536599       -14.6016
  34   2.0000      -0.518003       -14.0956
  35   2.0000      -0.511219       -13.9110
  36   2.0000      -0.511211       -13.9107
  37   2.0000      -0.500819       -13.6280
  38   2.0000      -0.495819       -13.4919
  39   2.0000      -0.495804       -13.4915
  40   2.0000      -0.494981       -13.4691
  41   2.0000      -0.413223       -11.2444
  42   2.0000      -0.413215       -11.2442
  43   2.0000      -0.406542       -11.0626
  44   2.0000      -0.406512       -11.0618
  45   0.0000       0.029167         0.7937
  46   0.0000       0.031132         0.8471
  47   0.0000       0.031134         0.8472
  48   0.0000       0.037661         1.0248
  49   0.0000       0.046393         1.2624

MULLIKEN ATOMIC CHARGES
-----------------------
   0 C :    0.676167
   1 C :    0.674625
   2 C :    0.675727
   3 C :   -0.942742
   4 C :   -0.942943
   5 C :   -0.942766
   6 C :   -0.383516
   7 C :   -0.383546
   8 C :   -0.383658
   9 N :   -0.712690
  10 N :   -0.713186
  11 N :   -0.712307
  12 H :    0.298346
  13 H :    0.282102
  14 H :    0.297524
  15 H :    0.298353
  16 H :    0.281954
  17 H :    0.297742
  18 H :    0.297830
  19 H :    0.282050
  20 H :    0.298097
  21 H :    0.243221
  22 H :    0.242472
  23 H :    0.243067
  24 H :    0.242459
  25 H :    0.242696
  26 H :    0.242919
Sum of atomic charges:   -0.0000000

LOEWDIN ATOMIC CHARGES
----------------------
   0 C :   -0.472432
   1 C :   -0.472416
   2 C :   -0.472407
   3 C :    0.591193
   4 C :    0.591193
   5 C :    0.591204
   6 C :    0.264756
   7 C :    0.264764
   8 C :    0.264769
   9 N :    0.443016
  10 N :    0.443054
  11 N :    0.442989
  12 H :   -0.169663
  13 H :   -0.170646
  14 H :   -0.169497
  15 H :   -0.169650
  16 H :   -0.170645
  17 H :   -0.169506
  18 H :   -0.169596
  19 H :   -0.170651
  20 H :   -0.169562
  21 H :   -0.158551
  22 H :   -0.158205
  23 H :   -0.158528
  24 H :   -0.158225
  25 H :   -0.158421
  26 H :   -0.158338

  Mayer bond orders larger than 0.100000
B(  0-C ,  1-C ) :  -0.2839 B(  0-C ,  2-C ) :  -0.2842 B(  0-C ,  3-C ) :   0.1192
B(  0-C ,  6-C ) :   0.3541 B(  0-C ,  9-N ) :   0.4225 B(  0-C , 10-N ) :   0.4245
B(  1-C ,  2-C ) :  -0.2837 B(  1-C ,  4-C ) :   0.1193 B(  1-C ,  7-C ) :   0.3550
B(  1-C ,  9-N ) :   0.4256 B(  1-C , 11-N ) :   0.4236 B(  2-C ,  5-C ) :   0.1193
B(  2-C ,  8-C ) :   0.3544 B(  2-C , 10-N ) :   0.4222 B(  2-C , 11-N ) :   0.4256
B(  3-C ,  6-C ) :   0.9008 B(  3-C , 12-H ) :   0.9117 B(  3-C , 13-H ) :   0.9698
B(  3-C , 14-H ) :   0.9124 B(  4-C ,  7-C ) :   0.9008 B(  4-C , 15-H ) :   0.9116
B(  4-C , 16-H ) :   0.9700 B(  4-C , 17-H ) :   0.9122 B(  5-C ,  8-C ) :   0.9008
B(  5-C , 18-H ) :   0.9121 B(  5-C , 19-H ) :   0.9699 B(  5-C , 20-H ) :   0.9119
B(  6-C , 21-H ) :   0.9984 B(  6-C , 22-H ) :   1.0008 B(  7-C , 23-H ) :   0.9986
B(  7-C , 24-H ) :   1.0007 B(  8-C , 25-H ) :   0.9994 B(  8-C , 26-H ) :   0.9999
B(  9-N , 10-N ) :   0.1826 B(  9-N , 11-N ) :   0.1824 B( 10-N , 11-N ) :   0.1825

MP2 TOTAL ENERGY:     -515.234364851 Eh
FINAL SINGLE POINT ENERGY      -515.234364851153

DIPOLE MOMENT
-------------
                                X             Y             Z
Electronic contribution:      0.00738      -0.01418      -6.76761
Nuclear contribution   :     -0.00777       0.01473       6.92360
                        -----------------------------------------
Total Dipole Moment    :     -0.00038       0.00055       0.15599
                        -----------------------------------------
Magnitude (a.u.)       :      0.15599
Magnitude (Debye)      :      0.39649

Rotational constants in cm-1:     0.028725     0.028681     0.016708
Rotational constants in MHz :   861.159360   859.827491   500.903831

                             ****ORCA TERMINATED NORMALLY****
TOTAL RUN TIME: 0 days 0 hours 22 minutes 52 seconds 207 msec
