                         Program Version 5.0.3 -  RELEASE  -
|  1> !ri-mp2 aug-cc-pvtz aug-cc-pvtz/c tightscf
|  2> %pal nprocs 16 end
|  3> %maxcore 3800
|  4>
|  5> * xyz 0 1
|  6> C     -0.868384    3.234895    0.000000
|  7> C     -0.219571   -2.152365    1.263450
|  8> C     -0.219571   -2.152365   -1.263450
|  9> C      0.268040    2.213869    0.000000
| 10> C     -0.219571    0.763488    0.000000
| 11> C      0.930524   -0.247686    0.000000
| 12> C      0.542679   -1.739197    0.000000
| 13> H     -0.486911    4.257021    0.000000
| 14> H     -1.503449    3.118553   -0.880742
| 15> H     -1.503449    3.118553    0.880742
| 16> H     -1.205277   -1.685922    1.310069
| 17> H     -0.370188   -3.233066    1.289312
| 18> H      0.325690   -1.871056    2.166571
| 19> H     -1.205277   -1.685922   -1.310069
| 20> H     -0.370188   -3.233066   -1.289312
| 21> H      0.325690   -1.871056   -2.166571
| 22> H      0.905576    2.378650    0.873933
| 23> H      0.905576    2.378650   -0.873933
| 24> H     -0.856827    0.606146    0.874834
| 25> H     -0.856827    0.606146   -0.874834
| 26> H      1.561967   -0.056811   -0.873944
| 27> H      1.561967   -0.056811    0.873944
| 28> H      1.487050   -2.293848    0.000000
| 29> *
| 30>
| 31>                          ****END OF INPUT****

CARTESIAN COORDINATES (ANGSTROEM)
---------------------------------
  C     -0.868384    3.234895    0.000000
  C     -0.219571   -2.152365    1.263450
  C     -0.219571   -2.152365   -1.263450
  C      0.268040    2.213869    0.000000
  C     -0.219571    0.763488    0.000000
  C      0.930524   -0.247686    0.000000
  C      0.542679   -1.739197    0.000000
  H     -0.486911    4.257021    0.000000
  H     -1.503449    3.118553   -0.880742
  H     -1.503449    3.118553    0.880742
  H     -1.205277   -1.685922    1.310069
  H     -0.370188   -3.233066    1.289312
  H      0.325690   -1.871056    2.166571
  H     -1.205277   -1.685922   -1.310069
  H     -0.370188   -3.233066   -1.289312
  H      0.325690   -1.871056   -2.166571
  H      0.905576    2.378650    0.873933
  H      0.905576    2.378650   -0.873933
  H     -0.856827    0.606146    0.874834
  H     -0.856827    0.606146   -0.874834
  H      1.561967   -0.056811   -0.873944
  H      1.561967   -0.056811    0.873944
  H      1.487050   -2.293848    0.000000

 Total Charge           Charge          ....    0
 Multiplicity           Mult            ....    1
 Number of Electrons    NEL             ....   58
 Basis Dimension        Dim             ....  690

ORBITAL ENERGIES
----------------

  NO   OCC          E(Eh)            E(eV)
   0   2.0000     -11.221742      -305.3591
   1   2.0000     -11.214113      -305.1515
   2   2.0000     -11.211427      -305.0784
   3   2.0000     -11.210667      -305.0578
   4   2.0000     -11.208263      -304.9923
   5   2.0000     -11.206505      -304.9445
   6   2.0000     -11.206482      -304.9439
   7   2.0000      -1.093748       -29.7624
   8   2.0000      -1.047726       -28.5101
   9   2.0000      -0.963787       -26.2260
  10   2.0000      -0.925461       -25.1831
  11   2.0000      -0.870605       -23.6904
  12   2.0000      -0.798020       -21.7152
  13   2.0000      -0.746022       -20.3003
  14   2.0000      -0.640773       -17.4363
  15   2.0000      -0.625878       -17.0310
  16   2.0000      -0.592899       -16.1336
  17   2.0000      -0.586312       -15.9544
  18   2.0000      -0.570834       -15.5332
  19   2.0000      -0.544435       -14.8148
  20   2.0000      -0.532866       -14.5000
  21   2.0000      -0.522753       -14.2248
  22   2.0000      -0.496163       -13.5013
  23   2.0000      -0.492707       -13.4073
  24   2.0000      -0.478117       -13.0102
  25   2.0000      -0.465453       -12.6656
  26   2.0000      -0.450963       -12.2713
  27   2.0000      -0.443248       -12.0614
  28   2.0000      -0.432847       -11.7784
  29   0.0000       0.029701         0.8082
  30   0.0000       0.032648         0.8884
  31   0.0000       0.035938         0.9779
  32   0.0000       0.036555         0.9947
  33   0.0000       0.048421         1.3176

MULLIKEN ATOMIC CHARGES
-----------------------
   0 C :   -1.003055
   1 C :   -1.098155
   2 C :   -1.098155
   3 C :   -0.492972
   4 C :   -0.255775
   5 C :   -0.472779
   6 C :    0.266917
   7 H :    0.278898
   8 H :    0.258185
   9 H :    0.258185
  10 H :    0.296400
  11 H :    0.242416
  12 H :    0.250346
  13 H :    0.296400
  14 H :    0.242416
  15 H :    0.250346
  16 H :    0.231802
  17 H :    0.231802
  18 H :    0.221637
  19 H :    0.221637
  20 H :    0.245475
  21 H :    0.245475
  22 H :    0.382556
Sum of atomic charges:   -0.0000000

LOEWDIN ATOMIC CHARGES
----------------------
   0 C :    0.579774
   1 C :    0.583876
   2 C :    0.583876
   3 C :    0.260287
   4 C :    0.270028
   5 C :    0.291497
   6 C :   -0.043259
   7 H :   -0.174283
   8 H :   -0.171441
   9 H :   -0.171441
  10 H :   -0.170971
  11 H :   -0.165413
  12 H :   -0.161596
  13 H :   -0.170971
  14 H :   -0.165413
  15 H :   -0.161596
  16 H :   -0.147056
  17 H :   -0.147056
  18 H :   -0.148642
  19 H :   -0.148642
  20 H :   -0.142209
  21 H :   -0.142209
  22 H :   -0.137138

  Mayer bond orders larger than 0.100000
B(  0-C ,  3-C ) :   0.9108 B(  0-C ,  7-H ) :   0.9910 B(  0-C ,  8-H ) :   0.9721
B(  0-C ,  9-H ) :   0.9721 B(  1-C ,  2-C ) :   0.2029 B(  1-C ,  6-C ) :   0.7252
B(  1-C , 10-H ) :   0.9616 B(  1-C , 11-H ) :   1.0294 B(  1-C , 12-H ) :   0.9925
B(  2-C ,  6-C ) :   0.7252 B(  2-C , 13-H ) :   0.9616 B(  2-C , 14-H ) :   1.0294
B(  2-C , 15-H ) :   0.9925 B(  3-C ,  4-C ) :   0.8680 B(  3-C , 16-H ) :   0.9807
B(  3-C , 17-H ) :   0.9807 B(  4-C ,  5-C ) :   0.8788 B(  4-C , 18-H ) :   0.9749
B(  4-C , 19-H ) :   0.9749 B(  5-C ,  6-C ) :   0.9285 B(  5-C , 20-H ) :   0.9395
B(  5-C , 21-H ) :   0.9395 B(  6-C , 22-H ) :   0.8248

MP2 TOTAL ENERGY:     -275.761022783 Eh
FINAL SINGLE POINT ENERGY      -275.761022783222

DIPOLE MOMENT
-------------
                                X             Y             Z
Electronic contribution:      1.44918      -0.53393      -0.00000
Nuclear contribution   :     -1.39673       0.51761       0.00000
                        -----------------------------------------
Total Dipole Moment    :      0.05245      -0.01632      -0.00000
                        -----------------------------------------
Magnitude (a.u.)       :      0.05493
Magnitude (Debye)      :      0.13963

Rotational constants in cm-1:     0.166618     0.035627     0.034151
Rotational constants in MHz :  4995.086912  1068.056329  1023.831679

                             ****ORCA TERMINATED NORMALLY****
TOTAL RUN TIME: 0 days 0 hours 10 minutes 4 seconds 236 msec
