                         Program Version 5.0.3 -  RELEASE  -
|  1> !ri-mp2 aug-cc-pvtz aug-cc-pvtz/c tightscf
|  2> %pal nprocs 16 end
|  3>
|  4> * xyz 0 1
|  5> F    -1.745208   -0.927739   -0.493927
|  6> F    -1.346524    0.380082    1.235265
|  7> O     2.196225   -0.085244    0.474269
|  8> O     0.848450   -1.764507   -0.054074
|  9> N     0.475358    1.931411   -0.401493
| 10> C     0.139589    0.538365   -0.608811
| 11> C    -1.288396    0.325650   -0.123236
| 12> C     1.157136   -0.455672    0.009476
| 13> H    -0.057623   -1.892498   -0.368997
| 14> H     1.337386    2.150616   -0.884107
| 15> H     0.664237    2.091296    0.582030
| 16> H     0.119355    0.341464   -1.684857
| 17> H    -1.972645    1.066109   -0.531789
| 18> *
| 19>
| 20>                          ****END OF INPUT****

CARTESIAN COORDINATES (ANGSTROEM)
---------------------------------
  F     -1.745208   -0.927739   -0.493927
  F     -1.346524    0.380082    1.235265
  O      2.196225   -0.085244    0.474269
  O      0.848450   -1.764507   -0.054074
  N      0.475358    1.931411   -0.401493
  C      0.139589    0.538365   -0.608811
  C     -1.288396    0.325650   -0.123236
  C      1.157136   -0.455672    0.009476
  H     -0.057623   -1.892498   -0.368997
  H      1.337386    2.150616   -0.884107
  H      0.664237    2.091296    0.582030
  H      0.119355    0.341464   -1.684857
  H     -1.972645    1.066109   -0.531789

 Total Charge           Charge          ....    0
 Multiplicity           Mult            ....    1
 Number of Electrons    NEL             ....   64
 Basis Dimension        Dim             ....  483

ORBITAL ENERGIES
----------------

  NO   OCC          E(Eh)            E(eV)
   0   2.0000     -26.346396      -716.9219
   1   2.0000     -26.338279      -716.7010
   2   2.0000     -20.621774      -561.1470
   3   2.0000     -20.561212      -559.4990
   4   2.0000     -15.578530      -423.9134
   5   2.0000     -11.439366      -311.2810
   6   2.0000     -11.400589      -310.2258
   7   2.0000     -11.320165      -308.0373
   8   2.0000      -1.688995       -45.9599
   9   2.0000      -1.629331       -44.3364
  10   2.0000      -1.474584       -40.1255
  11   2.0000      -1.380890       -37.5759
  12   2.0000      -1.233917       -33.5766
  13   2.0000      -1.048977       -28.5441
  14   2.0000      -0.935420       -25.4541
  15   2.0000      -0.847868       -23.0717
  16   2.0000      -0.814206       -22.1557
  17   2.0000      -0.791120       -21.5275
  18   2.0000      -0.775464       -21.1014
  19   2.0000      -0.739265       -20.1164
  20   2.0000      -0.710410       -19.3312
  21   2.0000      -0.687585       -18.7101
  22   2.0000      -0.674691       -18.3593
  23   2.0000      -0.659461       -17.9448
  24   2.0000      -0.643576       -17.5126
  25   2.0000      -0.631135       -17.1741
  26   2.0000      -0.600839       -16.3497
  27   2.0000      -0.587419       -15.9845
  28   2.0000      -0.548628       -14.9289
  29   2.0000      -0.493076       -13.4173
  30   2.0000      -0.477243       -12.9865
  31   2.0000      -0.436977       -11.8908
  32   0.0000       0.023316         0.6344
  33   0.0000       0.035750         0.9728
  34   0.0000       0.037818         1.0291
  35   0.0000       0.045276         1.2320
  36   0.0000       0.062578         1.7028

MULLIKEN ATOMIC CHARGES
-----------------------
   0 F :   -0.504033
   1 F :   -0.485304
   2 O :   -0.736044
   3 O :   -0.488811
   4 N :   -0.671796
   5 C :    0.506192
   6 C :    0.511601
   7 C :    0.578409
   8 H :    0.289167
   9 H :    0.106014
  10 H :    0.128084
  11 H :    0.371843
  12 H :    0.394678
Sum of atomic charges:   -0.0000000

LOEWDIN ATOMIC CHARGES
----------------------
   0 F :    0.518819
   1 F :    0.503603
   2 O :    0.449547
   3 O :    0.851681
   4 N :    0.847133
   5 C :   -0.165474
   6 C :   -0.718097
   7 C :   -0.764495
   8 H :   -0.587807
   9 H :   -0.309852
  10 H :   -0.315946
  11 H :   -0.143746
  12 H :   -0.165366

  Mayer bond orders larger than 0.100000
B(  0-F ,  6-C ) :   0.7214 B(  1-F ,  6-C ) :   0.7048 B(  2-O ,  7-C ) :   1.5309
B(  3-O ,  7-C ) :   0.8574 B(  3-O ,  8-H ) :   0.9080 B(  4-N ,  5-C ) :   0.4906
B(  4-N ,  6-C ) :   0.1101 B(  4-N ,  9-H ) :   0.9926 B(  4-N , 10-H ) :   0.9726
B(  5-C ,  6-C ) :   0.9210 B(  5-C ,  7-C ) :   0.7345 B(  5-C , 11-H ) :   0.8514
B(  6-C , 12-H ) :   0.8920

MP2 TOTAL ENERGY:     -521.486954747 Eh
FINAL SINGLE POINT ENERGY      -521.486954747214

DIPOLE MOMENT
-------------
                                X             Y             Z
Electronic contribution:     -3.94332      -3.58009       2.42047
Nuclear contribution   :      3.07027       4.11312      -3.47460
                        -----------------------------------------
Total Dipole Moment    :     -0.87304       0.53304      -1.05413
                        -----------------------------------------
Magnitude (a.u.)       :      1.46885
Magnitude (Debye)      :      3.73352

Rotational constants in cm-1:     0.088365     0.061308     0.045697
Rotational constants in MHz :  2649.119520  1837.975396  1369.966112

                             ****ORCA TERMINATED NORMALLY****
TOTAL RUN TIME: 0 days 0 hours 3 minutes 48 seconds 434 msec
