                         Program Version 5.0.3 -  RELEASE  -
|  1> !ri-mp2 aug-cc-pvtz aug-cc-pvtz/c tightscf
|  2> %pal nprocs 16 end
|  3>
|  4> * xyz 0 1
|  5> C     -0.431809    1.690207   -0.000125
|  6> C      0.097948    0.460822   -0.000034
|  7> C      1.557665    0.319248   -0.000030
|  8> C      2.248973   -0.821807    0.000057
|  9> C     -0.736939   -0.798581    0.000064
| 10> H      0.202753    2.566781   -0.000196
| 11> H     -1.497262    1.864489   -0.000133
| 12> H      2.107527    1.255021   -0.000107
| 13> H      1.772778   -1.792680    0.000137
| 14> H      3.330020   -0.814825    0.000051
| 15> C     -2.250834   -0.611254    0.000050
| 16> H     -0.448920   -1.398382   -0.868916
| 17> H     -0.448919   -1.398250    0.869134
| 18> H     -2.589661   -0.066300    0.881969
| 19> H     -2.748682   -1.581216    0.000132
| 20> H     -2.589661   -0.066449   -0.881960
| 21> *
| 22>
| 23>                          ****END OF INPUT****

CARTESIAN COORDINATES (ANGSTROEM)
---------------------------------
  C     -0.431809    1.690207   -0.000125
  C      0.097948    0.460822   -0.000034
  C      1.557665    0.319248   -0.000030
  C      2.248973   -0.821807    0.000057
  C     -0.736939   -0.798581    0.000064
  H      0.202753    2.566781   -0.000196
  H     -1.497262    1.864489   -0.000133
  H      2.107527    1.255021   -0.000107
  H      1.772778   -1.792680    0.000137
  H      3.330020   -0.814825    0.000051
  C     -2.250834   -0.611254    0.000050
  H     -0.448920   -1.398382   -0.868916
  H     -0.448919   -1.398250    0.869134
  H     -2.589661   -0.066300    0.881969
  H     -2.748682   -1.581216    0.000132
  H     -2.589661   -0.066449   -0.881960

 Total Charge           Charge          ....    0
 Multiplicity           Mult            ....    1
 Number of Electrons    NEL             ....   46
 Basis Dimension        Dim             ....  506

ORBITAL ENERGIES
----------------

  NO   OCC          E(Eh)            E(eV)
   0   2.0000     -11.241857      -305.9065
   1   2.0000     -11.235050      -305.7212
   2   2.0000     -11.227567      -305.5176
   3   2.0000     -11.224250      -305.4274
   4   2.0000     -11.220122      -305.3151
   5   2.0000     -11.215247      -305.1824
   6   2.0000      -1.114635       -30.3308
   7   2.0000      -1.027324       -27.9549
   8   2.0000      -0.983176       -26.7536
   9   2.0000      -0.872122       -23.7316
  10   2.0000      -0.810340       -22.0505
  11   2.0000      -0.708889       -19.2899
  12   2.0000      -0.647957       -17.6318
  13   2.0000      -0.639342       -17.3974
  14   2.0000      -0.615261       -16.7421
  15   2.0000      -0.565006       -15.3746
  16   2.0000      -0.538733       -14.6597
  17   2.0000      -0.538181       -14.6447
  18   2.0000      -0.505866       -13.7653
  19   2.0000      -0.495049       -13.4710
  20   2.0000      -0.469444       -12.7742
  21   2.0000      -0.420784       -11.4501
  22   2.0000      -0.321464        -8.7475
  23   0.0000       0.029999         0.8163
  24   0.0000       0.033396         0.9088
  25   0.0000       0.034678         0.9436
  26   0.0000       0.043939         1.1956
  27   0.0000       0.049229         1.3396

MULLIKEN ATOMIC CHARGES
-----------------------
   0 C :   -1.590227
   1 C :    1.527618
   2 C :   -0.332286
   3 C :   -1.134835
   4 C :   -0.255979
   5 H :    0.293290
   6 H :    0.366798
   7 H :    0.017836
   8 H :    0.188313
   9 H :    0.473568
  10 C :   -0.893093
  11 H :    0.258795
  12 H :    0.258795
  13 H :    0.275698
  14 H :    0.270010
  15 H :    0.275699
Sum of atomic charges:    0.0000000

LOEWDIN ATOMIC CHARGES
----------------------
   0 C :    0.550517
   1 C :   -0.142424
   2 C :    0.163389
   3 C :    0.534660
   4 C :    0.236123
   5 H :   -0.217358
   6 H :   -0.227500
   7 H :   -0.199906
   8 H :   -0.228127
   9 H :   -0.224011
  10 C :    0.569242
  11 H :   -0.152445
  12 H :   -0.152445
  13 H :   -0.170237
  14 H :   -0.169242
  15 H :   -0.170237

  Mayer bond orders larger than 0.100000
B(  0-C ,  1-C ) :   0.5070 B(  0-C ,  2-C ) :   0.1815 B(  0-C ,  3-C ) :   0.1088
B(  0-C ,  4-C ) :  -0.1055 B(  0-C ,  5-H ) :   1.1098 B(  0-C ,  6-H ) :   0.8876
B(  1-C ,  2-C ) :   0.3490 B(  1-C ,  3-C ) :   0.1298 B(  1-C ,  4-C ) :   0.6504
B(  1-C ,  7-H ) :  -0.1204 B(  1-C , 10-C ) :   0.1103 B(  2-C ,  3-C ) :   1.1297
B(  2-C ,  7-H ) :   1.5164 B(  3-C ,  4-C ) :  -0.1327 B(  3-C ,  8-H ) :   1.2765
B(  3-C ,  9-H ) :   0.6879 B(  4-C , 10-C ) :   0.8197 B(  4-C , 11-H ) :   0.9961
B(  4-C , 12-H ) :   0.9961 B( 10-C , 13-H ) :   0.9631 B( 10-C , 14-H ) :   0.9845
B( 10-C , 15-H ) :   0.9631

MP2 TOTAL ENERGY:     -234.093499866 Eh
FINAL SINGLE POINT ENERGY      -234.093499865644

DIPOLE MOMENT
-------------
                                X             Y             Z
Electronic contribution:      2.96147       1.39596      -0.00011
Nuclear contribution   :     -3.06042      -1.50581       0.00012
                        -----------------------------------------
Total Dipole Moment    :     -0.09894      -0.10984       0.00001
                        -----------------------------------------
Magnitude (a.u.)       :      0.14784
Magnitude (Debye)      :      0.37577

Rotational constants in cm-1:     0.201830     0.082121     0.059648
Rotational constants in MHz :  6050.724956  2461.928682  1788.192173

                             ****ORCA TERMINATED NORMALLY****
TOTAL RUN TIME: 0 days 0 hours 4 minutes 18 seconds 59 msec
