                         Program Version 5.0.3 -  RELEASE  -
|  1> !ri-mp2 aug-cc-pvtz aug-cc-pvtz/c tightscf
|  2> %pal nprocs 16 end
|  3>
|  4> * xyz 0 1
|  5> S     2.376125   -1.341871    -0.155715
|  6> S    -2.376123   -1.341874    -0.155714
|  7> O    -0.000002    2.271956    -1.220927
|  8> O    -0.000002    2.134769     1.026292
|  9> C     0.000000    0.080610    -0.199333
| 10> C     0.000000    1.613145    -0.221280
| 11> C     1.234770   -0.423018     0.519041
| 12> C    -1.234769   -0.423020     0.519042
| 13> H    -0.000002    3.100348     0.941425
| 14> H     0.000000   -0.255540    -1.230687
| 15> H     1.305553   -0.122487     1.562193
| 16> H    -1.305552   -0.122490     1.562194
| 17> *
| 18>
| 19>                          ****END OF INPUT****

CARTESIAN COORDINATES (ANGSTROEM)
---------------------------------
  S      2.376125   -1.341871   -0.155715
  S     -2.376123   -1.341874   -0.155714
  O     -0.000002    2.271956   -1.220927
  O     -0.000002    2.134769    1.026292
  C      0.000000    0.080610   -0.199333
  C      0.000000    1.613145   -0.221280
  C      1.234770   -0.423018    0.519041
  C     -1.234769   -0.423020    0.519042
  H     -0.000002    3.100348    0.941425
  H      0.000000   -0.255540   -1.230687
  H      1.305553   -0.122487    1.562193
  H     -1.305552   -0.122490    1.562194

 Total Charge           Charge          ....    0
 Multiplicity           Mult            ....    1
 Number of Electrons    NEL             ....   76
 Basis Dimension        Dim             ....  468

ORBITAL ENERGIES
----------------

  NO   OCC          E(Eh)            E(eV)
   0   2.0000     -91.969876     -2502.6276
   1   2.0000     -91.969876     -2502.6276
   2   2.0000     -20.647268      -561.8407
   3   2.0000     -20.583956      -560.1179
   4   2.0000     -11.423517      -310.8497
   5   2.0000     -11.346593      -308.7565
   6   2.0000     -11.346590      -308.7564
   7   2.0000     -11.302859      -307.5664
   8   2.0000      -8.971753      -244.1338
   9   2.0000      -8.971753      -244.1338
  10   2.0000      -6.652362      -181.0200
  11   2.0000      -6.652361      -181.0200
  12   2.0000      -6.651975      -181.0094
  13   2.0000      -6.651975      -181.0094
  14   2.0000      -6.650092      -180.9582
  15   2.0000      -6.650092      -180.9582
  16   2.0000      -1.500319       -40.8258
  17   2.0000      -1.399234       -38.0751
  18   2.0000      -1.168633       -31.8001
  19   2.0000      -1.079115       -29.3642
  20   2.0000      -1.006697       -27.3936
  21   2.0000      -0.870248       -23.6806
  22   2.0000      -0.817789       -22.2532
  23   2.0000      -0.812725       -22.1154
  24   2.0000      -0.734748       -19.9935
  25   2.0000      -0.717737       -19.5306
  26   2.0000      -0.675489       -18.3810
  27   2.0000      -0.638862       -17.3843
  28   2.0000      -0.625380       -17.0174
  29   2.0000      -0.600443       -16.3389
  30   2.0000      -0.551091       -14.9960
  31   2.0000      -0.542233       -14.7549
  32   2.0000      -0.517249       -14.0751
  33   2.0000      -0.501135       -13.6366
  34   2.0000      -0.429668       -11.6919
  35   2.0000      -0.421701       -11.4751
  36   2.0000      -0.371794       -10.1170
  37   2.0000      -0.360126        -9.7995
  38   0.0000       0.010009         0.2724
  39   0.0000       0.020829         0.5668
  40   0.0000       0.036672         0.9979
  41   0.0000       0.040939         1.1140
  42   0.0000       0.044201         1.2028

MULLIKEN ATOMIC CHARGES
-----------------------
   0 S :   -0.320811
   1 S :   -0.320811
   2 O :   -0.789843
   3 O :   -0.453444
   4 C :    0.659293
   5 C :    0.685650
   6 C :   -0.401393
   7 C :   -0.401393
   8 H :    0.229740
   9 H :    0.313255
  10 H :    0.399878
  11 H :    0.399878
Sum of atomic charges:    0.0000000

LOEWDIN ATOMIC CHARGES
----------------------
   0 S :    1.011843
   1 S :    1.011843
   2 O :    0.473764
   3 O :    0.837911
   4 C :   -0.276189
   5 C :   -0.805745
   6 C :   -0.510193
   7 C :   -0.510193
   8 H :   -0.452066
   9 H :   -0.231451
  10 H :   -0.274762
  11 H :   -0.274762

  Mayer bond orders larger than 0.100000
B(  0-S ,  6-C ) :   1.8395 B(  1-S ,  7-C ) :   1.8395 B(  2-O ,  5-C ) :   1.3177
B(  3-O ,  4-C ) :  -0.1037 B(  3-O ,  5-C ) :   1.0117 B(  3-O ,  8-H ) :   0.9460
B(  4-C ,  5-C ) :   0.7063 B(  4-C ,  6-C ) :   0.7078 B(  4-C ,  7-C ) :   0.7078
B(  4-C ,  9-H ) :   0.9634 B(  5-C ,  6-C ) :   0.1220 B(  5-C ,  7-C ) :   0.1220
B(  6-C ,  7-C ) :   0.1511 B(  6-C , 10-H ) :   0.8155 B(  7-C , 11-H ) :   0.8155

MP2 TOTAL ENERGY:    -1100.163730152 Eh
FINAL SINGLE POINT ENERGY     -1100.163730151813

DIPOLE MOMENT
-------------
                                X             Y             Z
Electronic contribution:      0.00000      -1.98102      -1.56306
Nuclear contribution   :     -0.00000       2.65070       2.73696
                        -----------------------------------------
Total Dipole Moment    :      0.00000       0.66969       1.17390
                        -----------------------------------------
Magnitude (a.u.)       :      1.35149
Magnitude (Debye)      :      3.43520

Rotational constants in cm-1:     0.045147     0.036717     0.023465
Rotational constants in MHz :  1353.469081  1100.738788   703.450161

                             ****ORCA TERMINATED NORMALLY****
TOTAL RUN TIME: 0 days 0 hours 4 minutes 17 seconds 504 msec
