                         Program Version 5.0.3 -  RELEASE  -
|  1> !ri-mp2 aug-cc-pvtz aug-cc-pvtz/c tightscf
|  2> %pal nprocs 16 end
|  3>
|  4> * xyz 0 1
|  5> O      0.000000    0.000000    0.648088
|  6> O      0.000000    3.317523   -0.078152
|  7> O      0.000000   -3.317523   -0.078152
|  8> C     -0.698728    0.939522   -0.114391
|  9> C      0.698728   -0.939522   -0.114391
| 10> C     -0.313392    2.199290   -0.102139
| 11> C      0.313392   -2.199290   -0.102139
| 12> H     -1.576390    0.640518   -0.667959
| 13> H      1.576390   -0.640518   -0.667959
| 14> *
| 15>
| 16>                          ****END OF INPUT****

CARTESIAN COORDINATES (ANGSTROEM)
---------------------------------
  O      0.000000    0.000000    0.648088
  O      0.000000    3.317523   -0.078152
  O      0.000000   -3.317523   -0.078152
  C     -0.698728    0.939522   -0.114391
  C      0.698728   -0.939522   -0.114391
  C     -0.313392    2.199290   -0.102139
  C      0.313392   -2.199290   -0.102139
  H     -1.576390    0.640518   -0.667959
  H      1.576390   -0.640518   -0.667959

 Total Charge           Charge          ....    0
 Multiplicity           Mult            ....    1
 Number of Electrons    NEL             ....   50
 Basis Dimension        Dim             ....  368

ORBITAL ENERGIES
----------------

  NO   OCC          E(Eh)            E(eV)
   0   2.0000     -20.645309      -561.7874
   1   2.0000     -20.645309      -561.7874
   2   2.0000     -20.627647      -561.3068
   3   2.0000     -11.392437      -310.0040
   4   2.0000     -11.392437      -310.0040
   5   2.0000     -11.310526      -307.7751
   6   2.0000     -11.310509      -307.7746
   7   2.0000      -1.487824       -40.4858
   8   2.0000      -1.487080       -40.4655
   9   2.0000      -1.433230       -39.0002
  10   2.0000      -1.086510       -29.5654
  11   2.0000      -1.017687       -27.6927
  12   2.0000      -0.798788       -21.7361
  13   2.0000      -0.768970       -20.9247
  14   2.0000      -0.737408       -20.0659
  15   2.0000      -0.727327       -19.7916
  16   2.0000      -0.717312       -19.5190
  17   2.0000      -0.666657       -18.1406
  18   2.0000      -0.658031       -17.9059
  19   2.0000      -0.632189       -17.2027
  20   2.0000      -0.596906       -16.2426
  21   2.0000      -0.588571       -16.0158
  22   2.0000      -0.528219       -14.3736
  23   2.0000      -0.375382       -10.2147
  24   2.0000      -0.360333        -9.8052
  25   0.0000       0.024347         0.6625
  26   0.0000       0.035132         0.9560
  27   0.0000       0.049359         1.3431
  28   0.0000       0.061194         1.6652
  29   0.0000       0.070732         1.9247

MULLIKEN ATOMIC CHARGES
-----------------------
   0 O :   -0.427245
   1 O :   -0.414154
   2 O :   -0.414154
   3 C :   -0.120378
   4 C :   -0.120378
   5 C :    0.297541
   6 C :    0.297541
   7 H :    0.450613
   8 H :    0.450613
Sum of atomic charges:   -0.0000000

LOEWDIN ATOMIC CHARGES
----------------------
   0 O :    0.443018
   1 O :    0.410322
   2 O :    0.410322
   3 C :   -0.128569
   4 C :   -0.128569
   5 C :   -0.264350
   6 C :   -0.264350
   7 H :   -0.238912
   8 H :   -0.238912

  Mayer bond orders larger than 0.100000
B(  0-O ,  3-C ) :   0.9183 B(  0-O ,  4-C ) :   0.9183 B(  1-O ,  3-C ) :  -0.1488
B(  1-O ,  5-C ) :   1.9934 B(  2-O ,  4-C ) :  -0.1488 B(  2-O ,  6-C ) :   1.9934
B(  3-C ,  5-C ) :   1.6032 B(  3-C ,  7-H ) :   0.8020 B(  4-C ,  6-C ) :   1.6032
B(  4-C ,  8-H ) :   0.8020

MP2 TOTAL ENERGY:     -378.551971918 Eh
FINAL SINGLE POINT ENERGY      -378.551971918195

DIPOLE MOMENT
-------------
                                X             Y             Z
Electronic contribution:     -0.00000       0.00000       0.72267
Nuclear contribution   :      0.00000       0.00000      -1.27191
                        -----------------------------------------
Total Dipole Moment    :     -0.00000       0.00000      -0.54923
                        -----------------------------------------
Magnitude (a.u.)       :      0.54923
Magnitude (Debye)      :      1.39604

Rotational constants in cm-1:     0.675200     0.033632     0.033087
Rotational constants in MHz : 20241.984144  1008.247207   991.934836

                             ****ORCA TERMINATED NORMALLY****
TOTAL RUN TIME: 0 days 0 hours 1 minutes 43 seconds 691 msec
