                         Program Version 5.0.3 -  RELEASE  -
|  1> !ri-mp2 aug-cc-pvtz aug-cc-pvtz/c tightscf
|  2> %pal nprocs 16 end
|  3>
|  4> * xyz 0 1
|  5> Cl   -2.197577   -1.227671   -0.000015
|  6> F     3.325479    0.455112    0.000010
|  7> N     0.390768   -1.596694   -0.000015
|  8> N    -2.115599    2.508502    0.000021
|  9> C    -0.276396    0.703136    0.000006
| 10> C    -0.547172   -0.677505   -0.000008
| 11> C     2.027709    0.116243    0.000004
| 12> C     1.061483    1.100236    0.000013
| 13> C     1.668300   -1.221079   -0.000009
| 14> C    -1.309558    1.686129    0.000014
| 15> H     1.333645    2.145419    0.000023
| 16> H     2.423474   -1.996630   -0.000016
| 17> *
| 18>
| 19>                          ****END OF INPUT****

CARTESIAN COORDINATES (ANGSTROEM)
---------------------------------
  Cl    -2.197577   -1.227671   -0.000015
  F      3.325479    0.455112    0.000010
  N      0.390768   -1.596694   -0.000015
  N     -2.115599    2.508502    0.000021
  C     -0.276396    0.703136    0.000006
  C     -0.547172   -0.677505   -0.000008
  C      2.027709    0.116243    0.000004
  C      1.061483    1.100236    0.000013
  C      1.668300   -1.221079   -0.000009
  C     -1.309558    1.686129    0.000014
  H      1.333645    2.145419    0.000023
  H      2.423474   -1.996630   -0.000016

 Total Charge           Charge          ....    0
 Multiplicity           Mult            ....    1
 Number of Electrons    NEL             ....   78
 Basis Dimension        Dim             ....  510

ORBITAL ENERGIES
----------------

  NO   OCC          E(Eh)            E(eV)
   0   2.0000    -104.870059     -2853.6594
   1   2.0000     -26.351552      -717.0622
   2   2.0000     -15.621537      -425.0836
   3   2.0000     -15.595618      -424.3783
   4   2.0000     -11.386861      -309.8522
   5   2.0000     -11.372415      -309.4592
   6   2.0000     -11.331580      -308.3480
   7   2.0000     -11.329169      -308.2824
   8   2.0000     -11.317926      -307.9764
   9   2.0000     -11.297791      -307.4285
  10   2.0000     -10.593842      -288.2731
  11   2.0000      -8.060700      -219.3428
  12   2.0000      -8.058668      -219.2875
  13   2.0000      -8.058606      -219.2858
  14   2.0000      -1.669568       -45.4313
  15   2.0000      -1.335696       -36.3461
  16   2.0000      -1.246311       -33.9139
  17   2.0000      -1.171805       -31.8864
  18   2.0000      -1.158842       -31.5337
  19   2.0000      -1.065947       -29.0059
  20   2.0000      -0.958560       -26.0837
  21   2.0000      -0.903658       -24.5898
  22   2.0000      -0.823633       -22.4122
  23   2.0000      -0.782162       -21.2837
  24   2.0000      -0.737653       -20.0726
  25   2.0000      -0.737205       -20.0604
  26   2.0000      -0.720968       -19.6185
  27   2.0000      -0.672549       -18.3010
  28   2.0000      -0.634323       -17.2608
  29   2.0000      -0.624213       -16.9857
  30   2.0000      -0.599322       -16.3084
  31   2.0000      -0.579365       -15.7653
  32   2.0000      -0.525070       -14.2879
  33   2.0000      -0.505233       -13.7481
  34   2.0000      -0.503599       -13.7036
  35   2.0000      -0.484498       -13.1839
  36   2.0000      -0.469759       -12.7828
  37   2.0000      -0.428208       -11.6521
  38   2.0000      -0.376961       -10.2576
  39   0.0000       0.023336         0.6350
  40   0.0000       0.030498         0.8299
  41   0.0000       0.031585         0.8595
  42   0.0000       0.056245         1.5305
  43   0.0000       0.057041         1.5522

MULLIKEN ATOMIC CHARGES
-----------------------
   0 Cl:   -0.339567
   1 F :   -0.520448
   2 N :   -0.370080
   3 N :   -0.821311
   4 C :    1.328453
   5 C :    0.078301
   6 C :    0.843792
   7 C :   -0.990476
   8 C :   -0.527284
   9 C :    0.268479
  10 H :    0.393232
  11 H :    0.656909
Sum of atomic charges:    0.0000000

LOEWDIN ATOMIC CHARGES
----------------------
   0 Cl:    1.020045
   1 F :    0.509465
   2 N :    0.297285
   3 N :    0.282720
   4 C :   -0.283984
   5 C :   -0.953085
   6 C :   -0.495297
   7 C :    0.208372
   8 C :    0.033477
   9 C :   -0.287300
  10 H :   -0.154879
  11 H :   -0.176818

  Mayer bond orders larger than 0.100000
B(  0-Cl,  4-C ) :   0.2725 B(  0-Cl,  5-C ) :   0.4659 B(  1-F ,  6-C ) :   0.5745
B(  1-F ,  8-C ) :   0.1296 B(  2-N ,  5-C ) :   1.0564 B(  2-N ,  6-C ) :  -0.1238
B(  2-N ,  8-C ) :   1.1978 B(  3-N ,  9-C ) :   1.9467 B(  4-C ,  5-C ) :   0.6542
B(  4-C ,  7-C ) :   0.7254 B(  4-C ,  8-C ) :  -0.2229 B(  4-C ,  9-C ) :   0.5095
B(  5-C ,  7-C ) :   0.3598 B(  5-C ,  8-C ) :   0.2789 B(  6-C ,  7-C ) :   1.2915
B(  6-C ,  8-C ) :   0.9816 B(  7-C ,  8-C ) :   0.2634 B(  7-C , 10-H ) :   0.8559
B(  8-C , 11-H ) :   0.3804

MP2 TOTAL ENERGY:     -898.119717682 Eh
FINAL SINGLE POINT ENERGY      -898.119717682107

DIPOLE MOMENT
-------------
                                X             Y             Z
Electronic contribution:     -2.00147      -1.77728      -0.00002
Nuclear contribution   :      3.37505       1.36719       0.00002
                        -----------------------------------------
Total Dipole Moment    :      1.37357      -0.41010      -0.00000
                        -----------------------------------------
Magnitude (a.u.)       :      1.43348
Magnitude (Debye)      :      3.64363

Rotational constants in cm-1:     0.062925     0.029297     0.019990
Rotational constants in MHz :  1886.444603   878.304324   599.284961

                             ****ORCA TERMINATED NORMALLY****
TOTAL RUN TIME: 0 days 0 hours 5 minutes 22 seconds 882 msec
