                         Program Version 5.0.3 -  RELEASE  -
|  1> !ri-mp2 aug-cc-pvtz aug-cc-pvtz/c tightscf
|  2> %pal nprocs 16 end
|  3> %maxcore 3800
|  4>
|  5> * xyz 0 1
|  6> C     2.997773    0.483515    0.000057
|  7> C     1.557720    0.984322    0.000121
|  8> S     0.416742   -0.436191   -0.000065
|  9> O     0.613609   -1.153289    1.261894
| 10> O     0.613589   -1.152943   -1.262224
| 11> C    -1.319656    0.252037    0.000043
| 12> C    -1.530669    1.078796   -1.268848
| 13> C    -2.218473   -0.990363   -0.000134
| 14> C    -1.530653    1.078424    1.269179
| 15> H     3.200853   -0.118000    0.883955
| 16> H     3.200858   -0.117760   -0.884004
| 17> H     3.675634    1.337082    0.000174
| 18> H     1.333115    1.569196   -0.889556
| 19> H     1.333115    1.568964    0.889950
| 20> H    -1.294421    0.500665   -2.160245
| 21> H    -2.578720    1.378917   -1.323741
| 22> H    -0.931778    1.989640   -1.272598
| 23> H    -2.047743   -1.601398    0.884308
| 24> H    -3.260021   -0.665474   -0.000085
| 25> H    -2.047745   -1.601141   -0.884754
| 26> H    -0.931790    1.989286    1.273173
| 27> H    -2.578712    1.378497    1.324194
| 28> H    -1.294359    0.500043    2.160402
| 29> *
| 30>
| 31>                          ****END OF INPUT****

CARTESIAN COORDINATES (ANGSTROEM)
---------------------------------
  C      2.997773    0.483515    0.000057
  C      1.557720    0.984322    0.000121
  S      0.416742   -0.436191   -0.000065
  O      0.613609   -1.153289    1.261894
  O      0.613589   -1.152943   -1.262224
  C     -1.319656    0.252037    0.000043
  C     -1.530669    1.078796   -1.268848
  C     -2.218473   -0.990363   -0.000134
  C     -1.530653    1.078424    1.269179
  H      3.200853   -0.118000    0.883955
  H      3.200858   -0.117760   -0.884004
  H      3.675634    1.337082    0.000174
  H      1.333115    1.569196   -0.889556
  H      1.333115    1.568964    0.889950
  H     -1.294421    0.500665   -2.160245
  H     -2.578720    1.378917   -1.323741
  H     -0.931778    1.989640   -1.272598
  H     -2.047743   -1.601398    0.884308
  H     -3.260021   -0.665474   -0.000085
  H     -2.047745   -1.601141   -0.884754
  H     -0.931790    1.989286    1.273173
  H     -2.578712    1.378497    1.324194
  H     -1.294359    0.500043    2.160402

 Total Charge           Charge          ....    0
 Multiplicity           Mult            ....    1
 Number of Electrons    NEL             ....   82
 Basis Dimension        Dim             ....  740

ORBITAL ENERGIES
----------------

  NO   OCC          E(Eh)            E(eV)
   0   2.0000     -92.161164     -2507.8328
   1   2.0000     -20.530802      -558.6715
   2   2.0000     -20.530781      -558.6709
   3   2.0000     -11.290659      -307.2345
   4   2.0000     -11.275625      -306.8254
   5   2.0000     -11.238698      -305.8205
   6   2.0000     -11.238683      -305.8201
   7   2.0000     -11.234815      -305.7148
   8   2.0000     -11.229600      -305.5730
   9   2.0000      -9.132168      -248.4989
  10   2.0000      -6.816311      -185.4813
  11   2.0000      -6.816022      -185.4734
  12   2.0000      -6.815943      -185.4712
  13   2.0000      -1.427211       -38.8364
  14   2.0000      -1.316541       -35.8249
  15   2.0000      -1.127234       -30.6736
  16   2.0000      -1.071805       -29.1653
  17   2.0000      -0.962269       -26.1847
  18   2.0000      -0.956689       -26.0328
  19   2.0000      -0.924563       -25.1586
  20   2.0000      -0.840636       -22.8749
  21   2.0000      -0.750730       -20.4284
  22   2.0000      -0.690168       -18.7804
  23   2.0000      -0.659256       -17.9393
  24   2.0000      -0.654631       -17.8134
  25   2.0000      -0.631649       -17.1880
  26   2.0000      -0.624423       -16.9914
  27   2.0000      -0.604479       -16.4487
  28   2.0000      -0.581789       -15.8313
  29   2.0000      -0.566378       -15.4119
  30   2.0000      -0.562535       -15.3073
  31   2.0000      -0.546215       -14.8633
  32   2.0000      -0.539637       -14.6843
  33   2.0000      -0.539371       -14.6770
  34   2.0000      -0.522463       -14.2169
  35   2.0000      -0.498548       -13.5662
  36   2.0000      -0.498349       -13.5608
  37   2.0000      -0.481533       -13.1032
  38   2.0000      -0.467327       -12.7166
  39   2.0000      -0.454322       -12.3627
  40   2.0000      -0.406886       -11.0719
  41   0.0000       0.021965         0.5977
  42   0.0000       0.028999         0.7891
  43   0.0000       0.034591         0.9413
  44   0.0000       0.038316         1.0426
  45   0.0000       0.048114         1.3093

MULLIKEN ATOMIC CHARGES
-----------------------
   0 C :   -0.971598
   1 C :   -0.778881
   2 S :    2.470131
   3 O :   -1.167663
   4 O :   -1.167665
   5 C :    1.612320
   6 C :   -1.283598
   7 C :   -1.350683
   8 C :   -1.283589
   9 H :    0.302806
  10 H :    0.302803
  11 H :    0.292199
  12 H :    0.277710
  13 H :    0.277709
  14 H :    0.282116
  15 H :    0.226101
  16 H :    0.309022
  17 H :    0.293987
  18 H :    0.245547
  19 H :    0.293987
  20 H :    0.309020
  21 H :    0.226103
  22 H :    0.282115
Sum of atomic charges:   -0.0000000

LOEWDIN ATOMIC CHARGES
----------------------
   0 C :    0.553874
   1 C :    0.190908
   2 S :    0.341158
   3 O :    0.044746
   4 O :    0.044745
   5 C :   -0.418383
   6 C :    0.553713
   7 C :    0.548014
   8 C :    0.553711
   9 H :   -0.176947
  10 H :   -0.176945
  11 H :   -0.170991
  12 H :   -0.195499
  13 H :   -0.195499
  14 H :   -0.170049
  15 H :   -0.154735
  16 H :   -0.175254
  17 H :   -0.168980
  18 H :   -0.158567
  19 H :   -0.168981
  20 H :   -0.175252
  21 H :   -0.154735
  22 H :   -0.170051

  Mayer bond orders larger than 0.100000
B(  0-C ,  1-C ) :   0.8413 B(  0-C ,  9-H ) :   0.9428 B(  0-C , 10-H ) :   0.9428
B(  0-C , 11-H ) :   0.9754 B(  1-C ,  2-S ) :   0.8993 B(  1-C , 12-H ) :   0.9034
B(  1-C , 13-H ) :   0.9034 B(  2-S ,  3-O ) :   0.9246 B(  2-S ,  4-O ) :   0.9246
B(  2-S ,  5-C ) :   0.8084 B(  3-O ,  8-C ) :   0.1007 B(  4-O ,  6-C ) :   0.1007
B(  5-C ,  6-C ) :   0.4483 B(  5-C ,  7-C ) :   0.3962 B(  5-C ,  8-C ) :   0.4483
B(  6-C ,  8-C ) :   0.1093 B(  6-C , 14-H ) :   1.0259 B(  6-C , 15-H ) :   1.0563
B(  6-C , 16-H ) :   0.9774 B(  7-C , 17-H ) :   1.0141 B(  7-C , 18-H ) :   1.0367
B(  7-C , 19-H ) :   1.0141 B(  8-C , 20-H ) :   0.9774 B(  8-C , 21-H ) :   1.0563
B(  8-C , 22-H ) :   1.0259

MP2 TOTAL ENERGY:     -784.505672236 Eh
FINAL SINGLE POINT ENERGY      -784.505672236188

DIPOLE MOMENT
-------------
                                X             Y             Z
Electronic contribution:      3.71176      -6.38126      -0.00093
Nuclear contribution   :     -4.32089       8.28831       0.00120
                        -----------------------------------------
Total Dipole Moment    :     -0.60913       1.90704       0.00027
                        -----------------------------------------
Magnitude (a.u.)       :      2.00196
Magnitude (Debye)      :      5.08859

Rotational constants in cm-1:     0.070713     0.035330     0.034102
Rotational constants in MHz :  2119.926187  1059.160177  1022.355102

                             ****ORCA TERMINATED NORMALLY****
TOTAL RUN TIME: 0 days 0 hours 15 minutes 58 seconds 999 msec
