                         Program Version 5.0.3 -  RELEASE  -
|  1> !ri-mp2 aug-cc-pvtz aug-cc-pvtz/c tightscf
|  2> %pal nprocs 16 end
|  3>
|  4> * xyz 0 1
|  5> O      2.164676   -0.539196        0.000000
|  6> O      0.084580    2.775541        0.000000
|  7> N     -1.331579    0.475000        0.000000
|  8> N      0.726390    1.750983        0.000000
|  9> C      0.000000    0.522358        0.000000
| 10> C      0.824411   -0.616949        0.000000
| 11> C      0.204822   -1.870177        0.000000
| 12> C     -1.905774   -0.710961        0.000000
| 13> C     -1.171952   -1.910799        0.000000
| 14> H      2.405510    0.402858        0.000000
| 15> H      0.809768   -2.765739        0.000000
| 16> H     -2.988888   -0.732364        0.000000
| 17> H     -1.693161   -2.858226        0.000000
| 18> *
| 19>
| 20>                          ****END OF INPUT****

CARTESIAN COORDINATES (ANGSTROEM)
---------------------------------
  O      2.164676   -0.539196    0.000000
  O      0.084580    2.775541    0.000000
  N     -1.331579    0.475000    0.000000
  N      0.726390    1.750983    0.000000
  C      0.000000    0.522358    0.000000
  C      0.824411   -0.616949    0.000000
  C      0.204822   -1.870177    0.000000
  C     -1.905774   -0.710961    0.000000
  C     -1.171952   -1.910799    0.000000
  H      2.405510    0.402858    0.000000
  H      0.809768   -2.765739    0.000000
  H     -2.988888   -0.732364    0.000000
  H     -1.693161   -2.858226    0.000000

 Total Charge           Charge          ....    0
 Multiplicity           Mult            ....    1
 Number of Electrons    NEL             ....   64
 Basis Dimension        Dim             ....  506

ORBITAL ENERGIES
----------------

  NO   OCC          E(Eh)            E(eV)
   0   2.0000     -20.634460      -561.4922
   1   2.0000     -20.617271      -561.0245
   2   2.0000     -15.709227      -427.4698
   3   2.0000     -15.598774      -424.4642
   4   2.0000     -11.344149      -308.6900
   5   2.0000     -11.312461      -307.8277
   6   2.0000     -11.291291      -307.2517
   7   2.0000     -11.277334      -306.8719
   8   2.0000     -11.273975      -306.7805
   9   2.0000      -1.520482       -41.3744
  10   2.0000      -1.442356       -39.2485
  11   2.0000      -1.292063       -35.1588
  12   2.0000      -1.115341       -30.3500
  13   2.0000      -1.102942       -30.0126
  14   2.0000      -0.986836       -26.8532
  15   2.0000      -0.883030       -24.0285
  16   2.0000      -0.856524       -23.3072
  17   2.0000      -0.783627       -21.3236
  18   2.0000      -0.743550       -20.2330
  19   2.0000      -0.713803       -19.4236
  20   2.0000      -0.672087       -18.2884
  21   2.0000      -0.646903       -17.6031
  22   2.0000      -0.644125       -17.5275
  23   2.0000      -0.615518       -16.7491
  24   2.0000      -0.596363       -16.2279
  25   2.0000      -0.595937       -16.2163
  26   2.0000      -0.581647       -15.8274
  27   2.0000      -0.538217       -14.6456
  28   2.0000      -0.451071       -12.2743
  29   2.0000      -0.417720       -11.3667
  30   2.0000      -0.404579       -11.0091
  31   2.0000      -0.349473        -9.5097
  32   0.0000       0.022333         0.6077
  33   0.0000       0.023098         0.6285
  34   0.0000       0.032530         0.8852
  35   0.0000       0.038287         1.0418
  36   0.0000       0.049897         1.3578

MULLIKEN ATOMIC CHARGES
-----------------------
   0 O :   -0.798224
   1 O :   -0.444253
   2 N :   -0.184574
   3 N :   -0.043572
   4 C :    0.178777
   5 C :    1.088388
   6 C :   -0.871896
   7 C :   -0.639755
   8 C :   -0.119960
   9 H :    0.263040
  10 H :    0.593179
  11 H :    0.680743
  12 H :    0.298107
Sum of atomic charges:    0.0000000

LOEWDIN ATOMIC CHARGES
----------------------
   0 O :    0.851453
   1 O :    0.294924
   2 N :    0.371779
   3 N :   -0.035501
   4 C :   -0.479052
   5 C :   -0.390474
   6 C :    0.229232
   7 C :    0.021638
   8 C :    0.212371
   9 H :   -0.533397
  10 H :   -0.170494
  11 H :   -0.194284
  12 H :   -0.178197

  Mayer bond orders larger than 0.100000
B(  0-O ,  5-C ) :   0.6046 B(  0-O ,  9-H ) :   0.9291 B(  1-O ,  3-N ) :   1.3025
B(  2-N ,  3-N ) :  -0.2032 B(  2-N ,  4-C ) :   0.9871 B(  2-N ,  6-C ) :   0.1275
B(  2-N ,  7-C ) :   1.4045 B(  2-N ,  8-C ) :  -0.2322 B(  2-N , 11-H ) :  -0.1131
B(  3-N ,  4-C ) :   0.6488 B(  4-C ,  5-C ) :   1.0613 B(  4-C ,  6-C ) :   0.3784
B(  4-C ,  7-C ) :   0.2079 B(  4-C ,  8-C ) :  -0.1919 B(  4-C , 12-H ) :   0.1023
B(  5-C ,  6-C ) :   0.9805 B(  5-C ,  7-C ) :  -0.1528 B(  5-C , 11-H ) :   0.1016
B(  6-C ,  7-C ) :   0.2900 B(  6-C ,  8-C ) :   1.3259 B(  6-C , 10-H ) :   0.5561
B(  7-C ,  8-C ) :   0.8318 B(  7-C , 11-H ) :   0.3145 B(  8-C , 12-H ) :   1.0099

MP2 TOTAL ENERGY:     -452.022793552 Eh
FINAL SINGLE POINT ENERGY      -452.022793552288

DIPOLE MOMENT
-------------
                                X             Y             Z
Electronic contribution:      1.33371       4.14587      -0.00000
Nuclear contribution   :     -1.38975      -5.71946       0.00000
                        -----------------------------------------
Total Dipole Moment    :     -0.05603      -1.57359      -0.00000
                        -----------------------------------------
Magnitude (a.u.)       :      1.57459
Magnitude (Debye)      :      4.00228

Rotational constants in cm-1:     0.091308     0.056191     0.034784
Rotational constants in MHz :  2737.359170  1684.552289  1042.812526

                             ****ORCA TERMINATED NORMALLY****
TOTAL RUN TIME: 0 days 0 hours 5 minutes 38 seconds 417 msec
