                         Program Version 5.0.3 -  RELEASE  -
|  1> !ri-mp2 aug-cc-pvtz aug-cc-pvtz/c tightscf
|  2> %pal nprocs 16 end
|  3>
|  4> * xyz 0 1
|  5> C     -1.668271    0.461239   -0.765783
|  6> C     -0.367440    1.210024   -0.479394
|  7> C      0.689515    0.089265   -0.593294
|  8> C     -1.400343   -0.953458   -0.265482
|  9> C      1.856173    0.212999    0.364984
| 10> O     -0.004904   -1.155032   -0.396645
| 11> O     -0.459865    1.805275    0.814836
| 12> O     -1.823763   -1.057773    1.077424
| 13> O      2.879640   -0.684977   -0.054645
| 14> H     -2.518456    0.921796   -0.270321
| 15> H     -1.851125    0.435667   -1.839895
| 16> H     -0.178406    1.985616   -1.225571
| 17> H      1.093392    0.077484   -1.611423
| 18> H     -1.886026   -1.728437   -0.864473
| 19> H      1.515337   -0.010936    1.377193
| 20> H      2.231369    1.245733    0.342390
| 21> H      0.267278    2.422971    0.931773
| 22> H     -1.567425   -1.926770    1.403733
| 23> H      3.507392   -0.803481    0.662654
| 24> *
| 25>
| 26>                          ****END OF INPUT****

CARTESIAN COORDINATES (ANGSTROEM)
---------------------------------
  C     -1.668271    0.461239   -0.765783
  C     -0.367440    1.210024   -0.479394
  C      0.689515    0.089265   -0.593294
  C     -1.400343   -0.953458   -0.265482
  C      1.856173    0.212999    0.364984
  O     -0.004904   -1.155032   -0.396645
  O     -0.459865    1.805275    0.814836
  O     -1.823763   -1.057773    1.077424
  O      2.879640   -0.684977   -0.054645
  H     -2.518456    0.921796   -0.270321
  H     -1.851125    0.435667   -1.839895
  H     -0.178406    1.985616   -1.225571
  H      1.093392    0.077484   -1.611423
  H     -1.886026   -1.728437   -0.864473
  H      1.515337   -0.010936    1.377193
  H      2.231369    1.245733    0.342390
  H      0.267278    2.422971    0.931773
  H     -1.567425   -1.926770    1.403733
  H      3.507392   -0.803481    0.662654

 Total Charge           Charge          ....    0
 Multiplicity           Mult            ....    1
 Number of Electrons    NEL             ....   72
 Basis Dimension        Dim             ....  644

ORBITAL ENERGIES
----------------

  NO   OCC          E(Eh)            E(eV)
   0   2.0000     -20.564358      -559.5846
   1   2.0000     -20.560434      -559.4778
   2   2.0000     -20.556197      -559.3626
   3   2.0000     -20.555356      -559.3397
   4   2.0000     -11.330650      -308.3227
   5   2.0000     -11.293181      -307.3031
   6   2.0000     -11.283232      -307.0324
   7   2.0000     -11.281431      -306.9834
   8   2.0000     -11.227239      -305.5087
   9   2.0000      -1.410773       -38.3891
  10   2.0000      -1.367040       -37.1990
  11   2.0000      -1.361610       -37.0513
  12   2.0000      -1.332692       -36.2644
  13   2.0000      -1.056788       -28.7567
  14   2.0000      -1.024989       -27.8914
  15   2.0000      -0.906626       -24.6706
  16   2.0000      -0.812104       -22.0985
  17   2.0000      -0.797760       -21.7081
  18   2.0000      -0.741324       -20.1725
  19   2.0000      -0.716532       -19.4978
  20   2.0000      -0.685044       -18.6410
  21   2.0000      -0.676231       -18.4012
  22   2.0000      -0.643053       -17.4984
  23   2.0000      -0.630728       -17.1630
  24   2.0000      -0.601539       -16.3687
  25   2.0000      -0.575614       -15.6632
  26   2.0000      -0.560479       -15.2514
  27   2.0000      -0.550730       -14.9861
  28   2.0000      -0.541084       -14.7236
  29   2.0000      -0.516449       -14.0533
  30   2.0000      -0.497454       -13.5364
  31   2.0000      -0.484526       -13.1846
  32   2.0000      -0.462013       -12.5720
  33   2.0000      -0.451649       -12.2900
  34   2.0000      -0.440117       -11.9762
  35   2.0000      -0.425592       -11.5809
  36   0.0000       0.024968         0.6794
  37   0.0000       0.032053         0.8722
  38   0.0000       0.034982         0.9519
  39   0.0000       0.041138         1.1194
  40   0.0000       0.049092         1.3358

MULLIKEN ATOMIC CHARGES
-----------------------
   0 C :   -0.759028
   1 C :    0.458545
   2 C :    0.234908
   3 C :    0.455376
   4 C :   -0.222106
   5 O :   -0.799585
   6 O :   -0.745960
   7 O :   -0.638863
   8 O :   -0.600080
   9 H :    0.347438
  10 H :    0.246990
  11 H :    0.415358
  12 H :    0.310784
  13 H :    0.409084
  14 H :    0.284266
  15 H :    0.216715
  16 H :    0.133216
  17 H :    0.129815
  18 H :    0.123128
Sum of atomic charges:    0.0000000

LOEWDIN ATOMIC CHARGES
----------------------
   0 C :    0.313290
   1 C :   -0.220414
   2 C :   -0.230608
   3 C :   -0.491478
   4 C :    0.039798
   5 O :    0.601116
   6 O :    0.840332
   7 O :    0.825229
   8 O :    0.816706
   9 H :   -0.147267
  10 H :   -0.145126
  11 H :   -0.132487
  12 H :   -0.141091
  13 H :   -0.148818
  14 H :   -0.152739
  15 H :   -0.156716
  16 H :   -0.492403
  17 H :   -0.484428
  18 H :   -0.492895

  Mayer bond orders larger than 0.100000
B(  0-C ,  1-C ) :   1.0059 B(  0-C ,  3-C ) :   0.9816 B(  0-C ,  6-O ) :   0.1217
B(  0-C ,  7-O ) :   0.1448 B(  0-C ,  9-H ) :   0.8852 B(  0-C , 10-H ) :   0.9879
B(  1-C ,  2-C ) :   0.9568 B(  1-C ,  6-O ) :   0.2972 B(  1-C , 11-H ) :   0.8445
B(  2-C ,  4-C ) :   0.8146 B(  2-C ,  5-O ) :   0.5874 B(  2-C ,  6-O ) :   0.1609
B(  2-C , 12-H ) :   0.8909 B(  3-C ,  5-O ) :   0.8299 B(  3-C ,  7-O ) :   0.5288
B(  3-C , 13-H ) :   0.8821 B(  4-C ,  5-O ) :   0.1127 B(  4-C ,  8-O ) :   0.7233
B(  4-C , 14-H ) :   0.9505 B(  4-C , 15-H ) :   1.0423 B(  6-O , 16-H ) :   1.0351
B(  7-O , 17-H ) :   1.0398 B(  8-O , 18-H ) :   1.0574

MP2 TOTAL ENERGY:     -496.613749331 Eh
FINAL SINGLE POINT ENERGY      -496.613749330914

DIPOLE MOMENT
-------------
                                X             Y             Z
Electronic contribution:     -0.19245      -2.05986       0.91878
Nuclear contribution   :      0.62771       2.62357      -1.07993
                        -----------------------------------------
Total Dipole Moment    :      0.43526       0.56372      -0.16115
                        -----------------------------------------
Magnitude (a.u.)       :      0.73020
Magnitude (Debye)      :      1.85603

Rotational constants in cm-1:     0.079470     0.042803     0.034928
Rotational constants in MHz :  2382.439851  1283.209840  1047.107365

                             ****ORCA TERMINATED NORMALLY****
TOTAL RUN TIME: 0 days 0 hours 8 minutes 23 seconds 769 msec
