                         Program Version 5.0.3 -  RELEASE  -
|  1> !ri-mp2 aug-cc-pvtz aug-cc-pvtz/c tightscf
|  2> %pal nprocs 16 end
|  3>
|  4> * xyz 0 1
|  5> C      2.099858    0.369973    0.299455
|  6> S      0.769670   -0.705032   -0.323442
|  7> C     -0.727952    0.124983    0.364432
|  8> C     -0.985167    1.492597   -0.260375
|  9> C     -1.906973   -0.823775    0.163596
| 10> H      3.037274   -0.105810    0.018885
| 11> H      2.064635    1.361496   -0.147229
| 12> H      2.058488    0.449131    1.385117
| 13> H     -0.544665    0.242009    1.434900
| 14> H     -0.145508    2.172003   -0.117608
| 15> H     -1.738088   -1.779969    0.657497
| 16> H     -1.166779    1.398813   -1.331795
| 17> H     -1.863937    1.955096    0.196475
| 18> H     -2.816392   -0.380971    0.573674
| 19> H     -2.078342   -1.013952   -0.897490
| 20> *
| 21>
| 22>                          ****END OF INPUT****

CARTESIAN COORDINATES (ANGSTROEM)
---------------------------------
  C      2.099858    0.369973    0.299455
  S      0.769670   -0.705032   -0.323442
  C     -0.727952    0.124983    0.364432
  C     -0.985167    1.492597   -0.260375
  C     -1.906973   -0.823775    0.163596
  H      3.037274   -0.105810    0.018885
  H      2.064635    1.361496   -0.147229
  H      2.058488    0.449131    1.385117
  H     -0.544665    0.242009    1.434900
  H     -0.145508    2.172003   -0.117608
  H     -1.738088   -1.779969    0.657497
  H     -1.166779    1.398813   -1.331795
  H     -1.863937    1.955096    0.196475
  H     -2.816392   -0.380971    0.573674
  H     -2.078342   -1.013952   -0.897490

 Total Charge           Charge          ....    0
 Multiplicity           Mult            ....    1
 Number of Electrons    NEL             ....   50
 Basis Dimension        Dim             ....  464

ORBITAL ENERGIES
----------------

  NO   OCC          E(Eh)            E(eV)
   0   2.0000     -91.938129     -2501.7637
   1   2.0000     -11.261818      -306.4497
   2   2.0000     -11.248430      -306.0853
   3   2.0000     -11.219937      -305.3100
   4   2.0000     -11.219605      -305.3010
   5   2.0000      -8.938308      -243.2237
   6   2.0000      -6.619554      -180.1272
   7   2.0000      -6.618602      -180.1013
   8   2.0000      -6.617696      -180.0767
   9   2.0000      -1.094182       -29.7742
  10   2.0000      -1.004530       -27.3347
  11   2.0000      -0.939211       -25.5572
  12   2.0000      -0.863508       -23.4972
  13   2.0000      -0.763560       -20.7775
  14   2.0000      -0.629529       -17.1303
  15   2.0000      -0.610758       -16.6196
  16   2.0000      -0.587347       -15.9825
  17   2.0000      -0.577102       -15.7037
  18   2.0000      -0.555922       -15.1274
  19   2.0000      -0.542662       -14.7666
  20   2.0000      -0.499651       -13.5962
  21   2.0000      -0.493511       -13.4291
  22   2.0000      -0.463437       -12.6108
  23   2.0000      -0.415300       -11.3009
  24   2.0000      -0.333333        -9.0704
  25   0.0000       0.029937         0.8146
  26   0.0000       0.035271         0.9598
  27   0.0000       0.039830         1.0838
  28   0.0000       0.041361         1.1255
  29   0.0000       0.053985         1.4690

MULLIKEN ATOMIC CHARGES
-----------------------
   0 C :   -0.831094
   1 S :   -0.327328
   2 C :    0.309793
   3 C :   -1.031068
   4 C :   -1.019687
   5 H :    0.287325
   6 H :    0.282373
   7 H :    0.273454
   8 H :    0.281832
   9 H :    0.318085
  10 H :    0.304944
  11 H :    0.308260
  12 H :    0.273166
  13 H :    0.271616
  14 H :    0.298329
Sum of atomic charges:   -0.0000000

LOEWDIN ATOMIC CHARGES
----------------------
   0 C :    0.223427
   1 S :    1.197352
   2 C :   -0.392408
   3 C :    0.512438
   4 C :    0.490959
   5 H :   -0.259723
   6 H :   -0.253481
   7 H :   -0.241594
   8 H :   -0.207501
   9 H :   -0.192396
  10 H :   -0.184209
  11 H :   -0.173861
  12 H :   -0.169473
  13 H :   -0.171534
  14 H :   -0.177996

  Mayer bond orders larger than 0.100000
B(  0-C ,  1-S ) :   0.9628 B(  0-C ,  5-H ) :   0.9649 B(  0-C ,  6-H ) :   0.9151
B(  0-C ,  7-H ) :   0.9238 B(  1-S ,  2-C ) :   0.8333 B(  1-S ,  3-C ) :   0.1066
B(  2-C ,  3-C ) :   0.8135 B(  2-C ,  4-C ) :   0.7670 B(  2-C ,  8-H ) :   0.9009
B(  3-C ,  4-C ) :   0.1018 B(  3-C ,  9-H ) :   0.9255 B(  3-C , 11-H ) :   0.9381
B(  3-C , 12-H ) :   0.9434 B(  4-C , 10-H ) :   0.9552 B(  4-C , 13-H ) :   0.9735
B(  4-C , 14-H ) :   0.9456

MP2 TOTAL ENERGY:     -555.807073658 Eh
FINAL SINGLE POINT ENERGY      -555.807073658121

DIPOLE MOMENT
-------------
                                X             Y             Z
Electronic contribution:      3.22647      -3.92030      -1.44642
Nuclear contribution   :     -3.34975       4.49776       1.85592
                        -----------------------------------------
Total Dipole Moment    :     -0.12328       0.57747       0.40950
                        -----------------------------------------
Magnitude (a.u.)       :      0.71858
Magnitude (Debye)      :      1.82649

Rotational constants in cm-1:     0.200731     0.090299     0.069767
Rotational constants in MHz :  6017.770668  2707.094575  2091.566419

                             ****ORCA TERMINATED NORMALLY****
TOTAL RUN TIME: 0 days 0 hours 2 minutes 41 seconds 78 msec
