                         Program Version 5.0.3 -  RELEASE  -
|  1> !ri-mp2 aug-cc-pvtz aug-cc-pvtz/c tightscf
|  2> %pal nprocs 16 end
|  3>
|  4> * xyz 0 1
|  5> C     -2.743598    0.279380    0.263321
|  6> C      1.527637    1.583398    0.042847
|  7> C      2.226050   -0.822775    0.228502
|  8> C     -1.371578    0.649289   -0.298578
|  9> C      1.159473    0.137171   -0.308936
| 10> C     -0.242383   -0.258067    0.197134
| 11> O     -0.529559   -1.629626   -0.112600
| 12> H     -3.515575    0.944672   -0.125339
| 13> H     -2.752787    0.361074    1.352137
| 14> H     -3.015995   -0.743733    0.008715
| 15> H      0.893332    2.312783   -0.458542
| 16> H      1.450647    1.753470    1.119924
| 17> H      2.558304    1.792091   -0.246918
| 18> H      3.203847   -0.588092   -0.194843
| 19> H      1.989120   -1.858593   -0.004759
| 20> H      2.306790   -0.736724    1.315244
| 21> H     -1.393282    0.611750   -1.394424
| 22> H     -1.144600    1.683054   -0.034580
| 23> H      1.140378    0.049342   -1.403355
| 24> H     -0.228904   -0.235027    1.291831
| 25> H     -0.588412   -1.719433   -1.070029
| 26> *
| 27>
| 28>                          ****END OF INPUT****

CARTESIAN COORDINATES (ANGSTROEM)
---------------------------------
  C     -2.743598    0.279380    0.263321
  C      1.527637    1.583398    0.042847
  C      2.226050   -0.822775    0.228502
  C     -1.371578    0.649289   -0.298578
  C      1.159473    0.137171   -0.308936
  C     -0.242383   -0.258067    0.197134
  O     -0.529559   -1.629626   -0.112600
  H     -3.515575    0.944672   -0.125339
  H     -2.752787    0.361074    1.352137
  H     -3.015995   -0.743733    0.008715
  H      0.893332    2.312783   -0.458542
  H      1.450647    1.753470    1.119924
  H      2.558304    1.792091   -0.246918
  H      3.203847   -0.588092   -0.194843
  H      1.989120   -1.858593   -0.004759
  H      2.306790   -0.736724    1.315244
  H     -1.393282    0.611750   -1.394424
  H     -1.144600    1.683054   -0.034580
  H      1.140378    0.049342   -1.403355
  H     -0.228904   -0.235027    1.291831
  H     -0.588412   -1.719433   -1.070029

 Total Charge           Charge          ....    0
 Multiplicity           Mult            ....    1
 Number of Electrons    NEL             ....   58
 Basis Dimension        Dim             ....  644

ORBITAL ENERGIES
----------------

  NO   OCC          E(Eh)            E(eV)
   0   2.0000     -20.550082      -559.1962
   1   2.0000     -11.274203      -306.7867
   2   2.0000     -11.227704      -305.5214
   3   2.0000     -11.220214      -305.3175
   4   2.0000     -11.214483      -305.1616
   5   2.0000     -11.208710      -305.0045
   6   2.0000     -11.205411      -304.9147
   7   2.0000      -1.353415       -36.8283
   8   2.0000      -1.085193       -29.5296
   9   2.0000      -1.031944       -28.0806
  10   2.0000      -0.928238       -25.2586
  11   2.0000      -0.913644       -24.8615
  12   2.0000      -0.819037       -22.2871
  13   2.0000      -0.782914       -21.3042
  14   2.0000      -0.655472       -17.8363
  15   2.0000      -0.641887       -17.4666
  16   2.0000      -0.625778       -17.0283
  17   2.0000      -0.609399       -16.5826
  18   2.0000      -0.571422       -15.5492
  19   2.0000      -0.553743       -15.0681
  20   2.0000      -0.543904       -14.8004
  21   2.0000      -0.533517       -14.5177
  22   2.0000      -0.515908       -14.0386
  23   2.0000      -0.502885       -13.6842
  24   2.0000      -0.486774       -13.2458
  25   2.0000      -0.478224       -13.0131
  26   2.0000      -0.471338       -12.8258
  27   2.0000      -0.447854       -12.1867
  28   2.0000      -0.421152       -11.4601
  29   0.0000       0.028332         0.7710
  30   0.0000       0.033409         0.9091
  31   0.0000       0.035091         0.9549
  32   0.0000       0.038382         1.0444
  33   0.0000       0.051233         1.3941

MULLIKEN ATOMIC CHARGES
-----------------------
   0 C :   -0.981395
   1 C :   -1.101304
   2 C :   -1.164729
   3 C :   -0.673344
   4 C :    0.233070
   5 C :    0.732335
   6 O :   -0.790821
   7 H :    0.285068
   8 H :    0.243067
   9 H :    0.294137
  10 H :    0.281945
  11 H :    0.251967
  12 H :    0.239810
  13 H :    0.257206
  14 H :    0.302560
  15 H :    0.245705
  16 H :    0.199319
  17 H :    0.320807
  18 H :    0.291705
  19 H :    0.402678
  20 H :    0.130214
Sum of atomic charges:    0.0000000

LOEWDIN ATOMIC CHARGES
----------------------
   0 C :    0.586152
   1 C :    0.587266
   2 C :    0.583829
   3 C :    0.270976
   4 C :   -0.040106
   5 C :   -0.243188
   6 O :    0.835982
   7 H :   -0.172995
   8 H :   -0.167001
   9 H :   -0.177829
  10 H :   -0.179174
  11 H :   -0.153990
  12 H :   -0.164461
  13 H :   -0.168040
  14 H :   -0.177642
  15 H :   -0.158706
  16 H :   -0.140088
  17 H :   -0.168709
  18 H :   -0.133966
  19 H :   -0.139214
  20 H :   -0.479097

  Mayer bond orders larger than 0.100000
B(  0-C ,  3-C ) :   0.8786 B(  0-C ,  7-H ) :   0.9736 B(  0-C ,  8-H ) :   0.9977
B(  0-C ,  9-H ) :   0.9464 B(  1-C ,  2-C ) :   0.1413 B(  1-C ,  4-C ) :   0.6269
B(  1-C , 10-H ) :   0.9732 B(  1-C , 11-H ) :   1.0121 B(  1-C , 12-H ) :   1.0408
B(  2-C ,  4-C ) :   0.7133 B(  2-C , 13-H ) :   1.0093 B(  2-C , 14-H ) :   0.9542
B(  2-C , 15-H ) :   1.0232 B(  3-C ,  5-C ) :   0.8251 B(  3-C , 16-H ) :   1.0076
B(  3-C , 17-H ) :   0.9124 B(  4-C ,  5-C ) :   0.9417 B(  4-C , 18-H ) :   0.8446
B(  5-C ,  6-O ) :   0.2757 B(  5-C , 19-H ) :   0.8960 B(  6-O , 20-H ) :   1.0507

MP2 TOTAL ENERGY:     -311.664785804 Eh
FINAL SINGLE POINT ENERGY      -311.664785803788

DIPOLE MOMENT
-------------
                                X             Y             Z
Electronic contribution:     -0.86669      -3.31490      -0.59775
Nuclear contribution   :      0.95362       3.83887       0.16341
                        -----------------------------------------
Total Dipole Moment    :      0.08693       0.52397      -0.43433
                        -----------------------------------------
Magnitude (a.u.)       :      0.68611
Magnitude (Debye)      :      1.74395

Rotational constants in cm-1:     0.131792     0.055874     0.042466
Rotational constants in MHz :  3951.032334  1675.063165  1273.103875

                             ****ORCA TERMINATED NORMALLY****
TOTAL RUN TIME: 0 days 0 hours 9 minutes 4 seconds 526 msec
