                         Program Version 5.0.3 -  RELEASE  -
|  1> !ri-mp2 aug-cc-pvtz aug-cc-pvtz/c tightscf
|  2> %pal nprocs 16 end
|  3>
|  4> * xyz 0 1
|  5> C      1.713767    0.184314   -0.006094
|  6> C      2.992613   -0.627337    0.018624
|  7> C     -3.398174    0.257813    0.014447
|  8> C      0.415711   -0.605242   -0.018955
|  9> C     -2.129427   -0.592675   -0.013892
| 10> C     -0.849467    0.243536    0.010725
| 11> O      1.732799    1.394734   -0.012565
| 12> H      3.048893   -1.205545    0.943733
| 13> H      3.010172   -1.344276   -0.804455
| 14> H      3.853628    0.032351   -0.047922
| 15> H     -3.440169    0.930013   -0.844742
| 16> H     -4.294888   -0.362918   -0.005028
| 17> H     -3.439164    0.873178    0.915292
| 18> H      0.440487   -1.300663    0.827754
| 19> H      0.432242   -1.246871   -0.907744
| 20> H     -2.134229   -1.223254   -0.908517
| 21> H     -2.132488   -1.278680    0.838933
| 22> H     -0.837342    0.875293    0.901856
| 23> H     -0.839678    0.931040   -0.837776
| 24> *
| 25>
| 26>                          ****END OF INPUT****

CARTESIAN COORDINATES (ANGSTROEM)
---------------------------------
  C      1.713767    0.184314   -0.006094
  C      2.992613   -0.627337    0.018624
  C     -3.398174    0.257813    0.014447
  C      0.415711   -0.605242   -0.018955
  C     -2.129427   -0.592675   -0.013892
  C     -0.849467    0.243536    0.010725
  O      1.732799    1.394734   -0.012565
  H      3.048893   -1.205545    0.943733
  H      3.010172   -1.344276   -0.804455
  H      3.853628    0.032351   -0.047922
  H     -3.440169    0.930013   -0.844742
  H     -4.294888   -0.362918   -0.005028
  H     -3.439164    0.873178    0.915292
  H      0.440487   -1.300663    0.827754
  H      0.432242   -1.246871   -0.907744
  H     -2.134229   -1.223254   -0.908517
  H     -2.132488   -1.278680    0.838933
  H     -0.837342    0.875293    0.901856
  H     -0.839678    0.931040   -0.837776

 Total Charge           Charge          ....    0
 Multiplicity           Mult            ....    1
 Number of Electrons    NEL             ....   56
 Basis Dimension        Dim             ....  598

ORBITAL ENERGIES
----------------

  NO   OCC          E(Eh)            E(eV)
   0   2.0000     -20.543075      -559.0055
   1   2.0000     -11.328350      -308.2601
   2   2.0000     -11.236335      -305.7562
   3   2.0000     -11.233066      -305.6673
   4   2.0000     -11.221517      -305.3530
   5   2.0000     -11.219160      -305.2889
   6   2.0000     -11.212060      -305.0957
   7   2.0000      -1.385486       -37.7010
   8   2.0000      -1.086155       -29.5558
   9   2.0000      -1.030707       -28.0470
  10   2.0000      -0.983421       -26.7602
  11   2.0000      -0.886055       -24.1108
  12   2.0000      -0.800277       -21.7766
  13   2.0000      -0.733017       -19.9464
  14   2.0000      -0.654914       -17.8211
  15   2.0000      -0.649686       -17.6789
  16   2.0000      -0.626221       -17.0404
  17   2.0000      -0.609965       -16.5980
  18   2.0000      -0.580670       -15.8008
  19   2.0000      -0.568380       -15.4664
  20   2.0000      -0.555313       -15.1108
  21   2.0000      -0.529911       -14.4196
  22   2.0000      -0.509372       -13.8607
  23   2.0000      -0.485251       -13.2044
  24   2.0000      -0.479212       -13.0400
  25   2.0000      -0.473976       -12.8975
  26   2.0000      -0.467731       -12.7276
  27   2.0000      -0.407152       -11.0792
  28   0.0000       0.025712         0.6997
  29   0.0000       0.030954         0.8423
  30   0.0000       0.036248         0.9864
  31   0.0000       0.040285         1.0962
  32   0.0000       0.048113         1.3092

MULLIKEN ATOMIC CHARGES
-----------------------
   0 C :    0.487637
   1 C :   -0.870382
   2 C :   -0.989537
   3 C :   -0.314873
   4 C :   -0.461390
   5 C :   -0.259005
   6 O :   -0.857104
   7 H :    0.311830
   8 H :    0.307797
   9 H :    0.313035
  10 H :    0.269543
  11 H :    0.279303
  12 H :    0.268820
  13 H :    0.251515
  14 H :    0.252022
  15 H :    0.245044
  16 H :    0.246789
  17 H :    0.258531
  18 H :    0.260426
Sum of atomic charges:    0.0000000

LOEWDIN ATOMIC CHARGES
----------------------
   0 C :   -0.508718
   1 C :    0.589181
   2 C :    0.580631
   3 C :    0.271235
   4 C :    0.255727
   5 C :    0.258461
   6 O :    0.474380
   7 H :   -0.172401
   8 H :   -0.174337
   9 H :   -0.182909
  10 H :   -0.170265
  11 H :   -0.173744
  12 H :   -0.170300
  13 H :   -0.146325
  14 H :   -0.146147
  15 H :   -0.148536
  16 H :   -0.148535
  17 H :   -0.142945
  18 H :   -0.144453

  Mayer bond orders larger than 0.100000
B(  0-C ,  1-C ) :   0.9132 B(  0-C ,  3-C ) :   0.8337 B(  0-C ,  6-O ) :   1.1999
B(  1-C ,  7-H ) :   0.9324 B(  1-C ,  8-H ) :   0.9402 B(  1-C ,  9-H ) :   0.9469
B(  2-C ,  4-C ) :   0.9288 B(  2-C , 10-H ) :   0.9619 B(  2-C , 11-H ) :   0.9786
B(  2-C , 12-H ) :   0.9626 B(  3-C ,  5-C ) :   1.0155 B(  3-C , 13-H ) :   0.9502
B(  3-C , 14-H ) :   0.9443 B(  4-C ,  5-C ) :   0.8744 B(  4-C , 15-H ) :   0.9544
B(  4-C , 16-H ) :   0.9526 B(  5-C , 17-H ) :   0.9484 B(  5-C , 18-H ) :   0.9511

MP2 TOTAL ENERGY:     -310.464992672 Eh
FINAL SINGLE POINT ENERGY      -310.464992672217

DIPOLE MOMENT
-------------
                                X             Y             Z
Electronic contribution:      6.53635       3.25880      -0.06580
Nuclear contribution   :     -6.62067      -4.51339       0.07475
                        -----------------------------------------
Total Dipole Moment    :     -0.08432      -1.25459       0.00895
                        -----------------------------------------
Magnitude (a.u.)       :      1.25746
Magnitude (Debye)      :      3.19620

Rotational constants in cm-1:     0.252114     0.034459     0.031181
Rotational constants in MHz :  7558.177167  1033.047633   934.797385

                             ****ORCA TERMINATED NORMALLY****
TOTAL RUN TIME: 0 days 0 hours 6 minutes 44 seconds 525 msec
