                         Program Version 5.0.3 -  RELEASE  -
|  1> !ri-mp2 aug-cc-pvtz aug-cc-pvtz/c tightscf
|  2> %pal nprocs 16 end
|  3>
|  4> * xyz 0 1
|  5> F    -1.560515    0.669193    1.027935
|  6> F    -2.395956   -0.758181   -0.402751
|  7> N    -1.190368   -0.448376    0.254141
|  8> N     2.540504   -1.531236    0.370739
|  9> C    -0.339313    0.108786   -0.819505
| 10> C     1.022612    0.458263   -0.274893
| 11> C     1.448448    1.716095   -0.160431
| 12> C     1.869720   -0.636358    0.095191
| 13> H    -0.826459    0.978775   -1.258076
| 14> H    -0.271637   -0.689646   -1.557439
| 15> H     0.810176    2.542787   -0.438338
| 16> H     2.436402    1.945546    0.210865
| 17> *
| 18>
| 19>                          ****END OF INPUT****

CARTESIAN COORDINATES (ANGSTROEM)
---------------------------------
  F     -1.560515    0.669193    1.027935
  F     -2.395956   -0.758181   -0.402751
  N     -1.190368   -0.448376    0.254141
  N      2.540504   -1.531236    0.370739
  C     -0.339313    0.108786   -0.819505
  C      1.022612    0.458263   -0.274893
  C      1.448448    1.716095   -0.160431
  C      1.869720   -0.636358    0.095191
  H     -0.826459    0.978775   -1.258076
  H     -0.271637   -0.689646   -1.557439
  H      0.810176    2.542787   -0.438338
  H      2.436402    1.945546    0.210865

 Total Charge           Charge          ....    0
 Multiplicity           Mult            ....    1
 Number of Electrons    NEL             ....   60
 Basis Dimension        Dim             ....  460

ORBITAL ENERGIES
----------------

  NO   OCC          E(Eh)            E(eV)
   0   2.0000     -26.349217      -716.9986
   1   2.0000     -26.347735      -716.9583
   2   2.0000     -15.787945      -429.6118
   3   2.0000     -15.588965      -424.1973
   4   2.0000     -11.324718      -308.1612
   5   2.0000     -11.316799      -307.9457
   6   2.0000     -11.297643      -307.4245
   7   2.0000     -11.290191      -307.2217
   8   2.0000      -1.692477       -46.0546
   9   2.0000      -1.607958       -43.7547
  10   2.0000      -1.243546       -33.8386
  11   2.0000      -1.202059       -32.7097
  12   2.0000      -1.115302       -30.3489
  13   2.0000      -0.961035       -26.1511
  14   2.0000      -0.890946       -24.2439
  15   2.0000      -0.781996       -21.2792
  16   2.0000      -0.773095       -21.0370
  17   2.0000      -0.770630       -20.9699
  18   2.0000      -0.717622       -19.5275
  19   2.0000      -0.690188       -18.7810
  20   2.0000      -0.668142       -18.1811
  21   2.0000      -0.647044       -17.6070
  22   2.0000      -0.645464       -17.5640
  23   2.0000      -0.609994       -16.5988
  24   2.0000      -0.590077       -16.0568
  25   2.0000      -0.564322       -15.3560
  26   2.0000      -0.528612       -14.3843
  27   2.0000      -0.499873       -13.6022
  28   2.0000      -0.484703       -13.1894
  29   2.0000      -0.412041       -11.2122
  30   0.0000       0.020276         0.5517
  31   0.0000       0.031533         0.8580
  32   0.0000       0.038435         1.0459
  33   0.0000       0.047970         1.3053
  34   0.0000       0.055538         1.5113

MULLIKEN ATOMIC CHARGES
-----------------------
   0 F :   -0.348022
   1 F :   -0.347878
   2 N :    0.090244
   3 N :   -0.701823
   4 C :   -0.056502
   5 C :    0.926206
   6 C :   -1.303494
   7 C :    0.330757
   8 H :    0.321482
   9 H :    0.330594
  10 H :    0.358575
  11 H :    0.399861
Sum of atomic charges:   -0.0000000

LOEWDIN ATOMIC CHARGES
----------------------
   0 F :    0.313270
   1 F :    0.315632
   2 N :   -0.375450
   3 N :    0.280802
   4 C :    0.066266
   5 C :   -0.209670
   6 C :    0.573909
   7 C :   -0.249995
   8 H :   -0.169496
   9 H :   -0.164703
  10 H :   -0.190595
  11 H :   -0.189970

  Mayer bond orders larger than 0.100000
B(  0-F ,  2-N ) :   0.7593 B(  1-F ,  2-N ) :   0.7642 B(  2-N ,  4-C ) :   0.7258
B(  3-N ,  7-C ) :   2.0828 B(  4-C ,  5-C ) :   0.7975 B(  4-C ,  8-H ) :   0.9490
B(  4-C ,  9-H ) :   0.8952 B(  5-C ,  6-C ) :   1.1737 B(  5-C ,  7-C ) :   0.9410
B(  6-C , 10-H ) :   0.9373 B(  6-C , 11-H ) :   0.8665

MP2 TOTAL ENERGY:     -463.124146046 Eh
FINAL SINGLE POINT ENERGY      -463.124146046304

DIPOLE MOMENT
-------------
                                X             Y             Z
Electronic contribution:     -5.76103      -3.02459       2.49506
Nuclear contribution   :      5.78640       4.63170      -3.48947
                        -----------------------------------------
Total Dipole Moment    :      0.02537       1.60711      -0.99442
                        -----------------------------------------
Magnitude (a.u.)       :      1.89006
Magnitude (Debye)      :      4.80415

Rotational constants in cm-1:     0.113161     0.042848     0.036375
Rotational constants in MHz :  3392.490443  1284.558218  1090.491025

                             ****ORCA TERMINATED NORMALLY****
TOTAL RUN TIME: 0 days 0 hours 2 minutes 56 seconds 192 msec
