                         Program Version 5.0.3 -  RELEASE  -
|  1> !ri-mp2 aug-cc-pvtz aug-cc-pvtz/c tightscf
|  2> %pal nprocs 16 end
|  3>
|  4> * xyz 0 1
|  5> C      0.674889    0.424910    0.000000
|  6> C      1.189289    1.875357    0.000000
|  7> H      2.280421    1.893123    0.000000
|  8> S     -1.677881   -1.162383    0.000000
|  9> H     -2.940602   -0.701861    0.000000
| 10> C     -0.864560    0.499457    0.000000
| 11> C      1.189289   -0.290385    1.258329
| 12> C      1.189289   -0.290385   -1.258329
| 13> H     -1.202991    1.037483    0.884380
| 14> H     -1.202991    1.037483   -0.884380
| 15> H      2.280323   -0.281639    1.280304
| 16> H      2.280323   -0.281639   -1.280304
| 17> H      0.862904   -1.329613    1.294987
| 18> H      0.862904   -1.329613   -1.294987
| 19> H      0.831671    0.202325    2.164531
| 20> H      0.831671    0.202325   -2.164531
| 21> H      0.846646    2.418019   -0.883096
| 22> H      0.846646    2.418019    0.883096
| 23> *
| 24>
| 25>                          ****END OF INPUT****

CARTESIAN COORDINATES (ANGSTROEM)
---------------------------------
  C      0.674889    0.424910    0.000000
  C      1.189289    1.875357    0.000000
  H      2.280421    1.893123    0.000000
  S     -1.677881   -1.162383    0.000000
  H     -2.940602   -0.701861    0.000000
  C     -0.864560    0.499457    0.000000
  C      1.189289   -0.290385    1.258329
  C      1.189289   -0.290385   -1.258329
  H     -1.202991    1.037483    0.884380
  H     -1.202991    1.037483   -0.884380
  H      2.280323   -0.281639    1.280304
  H      2.280323   -0.281639   -1.280304
  H      0.862904   -1.329613    1.294987
  H      0.862904   -1.329613   -1.294987
  H      0.831671    0.202325    2.164531
  H      0.831671    0.202325   -2.164531
  H      0.846646    2.418019   -0.883096
  H      0.846646    2.418019    0.883096

 Total Charge           Charge          ....    0
 Multiplicity           Mult            ....    1
 Number of Electrons    NEL             ....   58
 Basis Dimension        Dim             ....  556

ORBITAL ENERGIES
----------------

  NO   OCC          E(Eh)            E(eV)
   0   2.0000     -91.947121     -2502.0084
   1   2.0000     -11.257872      -306.3423
   2   2.0000     -11.245751      -306.0124
   3   2.0000     -11.217169      -305.2347
   4   2.0000     -11.212036      -305.0950
   5   2.0000     -11.212021      -305.0946
   6   2.0000      -8.947928      -243.4855
   7   2.0000      -6.629257      -180.3913
   8   2.0000      -6.628309      -180.3655
   9   2.0000      -6.627296      -180.3379
  10   2.0000      -1.119737       -30.4696
  11   2.0000      -1.003588       -27.3090
  12   2.0000      -0.936989       -25.4968
  13   2.0000      -0.934660       -25.4334
  14   2.0000      -0.868583       -23.6353
  15   2.0000      -0.733571       -19.9615
  16   2.0000      -0.630685       -17.1618
  17   2.0000      -0.629838       -17.1388
  18   2.0000      -0.605280       -16.4705
  19   2.0000      -0.571134       -15.5413
  20   2.0000      -0.559198       -15.2165
  21   2.0000      -0.526030       -14.3140
  22   2.0000      -0.525822       -14.3083
  23   2.0000      -0.516660       -14.0590
  24   2.0000      -0.482522       -13.1301
  25   2.0000      -0.464639       -12.6435
  26   2.0000      -0.460983       -12.5440
  27   2.0000      -0.432800       -11.7771
  28   2.0000      -0.351731        -9.5711
  29   0.0000       0.028339         0.7711
  30   0.0000       0.034371         0.9353
  31   0.0000       0.037916         1.0318
  32   0.0000       0.038860         1.0574
  33   0.0000       0.053711         1.4616

MULLIKEN ATOMIC CHARGES
-----------------------
   0 C :    1.568569
   1 C :   -1.318281
   2 H :    0.238470
   3 S :   -0.379339
   4 H :   -0.026310
   5 C :   -0.461871
   6 C :   -1.201905
   7 C :   -1.201905
   8 H :    0.304666
   9 H :    0.304666
  10 H :    0.267066
  11 H :    0.267066
  12 H :    0.296956
  13 H :    0.296956
  14 H :    0.253242
  15 H :    0.253242
  16 H :    0.269356
  17 H :    0.269356
Sum of atomic charges:   -0.0000000

LOEWDIN ATOMIC CHARGES
----------------------
   0 C :   -0.437146
   1 C :    0.574724
   2 H :   -0.157821
   3 S :    1.306365
   4 H :   -0.581525
   5 C :   -0.064091
   6 C :    0.556806
   7 C :    0.556806
   8 H :   -0.213803
   9 H :   -0.213803
  10 H :   -0.159289
  11 H :   -0.159289
  12 H :   -0.187824
  13 H :   -0.187824
  14 H :   -0.158201
  15 H :   -0.158201
  16 H :   -0.157941
  17 H :   -0.157941

  Mayer bond orders larger than 0.100000
B(  0-C ,  1-C ) :   0.4064 B(  0-C ,  3-S ) :   0.1172 B(  0-C ,  5-C ) :   0.8977
B(  0-C ,  6-C ) :   0.4505 B(  0-C ,  7-C ) :   0.4505 B(  1-C ,  2-H ) :   1.0452
B(  1-C , 16-H ) :   1.0275 B(  1-C , 17-H ) :   1.0275 B(  3-S ,  4-H ) :   1.1382
B(  3-S ,  5-C ) :   0.8616 B(  5-C ,  8-H ) :   0.9217 B(  5-C ,  9-H ) :   0.9217
B(  6-C ,  7-C ) :   0.1026 B(  6-C , 10-H ) :   1.0081 B(  6-C , 12-H ) :   1.0039
B(  6-C , 14-H ) :   1.0344 B(  7-C , 11-H ) :   1.0081 B(  7-C , 13-H ) :   1.0039
B(  7-C , 15-H ) :   1.0344

MP2 TOTAL ENERGY:     -595.036855329 Eh
FINAL SINGLE POINT ENERGY      -595.036855328707

DIPOLE MOMENT
-------------
                                X             Y             Z
Electronic contribution:     -6.81603      -4.89569       0.00000
Nuclear contribution   :      6.92875       5.56111       0.00000
                        -----------------------------------------
Total Dipole Moment    :      0.11273       0.66541       0.00000
                        -----------------------------------------
Magnitude (a.u.)       :      0.67489
Magnitude (Debye)      :      1.71544

Rotational constants in cm-1:     0.144427     0.056339     0.055948
Rotational constants in MHz :  4329.814396  1688.987476  1677.278106

                             ****ORCA TERMINATED NORMALLY****
TOTAL RUN TIME: 0 days 0 hours 6 minutes 17 seconds 204 msec
