                         Program Version 5.0.3 -  RELEASE  -
|  1> !ri-mp2 aug-cc-pvtz aug-cc-pvtz/c tightscf
|  2> %pal nprocs 16 end
|  3>
|  4> * xyz 0 1
|  5> C      0.729471    1.904216   -0.107889
|  6> C     -0.016491    0.615252   -0.425867
|  7> N      0.850921   -0.558678    0.026714
|  8> O      1.306585   -1.287691   -0.838614
|  9> O      1.039827   -0.688006    1.224692
| 10> C     -1.386010    0.520666    0.241641
| 11> C     -2.166261   -0.746449   -0.100809
| 12> H      0.857898    2.020360    0.966917
| 13> H      1.709251    1.922511   -0.584185
| 14> H      0.153750    2.749659   -0.483645
| 15> H     -0.096788    0.467156   -1.500194
| 16> H     -1.947266    1.400933   -0.080637
| 17> H     -1.253956    0.607897    1.320918
| 18> H     -2.318382   -0.842024   -1.177079
| 19> H     -1.649746   -1.642316    0.245321
| 20> H     -3.146754   -0.729962    0.374509
| 21> *
| 22>
| 23>                          ****END OF INPUT****

CARTESIAN COORDINATES (ANGSTROEM)
---------------------------------
  C      0.729471    1.904216   -0.107889
  C     -0.016491    0.615252   -0.425867
  N      0.850921   -0.558678    0.026714
  O      1.306585   -1.287691   -0.838614
  O      1.039827   -0.688006    1.224692
  C     -1.386010    0.520666    0.241641
  C     -2.166261   -0.746449   -0.100809
  H      0.857898    2.020360    0.966917
  H      1.709251    1.922511   -0.584185
  H      0.153750    2.749659   -0.483645
  H     -0.096788    0.467156   -1.500194
  H     -1.947266    1.400933   -0.080637
  H     -1.253956    0.607897    1.320918
  H     -2.318382   -0.842024   -1.177079
  H     -1.649746   -1.642316    0.245321
  H     -3.146754   -0.729962    0.374509

 Total Charge           Charge          ....    0
 Multiplicity           Mult            ....    1
 Number of Electrons    NEL             ....   56
 Basis Dimension        Dim             ....  529

ORBITAL ENERGIES
----------------

  NO   OCC          E(Eh)            E(eV)
   0   2.0000     -20.600768      -560.5754
   1   2.0000     -20.597762      -560.4936
   2   2.0000     -15.837460      -430.9592
   3   2.0000     -11.309518      -307.7476
   4   2.0000     -11.251019      -306.1558
   5   2.0000     -11.247486      -306.0597
   6   2.0000     -11.230569      -305.5993
   7   2.0000      -1.600848       -43.5613
   8   2.0000      -1.396141       -37.9909
   9   2.0000      -1.143195       -31.1079
  10   2.0000      -1.027366       -27.9560
  11   2.0000      -0.958643       -26.0860
  12   2.0000      -0.882681       -24.0190
  13   2.0000      -0.811908       -22.0931
  14   2.0000      -0.745204       -20.2780
  15   2.0000      -0.718555       -19.5529
  16   2.0000      -0.715361       -19.4660
  17   2.0000      -0.637693       -17.3525
  18   2.0000      -0.613633       -16.6978
  19   2.0000      -0.603780       -16.4297
  20   2.0000      -0.581530       -15.8242
  21   2.0000      -0.548696       -14.9308
  22   2.0000      -0.523397       -14.2424
  23   2.0000      -0.507238       -13.8027
  24   2.0000      -0.502480       -13.6732
  25   2.0000      -0.487992       -13.2789
  26   2.0000      -0.469021       -12.7627
  27   2.0000      -0.450142       -12.2490
  28   0.0000       0.023948         0.6517
  29   0.0000       0.031844         0.8665
  30   0.0000       0.035682         0.9710
  31   0.0000       0.042722         1.1625
  32   0.0000       0.053811         1.4643

MULLIKEN ATOMIC CHARGES
-----------------------
   0 C :   -0.990818
   1 C :    0.333565
   2 N :    1.103583
   3 O :   -0.796149
   4 O :   -0.802568
   5 C :   -0.436496
   6 C :   -0.979375
   7 H :    0.272502
   8 H :    0.293838
   9 H :    0.299881
  10 H :    0.313260
  11 H :    0.305217
  12 H :    0.247164
  13 H :    0.261404
  14 H :    0.309618
  15 H :    0.265374
Sum of atomic charges:   -0.0000000

LOEWDIN ATOMIC CHARGES
----------------------
   0 C :    0.601406
   1 C :   -0.109394
   2 N :   -0.695905
   3 O :    0.390199
   4 O :    0.395325
   5 C :    0.265403
   6 C :    0.591619
   7 H :   -0.165615
   8 H :   -0.158685
   9 H :   -0.159365
  10 H :   -0.155569
  11 H :   -0.142286
  12 H :   -0.152944
  13 H :   -0.165537
  14 H :   -0.171769
  15 H :   -0.166885

  Mayer bond orders larger than 0.100000
B(  0-C ,  1-C ) :   0.7347 B(  0-C ,  7-H ) :   0.9667 B(  0-C ,  8-H ) :   0.9765
B(  0-C ,  9-H ) :   0.9372 B(  1-C ,  2-N ) :   0.9591 B(  1-C ,  5-C ) :   0.8391
B(  1-C , 10-H ) :   0.8236 B(  2-N ,  3-O ) :   0.9700 B(  2-N ,  4-O ) :   0.9433
B(  3-O ,  4-O ) :   0.1897 B(  5-C ,  6-C ) :   0.8545 B(  5-C , 11-H ) :   0.9033
B(  5-C , 12-H ) :   0.9598 B(  6-C , 13-H ) :   0.9580 B(  6-C , 14-H ) :   0.9206
B(  6-C , 15-H ) :   0.9956

MP2 TOTAL ENERGY:     -362.328515721 Eh
FINAL SINGLE POINT ENERGY      -362.328515720584

DIPOLE MOMENT
-------------
                                X             Y             Z
Electronic contribution:      6.74565      -4.70863       0.55003
Nuclear contribution   :     -7.80217       6.03753      -0.92997
                        -----------------------------------------
Total Dipole Moment    :     -1.05652       1.32890      -0.37994
                        -----------------------------------------
Magnitude (a.u.)       :      1.73970
Magnitude (Debye)      :      4.42198

Rotational constants in cm-1:     0.103831     0.078694     0.059049
Rotational constants in MHz :  3112.766436  2359.197768  1770.247734

                             ****ORCA TERMINATED NORMALLY****
TOTAL RUN TIME: 0 days 0 hours 4 minutes 55 seconds 340 msec
