                         Program Version 5.0.3 -  RELEASE  -
|  1> !ri-mp2 aug-cc-pvtz aug-cc-pvtz/c tightscf
|  2> %pal nprocs 16 end
|  3>
|  4> * xyz 0 1
|  5> C    -1.589968    0.591998    0.318003
|  6> C    -1.482626   -0.731595    0.240541
|  7> C    -0.409779    1.297050   -0.271302
|  8> N    -0.319737   -1.200523   -0.391951
|  9> O     1.667032   -0.003415    0.897793
| 10> S     0.936297    0.011580   -0.400006
| 11> H    -2.429540    1.112221    0.749196
| 12> H    -2.206329   -1.457624    0.580961
| 13> H    -0.583145    1.663910   -1.286760
| 14> H     0.010173    2.099326    0.334185
| 15> H     0.024228   -2.116844   -0.139614
| 16> *
| 17>
| 18>                          ****END OF INPUT****

CARTESIAN COORDINATES (ANGSTROEM)
---------------------------------
  C     -1.589968    0.591998    0.318003
  C     -1.482626   -0.731595    0.240541
  C     -0.409779    1.297050   -0.271302
  N     -0.319737   -1.200523   -0.391951
  O      1.667032   -0.003415    0.897793
  S      0.936297    0.011580   -0.400006
  H     -2.429540    1.112221    0.749196
  H     -2.206329   -1.457624    0.580961
  H     -0.583145    1.663910   -1.286760
  H      0.010173    2.099326    0.334185
  H      0.024228   -2.116844   -0.139614

 Total Charge           Charge          ....    0
 Multiplicity           Mult            ....    1
 Number of Electrons    NEL             ....   54
 Basis Dimension        Dim             ....  395

ORBITAL ENERGIES
----------------

  NO   OCC          E(Eh)            E(eV)
   0   2.0000     -92.102537     -2506.2375
   1   2.0000     -20.521307      -558.4132
   2   2.0000     -15.602679      -424.5705
   3   2.0000     -11.288576      -307.1778
   4   2.0000     -11.275991      -306.8353
   5   2.0000     -11.238064      -305.8033
   6   2.0000      -9.084619      -247.2050
   7   2.0000      -6.766159      -184.1165
   8   2.0000      -6.765541      -184.0997
   9   2.0000      -6.764168      -184.0624
  10   2.0000      -1.360801       -37.0293
  11   2.0000      -1.249646       -34.0046
  12   2.0000      -1.070287       -29.1240
  13   2.0000      -0.994330       -27.0571
  14   2.0000      -0.840241       -22.8641
  15   2.0000      -0.789312       -21.4783
  16   2.0000      -0.729386       -19.8476
  17   2.0000      -0.642642       -17.4872
  18   2.0000      -0.614640       -16.7252
  19   2.0000      -0.602163       -16.3857
  20   2.0000      -0.583807       -15.8862
  21   2.0000      -0.563793       -15.3416
  22   2.0000      -0.546559       -14.8726
  23   2.0000      -0.504112       -13.7176
  24   2.0000      -0.436285       -11.8719
  25   2.0000      -0.386002       -10.5037
  26   2.0000      -0.340869        -9.2755
  27   0.0000       0.025537         0.6949
  28   0.0000       0.032763         0.8915
  29   0.0000       0.038481         1.0471
  30   0.0000       0.047222         1.2850
  31   0.0000       0.053756         1.4628

MULLIKEN ATOMIC CHARGES
-----------------------
   0 C :   -0.358106
   1 C :   -0.673722
   2 C :   -0.304377
   3 N :   -0.234597
   4 O :   -0.907365
   5 S :    0.767131
   6 H :    0.378527
   7 H :    0.680880
   8 H :    0.282928
   9 H :    0.309841
  10 H :    0.058860
Sum of atomic charges:    0.0000000

LOEWDIN ATOMIC CHARGES
----------------------
   0 C :    0.149914
   1 C :    0.004468
   2 C :    0.104845
   3 N :    0.299101
   4 O :   -0.183400
   5 S :    0.801855
   6 H :   -0.199223
   7 H :   -0.175125
   8 H :   -0.212572
   9 H :   -0.213518
  10 H :   -0.376344

  Mayer bond orders larger than 0.100000
B(  0-C ,  1-C ) :   1.5250 B(  0-C ,  2-C ) :   0.8819 B(  0-C ,  3-N ) :  -0.1642
B(  0-C ,  6-H ) :   0.9263 B(  1-C ,  3-N ) :   0.9850 B(  1-C ,  7-H ) :   0.4061
B(  2-C ,  5-S ) :   0.9016 B(  2-C ,  8-H ) :   0.9185 B(  2-C ,  9-H ) :   0.9138
B(  3-N ,  5-S ) :   0.8915 B(  3-N , 10-H ) :   1.0328 B(  4-O ,  5-S ) :   1.3960

MP2 TOTAL ENERGY:     -644.529000973 Eh
FINAL SINGLE POINT ENERGY      -644.529000972907

DIPOLE MOMENT
-------------
                                X             Y             Z
Electronic contribution:      3.87230      -1.32481      -0.88023
Nuclear contribution   :     -5.10241       1.27192       0.25778
                        -----------------------------------------
Total Dipole Moment    :     -1.23011      -0.05289      -0.62245
                        -----------------------------------------
Magnitude (a.u.)       :      1.37964
Magnitude (Debye)      :      3.50676

Rotational constants in cm-1:     0.183660     0.099529     0.080290
Rotational constants in MHz :  5505.979745  2983.809703  2407.023537

                             ****ORCA TERMINATED NORMALLY****
TOTAL RUN TIME: 0 days 0 hours 2 minutes 24 seconds 770 msec
