                         Program Version 5.0.3 -  RELEASE  -
|  1> !ri-mp2 aug-cc-pvtz aug-cc-pvtz/c tightscf
|  2> %pal nprocs 16 end
|  3>
|  4> * xyz 0 1
|  5> S     -1.667961   -0.117975   -0.000019
|  6> O      2.177698   -0.373093    0.000025
|  7> C     -0.141968    0.236010   -0.000001
|  8> C      1.136462    0.528571    0.000012
|  9> H      1.833657   -1.273070    0.000026
| 10> H      1.465171    1.557929    0.000014
| 11> *
| 12>
| 13>                          ****END OF INPUT****

CARTESIAN COORDINATES (ANGSTROEM)
---------------------------------
  S     -1.667961   -0.117975   -0.000019
  O      2.177698   -0.373093    0.000025
  C     -0.141968    0.236010   -0.000001
  C      1.136462    0.528571    0.000012
  H      1.833657   -1.273070    0.000026
  H      1.465171    1.557929    0.000014

 Total Charge           Charge          ....    0
 Multiplicity           Mult            ....    1
 Number of Electrons    NEL             ....   38
 Basis Dimension        Dim             ....  234

ORBITAL ENERGIES
----------------

  NO   OCC          E(Eh)            E(eV)
   0   2.0000     -91.978845     -2502.8716
   1   2.0000     -20.613378      -560.9185
   2   2.0000     -11.328720      -308.2701
   3   2.0000     -11.322149      -308.0913
   4   2.0000      -8.980545      -244.3730
   5   2.0000      -6.661584      -181.2709
   6   2.0000      -6.660506      -181.2416
   7   2.0000      -6.658933      -181.1988
   8   2.0000      -1.417637       -38.5759
   9   2.0000      -1.103226       -30.0203
  10   2.0000      -0.981436       -26.7062
  11   2.0000      -0.806050       -21.9337
  12   2.0000      -0.670802       -18.2535
  13   2.0000      -0.623410       -16.9638
  14   2.0000      -0.604812       -16.4578
  15   2.0000      -0.570381       -15.5209
  16   2.0000      -0.483648       -13.1607
  17   2.0000      -0.433825       -11.8050
  18   2.0000      -0.315675        -8.5899
  19   0.0000       0.024059         0.6547
  20   0.0000       0.037740         1.0270
  21   0.0000       0.040171         1.0931
  22   0.0000       0.059128         1.6089
  23   0.0000       0.079352         2.1593

MULLIKEN ATOMIC CHARGES
-----------------------
   0 S :   -0.343620
   1 O :   -0.401063
   2 C :    0.284912
   3 C :   -0.259237
   4 H :    0.186932
   5 H :    0.532076
Sum of atomic charges:    0.0000000

LOEWDIN ATOMIC CHARGES
----------------------
   0 S :    0.862427
   1 O :    0.777199
   2 C :   -0.702575
   3 C :   -0.207331
   4 H :   -0.494015
   5 H :   -0.235706

  Mayer bond orders larger than 0.100000
B(  0-S ,  2-C ) :   2.0414 B(  0-S ,  3-C ) :  -0.1212 B(  1-O ,  3-C ) :   0.9686
B(  1-O ,  4-H ) :   0.9741 B(  2-C ,  3-C ) :   1.4501 B(  3-C ,  5-H ) :   0.7120

MP2 TOTAL ENERGY:     -550.021448931 Eh
FINAL SINGLE POINT ENERGY      -550.021448930923

DIPOLE MOMENT
-------------
                                X             Y             Z
Electronic contribution:     -3.03108      -0.38342      -0.00003
Nuclear contribution   :      3.25991       0.27220       0.00004
                        -----------------------------------------
Total Dipole Moment    :      0.22883      -0.11121       0.00000
                        -----------------------------------------
Magnitude (a.u.)       :      0.25442
Magnitude (Debye)      :      0.64669

Rotational constants in cm-1:     1.564204     0.090524     0.085572
Rotational constants in MHz : 46893.650861  2713.849971  2565.384889

                             ****ORCA TERMINATED NORMALLY****
TOTAL RUN TIME: 0 days 0 hours 0 minutes 38 seconds 233 msec
