                         Program Version 5.0.3 -  RELEASE  -
|  1> !ri-mp2 aug-cc-pvtz aug-cc-pvtz/c tightscf
|  2> %pal nprocs 16 end
|  3>
|  4> * xyz 0 1
|  5> H      1.261590   -2.270226    0.000000
|  6> C      0.638250   -1.394165    0.000000
|  7> N      1.115640   -0.158335    0.000000
|  8> N     -0.709343   -1.427292    0.000000
|  9> N     -1.101004   -0.179300    0.000000
| 10> N      0.000000    0.555258    0.000000
| 11> H      0.482613    2.378013    0.888585
| 12> H     -1.062032    2.314158    0.000000
| 13> H      0.482613    2.378013   -0.888585
| 14> C     -0.021889    2.005452    0.000000
| 15> *
| 16>
| 17>                          ****END OF INPUT****

CARTESIAN COORDINATES (ANGSTROEM)
---------------------------------
  H      1.261590   -2.270226    0.000000
  C      0.638250   -1.394165    0.000000
  N      1.115640   -0.158335    0.000000
  N     -0.709343   -1.427292    0.000000
  N     -1.101004   -0.179300    0.000000
  N      0.000000    0.555258    0.000000
  H      0.482613    2.378013    0.888585
  H     -1.062032    2.314158    0.000000
  H      0.482613    2.378013   -0.888585
  C     -0.021889    2.005452    0.000000

 Total Charge           Charge          ....    0
 Multiplicity           Mult            ....    1
 Number of Electrons    NEL             ....   44
 Basis Dimension        Dim             ....  368

ORBITAL ENERGIES
----------------

  NO   OCC          E(Eh)            E(eV)
   0   2.0000     -15.707350      -427.4187
   1   2.0000     -15.666511      -426.3074
   2   2.0000     -15.624253      -425.1575
   3   2.0000     -15.606678      -424.6793
   4   2.0000     -11.299882      -307.4854
   5   2.0000     -11.297170      -307.4116
   6   2.0000      -1.504282       -40.9336
   7   2.0000      -1.267121       -34.4801
   8   2.0000      -1.194480       -32.5034
   9   2.0000      -1.020177       -27.7604
  10   2.0000      -0.882183       -24.0054
  11   2.0000      -0.851191       -23.1621
  12   2.0000      -0.737082       -20.0570
  13   2.0000      -0.706752       -19.2317
  14   2.0000      -0.641194       -17.4478
  15   2.0000      -0.601220       -16.3600
  16   2.0000      -0.598479       -16.2854
  17   2.0000      -0.562104       -15.2956
  18   2.0000      -0.496812       -13.5189
  19   2.0000      -0.469517       -12.7762
  20   2.0000      -0.435744       -11.8572
  21   2.0000      -0.402467       -10.9517
  22   0.0000       0.025244         0.6869
  23   0.0000       0.037537         1.0214
  24   0.0000       0.041979         1.1423
  25   0.0000       0.046583         1.2676
  26   0.0000       0.077833         2.1180

MULLIKEN ATOMIC CHARGES
-----------------------
   0 H :    0.678365
   1 C :   -0.348403
   2 N :   -0.813200
   3 N :   -0.295157
   4 N :   -0.503762
   5 N :    0.958487
   6 H :    0.338308
   7 H :    0.406990
   8 H :    0.338308
   9 C :   -0.759936
Sum of atomic charges:   -0.0000000

LOEWDIN ATOMIC CHARGES
----------------------
   0 H :   -0.211147
   1 C :   -0.208940
   2 N :    0.298378
   3 N :    0.159805
   4 N :    0.134682
   5 N :   -0.197788
   6 H :   -0.161446
   7 H :   -0.174868
   8 H :   -0.161446
   9 C :    0.522771

  Mayer bond orders larger than 0.100000
B(  0-H ,  1-C ) :   0.4815 B(  1-C ,  2-N ) :   1.6429 B(  1-C ,  3-N ) :   1.2434
B(  1-C ,  4-N ) :   0.1321 B(  1-C ,  5-N ) :  -0.1488 B(  2-N ,  4-N ) :   0.2443
B(  2-N ,  5-N ) :   0.4294 B(  3-N ,  4-N ) :   0.8688 B(  4-N ,  5-N ) :   0.8729
B(  5-N ,  9-C ) :   0.7885 B(  6-H ,  9-C ) :   0.9050 B(  7-H ,  9-C ) :   0.8400
B(  8-H ,  9-C ) :   0.9050

MP2 TOTAL ENERGY:     -297.058224184 Eh
FINAL SINGLE POINT ENERGY      -297.058224184166

DIPOLE MOMENT
-------------
                                X             Y             Z
Electronic contribution:     -0.60490      -3.71790      -0.00000
Nuclear contribution   :      1.14073       4.71039       0.00000
                        -----------------------------------------
Total Dipole Moment    :      0.53583       0.99249      -0.00000
                        -----------------------------------------
Magnitude (a.u.)       :      1.12789
Magnitude (Debye)      :      2.86688

Rotational constants in cm-1:     0.329597     0.131063     0.095465
Rotational constants in MHz :  9881.059717  3929.170116  2861.959413

                             ****ORCA TERMINATED NORMALLY****
TOTAL RUN TIME: 0 days 0 hours 1 minutes 40 seconds 643 msec
