                         Program Version 5.0.3 -  RELEASE  -
|  1> !ri-mp2 aug-cc-pvtz aug-cc-pvtz/c tightscf
|  2> %pal nprocs 16 end
|  3>
|  4> * xyz 0 1
|  5> C     0.000000     2.348442   -1.472492
|  6> C     0.000000     1.181572   -0.546325
|  7> C     0.000000     1.220509    0.796168
|  8> C     0.000000     0.000000    1.597720
|  9> O     0.000000     0.000000    2.824812
| 10> O     0.000000     0.000000   -1.229567
| 11> C     0.000000    -1.220509    0.796168
| 12> C     0.000000    -1.181572   -0.546325
| 13> C     0.000000    -2.348442   -1.472492
| 14> H     0.879762     2.324369   -2.118001
| 15> H     0.000000     3.279116   -0.911282
| 16> H    -0.879762     2.324369   -2.118001
| 17> H     0.000000     2.170852    1.309034
| 18> H     0.000000    -2.170852    1.309034
| 19> H     0.000000    -3.279116   -0.911282
| 20> H     0.879762    -2.324369   -2.118001
| 21> H    -0.879762    -2.324369   -2.118001
| 22> *
| 23>
| 24>                          ****END OF INPUT****

CARTESIAN COORDINATES (ANGSTROEM)
---------------------------------
  C      0.000000    2.348442   -1.472492
  C      0.000000    1.181572   -0.546325
  C      0.000000    1.220509    0.796168
  C      0.000000    0.000000    1.597720
  O      0.000000    0.000000    2.824812
  O      0.000000    0.000000   -1.229567
  C      0.000000   -1.220509    0.796168
  C      0.000000   -1.181572   -0.546325
  C      0.000000   -2.348442   -1.472492
  H      0.879762    2.324369   -2.118001
  H      0.000000    3.279116   -0.911282
  H     -0.879762    2.324369   -2.118001
  H      0.000000    2.170852    1.309034
  H      0.000000   -2.170852    1.309034
  H      0.000000   -3.279116   -0.911282
  H      0.879762   -2.324369   -2.118001
  H     -0.879762   -2.324369   -2.118001

 Total Charge           Charge          ....    0
 Multiplicity           Mult            ....    1
 Number of Electrons    NEL             ....   66
 Basis Dimension        Dim             ....  598

ORBITAL ENERGIES
----------------

  NO   OCC          E(Eh)            E(eV)
   0   2.0000     -20.641342      -561.6795
   1   2.0000     -20.515825      -558.2640
   2   2.0000     -11.337786      -308.5168
   3   2.0000     -11.337759      -308.5161
   4   2.0000     -11.321312      -308.0686
   5   2.0000     -11.251069      -306.1571
   6   2.0000     -11.251068      -306.1571
   7   2.0000     -11.232945      -305.6640
   8   2.0000     -11.232929      -305.6635
   9   2.0000      -1.475594       -40.1530
  10   2.0000      -1.355355       -36.8811
  11   2.0000      -1.119960       -30.4757
  12   2.0000      -1.093633       -29.7593
  13   2.0000      -1.012032       -27.5388
  14   2.0000      -0.964322       -26.2405
  15   2.0000      -0.867891       -23.6165
  16   2.0000      -0.825274       -22.4569
  17   2.0000      -0.721951       -19.6453
  18   2.0000      -0.715275       -19.4636
  19   2.0000      -0.675695       -18.3866
  20   2.0000      -0.644172       -17.5288
  21   2.0000      -0.611522       -16.6403
  22   2.0000      -0.602013       -16.3816
  23   2.0000      -0.601149       -16.3581
  24   2.0000      -0.580732       -15.8025
  25   2.0000      -0.570616       -15.5273
  26   2.0000      -0.568136       -15.4598
  27   2.0000      -0.550514       -14.9803
  28   2.0000      -0.537344       -14.6219
  29   2.0000      -0.529445       -14.4069
  30   2.0000      -0.407572       -11.0906
  31   2.0000      -0.380396       -10.3511
  32   2.0000      -0.356024        -9.6879
  33   0.0000       0.021830         0.5940
  34   0.0000       0.027024         0.7354
  35   0.0000       0.036867         1.0032
  36   0.0000       0.039185         1.0663
  37   0.0000       0.046582         1.2676

MULLIKEN ATOMIC CHARGES
-----------------------
   0 C :   -0.846995
   1 C :    0.661424
   2 C :   -0.615174
   3 C :    0.914819
   4 O :   -1.038296
   5 O :   -0.409110
   6 C :   -0.615174
   7 C :    0.661424
   8 C :   -0.846995
   9 H :    0.260283
  10 H :    0.315710
  11 H :    0.260283
  12 H :    0.230763
  13 H :    0.230763
  14 H :    0.315710
  15 H :    0.260283
  16 H :    0.260283
Sum of atomic charges:   -0.0000000

LOEWDIN ATOMIC CHARGES
----------------------
   0 C :    0.596398
   1 C :   -0.340219
   2 C :    0.223838
   3 C :   -0.612165
   4 O :    0.415527
   5 O :    0.620039
   6 C :    0.223838
   7 C :   -0.340219
   8 C :    0.596398
   9 H :   -0.162852
  10 H :   -0.174363
  11 H :   -0.162852
  12 H :   -0.191650
  13 H :   -0.191650
  14 H :   -0.174363
  15 H :   -0.162852
  16 H :   -0.162852

  Mayer bond orders larger than 0.100000
B(  0-C ,  1-C ) :   0.5608 B(  0-C ,  9-H ) :   1.0393 B(  0-C , 10-H ) :   0.9663
B(  0-C , 11-H ) :   1.0393 B(  1-C ,  2-C ) :   1.3638 B(  1-C ,  5-O ) :   0.8864
B(  1-C ,  7-C ) :   0.1417 B(  2-C ,  3-C ) :   0.9058 B(  2-C , 12-H ) :   1.0686
B(  3-C ,  4-O ) :   0.8702 B(  3-C ,  6-C ) :   0.9058 B(  5-O ,  7-C ) :   0.8864
B(  6-C ,  7-C ) :   1.3638 B(  6-C , 13-H ) :   1.0686 B(  7-C ,  8-C ) :   0.5608
B(  8-C , 14-H ) :   0.9663 B(  8-C , 15-H ) :   1.0393 B(  8-C , 16-H ) :   1.0393

MP2 TOTAL ENERGY:     -421.215040880 Eh
FINAL SINGLE POINT ENERGY      -421.215040879807

DIPOLE MOMENT
-------------
                                X             Y             Z
Electronic contribution:     -0.00000       0.00000       5.46925
Nuclear contribution   :      0.00000       0.00000      -7.63988
                        -----------------------------------------
Total Dipole Moment    :     -0.00000       0.00000      -2.17063
                        -----------------------------------------
Magnitude (a.u.)       :      2.17063
Magnitude (Debye)      :      5.51730

Rotational constants in cm-1:     0.065368     0.059596     0.031538
Rotational constants in MHz :  1959.675014  1786.635114   945.492211

                             ****ORCA TERMINATED NORMALLY****
TOTAL RUN TIME: 0 days 0 hours 9 minutes 23 seconds 694 msec
