                         Program Version 5.0.3 -  RELEASE  -
|  1> !ri-mp2 aug-cc-pvtz aug-cc-pvtz/c tightscf
|  2> %pal nprocs 16 end
|  3>
|  4> * xyz 0 1
|  5> Cl     2.782522   -0.268531    0.000000
|  6> S     -0.110760   -1.024111   -0.000001
|  7> N     -3.828995   -0.415531   -0.000002
|  8> C     -0.790124    1.468188    0.000000
|  9> C      0.622911    1.455790    0.000000
| 10> C     -1.342826    0.212106    0.000000
| 11> C      1.123743    0.185775    0.000000
| 12> C     -2.711030   -0.129258   -0.000001
| 13> H     -1.387679    2.366653    0.000000
| 14> H      1.243873    2.337262    0.000002
| 15> *
| 16>
| 17>                          ****END OF INPUT****

CARTESIAN COORDINATES (ANGSTROEM)
---------------------------------
  Cl     2.782522   -0.268531    0.000000
  S     -0.110760   -1.024111   -0.000001
  N     -3.828995   -0.415531   -0.000002
  C     -0.790124    1.468188    0.000000
  C      0.622911    1.455790    0.000000
  C     -1.342826    0.212106    0.000000
  C      1.123743    0.185775    0.000000
  C     -2.711030   -0.129258   -0.000001
  H     -1.387679    2.366653    0.000000
  H      1.243873    2.337262    0.000002

 Total Charge           Charge          ....    0
 Multiplicity           Mult            ....    1
 Number of Electrons    NEL             ....   72
 Basis Dimension        Dim             ....  422

ORBITAL ENERGIES
----------------

  NO   OCC          E(Eh)            E(eV)
   0   2.0000    -104.882731     -2854.0042
   1   2.0000     -92.032885     -2504.3421
   2   2.0000     -15.586355      -424.1263
   3   2.0000     -11.362078      -309.1779
   4   2.0000     -11.322551      -308.1023
   5   2.0000     -11.293219      -307.3041
   6   2.0000     -11.292100      -307.2737
   7   2.0000     -11.277946      -306.8885
   8   2.0000     -10.606021      -288.6045
   9   2.0000      -9.032216      -245.7791
  10   2.0000      -8.072997      -219.6774
  11   2.0000      -8.070851      -219.6190
  12   2.0000      -8.070833      -219.6185
  13   2.0000      -6.712990      -182.6697
  14   2.0000      -6.712464      -182.6554
  15   2.0000      -6.711521      -182.6298
  16   2.0000      -1.247661       -33.9506
  17   2.0000      -1.227157       -33.3926
  18   2.0000      -1.159805       -31.5599
  19   2.0000      -1.041247       -28.3338
  20   2.0000      -1.017513       -27.6879
  21   2.0000      -0.865907       -23.5625
  22   2.0000      -0.780257       -21.2319
  23   2.0000      -0.743367       -20.2280
  24   2.0000      -0.650502       -17.7011
  25   2.0000      -0.610556       -16.6141
  26   2.0000      -0.598577       -16.2881
  27   2.0000      -0.595575       -16.2064
  28   2.0000      -0.571272       -15.5451
  29   2.0000      -0.535702       -14.5772
  30   2.0000      -0.529830       -14.4174
  31   2.0000      -0.486543       -13.2395
  32   2.0000      -0.480051       -13.0629
  33   2.0000      -0.472776       -12.8649
  34   2.0000      -0.391041       -10.6408
  35   2.0000      -0.350080        -9.5262
  36   0.0000       0.023018         0.6264
  37   0.0000       0.038089         1.0365
  38   0.0000       0.040236         1.0949
  39   0.0000       0.053229         1.4484
  40   0.0000       0.065308         1.7771

MULLIKEN ATOMIC CHARGES
-----------------------
   0 Cl:   -0.363443
   1 S :   -0.161600
   2 N :   -0.681623
   3 C :   -1.146249
   4 C :   -0.675309
   5 C :    1.444509
   6 C :    0.667045
   7 C :    0.032116
   8 H :    0.396891
   9 H :    0.487662
Sum of atomic charges:    0.0000000

LOEWDIN ATOMIC CHARGES
----------------------
   0 Cl:    0.930739
   1 S :    1.230810
   2 N :    0.257093
   3 C :    0.087158
   4 C :    0.007556
   5 C :   -0.594580
   6 C :   -1.211673
   7 C :   -0.334667
   8 H :   -0.171835
   9 H :   -0.200601

  Mayer bond orders larger than 0.100000
B(  0-Cl,  6-C ) :   0.7268 B(  1-S ,  3-C ) :   0.2186 B(  1-S ,  5-C ) :   0.8611
B(  1-S ,  6-C ) :   1.1428 B(  2-N ,  7-C ) :   2.0504 B(  3-C ,  4-C ) :   1.5234
B(  3-C ,  5-C ) :   0.8337 B(  3-C ,  7-C ) :   0.2937 B(  3-C ,  8-H ) :   0.9760
B(  4-C ,  5-C ) :  -0.1616 B(  4-C ,  6-C ) :   1.3577 B(  4-C ,  9-H ) :   0.8155
B(  5-C ,  7-C ) :   0.4636

MP2 TOTAL ENERGY:    -1103.411980365 Eh
FINAL SINGLE POINT ENERGY     -1103.411980364559

DIPOLE MOMENT
-------------
                                X             Y             Z
Electronic contribution:      5.26891      -3.94113      -0.00000
Nuclear contribution   :     -3.90216       4.81897       0.00000
                        -----------------------------------------
Total Dipole Moment    :      1.36674       0.87785       0.00000
                        -----------------------------------------
Magnitude (a.u.)       :      1.62438
Magnitude (Debye)      :      4.12884

Rotational constants in cm-1:     0.165153     0.027151     0.023317
Rotational constants in MHz :  4951.172425   813.960207   699.039829

                             ****ORCA TERMINATED NORMALLY****
TOTAL RUN TIME: 0 days 0 hours 3 minutes 21 seconds 674 msec
