                         Program Version 5.0.3 -  RELEASE  -
|  1> !ri-mp2 aug-cc-pvtz aug-cc-pvtz/c tightscf
|  2> %pal nprocs 16 end
|  3> %maxcore 3800
|  4>
|  5> * xyz 0 1
|  6> C      2.780946    0.034090   -0.496412
|  7> C      2.081979    1.196215   -0.197941
|  8> C      1.046417   -1.191362    0.282233
|  9> C      0.324882   -0.029326    0.581800
| 10> C     -2.293729    1.300701   -0.581142
| 11> C     -2.259009   -1.219791   -0.767466
| 12> C     -1.051716   -0.083716    1.186804
| 13> C     -2.235332   -0.022090    0.185648
| 14> N      2.262542   -1.168677   -0.252894
| 15> N      0.864183    1.170413    0.338964
| 16> H      3.772639    0.071644   -0.930765
| 17> H      2.515504    2.170975   -0.390188
| 18> H      0.623598   -2.167465    0.490849
| 19> H     -1.429831    1.424092   -1.234865
| 20> H     -2.314015    2.154514    0.096934
| 21> H     -3.190666    1.339309   -1.201754
| 22> H     -3.158002   -1.199555   -1.385241
| 23> H     -1.400440   -1.213979   -1.441787
| 24> H     -2.251536   -2.166685   -0.224003
| 25> H     -1.144990   -1.004046    1.767797
| 26> H     -1.141864    0.752268    1.881855
| 27> H     -3.134101   -0.081540    0.807527
| 28> *
| 29>
| 30>                          ****END OF INPUT****

CARTESIAN COORDINATES (ANGSTROEM)
---------------------------------
  C      2.780946    0.034090   -0.496412
  C      2.081979    1.196215   -0.197941
  C      1.046417   -1.191362    0.282233
  C      0.324882   -0.029326    0.581800
  C     -2.293729    1.300701   -0.581142
  C     -2.259009   -1.219791   -0.767466
  C     -1.051716   -0.083716    1.186804
  C     -2.235332   -0.022090    0.185648
  N      2.262542   -1.168677   -0.252894
  N      0.864183    1.170413    0.338964
  H      3.772639    0.071644   -0.930765
  H      2.515504    2.170975   -0.390188
  H      0.623598   -2.167465    0.490849
  H     -1.429831    1.424092   -1.234865
  H     -2.314015    2.154514    0.096934
  H     -3.190666    1.339309   -1.201754
  H     -3.158002   -1.199555   -1.385241
  H     -1.400440   -1.213979   -1.441787
  H     -2.251536   -2.166685   -0.224003
  H     -1.144990   -1.004046    1.767797
  H     -1.141864    0.752268    1.881855
  H     -3.134101   -0.081540    0.807527

 Total Charge           Charge          ....    0
 Multiplicity           Mult            ....    1
 Number of Electrons    NEL             ....   74
 Basis Dimension        Dim             ....  736

ORBITAL ENERGIES
----------------

  NO   OCC          E(Eh)            E(eV)
   0   2.0000     -15.587976      -424.1704
   1   2.0000     -15.583040      -424.0361
   2   2.0000     -11.283941      -307.0517
   3   2.0000     -11.278578      -306.9057
   4   2.0000     -11.275310      -306.8168
   5   2.0000     -11.274962      -306.8073
   6   2.0000     -11.234929      -305.7180
   7   2.0000     -11.231869      -305.6347
   8   2.0000     -11.214411      -305.1596
   9   2.0000     -11.208050      -304.9866
  10   2.0000      -1.305525       -35.5251
  11   2.0000      -1.216626       -33.1061
  12   2.0000      -1.101805       -29.9816
  13   2.0000      -1.048320       -28.5262
  14   2.0000      -0.957002       -26.0414
  15   2.0000      -0.931829       -25.3564
  16   2.0000      -0.893600       -24.3161
  17   2.0000      -0.860999       -23.4290
  18   2.0000      -0.772276       -21.0147
  19   2.0000      -0.710854       -19.3433
  20   2.0000      -0.706462       -19.2238
  21   2.0000      -0.657841       -17.9008
  22   2.0000      -0.635334       -17.2883
  23   2.0000      -0.600809       -16.3488
  24   2.0000      -0.593940       -16.1619
  25   2.0000      -0.580689       -15.8014
  26   2.0000      -0.565912       -15.3993
  27   2.0000      -0.538475       -14.6526
  28   2.0000      -0.536778       -14.6065
  29   2.0000      -0.518272       -14.1029
  30   2.0000      -0.492100       -13.3907
  31   2.0000      -0.476136       -12.9563
  32   2.0000      -0.469557       -12.7773
  33   2.0000      -0.467882       -12.7317
  34   2.0000      -0.427995       -11.6463
  35   2.0000      -0.400979       -10.9112
  36   2.0000      -0.345269        -9.3953
  37   0.0000       0.027684         0.7533
  38   0.0000       0.031185         0.8486
  39   0.0000       0.035734         0.9724
  40   0.0000       0.037298         1.0149
  41   0.0000       0.045212         1.2303

MULLIKEN ATOMIC CHARGES
-----------------------
   0 C :   -0.490234
   1 C :   -0.562469
   2 C :   -0.715072
   3 C :    1.107750
   4 C :   -1.089864
   5 C :   -1.047514
   6 C :   -0.268835
   7 C :    0.139149
   8 N :   -0.542697
   9 N :   -0.611701
  10 H :    0.590703
  11 H :    0.549390
  12 H :    0.488324
  13 H :    0.324402
  14 H :    0.265835
  15 H :    0.230813
  16 H :    0.204946
  17 H :    0.333740
  18 H :    0.276802
  19 H :    0.202108
  20 H :    0.220347
  21 H :    0.394079
Sum of atomic charges:   -0.0000000

LOEWDIN ATOMIC CHARGES
----------------------
   0 C :    0.016373
   1 C :    0.026397
   2 C :    0.041432
   3 C :   -0.286828
   4 C :    0.584515
   5 C :    0.582919
   6 C :    0.288789
   7 C :   -0.040944
   8 N :    0.380246
   9 N :    0.410651
  10 H :   -0.198257
  11 H :   -0.193737
  12 H :   -0.183837
  13 H :   -0.171948
  14 H :   -0.160485
  15 H :   -0.164942
  16 H :   -0.163556
  17 H :   -0.166634
  18 H :   -0.162247
  19 H :   -0.152916
  20 H :   -0.149522
  21 H :   -0.135470

  Mayer bond orders larger than 0.100000
B(  0-C ,  1-C ) :   1.1705 B(  0-C ,  2-C ) :  -0.2070 B(  0-C ,  3-C ) :   0.2963
B(  0-C ,  8-N ) :   1.1451 B(  0-C , 10-H ) :   0.5722 B(  1-C ,  2-C ) :   0.1804
B(  1-C ,  3-C ) :  -0.2238 B(  1-C ,  9-N ) :   1.2125 B(  1-C , 11-H ) :   0.6820
B(  2-C ,  3-C ) :   0.2984 B(  2-C ,  7-C ) :   0.1200 B(  2-C ,  8-N ) :   0.4512
B(  2-C , 12-H ) :   0.7294 B(  3-C ,  6-C ) :   0.5370 B(  3-C ,  7-C ) :   0.2164
B(  3-C ,  8-N ) :   0.1148 B(  3-C ,  9-N ) :   0.3282 B(  4-C ,  5-C ) :   0.1516
B(  4-C ,  7-C ) :   0.7194 B(  4-C , 13-H ) :   0.9409 B(  4-C , 14-H ) :   0.9812
B(  4-C , 15-H ) :   1.0367 B(  5-C ,  7-C ) :   0.7074 B(  5-C , 16-H ) :   1.0644
B(  5-C , 17-H ) :   0.9328 B(  5-C , 18-H ) :   0.9667 B(  6-C ,  7-C ) :   0.8851
B(  6-C , 19-H ) :   1.0550 B(  6-C , 20-H ) :   1.0137 B(  7-C , 21-H ) :   0.8381

MP2 TOTAL ENERGY:     -420.719055641 Eh
FINAL SINGLE POINT ENERGY      -420.719055640945

DIPOLE MOMENT
-------------
                                X             Y             Z
Electronic contribution:     12.19244      -0.01097       1.86042
Nuclear contribution   :    -12.48504       0.08116      -1.79911
                        -----------------------------------------
Total Dipole Moment    :     -0.29260       0.07019       0.06130
                        -----------------------------------------
Magnitude (a.u.)       :      0.30708
Magnitude (Debye)      :      0.78055

Rotational constants in cm-1:     0.087245     0.030002     0.026139
Rotational constants in MHz :  2615.529093   899.431218   783.617531

                             ****ORCA TERMINATED NORMALLY****
TOTAL RUN TIME: 0 days 0 hours 14 minutes 49 seconds 316 msec
