                         Program Version 5.0.3 -  RELEASE  -
|  1> !ri-mp2 aug-cc-pvtz aug-cc-pvtz/c tightscf
|  2> %pal nprocs 16 end
|  3>
|  4> * xyz 0 1
|  5> C      0.836982   -0.734002    1.259163
|  6> C      0.836982   -0.734002   -1.259163
|  7> C      0.836982    1.444049    0.000000
|  8> C      0.356343   -0.010366    0.000000
|  9> S     -1.509289    0.094963    0.000000
| 10> H      0.477461   -1.763198    1.286405
| 11> H      1.929912   -0.761420    1.279568
| 12> H      0.489091   -0.229768    2.159568
| 13> H      0.489091   -0.229768   -2.159568
| 14> H      0.477461   -1.763198   -1.286405
| 15> H      1.929912   -0.761420   -1.279568
| 16> H      0.487296    1.977794    0.883980
| 17> H      1.928534    1.468659    0.000000
| 18> H      0.487296    1.977794   -0.883980
| 19> H     -1.751158   -1.228962    0.000000
| 20> *
| 21>
| 22>                          ****END OF INPUT****

CARTESIAN COORDINATES (ANGSTROEM)
---------------------------------
  C      0.836982   -0.734002    1.259163
  C      0.836982   -0.734002   -1.259163
  C      0.836982    1.444049    0.000000
  C      0.356343   -0.010366    0.000000
  S     -1.509289    0.094963    0.000000
  H      0.477461   -1.763198    1.286405
  H      1.929912   -0.761420    1.279568
  H      0.489091   -0.229768    2.159568
  H      0.489091   -0.229768   -2.159568
  H      0.477461   -1.763198   -1.286405
  H      1.929912   -0.761420   -1.279568
  H      0.487296    1.977794    0.883980
  H      1.928534    1.468659    0.000000
  H      0.487296    1.977794   -0.883980
  H     -1.751158   -1.228962    0.000000

 Total Charge           Charge          ....    0
 Multiplicity           Mult            ....    1
 Number of Electrons    NEL             ....   50
 Basis Dimension        Dim             ....  464

ORBITAL ENERGIES
----------------

  NO   OCC          E(Eh)            E(eV)
   0   2.0000     -91.943541     -2501.9109
   1   2.0000     -11.277385      -306.8733
   2   2.0000     -11.223460      -305.4059
   3   2.0000     -11.222004      -305.3663
   4   2.0000     -11.221990      -305.3659
   5   2.0000      -8.944645      -243.3962
   6   2.0000      -6.625940      -180.3010
   7   2.0000      -6.624848      -180.2713
   8   2.0000      -6.623938      -180.2465
   9   2.0000      -1.115123       -30.3441
  10   2.0000      -0.944878       -25.7114
  11   2.0000      -0.943405       -25.6714
  12   2.0000      -0.937816       -25.5193
  13   2.0000      -0.742557       -20.2060
  14   2.0000      -0.627739       -17.0817
  15   2.0000      -0.611248       -16.6329
  16   2.0000      -0.610599       -16.6153
  17   2.0000      -0.557929       -15.1820
  18   2.0000      -0.550999       -14.9934
  19   2.0000      -0.524105       -14.2616
  20   2.0000      -0.507000       -13.7962
  21   2.0000      -0.484963       -13.1965
  22   2.0000      -0.476269       -12.9599
  23   2.0000      -0.425218       -11.5708
  24   2.0000      -0.352540        -9.5931
  25   0.0000       0.028770         0.7829
  26   0.0000       0.037172         1.0115
  27   0.0000       0.039580         1.0770
  28   0.0000       0.042599         1.1592
  29   0.0000       0.058143         1.5821

MULLIKEN ATOMIC CHARGES
-----------------------
   0 C :   -1.109591
   1 C :   -1.109591
   2 C :   -1.125931
   3 C :    1.216184
   4 S :   -0.604583
   5 H :    0.296579
   6 H :    0.269849
   7 H :    0.322736
   8 H :    0.322736
   9 H :    0.296579
  10 H :    0.269849
  11 H :    0.314076
  12 H :    0.276031
  13 H :    0.314076
  14 H :    0.051002
Sum of atomic charges:   -0.0000000

LOEWDIN ATOMIC CHARGES
----------------------
   0 C :    0.503175
   1 C :    0.503175
   2 C :    0.488361
   3 C :   -0.711138
   4 S :    1.323616
   5 H :   -0.176173
   6 H :   -0.162737
   7 H :   -0.176246
   8 H :   -0.176246
   9 H :   -0.176173
  10 H :   -0.162737
  11 H :   -0.175973
  12 H :   -0.162550
  13 H :   -0.175973
  14 H :   -0.562383

  Mayer bond orders larger than 0.100000
B(  0-C ,  3-C ) :   0.6596 B(  0-C ,  5-H ) :   0.9854 B(  0-C ,  6-H ) :   0.9260
B(  0-C ,  7-H ) :   0.9710 B(  1-C ,  3-C ) :   0.6596 B(  1-C ,  8-H ) :   0.9710
B(  1-C ,  9-H ) :   0.9854 B(  1-C , 10-H ) :   0.9260 B(  2-C ,  3-C ) :   0.5522
B(  2-C ,  4-S ) :   0.1281 B(  2-C , 11-H ) :   0.9659 B(  2-C , 12-H ) :   0.9725
B(  2-C , 13-H ) :   0.9659 B(  3-C ,  4-S ) :   0.4756 B(  4-S , 14-H ) :   1.1479

MP2 TOTAL ENERGY:     -555.814006726 Eh
FINAL SINGLE POINT ENERGY      -555.814006725678

DIPOLE MOMENT
-------------
                                X             Y             Z
Electronic contribution:     -6.59889       1.07186      -0.00000
Nuclear contribution   :      7.27983      -1.37071       0.00000
                        -----------------------------------------
Total Dipole Moment    :      0.68094      -0.29885      -0.00000
                        -----------------------------------------
Magnitude (a.u.)       :      0.74363
Magnitude (Debye)      :      1.89016

Rotational constants in cm-1:     0.149235     0.098664     0.097772
Rotational constants in MHz :  4473.966195  2957.858357  2931.131184

                             ****ORCA TERMINATED NORMALLY****
TOTAL RUN TIME: 0 days 0 hours 3 minutes 32 seconds 874 msec
