                         Program Version 5.0.3 -  RELEASE  -
|  1> !ri-mp2 aug-cc-pvtz aug-cc-pvtz/c tightscf
|  2> %pal nprocs 16 end
|  3>
|  4> * xyz 0 1
|  5> O      3.930220    0.922903   -0.701602
|  6> O     -3.930220   -0.922899   -0.701611
|  7> O      3.973285   -0.836514    0.665513
|  8> O     -3.973285    0.836512    0.665510
|  9> C      3.332555    0.099218   -0.070156
| 10> C     -3.332555   -0.099217   -0.070161
| 11> C      1.886554    0.027690   -0.032419
| 12> C     -1.886554   -0.027691   -0.032422
| 13> C      0.677478    0.008906   -0.032785
| 14> C     -0.677478   -0.008907   -0.032786
| 15> H      3.342337   -1.424609    1.100947
| 16> H     -3.342337    1.424605    1.100948
| 17> *
| 18>
| 19>                          ****END OF INPUT****

CARTESIAN COORDINATES (ANGSTROEM)
---------------------------------
  O      3.930220    0.922903   -0.701602
  O     -3.930220   -0.922899   -0.701611
  O      3.973285   -0.836514    0.665513
  O     -3.973285    0.836512    0.665510
  C      3.332555    0.099218   -0.070156
  C     -3.332555   -0.099217   -0.070161
  C      1.886554    0.027690   -0.032419
  C     -1.886554   -0.027691   -0.032422
  C      0.677478    0.008906   -0.032785
  C     -0.677478   -0.008907   -0.032786
  H      3.342337   -1.424609    1.100947
  H     -3.342337    1.424605    1.100948

 Total Charge           Charge          ....    0
 Multiplicity           Mult            ....    1
 Number of Electrons    NEL             ....   70
 Basis Dimension        Dim             ....  506

ORBITAL ENERGIES
----------------

  NO   OCC          E(Eh)            E(eV)
   0   2.0000     -20.648409      -561.8718
   1   2.0000     -20.648409      -561.8718
   2   2.0000     -20.585975      -560.1728
   3   2.0000     -20.585974      -560.1728
   4   2.0000     -11.442880      -311.3766
   5   2.0000     -11.442879      -311.3766
   6   2.0000     -11.326506      -308.2099
   7   2.0000     -11.325198      -308.1743
   8   2.0000     -11.313446      -307.8545
   9   2.0000     -11.313419      -307.8538
  10   2.0000      -1.498128       -40.7661
  11   2.0000      -1.498121       -40.7659
  12   2.0000      -1.404077       -38.2069
  13   2.0000      -1.404076       -38.2069
  14   2.0000      -1.155333       -31.4382
  15   2.0000      -1.093503       -29.7557
  16   2.0000      -0.975002       -26.5311
  17   2.0000      -0.922891       -25.1131
  18   2.0000      -0.866019       -23.5656
  19   2.0000      -0.837851       -22.7991
  20   2.0000      -0.819250       -22.2929
  21   2.0000      -0.699117       -19.0239
  22   2.0000      -0.698885       -19.0176
  23   2.0000      -0.669988       -18.2313
  24   2.0000      -0.669531       -18.2189
  25   2.0000      -0.636313       -17.3150
  26   2.0000      -0.635102       -17.2820
  27   2.0000      -0.548844       -14.9348
  28   2.0000      -0.548579       -14.9276
  29   2.0000      -0.517902       -14.0928
  30   2.0000      -0.515583       -14.0297
  31   2.0000      -0.504504       -13.7283
  32   2.0000      -0.504309       -13.7229
  33   2.0000      -0.417901       -11.3717
  34   2.0000      -0.417249       -11.3539
  35   0.0000       0.013902         0.3783
  36   0.0000       0.022152         0.6028
  37   0.0000       0.023445         0.6380
  38   0.0000       0.035101         0.9551
  39   0.0000       0.055469         1.5094

MULLIKEN ATOMIC CHARGES
-----------------------
   0 O :   -0.577233
   1 O :   -0.577234
   2 O :   -0.352007
   3 O :   -0.352008
   4 C :    0.323633
   5 C :    0.323632
   6 C :    1.352971
   7 C :    1.352974
   8 C :   -0.974642
   9 C :   -0.974649
  10 H :    0.227281
  11 H :    0.227282
Sum of atomic charges:   -0.0000000

LOEWDIN ATOMIC CHARGES
----------------------
   0 O :    0.439828
   1 O :    0.439828
   2 O :    0.825660
   3 O :    0.825659
   4 C :   -0.864681
   5 C :   -0.864683
   6 C :    0.077997
   7 C :    0.077997
   8 C :    0.001202
   9 C :    0.001202
  10 H :   -0.480006
  11 H :   -0.480005

  Mayer bond orders larger than 0.100000
B(  0-O ,  4-C ) :   1.8569 B(  0-O ,  6-C ) :  -0.2949 B(  0-O ,  8-C ) :   0.1241
B(  1-O ,  5-C ) :   1.8569 B(  1-O ,  7-C ) :  -0.2949 B(  1-O ,  9-C ) :   0.1241
B(  2-O ,  4-C ) :   1.0738 B(  2-O , 10-H ) :   0.9453 B(  3-O ,  5-C ) :   1.0738
B(  3-O , 11-H ) :   0.9453 B(  4-C ,  5-C ) :   0.5300 B(  4-C ,  6-C ) :  -0.2693
B(  4-C ,  7-C ) :   2.9554 B(  4-C ,  8-C ) :  -0.6351 B(  4-C ,  9-C ) :  -1.9377
B(  5-C ,  6-C ) :   2.9554 B(  5-C ,  7-C ) :  -0.2694 B(  5-C ,  8-C ) :  -1.9377
B(  5-C ,  9-C ) :  -0.6351 B(  6-C ,  7-C ) :  13.4000 B(  6-C ,  8-C ) :  -1.5299
B(  6-C ,  9-C ) : -12.3149 B(  7-C ,  8-C ) : -12.3149 B(  7-C ,  9-C ) :  -1.5299
B(  8-C ,  9-C ) :  10.3833

MP2 TOTAL ENERGY:     -529.765270166 Eh
FINAL SINGLE POINT ENERGY      -529.765270166474

DIPOLE MOMENT
-------------
                                X             Y             Z
Electronic contribution:     -0.00000       0.00000      -0.72849
Nuclear contribution   :      0.00000      -0.00000       2.09536
                        -----------------------------------------
Total Dipole Moment    :     -0.00000      -0.00000       1.36687
                        -----------------------------------------
Magnitude (a.u.)       :      1.36687
Magnitude (Debye)      :      3.47431

Rotational constants in cm-1:     0.195050     0.011890     0.011713
Rotational constants in MHz :  5847.442947   356.450389   351.144225

                             ****ORCA TERMINATED NORMALLY****
TOTAL RUN TIME: 0 days 0 hours 3 minutes 41 seconds 403 msec
