                         Program Version 5.0.3 -  RELEASE  -
|  1> !ri-mp2 aug-cc-pvtz aug-cc-pvtz/c tightscf
|  2> %pal nprocs 16 end
|  3>
|  4> * xyz 0 1
|  5> Cl    -2.404059   -0.918678    0.064286
|  6> S      3.086866   -0.390320    0.010773
|  7> N      0.477949    0.509740   -0.210547
|  8> C     -0.645305    1.190578    0.353524
|  9> C     -1.953863    0.791832   -0.301178
| 10> C      1.598040    0.139991   -0.071736
| 11> H     -0.688979    1.001710    1.427947
| 12> H     -0.514156    2.267281    0.204283
| 13> H     -1.896342    0.876305   -1.382173
| 14> H     -2.760260    1.414766    0.074888
| 15> *
| 16>
| 17>                          ****END OF INPUT****

CARTESIAN COORDINATES (ANGSTROEM)
---------------------------------
  Cl    -2.404059   -0.918678    0.064286
  S      3.086866   -0.390320    0.010773
  N      0.477949    0.509740   -0.210547
  C     -0.645305    1.190578    0.353524
  C     -1.953863    0.791832   -0.301178
  C      1.598040    0.139991   -0.071736
  H     -0.688979    1.001710    1.427947
  H     -0.514156    2.267281    0.204283
  H     -1.896342    0.876305   -1.382173
  H     -2.760260    1.414766    0.074888

 Total Charge           Charge          ....    0
 Multiplicity           Mult            ....    1
 Number of Electrons    NEL             ....   62
 Basis Dimension        Dim             ....  376

ORBITAL ENERGIES
----------------

  NO   OCC          E(Eh)            E(eV)
   0   2.0000    -104.838284     -2852.7948
   1   2.0000     -91.950099     -2502.0894
   2   2.0000     -15.613360      -424.8611
   3   2.0000     -11.379162      -309.6427
   4   2.0000     -11.325584      -308.1848
   5   2.0000     -11.319072      -308.0076
   6   2.0000     -10.562264      -287.4138
   7   2.0000      -8.953393      -243.6342
   8   2.0000      -8.029071      -218.4821
   9   2.0000      -8.027281      -218.4334
  10   2.0000      -8.027237      -218.4322
  11   2.0000      -6.635048      -180.5488
  12   2.0000      -6.632480      -180.4790
  13   2.0000      -6.632270      -180.4732
  14   2.0000      -1.303981       -35.4831
  15   2.0000      -1.155319       -31.4378
  16   2.0000      -1.066317       -29.0160
  17   2.0000      -1.012475       -27.5509
  18   2.0000      -0.893698       -24.3188
  19   2.0000      -0.756488       -20.5851
  20   2.0000      -0.682156       -18.5624
  21   2.0000      -0.646403       -17.5895
  22   2.0000      -0.617553       -16.8045
  23   2.0000      -0.594826       -16.1860
  24   2.0000      -0.562282       -15.3005
  25   2.0000      -0.537254       -14.6194
  26   2.0000      -0.518500       -14.1091
  27   2.0000      -0.451219       -12.2783
  28   2.0000      -0.449209       -12.2236
  29   2.0000      -0.368392       -10.0244
  30   2.0000      -0.359413        -9.7801
  31   0.0000       0.020326         0.5531
  32   0.0000       0.036124         0.9830
  33   0.0000       0.039953         1.0872
  34   0.0000       0.045011         1.2248
  35   0.0000       0.063819         1.7366

MULLIKEN ATOMIC CHARGES
-----------------------
   0 Cl:   -0.309055
   1 S :   -0.343127
   2 N :    0.075114
   3 C :    0.089407
   4 C :   -0.373925
   5 C :   -0.379686
   6 H :    0.359479
   7 H :    0.339252
   8 H :    0.260476
   9 H :    0.282065
Sum of atomic charges:    0.0000000

LOEWDIN ATOMIC CHARGES
----------------------
   0 Cl:    0.889599
   1 S :    0.816194
   2 N :    0.209555
   3 C :    0.024088
   4 C :   -0.263418
   5 C :   -0.881326
   6 H :   -0.165270
   7 H :   -0.154497
   8 H :   -0.237361
   9 H :   -0.237563

  Mayer bond orders larger than 0.100000
B(  0-Cl,  4-C ) :   0.8478 B(  1-S ,  5-C ) :   1.8084 B(  2-N ,  3-C ) :   0.5121
B(  2-N ,  5-C ) :   2.0190 B(  3-C ,  4-C ) :   0.9182 B(  3-C ,  5-C ) :  -0.2923
B(  3-C ,  6-H ) :   0.8879 B(  3-C ,  7-H ) :   0.8863 B(  4-C ,  8-H ) :   0.9456
B(  4-C ,  9-H ) :   0.9401

MP2 TOTAL ENERGY:    -1028.561575518 Eh
FINAL SINGLE POINT ENERGY     -1028.561575518292

DIPOLE MOMENT
-------------
                                X             Y             Z
Electronic contribution:      1.45754      -5.27751      -0.09264
Nuclear contribution   :     -2.40648       6.59791       0.22161
                        -----------------------------------------
Total Dipole Moment    :     -0.94894       1.32040       0.12898
                        -----------------------------------------
Magnitude (a.u.)       :      1.63113
Magnitude (Debye)      :      4.14600

Rotational constants in cm-1:     0.213190     0.027421     0.024828
Rotational constants in MHz :  6391.290208   822.064029   744.333886

                             ****ORCA TERMINATED NORMALLY****
TOTAL RUN TIME: 0 days 0 hours 1 minutes 46 seconds 911 msec
