                         Program Version 5.0.3 -  RELEASE  -
|  1> !ri-mp2 aug-cc-pvtz aug-cc-pvtz/c tightscf
|  2> %pal nprocs 16 end
|  3>
|  4> * xyz 0 1
|  5> C      1.153465    1.135016   -0.007007
|  6> C      0.013587   -0.948032   -0.008764
|  7> C     -0.091847    1.747296    0.002284
|  8> C      1.221900   -0.256301   -0.010428
|  9> C     -1.196914   -0.255109    0.000772
| 10> C      2.541088   -0.977755    0.007212
| 11> C     -2.516394   -0.975301    0.001562
| 12> N     -1.245756    1.082383    0.006775
| 13> H      2.053167    1.736401   -0.014432
| 14> H      0.010024   -2.030698   -0.017846
| 15> H     -0.165664    2.829419    0.003732
| 16> H      2.444441   -1.995475   -0.368921
| 17> H      3.285505   -0.457038   -0.595106
| 18> H      2.932172   -1.038201    1.025756
| 19> H     -2.388031   -2.056557   -0.001058
| 20> H     -3.098551   -0.693608    0.880030
| 21> H     -3.102079   -0.689810   -0.873359
| 22> *
| 23>
| 24>                          ****END OF INPUT****

CARTESIAN COORDINATES (ANGSTROEM)
---------------------------------
  C      1.153465    1.135016   -0.007007
  C      0.013587   -0.948032   -0.008764
  C     -0.091847    1.747296    0.002284
  C      1.221900   -0.256301   -0.010428
  C     -1.196914   -0.255109    0.000772
  C      2.541088   -0.977755    0.007212
  C     -2.516394   -0.975301    0.001562
  N     -1.245756    1.082383    0.006775
  H      2.053167    1.736401   -0.014432
  H      0.010024   -2.030698   -0.017846
  H     -0.165664    2.829419    0.003732
  H      2.444441   -1.995475   -0.368921
  H      3.285505   -0.457038   -0.595106
  H      2.932172   -1.038201    1.025756
  H     -2.388031   -2.056557   -0.001058
  H     -3.098551   -0.693608    0.880030
  H     -3.102079   -0.689810   -0.873359

 Total Charge           Charge          ....    0
 Multiplicity           Mult            ....    1
 Number of Electrons    NEL             ....   58
 Basis Dimension        Dim             ....  575

ORBITAL ENERGIES
----------------

  NO   OCC          E(Eh)            E(eV)
   0   2.0000     -15.549986      -423.1366
   1   2.0000     -11.276038      -306.8366
   2   2.0000     -11.267869      -306.6143
   3   2.0000     -11.261017      -306.4279
   4   2.0000     -11.233911      -305.6903
   5   2.0000     -11.226874      -305.4988
   6   2.0000     -11.226733      -305.4949
   7   2.0000     -11.219336      -305.2937
   8   2.0000      -1.253860       -34.1193
   9   2.0000      -1.105089       -30.0710
  10   2.0000      -1.052576       -28.6421
  11   2.0000      -0.968958       -26.3667
  12   2.0000      -0.946368       -25.7520
  13   2.0000      -0.843756       -22.9598
  14   2.0000      -0.796631       -21.6774
  15   2.0000      -0.681469       -18.5437
  16   2.0000      -0.674713       -18.3599
  17   2.0000      -0.633229       -17.2310
  18   2.0000      -0.593102       -16.1391
  19   2.0000      -0.575304       -15.6548
  20   2.0000      -0.574621       -15.6362
  21   2.0000      -0.562339       -15.3020
  22   2.0000      -0.549619       -14.9559
  23   2.0000      -0.530818       -14.4443
  24   2.0000      -0.506967       -13.7953
  25   2.0000      -0.498764       -13.5721
  26   2.0000      -0.407356       -11.0847
  27   2.0000      -0.365162        -9.9366
  28   2.0000      -0.334072        -9.0905
  29   0.0000       0.026283         0.7152
  30   0.0000       0.032148         0.8748
  31   0.0000       0.035205         0.9580
  32   0.0000       0.042199         1.1483
  33   0.0000       0.046645         1.2693

MULLIKEN ATOMIC CHARGES
-----------------------
   0 C :   -0.623028
   1 C :   -1.058682
   2 C :   -0.592298
   3 C :    1.208239
   4 C :    0.976391
   5 C :   -0.920357
   6 C :   -0.781563
   7 N :   -0.838411
   8 H :    0.261204
   9 H :    0.030882
  10 H :    0.641049
  11 H :    0.267980
  12 H :    0.269263
  13 H :    0.311680
  14 H :    0.301996
  15 H :    0.271707
  16 H :    0.273948
Sum of atomic charges:   -0.0000000

LOEWDIN ATOMIC CHARGES
----------------------
   0 C :    0.213939
   1 C :    0.234581
   2 C :    0.015496
   3 C :   -0.128777
   4 C :   -0.307995
   5 C :    0.591388
   6 C :    0.578219
   7 N :    0.392672
   8 H :   -0.185169
   9 H :   -0.183571
  10 H :   -0.191199
  11 H :   -0.174842
  12 H :   -0.170631
  13 H :   -0.160347
  14 H :   -0.184063
  15 H :   -0.169931
  16 H :   -0.169770

  Mayer bond orders larger than 0.100000
B(  0-C ,  2-C ) :   1.0931 B(  0-C ,  3-C ) :   0.9000 B(  0-C ,  4-C ) :   0.1157
B(  0-C ,  8-H ) :   1.0910 B(  1-C ,  3-C ) :   0.8382 B(  1-C ,  4-C ) :   1.0033
B(  1-C ,  7-N ) :   0.1101 B(  1-C ,  9-H ) :   1.4722 B(  2-C ,  7-N ) :   1.2461
B(  2-C , 10-H ) :   0.4476 B(  3-C ,  5-C ) :   0.6001 B(  3-C ,  8-H ) :  -0.1154
B(  3-C ,  9-H ) :  -0.1672 B(  4-C ,  6-C ) :   0.3111 B(  4-C ,  7-N ) :   0.5415
B(  4-C ,  9-H ) :  -0.1597 B(  5-C , 11-H ) :   1.0058 B(  5-C , 12-H ) :   1.0130
B(  5-C , 13-H ) :   0.9552 B(  6-C , 14-H ) :   0.9775 B(  6-C , 15-H ) :   1.0259
B(  6-C , 16-H ) :   1.0240 B(  7-N ,  9-H ) :   0.1053 B(  7-N , 10-H ) :  -0.1095

MP2 TOTAL ENERGY:     -326.240489866 Eh
FINAL SINGLE POINT ENERGY      -326.240489865702

DIPOLE MOMENT
-------------
                                X             Y             Z
Electronic contribution:     -1.22816       3.89676      -0.02925
Nuclear contribution   :      1.99615      -4.46181       0.03948
                        -----------------------------------------
Total Dipole Moment    :      0.76799      -0.56505       0.01023
                        -----------------------------------------
Magnitude (a.u.)       :      0.95352
Magnitude (Debye)      :      2.42364

Rotational constants in cm-1:     0.127215     0.059218     0.041020
Rotational constants in MHz :  3813.819786  1775.310780  1229.736122

                             ****ORCA TERMINATED NORMALLY****
TOTAL RUN TIME: 0 days 0 hours 7 minutes 24 seconds 383 msec
