                         Program Version 5.0.3 -  RELEASE  -
|  1> !ri-mp2 aug-cc-pvtz aug-cc-pvtz/c tightscf
|  2> %pal nprocs 16 end
|  3>
|  4> * xyz 0 1
|  5> S      0.301124   -1.194128   -0.000003
|  6> S     -2.516695   -0.103145   -0.000004
|  7> O      2.855536   -0.380914    0.000003
|  8> N     -0.251435    1.319996    0.000004
|  9> C     -0.891421    0.133788   -0.000001
| 10> C      1.703099   -0.063528    0.000002
| 11> C      1.190060    1.371895    0.000006
| 12> H     -0.815242    2.155712    0.000006
| 13> H      1.584859    1.877534   -0.885017
| 14> H      1.584856    1.877528    0.885033
| 15> *
| 16>
| 17>                          ****END OF INPUT****

CARTESIAN COORDINATES (ANGSTROEM)
---------------------------------
  S      0.301124   -1.194128   -0.000003
  S     -2.516695   -0.103145   -0.000004
  O      2.855536   -0.380914    0.000003
  N     -0.251435    1.319996    0.000004
  C     -0.891421    0.133788   -0.000001
  C      1.703099   -0.063528    0.000002
  C      1.190060    1.371895    0.000006
  H     -0.815242    2.155712    0.000006
  H      1.584859    1.877534   -0.885017
  H      1.584856    1.877528    0.885033

 Total Charge           Charge          ....    0
 Multiplicity           Mult            ....    1
 Number of Electrons    NEL             ....   68
 Basis Dimension        Dim             ....  399

ORBITAL ENERGIES
----------------

  NO   OCC          E(Eh)            E(eV)
   0   2.0000     -92.019948     -2503.9901
   1   2.0000     -91.925842     -2501.4293
   2   2.0000     -20.595721      -560.4381
   3   2.0000     -15.643901      -425.6922
   4   2.0000     -11.403686      -310.3101
   5   2.0000     -11.400090      -310.2122
   6   2.0000     -11.329166      -308.2823
   7   2.0000      -9.020789      -245.4682
   8   2.0000      -8.928941      -242.9688
   9   2.0000      -6.701385      -182.3540
  10   2.0000      -6.700585      -182.3322
  11   2.0000      -6.699663      -182.3071
  12   2.0000      -6.610339      -179.8765
  13   2.0000      -6.608576      -179.8285
  14   2.0000      -6.607740      -179.8058
  15   2.0000      -1.445516       -39.3345
  16   2.0000      -1.330763       -36.2119
  17   2.0000      -1.091578       -29.7033
  18   2.0000      -1.070983       -29.1429
  19   2.0000      -0.961249       -26.1569
  20   2.0000      -0.829088       -22.5606
  21   2.0000      -0.796041       -21.6614
  22   2.0000      -0.723041       -19.6749
  23   2.0000      -0.699332       -19.0298
  24   2.0000      -0.667971       -18.1764
  25   2.0000      -0.655717       -17.8430
  26   2.0000      -0.577788       -15.7224
  27   2.0000      -0.576812       -15.6959
  28   2.0000      -0.545778       -14.8514
  29   2.0000      -0.520948       -14.1757
  30   2.0000      -0.446301       -12.1445
  31   2.0000      -0.417525       -11.3614
  32   2.0000      -0.352943        -9.6041
  33   2.0000      -0.348356        -9.4793
  34   0.0000       0.017483         0.4757
  35   0.0000       0.035389         0.9630
  36   0.0000       0.041616         1.1324
  37   0.0000       0.056349         1.5333
  38   0.0000       0.066359         1.8057

MULLIKEN ATOMIC CHARGES
-----------------------
   0 S :   -0.034307
   1 S :   -0.468806
   2 O :   -0.735733
   3 N :   -0.010483
   4 C :    0.167334
   5 C :    0.566726
   6 C :   -0.182065
   7 H :    0.096211
   8 H :    0.300561
   9 H :    0.300561
Sum of atomic charges:    0.0000000

LOEWDIN ATOMIC CHARGES
----------------------
   0 S :    1.175809
   1 S :    0.793205
   2 O :    0.387173
   3 N :    0.373655
   4 C :   -1.388375
   5 C :   -0.886155
   6 C :    0.127550
   7 H :   -0.290249
   8 H :   -0.146306
   9 H :   -0.146306

  Mayer bond orders larger than 0.100000
B(  0-S ,  4-C ) :   0.9267 B(  0-S ,  5-C ) :   1.1114 B(  1-S ,  4-C ) :   1.6515
B(  2-O ,  5-C ) :   1.4675 B(  3-N ,  4-C ) :   1.2589 B(  3-N ,  6-C ) :   0.8737
B(  3-N ,  7-H ) :   1.0328 B(  5-C ,  6-C ) :   0.8359 B(  6-C ,  8-H ) :   0.8849
B(  6-C ,  9-H ) :   0.8849

MP2 TOTAL ENERGY:    -1041.115031623 Eh
FINAL SINGLE POINT ENERGY     -1041.115031622874

DIPOLE MOMENT
-------------
                                X             Y             Z
Electronic contribution:     -1.75106      -4.24572      -0.00002
Nuclear contribution   :      2.36500       5.70789       0.00002
                        -----------------------------------------
Total Dipole Moment    :      0.61394       1.46217       0.00001
                        -----------------------------------------
Magnitude (a.u.)       :      1.58583
Magnitude (Debye)      :      4.03086

Rotational constants in cm-1:     0.155085     0.041518     0.032953
Rotational constants in MHz :  4649.336895  1244.679198   987.893117

                             ****ORCA TERMINATED NORMALLY****
TOTAL RUN TIME: 0 days 0 hours 2 minutes 41 seconds 598 msec
