                         Program Version 5.0.3 -  RELEASE  -
|  1> !ri-mp2 aug-cc-pvtz aug-cc-pvtz/c tightscf
|  2> %pal nprocs 16 end
|  3>
|  4> * xyz 0 1
|  5> C     -0.186018    1.136555   -0.016276
|  6> C      2.009439    0.143910   -0.020263
|  7> C     -1.688458    0.930915   -0.085110
|  8> C     -2.193334   -0.451194    0.319463
|  9> C     -1.329801   -1.518012   -0.342061
| 10> C      0.110985   -1.389348    0.120028
| 11> N      0.625043   -0.010474   -0.004995
| 12> O      0.292401    2.250735   -0.012180
| 13> O      2.774688   -0.789444    0.046595
| 14> H      2.318270    1.188945   -0.103512
| 15> H     -2.134838    1.730283    0.504410
| 16> H     -1.958505    1.134988   -1.126204
| 17> H     -2.147779   -0.565223    1.406075
| 18> H     -3.240882   -0.559386    0.036482
| 19> H     -1.680512   -2.521239   -0.096983
| 20> H     -1.383960   -1.417352   -1.429648
| 21> H      0.200795   -1.695360    1.165693
| 22> H      0.778519   -2.029625   -0.451356
| 23> *
| 24>
| 25>                          ****END OF INPUT****

CARTESIAN COORDINATES (ANGSTROEM)
---------------------------------
  C     -0.186018    1.136555   -0.016276
  C      2.009439    0.143910   -0.020263
  C     -1.688458    0.930915   -0.085110
  C     -2.193334   -0.451194    0.319463
  C     -1.329801   -1.518012   -0.342061
  C      0.110985   -1.389348    0.120028
  N      0.625043   -0.010474   -0.004995
  O      0.292401    2.250735   -0.012180
  O      2.774688   -0.789444    0.046595
  H      2.318270    1.188945   -0.103512
  H     -2.134838    1.730283    0.504410
  H     -1.958505    1.134988   -1.126204
  H     -2.147779   -0.565223    1.406075
  H     -3.240882   -0.559386    0.036482
  H     -1.680512   -2.521239   -0.096983
  H     -1.383960   -1.417352   -1.429648
  H      0.200795   -1.695360    1.165693
  H      0.778519   -2.029625   -0.451356

 Total Charge           Charge          ....    0
 Multiplicity           Mult            ....    1
 Number of Electrons    NEL             ....   68
 Basis Dimension        Dim             ....  621

ORBITAL ENERGIES
----------------

  NO   OCC          E(Eh)            E(eV)
   0   2.0000     -20.549476      -559.1797
   1   2.0000     -20.545233      -559.0642
   2   2.0000     -15.619322      -425.0234
   3   2.0000     -11.377539      -309.5986
   4   2.0000     -11.359434      -309.1059
   5   2.0000     -11.282456      -307.0112
   6   2.0000     -11.256373      -306.3015
   7   2.0000     -11.250643      -306.1456
   8   2.0000     -11.249024      -306.1015
   9   2.0000      -1.419758       -38.6336
  10   2.0000      -1.396582       -38.0029
  11   2.0000      -1.263260       -34.3751
  12   2.0000      -1.112275       -30.2665
  13   2.0000      -1.033725       -28.1291
  14   2.0000      -0.938464       -25.5369
  15   2.0000      -0.878930       -23.9169
  16   2.0000      -0.836501       -22.7623
  17   2.0000      -0.753875       -20.5140
  18   2.0000      -0.706037       -19.2122
  19   2.0000      -0.688340       -18.7307
  20   2.0000      -0.667619       -18.1668
  21   2.0000      -0.635909       -17.3040
  22   2.0000      -0.626527       -17.0487
  23   2.0000      -0.619542       -16.8586
  24   2.0000      -0.615189       -16.7401
  25   2.0000      -0.596263       -16.2251
  26   2.0000      -0.541733       -14.7413
  27   2.0000      -0.521519       -14.1912
  28   2.0000      -0.519464       -14.1353
  29   2.0000      -0.502504       -13.6738
  30   2.0000      -0.496376       -13.5071
  31   2.0000      -0.466384       -12.6909
  32   2.0000      -0.423773       -11.5314
  33   2.0000      -0.409404       -11.1404
  34   0.0000       0.020716         0.5637
  35   0.0000       0.031993         0.8706
  36   0.0000       0.032964         0.8970
  37   0.0000       0.038618         1.0509
  38   0.0000       0.051880         1.4117

MULLIKEN ATOMIC CHARGES
-----------------------
   0 C :    0.246821
   1 C :   -0.250313
   2 C :   -0.138556
   3 C :   -0.456136
   4 C :   -0.453621
   5 C :   -0.412042
   6 N :    0.343563
   7 O :   -0.927086
   8 O :   -0.812643
   9 H :    0.720271
  10 H :    0.309891
  11 H :    0.195460
  12 H :    0.212520
  13 H :    0.299483
  14 H :    0.304339
  15 H :    0.210756
  16 H :    0.232788
  17 H :    0.374506
Sum of atomic charges:    0.0000000

LOEWDIN ATOMIC CHARGES
----------------------
   0 C :   -0.615748
   1 C :   -0.325517
   2 C :    0.308959
   3 C :    0.293106
   4 C :    0.297300
   5 C :    0.196399
   6 N :    0.262332
   7 O :    0.472321
   8 O :    0.446420
   9 H :   -0.206288
  10 H :   -0.150355
  11 H :   -0.140077
  12 H :   -0.138475
  13 H :   -0.137108
  14 H :   -0.134810
  15 H :   -0.134937
  16 H :   -0.129453
  17 H :   -0.164071

  Mayer bond orders larger than 0.100000
B(  0-C ,  1-C ) :  -0.1765 B(  0-C ,  2-C ) :   0.3203 B(  0-C ,  3-C ) :   0.1016
B(  0-C ,  6-N ) :   0.9415 B(  0-C ,  7-O ) :   1.3778 B(  1-C ,  6-N ) :   1.1631
B(  1-C ,  8-O ) :   1.7546 B(  1-C ,  9-H ) :   0.4073 B(  2-C ,  3-C ) :   0.9011
B(  2-C , 10-H ) :   0.9406 B(  2-C , 11-H ) :   1.0088 B(  3-C ,  4-C ) :   0.8754
B(  3-C , 12-H ) :   0.9947 B(  3-C , 13-H ) :   0.9433 B(  4-C ,  5-C ) :   0.9108
B(  4-C , 14-H ) :   0.9128 B(  4-C , 15-H ) :   1.0099 B(  5-C ,  6-N ) :   0.7124
B(  5-C , 16-H ) :   1.0168 B(  5-C , 17-H ) :   0.8855 B(  6-N ,  7-O ) :  -0.1510
B(  8-O ,  9-H ) :  -0.1212

MP2 TOTAL ENERGY:     -438.490176227 Eh
FINAL SINGLE POINT ENERGY      -438.490176226983

DIPOLE MOMENT
-------------
                                X             Y             Z
Electronic contribution:      7.44669       4.03475       0.03832
Nuclear contribution   :     -9.23781      -4.73196      -0.09495
                        -----------------------------------------
Total Dipole Moment    :     -1.79112      -0.69721      -0.05663
                        -----------------------------------------
Magnitude (a.u.)       :      1.92287
Magnitude (Debye)      :      4.88755

Rotational constants in cm-1:     0.083386     0.050098     0.032518
Rotational constants in MHz :  2499.850164  1501.893695   974.852515

                             ****ORCA TERMINATED NORMALLY****
TOTAL RUN TIME: 0 days 0 hours 9 minutes 28 seconds 858 msec
