                         Program Version 5.0.3 -  RELEASE  -
|  1> !ri-mp2 aug-cc-pvtz aug-cc-pvtz/c tightscf
|  2> %pal nprocs 16 end
|  3>
|  4> * xyz 0 1
|  5> C     0.000000     0.000000    1.130632
|  6> N     0.000000     1.186666    0.292106
|  7> N     0.000000    -1.186666    0.292106
|  8> C     0.000000     0.737561   -0.907000
|  9> C     0.000000    -0.737561   -0.907000
| 10> H    -0.879628     0.000000    1.780422
| 11> H     0.879628     0.000000    1.780422
| 12> H     0.000000     1.384794   -1.775054
| 13> H     0.000000    -1.384794   -1.775054
| 14> *
| 15>
| 16>                          ****END OF INPUT****

CARTESIAN COORDINATES (ANGSTROEM)
---------------------------------
  C      0.000000    0.000000    1.130632
  N      0.000000    1.186666    0.292106
  N      0.000000   -1.186666    0.292106
  C      0.000000    0.737561   -0.907000
  C      0.000000   -0.737561   -0.907000
  H     -0.879628    0.000000    1.780422
  H      0.879628    0.000000    1.780422
  H      0.000000    1.384794   -1.775054
  H      0.000000   -1.384794   -1.775054

 Total Charge           Charge          ....    0
 Multiplicity           Mult            ....    1
 Number of Electrons    NEL             ....   36
 Basis Dimension        Dim             ....  322

ORBITAL ENERGIES
----------------

  NO   OCC          E(Eh)            E(eV)
   0   2.0000     -15.581088      -423.9830
   1   2.0000     -15.581051      -423.9820
   2   2.0000     -11.290418      -307.2279
   3   2.0000     -11.289630      -307.2065
   4   2.0000     -11.288456      -307.1745
   5   2.0000      -1.325203       -36.0606
   6   2.0000      -1.174378       -31.9565
   7   2.0000      -0.999222       -27.1902
   8   2.0000      -0.820598       -22.3296
   9   2.0000      -0.789081       -21.4720
  10   2.0000      -0.711989       -19.3742
  11   2.0000      -0.647541       -17.6205
  12   2.0000      -0.609266       -16.5790
  13   2.0000      -0.562646       -15.3104
  14   2.0000      -0.467970       -12.7341
  15   2.0000      -0.464303       -12.6343
  16   2.0000      -0.443727       -12.0744
  17   2.0000      -0.410639       -11.1741
  18   0.0000       0.026354         0.7171
  19   0.0000       0.039787         1.0827
  20   0.0000       0.040041         1.0896
  21   0.0000       0.045179         1.2294
  22   0.0000       0.068573         1.8660

MULLIKEN ATOMIC CHARGES
-----------------------
   0 C :   -0.229741
   1 N :   -0.514382
   2 N :   -0.514382
   3 C :   -0.292873
   4 C :   -0.292873
   5 H :    0.332235
   6 H :    0.332235
   7 H :    0.589890
   8 H :    0.589890
Sum of atomic charges:   -0.0000000

LOEWDIN ATOMIC CHARGES
----------------------
   0 C :   -0.093745
   1 N :    0.385009
   2 N :    0.385009
   3 C :    0.018391
   4 C :    0.018391
   5 H :   -0.163809
   6 H :   -0.163809
   7 H :   -0.192718
   8 H :   -0.192718

  Mayer bond orders larger than 0.100000
B(  0-C ,  1-N ) :   0.8347 B(  0-C ,  2-N ) :   0.8347 B(  0-C ,  5-H ) :   0.8667
B(  0-C ,  6-H ) :   0.8667 B(  1-N ,  3-C ) :   1.5303 B(  2-N ,  4-C ) :   1.5303
B(  3-C ,  4-C ) :   0.8608 B(  3-C ,  7-H ) :   0.6092 B(  4-C ,  8-H ) :   0.6092

MP2 TOTAL ENERGY:     -225.761872587 Eh
FINAL SINGLE POINT ENERGY      -225.761872587390

DIPOLE MOMENT
-------------
                                X             Y             Z
Electronic contribution:     -0.00000      -0.00000      -0.66369
Nuclear contribution   :      0.00000       0.00000       0.01407
                        -----------------------------------------
Total Dipole Moment    :     -0.00000      -0.00000      -0.64962
                        -----------------------------------------
Magnitude (a.u.)       :      0.64962
Magnitude (Debye)      :      1.65121

Rotational constants in cm-1:     0.325384     0.290938     0.158093
Rotational constants in MHz :  9754.771509  8722.103146  4739.513647

                             ****ORCA TERMINATED NORMALLY****
TOTAL RUN TIME: 0 days 0 hours 1 minutes 14 seconds 513 msec
