                         Program Version 5.0.3 -  RELEASE  -
|  1> !ri-mp2 aug-cc-pvtz aug-cc-pvtz/c tightscf
|  2> %pal nprocs 16 end
|  3>
|  4> * xyz 0 1
|  5> C     -2.091969    0.010752   -0.180597
|  6> H     -2.635094   -0.893942    0.090351
|  7> H     -2.624543    0.872125    0.220077
|  8> H     -2.045431    0.092193   -1.265498
|  9> C     -0.698672   -0.035879    0.388299
| 10> H     -0.716959   -0.130269    1.485995
| 11> O      0.030683    1.138373    0.045279
| 12> O      0.034322   -1.115337   -0.154500
| 13> C      1.399093   -0.761458    0.034643
| 14> H      1.998042   -1.291310   -0.702163
| 15> H      1.730930   -1.043846    1.039807
| 16> C      1.397982    0.765704   -0.146745
| 17> H      1.700345    1.065105   -1.151226
| 18> H      2.034073    1.270939    0.582825
| 19> *
| 20>
| 21>                          ****END OF INPUT****

CARTESIAN COORDINATES (ANGSTROEM)
---------------------------------
  C     -2.091969    0.010752   -0.180597
  H     -2.635094   -0.893942    0.090351
  H     -2.624543    0.872125    0.220077
  H     -2.045431    0.092193   -1.265498
  C     -0.698672   -0.035879    0.388299
  H     -0.716959   -0.130269    1.485995
  O      0.030683    1.138373    0.045279
  O      0.034322   -1.115337   -0.154500
  C      1.399093   -0.761458    0.034643
  H      1.998042   -1.291310   -0.702163
  H      1.730930   -1.043846    1.039807
  C      1.397982    0.765704   -0.146745
  H      1.700345    1.065105   -1.151226
  H      2.034073    1.270939    0.582825

 Total Charge           Charge          ....    0
 Multiplicity           Mult            ....    1
 Number of Electrons    NEL             ....   48
 Basis Dimension        Dim             ....  460

ORBITAL ENERGIES
----------------

  NO   OCC          E(Eh)            E(eV)
   0   2.0000     -20.566482      -559.6424
   1   2.0000     -20.559575      -559.4545
   2   2.0000     -11.331578      -308.3479
   3   2.0000     -11.284358      -307.0630
   4   2.0000     -11.281490      -306.9849
   5   2.0000     -11.214978      -305.1751
   6   2.0000      -1.435835       -39.0711
   7   2.0000      -1.328406       -36.1478
   8   2.0000      -1.054343       -28.6901
   9   2.0000      -0.959631       -26.1129
  10   2.0000      -0.853723       -23.2310
  11   2.0000      -0.822983       -22.3945
  12   2.0000      -0.711974       -19.3738
  13   2.0000      -0.682473       -18.5710
  14   2.0000      -0.644707       -17.5434
  15   2.0000      -0.623496       -16.9662
  16   2.0000      -0.589134       -16.0311
  17   2.0000      -0.543388       -14.7863
  18   2.0000      -0.534037       -14.5319
  19   2.0000      -0.531509       -14.4631
  20   2.0000      -0.510476       -13.8907
  21   2.0000      -0.491172       -13.3655
  22   2.0000      -0.443091       -12.0571
  23   2.0000      -0.422956       -11.5092
  24   0.0000       0.030062         0.8180
  25   0.0000       0.037806         1.0287
  26   0.0000       0.038845         1.0570
  27   0.0000       0.041803         1.1375
  28   0.0000       0.054952         1.4953

MULLIKEN ATOMIC CHARGES
-----------------------
   0 C :   -1.055494
   1 H :    0.291912
   2 H :    0.295439
   3 H :    0.267061
   4 C :    0.628960
   5 H :    0.401887
   6 O :   -0.685186
   7 O :   -0.711244
   8 C :   -0.335001
   9 H :    0.393162
  10 H :    0.286953
  11 C :   -0.394565
  12 H :    0.310660
  13 H :    0.305455
Sum of atomic charges:    0.0000000

LOEWDIN ATOMIC CHARGES
----------------------
   0 C :    0.592191
   1 H :   -0.172649
   2 H :   -0.173159
   3 H :   -0.169411
   4 C :   -0.552106
   5 H :   -0.139953
   6 O :    0.568600
   7 O :    0.568425
   8 C :    0.055603
   9 H :   -0.160953
  10 H :   -0.156313
  11 C :    0.065850
  12 H :   -0.163682
  13 H :   -0.162442

  Mayer bond orders larger than 0.100000
B(  0-C ,  1-H ) :   0.9561 B(  0-C ,  2-H ) :   0.9668 B(  0-C ,  3-H ) :   0.9542
B(  0-C ,  4-C ) :   0.7760 B(  4-C ,  5-H ) :   0.8549 B(  4-C ,  6-O ) :   0.7531
B(  4-C ,  7-O ) :   0.7324 B(  6-O , 11-C ) :   0.8090 B(  7-O ,  8-C ) :   0.8341
B(  7-O , 11-C ) :   0.1282 B(  8-C ,  9-H ) :   0.8618 B(  8-C , 10-H ) :   0.9297
B(  8-C , 11-C ) :   1.0191 B( 11-C , 12-H ) :   0.9147 B( 11-C , 13-H ) :   0.9228

MP2 TOTAL ENERGY:     -307.124284540 Eh
FINAL SINGLE POINT ENERGY      -307.124284539639

DIPOLE MOMENT
-------------
                                X             Y             Z
Electronic contribution:      1.04321      -0.01895      -0.06049
Nuclear contribution   :     -0.57053      -0.06000       0.30536
                        -----------------------------------------
Total Dipole Moment    :      0.47268      -0.07895       0.24488
                        -----------------------------------------
Magnitude (a.u.)       :      0.53817
Magnitude (Debye)      :      1.36791

Rotational constants in cm-1:     0.234596     0.113682     0.084258
Rotational constants in MHz :  7033.009160  3408.111806  2525.991787

                             ****ORCA TERMINATED NORMALLY****
TOTAL RUN TIME: 0 days 0 hours 3 minutes 18 seconds 533 msec
