                         Program Version 5.0.3 -  RELEASE  -
|  1> !ri-mp2 aug-cc-pvtz aug-cc-pvtz/c tightscf
|  2> %pal nprocs 16 end
|  3>
|  4> * xyz 0 1
|  5> C     -2.236267   -0.829238   -0.168845
|  6> C     -0.460692    1.802331   -0.023240
|  7> C     -0.836105   -0.683283    0.427209
|  8> C      1.500792    0.264459    0.201369
|  9> C      0.043139    0.374428   -0.255318
| 10> O      2.109917   -0.991421   -0.095886
| 11> H     -2.822588    0.085548   -0.074475
| 12> H     -2.186814   -1.082790   -1.230252
| 13> H     -2.790772   -1.623663    0.332395
| 14> H     -0.462102    2.045466    1.042320
| 15> H     -1.476626    1.936066   -0.392815
| 16> H      0.171194    2.533818   -0.530269
| 17> H     -0.321864   -1.644079    0.373767
| 18> H     -0.914617   -0.436619    1.491531
| 19> H      1.558959    0.362361    1.287435
| 20> H      2.087287    1.082323   -0.232344
| 21> H      0.027882    0.181040   -1.336643
| 22> H      2.185520   -1.080283   -1.050612
| 23> *
| 24>
| 25>                          ****END OF INPUT****

CARTESIAN COORDINATES (ANGSTROEM)
---------------------------------
  C     -2.236267   -0.829238   -0.168845
  C     -0.460692    1.802331   -0.023240
  C     -0.836105   -0.683283    0.427209
  C      1.500792    0.264459    0.201369
  C      0.043139    0.374428   -0.255318
  O      2.109917   -0.991421   -0.095886
  H     -2.822588    0.085548   -0.074475
  H     -2.186814   -1.082790   -1.230252
  H     -2.790772   -1.623663    0.332395
  H     -0.462102    2.045466    1.042320
  H     -1.476626    1.936066   -0.392815
  H      0.171194    2.533818   -0.530269
  H     -0.321864   -1.644079    0.373767
  H     -0.914617   -0.436619    1.491531
  H      1.558959    0.362361    1.287435
  H      2.087287    1.082323   -0.232344
  H      0.027882    0.181040   -1.336643
  H      2.185520   -1.080283   -1.050612

 Total Charge           Charge          ....    0
 Multiplicity           Mult            ....    1
 Number of Electrons    NEL             ....   50
 Basis Dimension        Dim             ....  552

ORBITAL ENERGIES
----------------

  NO   OCC          E(Eh)            E(eV)
   0   2.0000     -20.554450      -559.3150
   1   2.0000     -11.270465      -306.6849
   2   2.0000     -11.226751      -305.4954
   3   2.0000     -11.215425      -305.1872
   4   2.0000     -11.213452      -305.1335
   5   2.0000     -11.210283      -305.0473
   6   2.0000      -1.354519       -36.8583
   7   2.0000      -1.088346       -29.6154
   8   2.0000      -0.991958       -26.9925
   9   2.0000      -0.917456       -24.9653
  10   2.0000      -0.856603       -23.3094
  11   2.0000      -0.775601       -21.1052
  12   2.0000      -0.679977       -18.5031
  13   2.0000      -0.638491       -17.3742
  14   2.0000      -0.621372       -16.9084
  15   2.0000      -0.590374       -16.0649
  16   2.0000      -0.581985       -15.8366
  17   2.0000      -0.549303       -14.9473
  18   2.0000      -0.537086       -14.6149
  19   2.0000      -0.505247       -13.7485
  20   2.0000      -0.501727       -13.6527
  21   2.0000      -0.488310       -13.2876
  22   2.0000      -0.462912       -12.5965
  23   2.0000      -0.450291       -12.2531
  24   2.0000      -0.427549       -11.6342
  25   0.0000       0.028721         0.7816
  26   0.0000       0.034910         0.9500
  27   0.0000       0.035911         0.9772
  28   0.0000       0.039826         1.0837
  29   0.0000       0.054150         1.4735

MULLIKEN ATOMIC CHARGES
-----------------------
   0 C :   -1.021596
   1 C :   -1.062566
   2 C :   -0.525681
   3 C :   -0.311001
   4 C :    0.317195
   5 O :   -0.650043
   6 H :    0.300747
   7 H :    0.235272
   8 H :    0.273546
   9 H :    0.254639
  10 H :    0.283047
  11 H :    0.264313
  12 H :    0.324132
  13 H :    0.243456
  14 H :    0.290230
  15 H :    0.284805
  16 H :    0.356721
  17 H :    0.142783
Sum of atomic charges:    0.0000000

LOEWDIN ATOMIC CHARGES
----------------------
   0 C :    0.583858
   1 C :    0.585106
   2 C :    0.267694
   3 C :    0.045364
   4 C :   -0.045708
   5 O :    0.814820
   6 H :   -0.180960
   7 H :   -0.166946
   8 H :   -0.170863
   9 H :   -0.156865
  10 H :   -0.174468
  11 H :   -0.165613
  12 H :   -0.157511
  13 H :   -0.142922
  14 H :   -0.153681
  15 H :   -0.153662
  16 H :   -0.136264
  17 H :   -0.491379

  Mayer bond orders larger than 0.100000
B(  0-C ,  2-C ) :   0.8959 B(  0-C ,  6-H ) :   0.9258 B(  0-C ,  7-H ) :   1.0000
B(  0-C ,  8-H ) :   0.9929 B(  1-C ,  2-C ) :   0.1168 B(  1-C ,  3-C ) :   0.1243
B(  1-C ,  4-C ) :   0.7080 B(  1-C ,  9-H ) :   0.9971 B(  1-C , 10-H ) :   0.9660
B(  1-C , 11-H ) :   0.9780 B(  2-C ,  4-C ) :   0.8391 B(  2-C , 12-H ) :   0.9146
B(  2-C , 13-H ) :   0.9692 B(  3-C ,  4-C ) :   0.7128 B(  3-C ,  5-O ) :   0.7048
B(  3-C , 14-H ) :   0.9863 B(  3-C , 15-H ) :   0.9911 B(  4-C , 16-H ) :   0.8042
B(  5-O , 17-H ) :   1.0142

MP2 TOTAL ENERGY:     -272.434795769 Eh
FINAL SINGLE POINT ENERGY      -272.434795769477

DIPOLE MOMENT
-------------
                                X             Y             Z
Electronic contribution:      4.97269      -2.06158      -0.10565
Nuclear contribution   :     -5.23184       2.49653      -0.34246
                        -----------------------------------------
Total Dipole Moment    :     -0.25916       0.43495      -0.44811
                        -----------------------------------------
Magnitude (a.u.)       :      0.67612
Magnitude (Debye)      :      1.71857

Rotational constants in cm-1:     0.154947     0.076932     0.056264
Rotational constants in MHz :  4645.187819  2306.369820  1686.737339

                             ****ORCA TERMINATED NORMALLY****
TOTAL RUN TIME: 0 days 0 hours 5 minutes 24 seconds 483 msec
