                         Program Version 5.0.3 -  RELEASE  -
|  1> !ri-mp2 aug-cc-pvtz aug-cc-pvtz/c tightscf
|  2> %pal nprocs 16 end
|  3>
|  4> * xyz 0 1
|  5> S    -0.132326   -1.067056   -0.000002
|  6> S     2.794229   -0.264794   -0.000005
|  7> N     0.642381    1.397235    0.000001
|  8> N    -3.851613   -0.306271    0.000006
|  9> C    -1.339600    0.198368    0.000002
| 10> C     1.094765    0.176601   -0.000002
| 11> C    -0.717729    1.417421    0.000003
| 12> C    -2.720759   -0.076305    0.000004
| 13> H     3.213634    1.014221   -0.000004
| 14> H    -1.239521    2.362120    0.000006
| 15> *
| 16>
| 17>                          ****END OF INPUT****

CARTESIAN COORDINATES (ANGSTROEM)
---------------------------------
  S     -0.132326   -1.067056   -0.000002
  S      2.794229   -0.264794   -0.000005
  N      0.642381    1.397235    0.000001
  N     -3.851613   -0.306271    0.000006
  C     -1.339600    0.198368    0.000002
  C      1.094765    0.176601   -0.000002
  C     -0.717729    1.417421    0.000003
  C     -2.720759   -0.076305    0.000004
  H      3.213634    1.014221   -0.000004
  H     -1.239521    2.362120    0.000006

 Total Charge           Charge          ....    0
 Multiplicity           Mult            ....    1
 Number of Electrons    NEL             ....   72
 Basis Dimension        Dim             ....  422

ORBITAL ENERGIES
----------------

  NO   OCC          E(Eh)            E(eV)
   0   2.0000     -92.036513     -2504.4408
   1   2.0000     -92.013999     -2503.8282
   2   2.0000     -15.604003      -424.6065
   3   2.0000     -15.586635      -424.1339
   4   2.0000     -11.383776      -309.7683
   5   2.0000     -11.321562      -308.0754
   6   2.0000     -11.319011      -308.0060
   7   2.0000     -11.293468      -307.3109
   8   2.0000      -9.036275      -245.8895
   9   2.0000      -9.015147      -245.3146
  10   2.0000      -6.717049      -182.7802
  11   2.0000      -6.716463      -182.7643
  12   2.0000      -6.715564      -182.7398
  13   2.0000      -6.696423      -182.2189
  14   2.0000      -6.695348      -182.1897
  15   2.0000      -6.694305      -182.1613
  16   2.0000      -1.328781       -36.1580
  17   2.0000      -1.236183       -33.6382
  18   2.0000      -1.116183       -30.3729
  19   2.0000      -1.092757       -29.7354
  20   2.0000      -0.995453       -27.0877
  21   2.0000      -0.888098       -24.1664
  22   2.0000      -0.787332       -21.4244
  23   2.0000      -0.751075       -20.4378
  24   2.0000      -0.664812       -18.0904
  25   2.0000      -0.617125       -16.7928
  26   2.0000      -0.606676       -16.5085
  27   2.0000      -0.570018       -15.5110
  28   2.0000      -0.558173       -15.1887
  29   2.0000      -0.536667       -14.6034
  30   2.0000      -0.524611       -14.2754
  31   2.0000      -0.482182       -13.1208
  32   2.0000      -0.458781       -12.4841
  33   2.0000      -0.443734       -12.0746
  34   2.0000      -0.424770       -11.5586
  35   2.0000      -0.346011        -9.4154
  36   0.0000       0.025532         0.6948
  37   0.0000       0.035826         0.9749
  38   0.0000       0.042220         1.1489
  39   0.0000       0.051601         1.4041
  40   0.0000       0.064018         1.7420

MULLIKEN ATOMIC CHARGES
-----------------------
   0 S :   -0.190158
   1 S :   -0.344185
   2 N :   -0.435093
   3 N :   -0.688998
   4 C :    1.134396
   5 C :    0.487178
   6 C :   -0.786144
   7 C :    0.156355
   8 H :    0.177035
   9 H :    0.489613
Sum of atomic charges:    0.0000000

LOEWDIN ATOMIC CHARGES
----------------------
   0 S :    1.230884
   1 S :    1.261696
   2 N :    0.215137
   3 N :    0.254497
   4 C :   -0.607742
   5 C :   -1.179390
   6 C :   -0.098379
   7 C :   -0.341021
   8 H :   -0.555327
   9 H :   -0.180354

  Mayer bond orders larger than 0.100000
B(  0-S ,  4-C ) :   0.8605 B(  0-S ,  5-C ) :   1.1513 B(  0-S ,  6-C ) :   0.1733
B(  1-S ,  5-C ) :   0.8104 B(  1-S ,  8-H ) :   1.0529 B(  2-N ,  5-C ) :   1.4014
B(  2-N ,  6-C ) :   0.8195 B(  3-N ,  7-C ) :   2.0076 B(  4-C ,  6-C ) :   0.8192
B(  4-C ,  7-C ) :   0.7743 B(  6-C ,  7-C ) :   0.1392 B(  6-C ,  9-H ) :   0.8009

MP2 TOTAL ENERGY:    -1058.056371699 Eh
FINAL SINGLE POINT ENERGY     -1058.056371699226

DIPOLE MOMENT
-------------
                                X             Y             Z
Electronic contribution:     -0.16926      -2.94123      -0.00001
Nuclear contribution   :      1.78129       3.25595       0.00000
                        -----------------------------------------
Total Dipole Moment    :      1.61203       0.31472      -0.00000
                        -----------------------------------------
Magnitude (a.u.)       :      1.64246
Magnitude (Debye)      :      4.17480

Rotational constants in cm-1:     0.170213     0.027752     0.023862
Rotational constants in MHz :  5102.853976   831.992534   715.357407

                             ****ORCA TERMINATED NORMALLY****
TOTAL RUN TIME: 0 days 0 hours 3 minutes 26 seconds 397 msec
