                         Program Version 5.0.3 -  RELEASE  -
|  1> !ri-mp2 aug-cc-pvtz aug-cc-pvtz/c tightscf
|  2> %pal nprocs 16 end
|  3>
|  4> * xyz 0 1
|  5> C     -1.835597   -1.471168    0.106759
|  6> C     -2.531726   -0.267314    0.040621
|  7> C     -0.452973   -1.452868    0.080538
|  8> C     -1.850063    0.934346   -0.048731
|  9> C      0.235671   -0.246214    0.013147
| 10> C     -0.453434    0.973310   -0.060215
| 11> N      1.703827   -0.306080    0.022093
| 12> O      2.221476   -1.316606   -0.438893
| 13> O      2.315378    0.632295    0.504570
| 14> O      0.220545    2.138083   -0.177817
| 15> H     -2.364482   -2.410267    0.175643
| 16> H     -3.612989   -0.262929    0.054068
| 17> H      0.123142   -2.364653    0.116206
| 18> H     -2.397052    1.867174   -0.114478
| 19> H     -0.405869    2.862503   -0.281682
| 20> *
| 21>
| 22>                          ****END OF INPUT****

CARTESIAN COORDINATES (ANGSTROEM)
---------------------------------
  C     -1.835597   -1.471168    0.106759
  C     -2.531726   -0.267314    0.040621
  C     -0.452973   -1.452868    0.080538
  C     -1.850063    0.934346   -0.048731
  C      0.235671   -0.246214    0.013147
  C     -0.453434    0.973310   -0.060215
  N      1.703827   -0.306080    0.022093
  O      2.221476   -1.316606   -0.438893
  O      2.315378    0.632295    0.504570
  O      0.220545    2.138083   -0.177817
  H     -2.364482   -2.410267    0.175643
  H     -3.612989   -0.262929    0.054068
  H      0.123142   -2.364653    0.116206
  H     -2.397052    1.867174   -0.114478
  H     -0.405869    2.862503   -0.281682

 Total Charge           Charge          ....    0
 Multiplicity           Mult            ....    1
 Number of Electrons    NEL             ....   72
 Basis Dimension        Dim             ....  575

ORBITAL ENERGIES
----------------

  NO   OCC          E(Eh)            E(eV)
   0   2.0000     -20.620174      -561.1035
   1   2.0000     -20.597876      -560.4967
   2   2.0000     -20.593394      -560.3747
   3   2.0000     -15.849246      -431.2799
   4   2.0000     -11.352523      -308.9179
   5   2.0000     -11.308512      -307.7203
   6   2.0000     -11.278105      -306.8928
   7   2.0000     -11.277863      -306.8863
   8   2.0000     -11.264152      -306.5132
   9   2.0000     -11.256323      -306.3001
  10   2.0000      -1.601433       -43.5772
  11   2.0000      -1.442068       -39.2407
  12   2.0000      -1.393367       -37.9154
  13   2.0000      -1.196031       -32.5457
  14   2.0000      -1.096616       -29.8405
  15   2.0000      -1.045937       -28.4614
  16   2.0000      -0.959359       -26.1055
  17   2.0000      -0.884306       -24.0632
  18   2.0000      -0.835039       -22.7226
  19   2.0000      -0.780194       -21.2302
  20   2.0000      -0.758800       -20.6480
  21   2.0000      -0.724983       -19.7278
  22   2.0000      -0.719150       -19.5691
  23   2.0000      -0.689781       -18.7699
  24   2.0000      -0.670767       -18.2525
  25   2.0000      -0.638721       -17.3805
  26   2.0000      -0.622221       -16.9315
  27   2.0000      -0.605930       -16.4882
  28   2.0000      -0.561432       -15.2773
  29   2.0000      -0.544083       -14.8052
  30   2.0000      -0.518822       -14.1179
  31   2.0000      -0.490292       -13.3415
  32   2.0000      -0.484562       -13.1856
  33   2.0000      -0.446024       -12.1369
  34   2.0000      -0.381977       -10.3941
  35   2.0000      -0.350321        -9.5327
  36   0.0000       0.017736         0.4826
  37   0.0000       0.026163         0.7119
  38   0.0000       0.035087         0.9548
  39   0.0000       0.046505         1.2655
  40   0.0000       0.050454         1.3729

MULLIKEN ATOMIC CHARGES
-----------------------
   0 C :   -0.619959
   1 C :   -0.444486
   2 C :   -0.621536
   3 C :   -0.683826
   4 C :    0.697073
   5 C :    0.765789
   6 N :    0.717458
   7 O :   -0.672322
   8 O :   -0.623090
   9 O :   -0.669719
  10 H :    0.462303
  11 H :    0.489137
  12 H :    0.532341
  13 H :    0.532519
  14 H :    0.138317
Sum of atomic charges:   -0.0000000

LOEWDIN ATOMIC CHARGES
----------------------
   0 C :    0.210738
   1 C :    0.205502
   2 C :    0.197829
   3 C :    0.222327
   4 C :   -0.198737
   5 C :   -0.355594
   6 N :   -0.718838
   7 O :    0.382964
   8 O :    0.394293
   9 O :    0.853984
  10 H :   -0.185282
  11 H :   -0.171150
  12 H :   -0.190747
  13 H :   -0.181644
  14 H :   -0.465647

  Mayer bond orders larger than 0.100000
B(  0-C ,  1-C ) :   1.2662 B(  0-C ,  2-C ) :   1.3674 B(  0-C ,  4-C ) :  -0.1504
B(  0-C , 10-H ) :   0.7814 B(  1-C ,  3-C ) :   1.2408 B(  1-C ,  5-C ) :  -0.1329
B(  1-C , 11-H ) :   0.6963 B(  2-C ,  4-C ) :   0.7721 B(  2-C ,  5-C ) :  -0.1218
B(  2-C ,  6-N ) :  -0.2133 B(  2-C , 12-H ) :   0.6518 B(  3-C ,  5-C ) :   1.1485
B(  3-C ,  9-O ) :  -0.2110 B(  3-C , 11-H ) :  -0.1062 B(  3-C , 13-H ) :   0.5806
B(  4-C ,  5-C ) :   1.0849 B(  4-C ,  6-N ) :   1.0537 B(  4-C ,  7-O ) :   0.1720
B(  4-C ,  8-O ) :   0.1727 B(  5-C ,  9-O ) :   0.5465 B(  6-N ,  7-O ) :   1.1973
B(  6-N ,  8-O ) :   1.2040 B(  7-O ,  8-O ) :   0.1044 B(  9-O , 14-H ) :   1.0706

MP2 TOTAL ENERGY:     -511.104079439 Eh
FINAL SINGLE POINT ENERGY      -511.104079439427

DIPOLE MOMENT
-------------
                                X             Y             Z
Electronic contribution:      5.85119       0.67790       0.00482
Nuclear contribution   :     -8.33262      -0.27903      -0.05043
                        -----------------------------------------
Total Dipole Moment    :     -2.48144       0.39888      -0.04561
                        -----------------------------------------
Magnitude (a.u.)       :      2.51370
Magnitude (Debye)      :      6.38933

Rotational constants in cm-1:     0.078470     0.041863     0.028035
Rotational constants in MHz :  2352.475536  1255.029034   840.467767

                             ****ORCA TERMINATED NORMALLY****
TOTAL RUN TIME: 0 days 0 hours 7 minutes 53 seconds 932 msec
