                         Program Version 5.0.3 -  RELEASE  -
|  1> !ri-mp2 aug-cc-pvtz aug-cc-pvtz/c tightscf
|  2> %pal nprocs 16 end
|  3>
|  4> * xyz 0 1
|  5> Cl    -2.599175   -0.886996   -0.000001
|  6> Cl     2.613285   -0.893714    0.000000
|  7> N      0.001967   -0.687993    0.000000
|  8> N     -1.233601    1.339871    0.000000
|  9> C     -1.116676    0.025543    0.000000
| 10> C      1.121365    0.005739    0.000000
| 11> C      1.154461    1.395274    0.000000
| 12> C     -0.082104    2.017431    0.000000
| 13> H      2.080180    1.947300    0.000000
| 14> H     -0.160883    3.097694    0.000002
| 15> *
| 16>
| 17>                          ****END OF INPUT****

CARTESIAN COORDINATES (ANGSTROEM)
---------------------------------
  Cl    -2.599175   -0.886996   -0.000001
  Cl     2.613285   -0.893714    0.000000
  N      0.001967   -0.687993    0.000000
  N     -1.233601    1.339871    0.000000
  C     -1.116676    0.025543    0.000000
  C      1.121365    0.005739    0.000000
  C      1.154461    1.395274    0.000000
  C     -0.082104    2.017431    0.000000
  H      2.080180    1.947300    0.000000
  H     -0.160883    3.097694    0.000002

 Total Charge           Charge          ....    0
 Multiplicity           Mult            ....    1
 Number of Electrons    NEL             ....   74
 Basis Dimension        Dim             ....  422

ORBITAL ENERGIES
----------------

  NO   OCC          E(Eh)            E(eV)
   0   2.0000    -104.870109     -2853.6607
   1   2.0000    -104.857080     -2853.3062
   2   2.0000     -15.606880      -424.6848
   3   2.0000     -15.601475      -424.5377
   4   2.0000     -11.400683      -310.2284
   5   2.0000     -11.386294      -309.8368
   6   2.0000     -11.329223      -308.2838
   7   2.0000     -11.276245      -306.8422
   8   2.0000     -10.594020      -288.2779
   9   2.0000     -10.581221      -287.9297
  10   2.0000      -8.060864      -219.3473
  11   2.0000      -8.058899      -219.2938
  12   2.0000      -8.058795      -219.2910
  13   2.0000      -8.048092      -218.9997
  14   2.0000      -8.046092      -218.9453
  15   2.0000      -8.045962      -218.9417
  16   2.0000      -1.367663       -37.2160
  17   2.0000      -1.249647       -34.0046
  18   2.0000      -1.178673       -32.0733
  19   2.0000      -1.131893       -30.8004
  20   2.0000      -1.066978       -29.0339
  21   2.0000      -0.916429       -24.9373
  22   2.0000      -0.889728       -24.2107
  23   2.0000      -0.753997       -20.5173
  24   2.0000      -0.727804       -19.8046
  25   2.0000      -0.664703       -18.0875
  26   2.0000      -0.638280       -17.3685
  27   2.0000      -0.618550       -16.8316
  28   2.0000      -0.597674       -16.2635
  29   2.0000      -0.534022       -14.5315
  30   2.0000      -0.509712       -13.8700
  31   2.0000      -0.486900       -13.2492
  32   2.0000      -0.485723       -13.2172
  33   2.0000      -0.475577       -12.9411
  34   2.0000      -0.446439       -12.1482
  35   2.0000      -0.439499       -11.9594
  36   2.0000      -0.386454       -10.5159
  37   0.0000       0.022439         0.6106
  38   0.0000       0.037697         1.0258
  39   0.0000       0.057273         1.5585
  40   0.0000       0.058518         1.5923
  41   0.0000       0.071339         1.9412

MULLIKEN ATOMIC CHARGES
-----------------------
   0 Cl:   -0.238412
   1 Cl:   -0.311786
   2 N :   -0.230182
   3 N :   -0.258629
   4 C :    0.020529
   5 C :    0.533501
   6 C :   -0.359755
   7 C :   -0.315958
   8 H :    0.501955
   9 H :    0.658737
Sum of atomic charges:    0.0000000

LOEWDIN ATOMIC CHARGES
----------------------
   0 Cl:    0.958197
   1 Cl:    0.987749
   2 N :    0.204746
   3 N :    0.288110
   4 C :   -1.183324
   5 C :   -0.988978
   6 C :    0.115993
   7 C :    0.002099
   8 H :   -0.207907
   9 H :   -0.176686

  Mayer bond orders larger than 0.100000
B(  0-Cl,  4-C ) :   0.8806 B(  1-Cl,  5-C ) :   0.7795 B(  2-N ,  4-C ) :   1.2234
B(  2-N ,  5-C ) :   1.0481 B(  3-N ,  4-C ) :   1.2959 B(  3-N ,  7-C ) :   1.0229
B(  5-C ,  6-C ) :   1.2104 B(  5-C ,  7-C ) :   0.1283 B(  6-C ,  7-C ) :   1.1271
B(  6-C ,  8-H ) :   0.7694 B(  7-C ,  9-H ) :   0.4945

MP2 TOTAL ENERGY:    -1182.060822968 Eh
FINAL SINGLE POINT ENERGY     -1182.060822967843

DIPOLE MOMENT
-------------
                                X             Y             Z
Electronic contribution:     -0.96716      -6.01365      -0.00000
Nuclear contribution   :      1.76486       7.08638       0.00000
                        -----------------------------------------
Total Dipole Moment    :      0.79770       1.07273       0.00000
                        -----------------------------------------
Magnitude (a.u.)       :      1.33682
Magnitude (Debye)      :      3.39791

Rotational constants in cm-1:     0.097252     0.030456     0.023193
Rotational constants in MHz :  2915.545460   913.040938   695.299018

                             ****ORCA TERMINATED NORMALLY****
TOTAL RUN TIME: 0 days 0 hours 3 minutes 30 seconds 237 msec
