                         Program Version 5.0.3 -  RELEASE  -
|  1> !ri-mp2 aug-cc-pvtz aug-cc-pvtz/c tightscf
|  2> %pal nprocs 16 end
|  3>
|  4> * xyz 0 1
|  5> C      0.903475    0.760982   -0.089733
|  6> C     -0.418912    0.014271    0.005675
|  7> O      2.010756   -0.082096    0.112517
|  8> F     -0.478794   -0.982705   -0.908971
|  9> F     -1.449314    0.849658   -0.237742
| 10> F     -0.616843   -0.540066    1.211194
| 11> H      0.924062    1.263938   -1.060758
| 12> H      0.919466    1.514977    0.695005
| 13> H      2.067608   -0.715645   -0.610367
| 14> *
| 15>
| 16>                          ****END OF INPUT****

CARTESIAN COORDINATES (ANGSTROEM)
---------------------------------
  C      0.903475    0.760982   -0.089733
  C     -0.418912    0.014271    0.005675
  O      2.010756   -0.082096    0.112517
  F     -0.478794   -0.982705   -0.908971
  F     -1.449314    0.849658   -0.237742
  F     -0.616843   -0.540066    1.211194
  H      0.924062    1.263938   -1.060758
  H      0.919466    1.514977    0.695005
  H      2.067608   -0.715645   -0.610367

 Total Charge           Charge          ....    0
 Multiplicity           Mult            ....    1
 Number of Electrons    NEL             ....   50
 Basis Dimension        Dim             ....  345

ORBITAL ENERGIES
----------------

  NO   OCC          E(Eh)            E(eV)
   0   2.0000     -26.345452      -716.8962
   1   2.0000     -26.344647      -716.8743
   2   2.0000     -26.341744      -716.7953
   3   2.0000     -20.595225      -560.4246
   4   2.0000     -11.510409      -313.2142
   5   2.0000     -11.323278      -308.1221
   6   2.0000      -1.730288       -47.0835
   7   2.0000      -1.638219       -44.5782
   8   2.0000      -1.636412       -44.5290
   9   2.0000      -1.400921       -38.1210
  10   2.0000      -1.052523       -28.6406
  11   2.0000      -0.924125       -25.1467
  12   2.0000      -0.827834       -22.5265
  13   2.0000      -0.825857       -22.4727
  14   2.0000      -0.803310       -21.8592
  15   2.0000      -0.728677       -19.8283
  16   2.0000      -0.716206       -19.4890
  17   2.0000      -0.700764       -19.0687
  18   2.0000      -0.671037       -18.2598
  19   2.0000      -0.666882       -18.1468
  20   2.0000      -0.653566       -17.7844
  21   2.0000      -0.632072       -17.1996
  22   2.0000      -0.622784       -16.9468
  23   2.0000      -0.541147       -14.7253
  24   2.0000      -0.492774       -13.4091
  25   0.0000       0.027350         0.7442
  26   0.0000       0.040346         1.0979
  27   0.0000       0.045956         1.2505
  28   0.0000       0.064968         1.7679
  29   0.0000       0.095082         2.5873

MULLIKEN ATOMIC CHARGES
-----------------------
   0 C :   -0.363789
   1 C :    1.226920
   2 O :   -0.567678
   3 F :   -0.407677
   4 F :   -0.394929
   5 F :   -0.385042
   6 H :    0.322056
   7 H :    0.375949
   8 H :    0.194190
Sum of atomic charges:    0.0000000

LOEWDIN ATOMIC CHARGES
----------------------
   0 C :    0.008829
   1 C :   -1.480290
   2 O :    0.814725
   3 F :    0.484266
   4 F :    0.493194
   5 F :    0.500395
   6 H :   -0.162759
   7 H :   -0.169931
   8 H :   -0.488429

  Mayer bond orders larger than 0.100000
B(  0-C ,  1-C ) :   0.9547 B(  0-C ,  2-O ) :   0.7956 B(  0-C ,  6-H ) :   0.9034
B(  0-C ,  7-H ) :   0.8460 B(  1-C ,  3-F ) :   0.7511 B(  1-C ,  4-F ) :   0.7801
B(  1-C ,  5-F ) :   0.7638 B(  2-O ,  8-H ) :   0.9888

MP2 TOTAL ENERGY:     -452.199104860 Eh
FINAL SINGLE POINT ENERGY      -452.199104859856

DIPOLE MOMENT
-------------
                                X             Y             Z
Electronic contribution:     -5.63224      -2.16802       0.42550
Nuclear contribution   :      6.06025       2.55951      -0.97437
                        -----------------------------------------
Total Dipole Moment    :      0.42801       0.39148      -0.54886
                        -----------------------------------------
Magnitude (a.u.)       :      0.79856
Magnitude (Debye)      :      2.02978

Rotational constants in cm-1:     0.175792     0.093314     0.092236
Rotational constants in MHz :  5270.103005  2797.474434  2765.152956

                             ****ORCA TERMINATED NORMALLY****
TOTAL RUN TIME: 0 days 0 hours 1 minutes 27 seconds 33 msec
