                         Program Version 5.0.3 -  RELEASE  -
|  1> !ri-mp2 aug-cc-pvtz aug-cc-pvtz/c tightscf
|  2> %pal nprocs 16 end
|  3>
|  4> * xyz 0 1
|  5> F     -2.349093   -0.439318        0.000000
|  6> F      2.398437   -0.465192        0.000000
|  7> O     -0.734830    1.107764        0.000000
|  8> C     -1.057992   -0.187509        0.000000
|  9> C      1.115249   -0.099449        0.000000
| 10> C      0.013570   -1.010677        0.000000
| 11> C      0.647558    1.167846        0.000000
| 12> H      0.028831   -2.084299        0.000001
| 13> H      1.095398    2.141517        0.000000
| 14> *
| 15>
| 16>                          ****END OF INPUT****

CARTESIAN COORDINATES (ANGSTROEM)
---------------------------------
  F     -2.349093   -0.439318    0.000000
  F      2.398437   -0.465192    0.000000
  O     -0.734830    1.107764    0.000000
  C     -1.057992   -0.187509    0.000000
  C      1.115249   -0.099449    0.000000
  C      0.013570   -1.010677    0.000000
  C      0.647558    1.167846    0.000000
  H      0.028831   -2.084299    0.000001
  H      1.095398    2.141517    0.000000

 Total Charge           Charge          ....    0
 Multiplicity           Mult            ....    1
 Number of Electrons    NEL             ....   52
 Basis Dimension        Dim             ....  368

ORBITAL ENERGIES
----------------

  NO   OCC          E(Eh)            E(eV)
   0   2.0000     -26.356697      -717.2022
   1   2.0000     -26.332892      -716.5544
   2   2.0000     -20.657561      -562.1208
   3   2.0000     -11.409764      -310.4755
   4   2.0000     -11.345269      -308.7205
   5   2.0000     -11.302441      -307.5550
   6   2.0000     -11.256394      -306.3021
   7   2.0000      -1.683198       -45.8021
   8   2.0000      -1.649166       -44.8761
   9   2.0000      -1.493838       -40.6494
  10   2.0000      -1.124476       -30.5985
  11   2.0000      -1.032828       -28.1047
  12   2.0000      -0.868733       -23.6394
  13   2.0000      -0.854882       -23.2625
  14   2.0000      -0.805249       -21.9119
  15   2.0000      -0.752344       -20.4723
  16   2.0000      -0.739049       -20.1106
  17   2.0000      -0.717976       -19.5371
  18   2.0000      -0.715407       -19.4672
  19   2.0000      -0.676283       -18.4026
  20   2.0000      -0.651822       -17.7370
  21   2.0000      -0.646256       -17.5855
  22   2.0000      -0.608504       -16.5582
  23   2.0000      -0.563527       -15.3344
  24   2.0000      -0.425378       -11.5751
  25   2.0000      -0.341568        -9.2945
  26   0.0000       0.028894         0.7863
  27   0.0000       0.034237         0.9316
  28   0.0000       0.057787         1.5725
  29   0.0000       0.072960         1.9854
  30   0.0000       0.076379         2.0784

MULLIKEN ATOMIC CHARGES
-----------------------
   0 F :   -0.299840
   1 F :   -0.398235
   2 O :   -0.244198
   3 C :    0.537116
   4 C :    0.692496
   5 C :   -0.833353
   6 C :   -0.588202
   7 H :    0.462210
   8 H :    0.672007
Sum of atomic charges:    0.0000000

LOEWDIN ATOMIC CHARGES
----------------------
   0 F :    0.524674
   1 F :    0.497049
   2 O :    0.556389
   3 C :   -0.788462
   4 C :   -0.573343
   5 C :    0.190334
   6 C :   -0.012273
   7 H :   -0.194035
   8 H :   -0.200333

  Mayer bond orders larger than 0.100000
B(  0-F ,  3-C ) :   0.7619 B(  1-F ,  4-C ) :   0.6958 B(  1-F ,  5-C ) :   0.1047
B(  2-O ,  3-C ) :   1.1009 B(  2-O ,  4-C ) :  -0.1035 B(  2-O ,  6-C ) :   0.9401
B(  3-C ,  4-C ) :  -0.1585 B(  3-C ,  5-C ) :   1.5101 B(  4-C ,  5-C ) :   1.1539
B(  4-C ,  6-C ) :   1.3886 B(  5-C ,  6-C ) :   0.1328 B(  5-C ,  7-H ) :   0.8344
B(  6-C ,  8-H ) :   0.4522

MP2 TOTAL ENERGY:     -427.851870505 Eh
FINAL SINGLE POINT ENERGY      -427.851870504964

DIPOLE MOMENT
-------------
                                X             Y             Z
Electronic contribution:     -0.89930      -0.93544      -0.00000
Nuclear contribution   :      0.99853       0.90847       0.00000
                        -----------------------------------------
Total Dipole Moment    :      0.09922      -0.02697       0.00000
                        -----------------------------------------
Magnitude (a.u.)       :      0.10282
Magnitude (Debye)      :      0.26135

Rotational constants in cm-1:     0.257108     0.065489     0.052194
Rotational constants in MHz :  7707.910538  1963.315306  1564.750838

                             ****ORCA TERMINATED NORMALLY****
TOTAL RUN TIME: 0 days 0 hours 1 minutes 43 seconds 893 msec
