                         Program Version 5.0.3 -  RELEASE  -
|  1> !ri-mp2 aug-cc-pvtz aug-cc-pvtz/c tightscf
|  2> %pal nprocs 16 end
|  3>
|  4> * xyz 0 1
|  5> O     -2.033653    0.612083   -0.561323
|  6> N     -1.365160   -1.096229    0.782146
|  7> N      1.209013    2.325640    0.584750
|  8> N      1.852388   -1.914574   -0.073469
|  9> C      0.319024    0.144506   -0.545846
| 10> C     -1.174935   -0.099455   -0.102612
| 11> C      0.820959    1.367480    0.085232
| 12> C      1.211308   -0.986418   -0.292477
| 13> H      0.261923    0.314072   -1.623641
| 14> H     -0.620032   -1.690702    1.101554
| 15> H     -2.304488   -1.280568    1.092902
| 16> *
| 17>
| 18>                          ****END OF INPUT****

CARTESIAN COORDINATES (ANGSTROEM)
---------------------------------
  O     -2.033653    0.612083   -0.561323
  N     -1.365160   -1.096229    0.782146
  N      1.209013    2.325640    0.584750
  N      1.852388   -1.914574   -0.073469
  C      0.319024    0.144506   -0.545846
  C     -1.174935   -0.099455   -0.102612
  C      0.820959    1.367480    0.085232
  C      1.211308   -0.986418   -0.292477
  H      0.261923    0.314072   -1.623641
  H     -0.620032   -1.690702    1.101554
  H     -2.304488   -1.280568    1.092902

 Total Charge           Charge          ....    0
 Multiplicity           Mult            ....    1
 Number of Electrons    NEL             ....   56
 Basis Dimension        Dim             ....  437

ORBITAL ENERGIES
----------------

  NO   OCC          E(Eh)            E(eV)
   0   2.0000     -20.573056      -559.8213
   1   2.0000     -15.633770      -425.4165
   2   2.0000     -15.623453      -425.1358
   3   2.0000     -15.609503      -424.7562
   4   2.0000     -11.419239      -310.7333
   5   2.0000     -11.375411      -309.5407
   6   2.0000     -11.325292      -308.1769
   7   2.0000     -11.313583      -307.8582
   8   2.0000      -1.442059       -39.2404
   9   2.0000      -1.283845       -34.9352
  10   2.0000      -1.263225       -34.3741
  11   2.0000      -1.258067       -34.2337
  12   2.0000      -1.131398       -30.7869
  13   2.0000      -0.874684       -23.8014
  14   2.0000      -0.813967       -22.1492
  15   2.0000      -0.793737       -21.5987
  16   2.0000      -0.758053       -20.6277
  17   2.0000      -0.694803       -18.9065
  18   2.0000      -0.655442       -17.8355
  19   2.0000      -0.615439       -16.7469
  20   2.0000      -0.608281       -16.5522
  21   2.0000      -0.590890       -16.0789
  22   2.0000      -0.539699       -14.6860
  23   2.0000      -0.521938       -14.2027
  24   2.0000      -0.507763       -13.8169
  25   2.0000      -0.501735       -13.6529
  26   2.0000      -0.465456       -12.6657
  27   2.0000      -0.461474       -12.5573
  28   0.0000       0.017751         0.4830
  29   0.0000       0.028706         0.7811
  30   0.0000       0.046204         1.2573
  31   0.0000       0.058794         1.5999
  32   0.0000       0.070658         1.9227

MULLIKEN ATOMIC CHARGES
-----------------------
   0 O :   -0.804480
   1 N :   -0.366358
   2 N :   -0.603169
   3 N :   -0.640829
   4 C :    0.471711
   5 C :    0.667877
   6 C :    0.276134
   7 C :    0.341956
   8 H :    0.304195
   9 H :    0.161945
  10 H :    0.191018
Sum of atomic charges:   -0.0000000

LOEWDIN ATOMIC CHARGES
----------------------
   0 O :    0.464251
   1 N :    0.870591
   2 N :    0.299270
   3 N :    0.313281
   4 C :   -0.092949
   5 C :   -0.664857
   6 C :   -0.211445
   7 C :   -0.222893
   8 H :   -0.164131
   9 H :   -0.323524
  10 H :   -0.267593

  Mayer bond orders larger than 0.100000
B(  0-O ,  5-C ) :   1.3885 B(  1-N ,  5-C ) :   0.9923 B(  1-N ,  9-H ) :   1.0460
B(  1-N , 10-H ) :   0.9920 B(  2-N ,  6-C ) :   2.2226 B(  3-N ,  7-C ) :   2.2565
B(  4-C ,  5-C ) :   0.5680 B(  4-C ,  6-C ) :   0.7882 B(  4-C ,  7-C ) :   0.8784
B(  4-C ,  8-H ) :   0.9062 B(  5-C ,  6-C ) :   0.2221 B(  6-C ,  7-C ) :   0.2917

MP2 TOTAL ENERGY:     -393.006072662 Eh
FINAL SINGLE POINT ENERGY      -393.006072662009

DIPOLE MOMENT
-------------
                                X             Y             Z
Electronic contribution:      1.96228       1.32609      -0.59738
Nuclear contribution   :     -2.58833      -2.55639       0.54911
                        -----------------------------------------
Total Dipole Moment    :     -0.62605      -1.23030      -0.04827
                        -----------------------------------------
Magnitude (a.u.)       :      1.38126
Magnitude (Debye)      :      3.51090

Rotational constants in cm-1:     0.077837     0.070503     0.042223
Rotational constants in MHz :  2333.503935  2113.630633  1265.807245

                             ****ORCA TERMINATED NORMALLY****
TOTAL RUN TIME: 0 days 0 hours 2 minutes 58 seconds 864 msec
