                         Program Version 5.0.3 -  RELEASE  -
|  1> !ri-mp2 aug-cc-pvtz aug-cc-pvtz/c tightscf
|  2> %pal nprocs 16 end
|  3>
|  4> * xyz 0 1
|  5> N      0.000000    0.000000    1.004348
|  6> C      0.000000    0.000000   -1.763705
|  7> C      0.000000    1.116033    0.313567
|  8> C      0.000000   -1.116033    0.313567
|  9> C      0.000000    1.202637   -1.069047
| 10> C      0.000000   -1.202637   -1.069047
| 11> H      0.000000    0.000000   -2.844744
| 12> F      0.000000    2.245286    1.032550
| 13> F      0.000000   -2.245286    1.032550
| 14> H      0.000000    2.162100   -1.561803
| 15> H      0.000000   -2.162100   -1.561803
| 16> *
| 17>
| 18>                          ****END OF INPUT****

CARTESIAN COORDINATES (ANGSTROEM)
---------------------------------
  N      0.000000    0.000000    1.004348
  C      0.000000    0.000000   -1.763705
  C      0.000000    1.116033    0.313567
  C      0.000000   -1.116033    0.313567
  C      0.000000    1.202637   -1.069047
  C      0.000000   -1.202637   -1.069047
  H      0.000000    0.000000   -2.844744
  F      0.000000    2.245286    1.032550
  F      0.000000   -2.245286    1.032550
  H      0.000000    2.162100   -1.561803
  H      0.000000   -2.162100   -1.561803

 Total Charge           Charge          ....    0
 Multiplicity           Mult            ....    1
 Number of Electrons    NEL             ....   58
 Basis Dimension        Dim             ....  437

ORBITAL ENERGIES
----------------

  NO   OCC          E(Eh)            E(eV)
   0   2.0000     -26.329834      -716.4712
   1   2.0000     -26.329833      -716.4712
   2   2.0000     -15.593284      -424.3148
   3   2.0000     -11.390231      -309.9440
   4   2.0000     -11.390227      -309.9438
   5   2.0000     -11.292037      -307.2720
   6   2.0000     -11.262057      -306.4561
   7   2.0000     -11.262016      -306.4550
   8   2.0000      -1.652703       -44.9723
   9   2.0000      -1.650888       -44.9229
  10   2.0000      -1.308246       -35.5992
  11   2.0000      -1.128040       -30.6955
  12   2.0000      -1.058931       -28.8150
  13   2.0000      -0.908061       -24.7096
  14   2.0000      -0.905223       -24.6324
  15   2.0000      -0.799207       -21.7475
  16   2.0000      -0.772587       -21.0232
  17   2.0000      -0.724275       -19.7085
  18   2.0000      -0.709240       -19.2994
  19   2.0000      -0.708893       -19.2899
  20   2.0000      -0.705490       -19.1974
  21   2.0000      -0.685730       -18.6597
  22   2.0000      -0.621120       -16.9015
  23   2.0000      -0.598610       -16.2890
  24   2.0000      -0.584295       -15.8995
  25   2.0000      -0.559205       -15.2167
  26   2.0000      -0.476934       -12.9780
  27   2.0000      -0.419653       -11.4193
  28   2.0000      -0.364761        -9.9256
  29   0.0000       0.021644         0.5890
  30   0.0000       0.032932         0.8961
  31   0.0000       0.041076         1.1177
  32   0.0000       0.069364         1.8875
  33   0.0000       0.075026         2.0416

MULLIKEN ATOMIC CHARGES
-----------------------
   0 N :   -0.150248
   1 C :   -0.313829
   2 C :    0.306672
   3 C :    0.306672
   4 C :   -0.365140
   5 C :   -0.365140
   6 H :    0.492110
   7 F :   -0.329679
   8 F :   -0.329679
   9 H :    0.374131
  10 H :    0.374131
Sum of atomic charges:    0.0000000

LOEWDIN ATOMIC CHARGES
----------------------
   0 N :    0.370974
   1 C :    0.184342
   2 C :   -0.712801
   3 C :   -0.712801
   4 C :    0.200625
   5 C :    0.200625
   6 H :   -0.166758
   7 F :    0.507838
   8 F :    0.507838
   9 H :   -0.189941
  10 H :   -0.189941

  Mayer bond orders larger than 0.100000
B(  0-N ,  2-C ) :   1.1931 B(  0-N ,  3-C ) :   1.1931 B(  1-C ,  4-C ) :   1.1970
B(  1-C ,  5-C ) :   1.1970 B(  1-C ,  6-H ) :   0.8454 B(  2-C ,  3-C ) :   0.2319
B(  2-C ,  4-C ) :   1.1187 B(  2-C ,  7-F ) :   0.7140 B(  3-C ,  5-C ) :   1.1187
B(  3-C ,  8-F ) :   0.7140 B(  4-C ,  9-H ) :   0.9009 B(  5-C , 10-H ) :   0.9009

MP2 TOTAL ENERGY:     -446.068067357 Eh
FINAL SINGLE POINT ENERGY      -446.068067357136

DIPOLE MOMENT
-------------
                                X             Y             Z
Electronic contribution:     -0.00000       0.00000       5.91705
Nuclear contribution   :      0.00000       0.00000      -7.57404
                        -----------------------------------------
Total Dipole Moment    :     -0.00000       0.00000      -1.65699
                        -----------------------------------------
Magnitude (a.u.)       :      1.65699
Magnitude (Debye)      :      4.21174

Rotational constants in cm-1:     0.125483     0.063461     0.042146
Rotational constants in MHz :  3761.888702  1902.513967  1263.512892

                             ****ORCA TERMINATED NORMALLY****
TOTAL RUN TIME: 0 days 0 hours 2 minutes 58 seconds 965 msec
