                         Program Version 5.0.3 -  RELEASE  -
|  1> !ri-mp2 aug-cc-pvtz aug-cc-pvtz/c tightscf
|  2> %pal nprocs 16 end
|  3>
|  4> * xyz 0 1
|  5> C      2.838715   -0.210284    0.151499
|  6> C     -1.452331    1.374908    0.194977
|  7> C     -2.150229   -1.037838    0.031809
|  8> C      1.495560    0.356257   -0.307569
|  9> C      0.304604   -0.477105    0.169426
| 10> C     -1.071855   -0.012797   -0.331369
| 11> H      2.897031   -0.252318    1.241150
| 12> H      2.988894   -1.224454   -0.224592
| 13> H      3.671051    0.400513   -0.201048
| 14> H     -0.743775    2.142198   -0.116896
| 15> H     -1.487672    1.377435    1.287781
| 16> H     -2.438033    1.672153   -0.167266
| 17> H     -2.241995   -1.138272    1.116369
| 18> H     -3.126439   -0.741164   -0.355760
| 19> H     -1.914534   -2.023603   -0.373148
| 20> H      1.400426    1.383805    0.050622
| 21> H      1.479386    0.411612   -1.400581
| 22> H      0.457236   -1.513257   -0.149856
| 23> H      0.293963   -0.498723    1.265583
| 24> H     -1.022318    0.045239   -1.424998
| 25> *
| 26>
| 27>                          ****END OF INPUT****

CARTESIAN COORDINATES (ANGSTROEM)
---------------------------------
  C      2.838715   -0.210284    0.151499
  C     -1.452331    1.374908    0.194977
  C     -2.150229   -1.037838    0.031809
  C      1.495560    0.356257   -0.307569
  C      0.304604   -0.477105    0.169426
  C     -1.071855   -0.012797   -0.331369
  H      2.897031   -0.252318    1.241150
  H      2.988894   -1.224454   -0.224592
  H      3.671051    0.400513   -0.201048
  H     -0.743775    2.142198   -0.116896
  H     -1.487672    1.377435    1.287781
  H     -2.438033    1.672153   -0.167266
  H     -2.241995   -1.138272    1.116369
  H     -3.126439   -0.741164   -0.355760
  H     -1.914534   -2.023603   -0.373148
  H      1.400426    1.383805    0.050622
  H      1.479386    0.411612   -1.400581
  H      0.457236   -1.513257   -0.149856
  H      0.293963   -0.498723    1.265583
  H     -1.022318    0.045239   -1.424998

 Total Charge           Charge          ....    0
 Multiplicity           Mult            ....    1
 Number of Electrons    NEL             ....   50
 Basis Dimension        Dim             ....  598

ORBITAL ENERGIES
----------------

  NO   OCC          E(Eh)            E(eV)
   0   2.0000     -11.221535      -305.3535
   1   2.0000     -11.214131      -305.1520
   2   2.0000     -11.211177      -305.0716
   3   2.0000     -11.208678      -305.0036
   4   2.0000     -11.206851      -304.9539
   5   2.0000     -11.206715      -304.9502
   6   2.0000      -1.092279       -29.7224
   7   2.0000      -1.027706       -27.9653
   8   2.0000      -0.925559       -25.1858
   9   2.0000      -0.917409       -24.9640
  10   2.0000      -0.810776       -22.0623
  11   2.0000      -0.760533       -20.6952
  12   2.0000      -0.640932       -17.4406
  13   2.0000      -0.607167       -16.5219
  14   2.0000      -0.600096       -16.3294
  15   2.0000      -0.572259       -15.5720
  16   2.0000      -0.549233       -14.9454
  17   2.0000      -0.531075       -14.4513
  18   2.0000      -0.526126       -14.3166
  19   2.0000      -0.508688       -13.8421
  20   2.0000      -0.488320       -13.2879
  21   2.0000      -0.472061       -12.8454
  22   2.0000      -0.453323       -12.3355
  23   2.0000      -0.448177       -12.1955
  24   2.0000      -0.439852       -11.9690
  25   0.0000       0.030652         0.8341
  26   0.0000       0.034170         0.9298
  27   0.0000       0.036616         0.9964
  28   0.0000       0.037847         1.0299
  29   0.0000       0.051915         1.4127

MULLIKEN ATOMIC CHARGES
-----------------------
   0 C :   -0.983949
   1 C :   -1.078388
   2 C :   -1.138198
   3 C :   -0.526506
   4 C :   -0.337600
   5 C :    0.284545
   6 H :    0.261748
   7 H :    0.259337
   8 H :    0.276627
   9 H :    0.289721
  10 H :    0.247704
  11 H :    0.249533
  12 H :    0.253542
  13 H :    0.256049
  14 H :    0.245103
  15 H :    0.265063
  16 H :    0.219095
  17 H :    0.339137
  18 H :    0.270414
  19 H :    0.347023
Sum of atomic charges:   -0.0000000

LOEWDIN ATOMIC CHARGES
----------------------
   0 C :    0.581100
   1 C :    0.585563
   2 C :    0.581814
   3 C :    0.260606
   4 C :    0.274187
   5 C :   -0.052706
   6 H :   -0.170074
   7 H :   -0.171693
   8 H :   -0.173475
   9 H :   -0.176343
  10 H :   -0.158350
  11 H :   -0.165841
  12 H :   -0.160913
  13 H :   -0.166951
  14 H :   -0.166944
  15 H :   -0.160289
  16 H :   -0.143217
  17 H :   -0.145454
  18 H :   -0.137260
  19 H :   -0.133760

  Mayer bond orders larger than 0.100000
B(  0-C ,  3-C ) :   0.8935 B(  0-C ,  6-H ) :   0.9698 B(  0-C ,  7-H ) :   0.9769
B(  0-C ,  8-H ) :   0.9901 B(  1-C ,  2-C ) :   0.1593 B(  1-C ,  4-C ) :   0.1220
B(  1-C ,  5-C ) :   0.6663 B(  1-C ,  9-H ) :   0.9601 B(  1-C , 10-H ) :   0.9966
B(  1-C , 11-H ) :   1.0051 B(  2-C ,  5-C ) :   0.7321 B(  2-C , 12-H ) :   1.0003
B(  2-C , 13-H ) :   1.0102 B(  2-C , 14-H ) :   1.0074 B(  3-C ,  4-C ) :   0.9173
B(  3-C , 15-H ) :   0.9440 B(  3-C , 16-H ) :   0.9808 B(  4-C ,  5-C ) :   0.8848
B(  4-C , 17-H ) :   0.8750 B(  4-C , 18-H ) :   0.9417 B(  5-C , 19-H ) :   0.8501

MP2 TOTAL ENERGY:     -236.537164443 Eh
FINAL SINGLE POINT ENERGY      -236.537164442571

DIPOLE MOMENT
-------------
                                X             Y             Z
Electronic contribution:     -0.22481      -0.02765      -0.64521
Nuclear contribution   :      0.23233       0.04485       0.59643
                        -----------------------------------------
Total Dipole Moment    :      0.00753       0.01720      -0.04878
                        -----------------------------------------
Magnitude (a.u.)       :      0.05226
Magnitude (Debye)      :      0.13284

Rotational constants in cm-1:     0.221043     0.056665     0.048779
Rotational constants in MHz :  6626.714039  1698.763836  1462.371455

                             ****ORCA TERMINATED NORMALLY****
TOTAL RUN TIME: 0 days 0 hours 6 minutes 59 seconds 716 msec
