                         Program Version 5.0.3 -  RELEASE  -
|  1> !ri-mp2 aug-cc-pvtz aug-cc-pvtz/c tightscf
|  2> %pal nprocs 16 end
|  3>
|  4> * xyz 0 1
|  5> C     -0.486076   -0.705434    1.261168
|  6> C     -0.486076   -0.705434   -1.261168
|  7> C      1.521674    0.142791    0.000000
|  8> C      0.001813    0.012259    0.000000
|  9> O     -0.486076    1.369657    0.000000
| 10> H     -1.577070   -0.763138    1.276432
| 11> H     -0.099320   -1.724561    1.310729
| 12> H     -0.160405   -0.167882    2.151574
| 13> H     -0.160405   -0.167882   -2.151574
| 14> H     -1.577070   -0.763138   -1.276432
| 15> H     -0.099320   -1.724561   -1.310729
| 16> H      1.854033    0.688346    0.883017
| 17> H      1.994672   -0.839511    0.000000
| 18> H      1.854033    0.688346   -0.883017
| 19> H     -1.448562    1.351622    0.000000
| 20> *
| 21>
| 22>                          ****END OF INPUT****

CARTESIAN COORDINATES (ANGSTROEM)
---------------------------------
  C     -0.486076   -0.705434    1.261168
  C     -0.486076   -0.705434   -1.261168
  C      1.521674    0.142791    0.000000
  C      0.001813    0.012259    0.000000
  O     -0.486076    1.369657    0.000000
  H     -1.577070   -0.763138    1.276432
  H     -0.099320   -1.724561    1.310729
  H     -0.160405   -0.167882    2.151574
  H     -0.160405   -0.167882   -2.151574
  H     -1.577070   -0.763138   -1.276432
  H     -0.099320   -1.724561   -1.310729
  H      1.854033    0.688346    0.883017
  H      1.994672   -0.839511    0.000000
  H      1.854033    0.688346   -0.883017
  H     -1.448562    1.351622    0.000000

 Total Charge           Charge          ....    0
 Multiplicity           Mult            ....    1
 Number of Electrons    NEL             ....   42
 Basis Dimension        Dim             ....  460

ORBITAL ENERGIES
----------------

  NO   OCC          E(Eh)            E(eV)
   0   2.0000     -20.548987      -559.1664
   1   2.0000     -11.285936      -307.1059
   2   2.0000     -11.214746      -305.1688
   3   2.0000     -11.214732      -305.1684
   4   2.0000     -11.208658      -305.0031
   5   2.0000      -1.352792       -36.8114
   6   2.0000      -1.064475       -28.9658
   7   2.0000      -0.940851       -25.6019
   8   2.0000      -0.939011       -25.5518
   9   2.0000      -0.770985       -20.9796
  10   2.0000      -0.668185       -18.1822
  11   2.0000      -0.622084       -16.9278
  12   2.0000      -0.620005       -16.8712
  13   2.0000      -0.575660       -15.6645
  14   2.0000      -0.556132       -15.1331
  15   2.0000      -0.530891       -14.4463
  16   2.0000      -0.516905       -14.0657
  17   2.0000      -0.508401       -13.8343
  18   2.0000      -0.503394       -13.6981
  19   2.0000      -0.462039       -12.5727
  20   2.0000      -0.432710       -11.7747
  21   0.0000       0.028537         0.7765
  22   0.0000       0.037707         1.0261
  23   0.0000       0.038442         1.0461
  24   0.0000       0.042226         1.1490
  25   0.0000       0.058598         1.5945

MULLIKEN ATOMIC CHARGES
-----------------------
   0 C :   -1.157440
   1 C :   -1.157440
   2 C :   -1.058774
   3 C :    1.546962
   4 O :   -0.850710
   5 H :    0.274888
   6 H :    0.291370
   7 H :    0.265777
   8 H :    0.265777
   9 H :    0.274888
  10 H :    0.291370
  11 H :    0.275738
  12 H :    0.283663
  13 H :    0.275738
  14 H :    0.178191
Sum of atomic charges:   -0.0000000

LOEWDIN ATOMIC CHARGES
----------------------
   0 C :    0.582717
   1 C :    0.582717
   2 C :    0.575110
   3 C :   -0.606723
   4 O :    0.831190
   5 H :   -0.166594
   6 H :   -0.161514
   7 H :   -0.163866
   8 H :   -0.163866
   9 H :   -0.166594
  10 H :   -0.161514
  11 H :   -0.163907
  12 H :   -0.162889
  13 H :   -0.163907
  14 H :   -0.490361

  Mayer bond orders larger than 0.100000
B(  0-C ,  3-C ) :   0.7075 B(  0-C ,  4-O ) :   0.1293 B(  0-C ,  5-H ) :   0.9802
B(  0-C ,  6-H ) :   0.9531 B(  0-C ,  7-H ) :   0.9831 B(  1-C ,  3-C ) :   0.7075
B(  1-C ,  4-O ) :   0.1293 B(  1-C ,  8-H ) :   0.9831 B(  1-C ,  9-H ) :   0.9802
B(  1-C , 10-H ) :   0.9531 B(  2-C ,  3-C ) :   0.5322 B(  2-C , 11-H ) :   0.9960
B(  2-C , 12-H ) :   0.9753 B(  2-C , 13-H ) :   0.9960 B(  3-C ,  4-O ) :   0.1253
B(  4-O , 14-H ) :   0.9911

MP2 TOTAL ENERGY:     -233.220733397 Eh
FINAL SINGLE POINT ENERGY      -233.220733397200

DIPOLE MOMENT
-------------
                                X             Y             Z
Electronic contribution:     -0.92150       3.01538       0.00000
Nuclear contribution   :      0.60969      -3.61897      -0.00000
                        -----------------------------------------
Total Dipole Moment    :     -0.31181      -0.60359       0.00000
                        -----------------------------------------
Magnitude (a.u.)       :      0.67937
Magnitude (Debye)      :      1.72683

Rotational constants in cm-1:     0.156661     0.155803     0.150094
Rotational constants in MHz :  4696.564879  4670.861377  4499.717642

                             ****ORCA TERMINATED NORMALLY****
TOTAL RUN TIME: 0 days 0 hours 3 minutes 23 seconds 684 msec
