                         Program Version 5.0.3 -  RELEASE  -
|  1> !ri-mp2 aug-cc-pvtz aug-cc-pvtz/c tightscf
|  2> %pal nprocs 16 end
|  3>
|  4> * xyz 0 1
|  5> C     -1.545200    0.674146   -0.126359
|  6> C     -0.105076    1.223728    0.005730
|  7> C     -1.368914   -0.846757    0.057412
|  8> C      0.732800   -0.011059    0.378649
|  9> C      2.152046   -0.027585   -0.146353
| 10> O      0.009355   -1.112893   -0.176593
| 11> H     -2.218989    1.088613    0.622495
| 12> H     -1.962003    0.904798   -1.105364
| 13> H      0.242266    1.630722   -0.944467
| 14> H     -0.020334    2.011011    0.754025
| 15> H     -1.637823   -1.149102    1.077531
| 16> H     -1.947361   -1.446214   -0.643058
| 17> H      0.744850   -0.121334    1.473448
| 18> H      2.155499    0.063414   -1.233368
| 19> H      2.721516    0.803002    0.273159
| 20> H      2.653606   -0.956606    0.123859
| 21> *
| 22>
| 23>                          ****END OF INPUT****

CARTESIAN COORDINATES (ANGSTROEM)
---------------------------------
  C     -1.545200    0.674146   -0.126359
  C     -0.105076    1.223728    0.005730
  C     -1.368914   -0.846757    0.057412
  C      0.732800   -0.011059    0.378649
  C      2.152046   -0.027585   -0.146353
  O      0.009355   -1.112893   -0.176593
  H     -2.218989    1.088613    0.622495
  H     -1.962003    0.904798   -1.105364
  H      0.242266    1.630722   -0.944467
  H     -0.020334    2.011011    0.754025
  H     -1.637823   -1.149102    1.077531
  H     -1.947361   -1.446214   -0.643058
  H      0.744850   -0.121334    1.473448
  H      2.155499    0.063414   -1.233368
  H      2.721516    0.803002    0.273159
  H      2.653606   -0.956606    0.123859

 Total Charge           Charge          ....    0
 Multiplicity           Mult            ....    1
 Number of Electrons    NEL             ....   48
 Basis Dimension        Dim             ....  506

ORBITAL ENERGIES
----------------

  NO   OCC          E(Eh)            E(eV)
   0   2.0000     -20.546422      -559.0966
   1   2.0000     -11.273618      -306.7708
   2   2.0000     -11.267748      -306.6110
   3   2.0000     -11.222226      -305.3723
   4   2.0000     -11.220509      -305.3256
   5   2.0000     -11.211114      -305.0699
   6   2.0000      -1.371061       -37.3085
   7   2.0000      -1.054376       -28.6910
   8   2.0000      -1.026925       -27.9441
   9   2.0000      -0.913565       -24.8594
  10   2.0000      -0.808884       -22.0109
  11   2.0000      -0.786782       -21.4094
  12   2.0000      -0.674461       -18.3530
  13   2.0000      -0.652871       -17.7655
  14   2.0000      -0.626884       -17.0584
  15   2.0000      -0.584491       -15.9048
  16   2.0000      -0.569434       -15.4951
  17   2.0000      -0.529956       -14.4208
  18   2.0000      -0.517831       -14.0909
  19   2.0000      -0.494765       -13.4632
  20   2.0000      -0.477348       -12.9893
  21   2.0000      -0.463817       -12.6211
  22   2.0000      -0.459028       -12.4908
  23   2.0000      -0.414018       -11.2660
  24   0.0000       0.030687         0.8350
  25   0.0000       0.036495         0.9931
  26   0.0000       0.038159         1.0384
  27   0.0000       0.041153         1.1198
  28   0.0000       0.052817         1.4372

MULLIKEN ATOMIC CHARGES
-----------------------
   0 C :   -0.567238
   1 C :   -0.663855
   2 C :   -0.428764
   3 C :    0.495120
   4 C :   -0.992659
   5 O :   -0.781132
   6 H :    0.272537
   7 H :    0.267596
   8 H :    0.258981
   9 H :    0.331573
  10 H :    0.248110
  11 H :    0.394010
  12 H :    0.342517
  13 H :    0.276265
  14 H :    0.275431
  15 H :    0.271506
Sum of atomic charges:    0.0000000

LOEWDIN ATOMIC CHARGES
----------------------
   0 C :    0.317969
   1 C :    0.313703
   2 C :    0.055368
   3 C :   -0.286866
   4 C :    0.591160
   5 O :    0.573775
   6 H :   -0.156068
   7 H :   -0.157273
   8 H :   -0.154155
   9 H :   -0.146432
  10 H :   -0.153876
  11 H :   -0.161316
  12 H :   -0.132210
  13 H :   -0.168173
  14 H :   -0.166989
  15 H :   -0.168618

  Mayer bond orders larger than 0.100000
B(  0-C ,  1-C ) :   1.0492 B(  0-C ,  2-C ) :   0.9982 B(  0-C ,  6-H ) :   0.9394
B(  0-C ,  7-H ) :   0.9510 B(  1-C ,  2-C ) :   0.1027 B(  1-C ,  3-C ) :   0.9057
B(  1-C ,  5-O ) :   0.1327 B(  1-C ,  8-H ) :   0.9399 B(  1-C ,  9-H ) :   0.8763
B(  2-C ,  5-O ) :   0.8957 B(  2-C , 10-H ) :   0.9814 B(  2-C , 11-H ) :   0.8699
B(  3-C ,  4-C ) :   0.7272 B(  3-C ,  5-O ) :   0.6334 B(  3-C , 12-H ) :   0.9279
B(  4-C , 13-H ) :   0.9723 B(  4-C , 14-H ) :   0.9921 B(  4-C , 15-H ) :   0.9759

MP2 TOTAL ENERGY:     -271.230304246 Eh
FINAL SINGLE POINT ENERGY      -271.230304245639

DIPOLE MOMENT
-------------
                                X             Y             Z
Electronic contribution:     -0.99387      -2.36828      -0.16540
Nuclear contribution   :      0.76545       2.94173       0.41391
                        -----------------------------------------
Total Dipole Moment    :     -0.22841       0.57345       0.24850
                        -----------------------------------------
Magnitude (a.u.)       :      0.66541
Magnitude (Debye)      :      1.69134

Rotational constants in cm-1:     0.219510     0.105478     0.078686
Rotational constants in MHz :  6580.746921  3162.162576  2358.953791

                             ****ORCA TERMINATED NORMALLY****
TOTAL RUN TIME: 0 days 0 hours 4 minutes 22 seconds 463 msec
