                         Program Version 5.0.3 -  RELEASE  -
|  1> !ri-mp2 aug-cc-pvtz aug-cc-pvtz/c tightscf
|  2> %pal nprocs 16 end
|  3>
|  4> * xyz 0 1
|  5> Cl    -2.515817   -0.128816    0.000007
|  6> S      0.326747   -1.096199   -0.000007
|  7> F      2.880120   -0.361130   -0.000011
|  8> C     -0.231182    1.433389    0.000009
|  9> C      1.195500    1.353571    0.000004
| 10> C     -0.825108    0.213609    0.000004
| 11> C      1.617947    0.069156   -0.000005
| 12> H     -0.784651    2.359095    0.000016
| 13> H      1.861563    2.201781    0.000006
| 14> *
| 15>
| 16>                          ****END OF INPUT****

CARTESIAN COORDINATES (ANGSTROEM)
---------------------------------
  Cl    -2.515817   -0.128816    0.000007
  S      0.326747   -1.096199   -0.000007
  F      2.880120   -0.361130   -0.000011
  C     -0.231182    1.433389    0.000009
  C      1.195500    1.353571    0.000004
  C     -0.825108    0.213609    0.000004
  C      1.617947    0.069156   -0.000005
  H     -0.784651    2.359095    0.000016
  H      1.861563    2.201781    0.000006

 Total Charge           Charge          ....    0
 Multiplicity           Mult            ....    1
 Number of Electrons    NEL             ....   68
 Basis Dimension        Dim             ....  376

ORBITAL ENERGIES
----------------

  NO   OCC          E(Eh)            E(eV)
   0   2.0000    -104.865006     -2853.5219
   1   2.0000     -92.015660     -2503.8734
   2   2.0000     -26.341947      -716.8008
   3   2.0000     -11.369899      -309.3907
   4   2.0000     -11.334877      -308.4377
   5   2.0000     -11.265965      -306.5625
   6   2.0000     -11.257949      -306.3444
   7   2.0000     -10.588242      -288.1207
   8   2.0000      -9.015517      -245.3247
   9   2.0000      -8.055228      -219.1939
  10   2.0000      -8.053168      -219.1379
  11   2.0000      -8.053088      -219.1357
  12   2.0000      -6.696367      -182.2174
  13   2.0000      -6.695946      -182.2060
  14   2.0000      -6.694858      -182.1763
  15   2.0000      -1.658635       -45.1338
  16   2.0000      -1.216531       -33.1035
  17   2.0000      -1.137750       -30.9598
  18   2.0000      -1.016950       -27.6726
  19   2.0000      -0.982891       -26.7458
  20   2.0000      -0.824035       -22.4231
  21   2.0000      -0.784364       -21.3436
  22   2.0000      -0.731055       -19.8930
  23   2.0000      -0.723909       -19.6986
  24   2.0000      -0.691474       -18.8160
  25   2.0000      -0.640146       -17.4193
  26   2.0000      -0.593856       -16.1596
  27   2.0000      -0.568379       -15.4664
  28   2.0000      -0.549030       -14.9399
  29   2.0000      -0.510758       -13.8984
  30   2.0000      -0.486645       -13.2423
  31   2.0000      -0.467875       -12.7315
  32   2.0000      -0.377458       -10.2712
  33   2.0000      -0.333875        -9.0852
  34   0.0000       0.028339         0.7711
  35   0.0000       0.039898         1.0857
  36   0.0000       0.056586         1.5398
  37   0.0000       0.069282         1.8853
  38   0.0000       0.072111         1.9622

MULLIKEN ATOMIC CHARGES
-----------------------
   0 Cl:   -0.368989
   1 S :   -0.080014
   2 F :   -0.375956
   3 C :   -0.888887
   4 C :   -0.682339
   5 C :    0.716977
   6 C :    0.725520
   7 H :    0.526579
   8 H :    0.427108
Sum of atomic charges:    0.0000000

LOEWDIN ATOMIC CHARGES
----------------------
   0 Cl:    0.898623
   1 S :    1.178407
   2 F :    0.443990
   3 C :   -0.030963
   4 C :    0.059197
   5 C :   -1.230009
   6 C :   -0.919997
   7 H :   -0.203687
   8 H :   -0.195561

  Mayer bond orders larger than 0.100000
B(  0-Cl,  5-C ) :   0.7165 B(  1-S ,  3-C ) :   0.1513 B(  1-S ,  5-C ) :   0.9715
B(  1-S ,  6-C ) :   1.1353 B(  2-F ,  4-C ) :   0.1514 B(  2-F ,  6-C ) :   0.5531
B(  3-C ,  4-C ) :   1.4508 B(  3-C ,  5-C ) :   1.4514 B(  3-C ,  7-H ) :   0.7200
B(  4-C ,  5-C ) :  -0.1330 B(  4-C ,  6-C ) :   1.4760 B(  4-C ,  8-H ) :   0.8749

MP2 TOTAL ENERGY:    -1110.448575610 Eh
FINAL SINGLE POINT ENERGY     -1110.448575610498

DIPOLE MOMENT
-------------
                                X             Y             Z
Electronic contribution:     -1.69031      -4.21939      -0.00002
Nuclear contribution   :      1.70351       4.80239       0.00002
                        -----------------------------------------
Total Dipole Moment    :      0.01320       0.58301       0.00000
                        -----------------------------------------
Magnitude (a.u.)       :      0.58315
Magnitude (Debye)      :      1.48226

Rotational constants in cm-1:     0.170001     0.037717     0.030869
Rotational constants in MHz :  5096.491608  1130.735367   925.417257

                             ****ORCA TERMINATED NORMALLY****
TOTAL RUN TIME: 0 days 0 hours 2 minutes 14 seconds 202 msec
