                         Program Version 5.0.3 -  RELEASE  -
|  1> !ri-mp2 aug-cc-pvtz aug-cc-pvtz/c tightscf
|  2> %pal nprocs 16 end
|  3>
|  4> * xyz 0 1
|  5> C      1.212934   -2.830317    0.000000
|  6> C     -1.715980    2.860634    0.000000
|  7> C      0.924480   -0.299270    0.000000
|  8> C      0.000000    0.830193    0.000000
|  9> C      0.223042   -1.668570    0.000000
| 10> C     -0.778310    1.745812    0.000000
| 11> H      0.694512   -3.789693    0.000000
| 12> H     -2.748510    2.506561    0.000000
| 13> H      1.857339   -2.802347    0.881179
| 14> H      1.857339   -2.802347   -0.881179
| 15> H     -0.428117   -1.730803   -0.874251
| 16> H     -0.428117   -1.730803    0.874251
| 17> H      1.579877   -0.230796   -0.873928
| 18> H      1.579877   -0.230796    0.873928
| 19> H     -1.580599    3.490066    0.881436
| 20> H     -1.580599    3.490066   -0.881436
| 21> *
| 22>
| 23>                          ****END OF INPUT****

CARTESIAN COORDINATES (ANGSTROEM)
---------------------------------
  C      1.212934   -2.830317    0.000000
  C     -1.715980    2.860634    0.000000
  C      0.924480   -0.299270    0.000000
  C      0.000000    0.830193    0.000000
  C      0.223042   -1.668570    0.000000
  C     -0.778310    1.745812    0.000000
  H      0.694512   -3.789693    0.000000
  H     -2.748510    2.506561    0.000000
  H      1.857339   -2.802347    0.881179
  H      1.857339   -2.802347   -0.881179
  H     -0.428117   -1.730803   -0.874251
  H     -0.428117   -1.730803    0.874251
  H      1.579877   -0.230796   -0.873928
  H      1.579877   -0.230796    0.873928
  H     -1.580599    3.490066    0.881436
  H     -1.580599    3.490066   -0.881436

 Total Charge           Charge          ....    0
 Multiplicity           Mult            ....    1
 Number of Electrons    NEL             ....   46
 Basis Dimension        Dim             ....  506

ORBITAL ENERGIES
----------------

  NO   OCC          E(Eh)            E(eV)
   0   2.0000     -11.241774      -305.9042
   1   2.0000     -11.240596      -305.8722
   2   2.0000     -11.224241      -305.4271
   3   2.0000     -11.214756      -305.1690
   4   2.0000     -11.214473      -305.1613
   5   2.0000     -11.209877      -305.0363
   6   2.0000      -1.085305       -29.5327
   7   2.0000      -1.039638       -28.2900
   8   2.0000      -0.975131       -26.5347
   9   2.0000      -0.911667       -24.8077
  10   2.0000      -0.815701       -22.1963
  11   2.0000      -0.660734       -17.9795
  12   2.0000      -0.639015       -17.3885
  13   2.0000      -0.609364       -16.5817
  14   2.0000      -0.584074       -15.8935
  15   2.0000      -0.582188       -15.8421
  16   2.0000      -0.569107       -15.4862
  17   2.0000      -0.550476       -14.9792
  18   2.0000      -0.507279       -13.8038
  19   2.0000      -0.489391       -13.3170
  20   2.0000      -0.479198       -13.0396
  21   2.0000      -0.360367        -9.8061
  22   2.0000      -0.360142        -9.8000
  23   0.0000       0.029821         0.8115
  24   0.0000       0.032316         0.8794
  25   0.0000       0.039498         1.0748
  26   0.0000       0.041012         1.1160
  27   0.0000       0.049803         1.3552

MULLIKEN ATOMIC CHARGES
-----------------------
   0 C :   -0.981177
   1 C :   -0.861961
   2 C :   -0.503623
   3 C :    0.424794
   4 C :   -0.413391
   5 C :   -0.281499
   6 H :    0.279028
   7 H :    0.264175
   8 H :    0.283662
   9 H :    0.283662
  10 H :    0.265048
  11 H :    0.265048
  12 H :    0.205699
  13 H :    0.205699
  14 H :    0.282419
  15 H :    0.282419
Sum of atomic charges:   -0.0000000

LOEWDIN ATOMIC CHARGES
----------------------
   0 C :    0.577171
   1 C :    0.503810
   2 C :    0.197637
   3 C :    0.087870
   4 C :    0.249774
   5 C :    0.083192
   6 H :   -0.173074
   7 H :   -0.187867
   8 H :   -0.171014
   9 H :   -0.171014
  10 H :   -0.149729
  11 H :   -0.149729
  12 H :   -0.160445
  13 H :   -0.160445
  14 H :   -0.188068
  15 H :   -0.188068

  Mayer bond orders larger than 0.100000
B(  0-C ,  4-C ) :   0.8882 B(  0-C ,  6-H ) :   0.9783 B(  0-C ,  8-H ) :   0.9410
B(  0-C ,  9-H ) :   0.9410 B(  1-C ,  2-C ) :   0.2304 B(  1-C ,  3-C ) :  -0.1828
B(  1-C ,  5-C ) :   0.9557 B(  1-C ,  7-H ) :   0.9582 B(  1-C , 14-H ) :   0.9580
B(  1-C , 15-H ) :   0.9580 B(  2-C ,  3-C ) :   0.8316 B(  2-C ,  4-C ) :   0.9797
B(  2-C ,  5-C ) :   0.2712 B(  2-C , 12-H ) :   0.9894 B(  2-C , 13-H ) :   0.9894
B(  3-C ,  5-C ) :   2.1746 B(  4-C , 10-H ) :   0.9371 B(  4-C , 11-H ) :   0.9371

MP2 TOTAL ENERGY:     -234.079676117 Eh
FINAL SINGLE POINT ENERGY      -234.079676116664

DIPOLE MOMENT
-------------
                                X             Y             Z
Electronic contribution:     -0.89407       3.98108       0.00000
Nuclear contribution   :      0.84450      -4.02887       0.00000
                        -----------------------------------------
Total Dipole Moment    :     -0.04957      -0.04779       0.00000
                        -----------------------------------------
Magnitude (a.u.)       :      0.06885
Magnitude (Debye)      :      0.17501

Rotational constants in cm-1:     0.603832     0.039924     0.038511
Rotational constants in MHz : 18102.419163  1196.888311  1154.525630

                             ****ORCA TERMINATED NORMALLY****
TOTAL RUN TIME: 0 days 0 hours 3 minutes 28 seconds 659 msec
