                         Program Version 5.0.3 -  RELEASE  -
|  1> !ri-mp2 aug-cc-pvtz aug-cc-pvtz/c tightscf
|  2> %pal nprocs 16 end
|  3>
|  4> * xyz 0 1
|  5> C     -1.104968   -1.663429        0.000000
|  6> C     -1.932817   -0.545821        0.000000
|  7> C      0.277669   -1.523878        0.000000
|  8> C     -1.373010    0.728438        0.000000
|  9> C      0.848168   -0.256096        0.000000
| 10> C      0.000000    0.846928        0.000000
| 11> O      2.201785   -0.118858        0.000000
| 12> F      0.585079    2.077027        0.000000
| 13> H     -1.536548   -2.654610        0.000000
| 14> H     -3.007204   -0.659939        0.000000
| 15> H      0.930968   -2.385091        0.000000
| 16> H     -1.982396    1.621014        0.000000
| 17> H      2.424943    0.819401        0.000000
| 18> *
| 19>
| 20>                          ****END OF INPUT****

CARTESIAN COORDINATES (ANGSTROEM)
---------------------------------
  C     -1.104968   -1.663429    0.000000
  C     -1.932817   -0.545821    0.000000
  C      0.277669   -1.523878    0.000000
  C     -1.373010    0.728438    0.000000
  C      0.848168   -0.256096    0.000000
  C      0.000000    0.846928    0.000000
  O      2.201785   -0.118858    0.000000
  F      0.585079    2.077027    0.000000
  H     -1.536548   -2.654610    0.000000
  H     -3.007204   -0.659939    0.000000
  H      0.930968   -2.385091    0.000000
  H     -1.982396    1.621014    0.000000
  H      2.424943    0.819401    0.000000

 Total Charge           Charge          ....    0
 Multiplicity           Mult            ....    1
 Number of Electrons    NEL             ....   58
 Basis Dimension        Dim             ....  483

ORBITAL ENERGIES
----------------

  NO   OCC          E(Eh)            E(eV)
   0   2.0000     -26.321369      -716.2409
   1   2.0000     -20.600432      -560.5663
   2   2.0000     -11.327718      -308.2429
   3   2.0000     -11.314850      -307.8927
   4   2.0000     -11.253005      -306.2098
   5   2.0000     -11.247069      -306.0483
   6   2.0000     -11.243363      -305.9475
   7   2.0000     -11.243034      -305.9385
   8   2.0000      -1.634210       -44.4691
   9   2.0000      -1.416339       -38.5405
  10   2.0000      -1.165716       -31.7207
  11   2.0000      -1.034845       -28.1596
  12   2.0000      -1.020764       -27.7764
  13   2.0000      -0.866856       -23.5883
  14   2.0000      -0.850702       -23.1488
  15   2.0000      -0.773250       -21.0412
  16   2.0000      -0.734050       -19.9745
  17   2.0000      -0.705772       -19.2050
  18   2.0000      -0.703699       -19.1486
  19   2.0000      -0.655922       -17.8485
  20   2.0000      -0.628857       -17.1121
  21   2.0000      -0.616314       -16.7708
  22   2.0000      -0.597445       -16.2573
  23   2.0000      -0.583729       -15.8841
  24   2.0000      -0.539876       -14.6908
  25   2.0000      -0.515751       -14.0343
  26   2.0000      -0.496440       -13.5088
  27   2.0000      -0.352724        -9.5981
  28   2.0000      -0.327782        -8.9194
  29   0.0000       0.028778         0.7831
  30   0.0000       0.034331         0.9342
  31   0.0000       0.035280         0.9600
  32   0.0000       0.048692         1.3250
  33   0.0000       0.052222         1.4210

MULLIKEN ATOMIC CHARGES
-----------------------
   0 C :   -0.486466
   1 C :   -0.444426
   2 C :   -0.901591
   3 C :   -0.798613
   4 C :    0.675516
   5 C :    0.931477
   6 O :   -0.723951
   7 F :   -0.502530
   8 H :    0.465774
   9 H :    0.503045
  10 H :    0.596608
  11 H :    0.484625
  12 H :    0.200532
Sum of atomic charges:    0.0000000

LOEWDIN ATOMIC CHARGES
----------------------
   0 C :    0.184007
   1 C :    0.182515
   2 C :    0.207220
   3 C :    0.187926
   4 C :   -0.385045
   5 C :   -0.482449
   6 O :    0.842281
   7 F :    0.495223
   8 H :   -0.184636
   9 H :   -0.189192
  10 H :   -0.179700
  11 H :   -0.179945
  12 H :   -0.498205

  Mayer bond orders larger than 0.100000
B(  0-C ,  1-C ) :   1.1460 B(  0-C ,  2-C ) :   1.3355 B(  0-C ,  4-C ) :  -0.1301
B(  0-C ,  8-H ) :   0.7566 B(  1-C ,  3-C ) :   1.3469 B(  1-C ,  5-C ) :  -0.1854
B(  1-C ,  9-H ) :   0.7384 B(  2-C ,  4-C ) :   1.0689 B(  2-C , 10-H ) :   0.4535
B(  3-C ,  5-C ) :   1.1041 B(  3-C ,  7-F ) :   0.1063 B(  3-C , 11-H ) :   0.6026
B(  4-C ,  5-C ) :   1.1305 B(  4-C ,  6-O ) :   0.6400 B(  4-C ,  7-F ) :   0.1642
B(  5-C ,  6-O ) :  -0.1562 B(  5-C ,  7-F ) :   0.2483 B(  6-O , 12-H ) :   1.0195
B(  7-F , 11-H ) :   0.1097

MP2 TOTAL ENERGY:     -406.013358031 Eh
FINAL SINGLE POINT ENERGY      -406.013358030597

DIPOLE MOMENT
-------------
                                X             Y             Z
Electronic contribution:      3.16693       5.05644       0.00000
Nuclear contribution   :     -3.60818      -5.16190       0.00000
                        -----------------------------------------
Total Dipole Moment    :     -0.44126      -0.10547       0.00000
                        -----------------------------------------
Magnitude (a.u.)       :      0.45369
Magnitude (Debye)      :      1.15318

Rotational constants in cm-1:     0.111740     0.074559     0.044720
Rotational constants in MHz :  3349.887404  2235.211615  1340.657920

                             ****ORCA TERMINATED NORMALLY****
TOTAL RUN TIME: 0 days 0 hours 4 minutes 22 seconds 771 msec
