                         Program Version 5.0.3 -  RELEASE  -
|  1> !ri-mp2 aug-cc-pvtz aug-cc-pvtz/c tightscf
|  2> %pal nprocs 16 end
|  3>
|  4> * xyz 0 1
|  5> Cl    1.196824   -1.594182   -0.748571
|  6> Cl   -0.018487    1.607823   -0.809981
|  7> O     1.639322    1.360355    1.198885
|  8> O    -2.947869   -0.058570   -0.171301
|  9> C     0.488767   -0.684550    0.702596
| 10> C     0.860125    0.779605    0.528686
| 11> C    -0.940974   -0.958589    0.955829
| 12> C    -1.982431   -0.450327    0.322211
| 13> H     1.078224   -1.040998    1.539221
| 14> H    -1.194497   -1.722002    1.679561
| 15> *
| 16>
| 17>                          ****END OF INPUT****

CARTESIAN COORDINATES (ANGSTROEM)
---------------------------------
  Cl     1.196824   -1.594182   -0.748571
  Cl    -0.018487    1.607823   -0.809981
  O      1.639322    1.360355    1.198885
  O     -2.947869   -0.058570   -0.171301
  C      0.488767   -0.684550    0.702596
  C      0.860125    0.779605    0.528686
  C     -0.940974   -0.958589    0.955829
  C     -1.982431   -0.450327    0.322211
  H      1.078224   -1.040998    1.539221
  H     -1.194497   -1.722002    1.679561

 Total Charge           Charge          ....    0
 Multiplicity           Mult            ....    1
 Number of Electrons    NEL             ....   76
 Basis Dimension        Dim             ....  422

ORBITAL ENERGIES
----------------

  NO   OCC          E(Eh)            E(eV)
   0   2.0000    -104.868918     -2853.6283
   1   2.0000    -104.853980     -2853.2218
   2   2.0000     -20.662662      -562.2596
   3   2.0000     -20.618182      -561.0493
   4   2.0000     -11.434994      -311.1620
   5   2.0000     -11.419079      -310.7289
   6   2.0000     -11.369903      -309.3908
   7   2.0000     -11.280504      -306.9581
   8   2.0000     -10.593221      -288.2562
   9   2.0000     -10.577637      -287.8321
  10   2.0000      -8.059842      -219.3194
  11   2.0000      -8.058073      -219.2713
  12   2.0000      -8.057967      -219.2684
  13   2.0000      -8.044296      -218.8964
  14   2.0000      -8.042439      -218.8459
  15   2.0000      -8.042380      -218.8443
  16   2.0000      -1.511100       -41.1191
  17   2.0000      -1.474791       -40.1311
  18   2.0000      -1.194211       -32.4961
  19   2.0000      -1.136172       -30.9168
  20   2.0000      -1.090203       -29.6659
  21   2.0000      -0.981793       -26.7159
  22   2.0000      -0.826137       -22.4803
  23   2.0000      -0.774148       -21.0656
  24   2.0000      -0.733408       -19.9571
  25   2.0000      -0.715345       -19.4655
  26   2.0000      -0.678838       -18.4721
  27   2.0000      -0.678570       -18.4648
  28   2.0000      -0.652490       -17.7552
  29   2.0000      -0.623368       -16.9627
  30   2.0000      -0.608215       -16.5504
  31   2.0000      -0.562381       -15.3032
  32   2.0000      -0.501802       -13.6547
  33   2.0000      -0.489299       -13.3145
  34   2.0000      -0.485464       -13.2101
  35   2.0000      -0.466636       -12.6978
  36   2.0000      -0.455776       -12.4023
  37   2.0000      -0.386957       -10.5296
  38   0.0000       0.021335         0.5805
  39   0.0000       0.040066         1.0903
  40   0.0000       0.054043         1.4706
  41   0.0000       0.060182         1.6376
  42   0.0000       0.072456         1.9716

MULLIKEN ATOMIC CHARGES
-----------------------
   0 Cl:   -0.345274
   1 Cl:   -0.244045
   2 O :   -0.663201
   3 O :   -0.492280
   4 C :    0.371590
   5 C :    0.670587
   6 C :   -0.332082
   7 C :    0.393498
   8 H :    0.239279
   9 H :    0.401929
Sum of atomic charges:    0.0000000

LOEWDIN ATOMIC CHARGES
----------------------
   0 Cl:    0.867491
   1 Cl:    0.903955
   2 O :    0.404399
   3 O :    0.447555
   4 C :   -0.683327
   5 C :   -1.183160
   6 C :    0.042150
   7 C :   -0.309028
   8 H :   -0.262501
   9 H :   -0.227535

  Mayer bond orders larger than 0.100000
B(  0-Cl,  4-C ) :   0.7644 B(  1-Cl,  5-C ) :   0.8873 B(  2-O ,  5-C ) :   1.4636
B(  3-O ,  6-C ) :  -0.1251 B(  3-O ,  7-C ) :   1.9056 B(  4-C ,  5-C ) :   0.8391
B(  4-C ,  6-C ) :   0.9647 B(  4-C ,  8-H ) :   0.9222 B(  5-C ,  6-C ) :   0.1483
B(  6-C ,  7-C ) :   1.4030 B(  6-C ,  9-H ) :   0.8275

MP2 TOTAL ENERGY:    -1222.956942967 Eh
FINAL SINGLE POINT ENERGY     -1222.956942967029

DIPOLE MOMENT
-------------
                                X             Y             Z
Electronic contribution:      1.28946       1.79086      -4.45100
Nuclear contribution   :     -1.70079      -2.57727       5.09924
                        -----------------------------------------
Total Dipole Moment    :     -0.41133      -0.78641       0.64825
                        -----------------------------------------
Magnitude (a.u.)       :      1.09902
Magnitude (Debye)      :      2.79350

Rotational constants in cm-1:     0.050358     0.042331     0.030819
Rotational constants in MHz :  1509.705171  1269.045673   923.945047

                             ****ORCA TERMINATED NORMALLY****
TOTAL RUN TIME: 0 days 0 hours 2 minutes 58 seconds 242 msec
