                         Program Version 5.0.3 -  RELEASE  -
|  1> !ri-mp2 aug-cc-pvtz aug-cc-pvtz/c tightscf
|  2> %pal nprocs 16 end
|  3>
|  4> * xyz 0 1
|  5> S      1.786816   -0.999206   -0.026846
|  6> S     -2.245223   -0.148491   -0.179660
|  7> O     -1.005016   -1.270226    0.235149
|  8> O     -1.330231    1.236629    0.220211
|  9> C      0.134146   -0.525701    0.028191
| 10> C     -0.017500    0.819744    0.026189
| 11> C      1.196636    1.540976   -0.022378
| 12> C      2.258331    0.681032   -0.056911
| 13> H      1.283391    2.615343   -0.042028
| 14> H      3.303414    0.920280   -0.147308
| 15> *
| 16>
| 17>                          ****END OF INPUT****

CARTESIAN COORDINATES (ANGSTROEM)
---------------------------------
  S      1.786816   -0.999206   -0.026846
  S     -2.245223   -0.148491   -0.179660
  O     -1.005016   -1.270226    0.235149
  O     -1.330231    1.236629    0.220211
  C      0.134146   -0.525701    0.028191
  C     -0.017500    0.819744    0.026189
  C      1.196636    1.540976   -0.022378
  C      2.258331    0.681032   -0.056911
  H      1.283391    2.615343   -0.042028
  H      3.303414    0.920280   -0.147308

 Total Charge           Charge          ....    0
 Multiplicity           Mult            ....    1
 Number of Electrons    NEL             ....   74
 Basis Dimension        Dim             ....  422

ORBITAL ENERGIES
----------------

  NO   OCC          E(Eh)            E(eV)
   0   2.0000     -92.078510     -2505.5836
   1   2.0000     -92.010071     -2503.7213
   2   2.0000     -20.638529      -561.6029
   3   2.0000     -20.632638      -561.4426
   4   2.0000     -11.330322      -308.3137
   5   2.0000     -11.307380      -307.6894
   6   2.0000     -11.282481      -307.0119
   7   2.0000     -11.264171      -306.5137
   8   2.0000      -9.067335      -246.7347
   9   2.0000      -9.009251      -245.1542
  10   2.0000      -6.747769      -183.6161
  11   2.0000      -6.746688      -183.5867
  12   2.0000      -6.744267      -183.5208
  13   2.0000      -6.690256      -182.0511
  14   2.0000      -6.689753      -182.0374
  15   2.0000      -6.688796      -182.0114
  16   2.0000      -1.468535       -39.9609
  17   2.0000      -1.389970       -37.8230
  18   2.0000      -1.185940       -32.2711
  19   2.0000      -1.005007       -27.3476
  20   2.0000      -1.004391       -27.3309
  21   2.0000      -0.926800       -25.2195
  22   2.0000      -0.811466       -22.0811
  23   2.0000      -0.783921       -21.3316
  24   2.0000      -0.707495       -19.2519
  25   2.0000      -0.675988       -18.3946
  26   2.0000      -0.629394       -17.1267
  27   2.0000      -0.621017       -16.8987
  28   2.0000      -0.606617       -16.5069
  29   2.0000      -0.596097       -16.2206
  30   2.0000      -0.562361       -15.3026
  31   2.0000      -0.528174       -14.3724
  32   2.0000      -0.513920       -13.9845
  33   2.0000      -0.495919       -13.4947
  34   2.0000      -0.385543       -10.4912
  35   2.0000      -0.363080        -9.8799
  36   2.0000      -0.313189        -8.5223
  37   0.0000       0.028330         0.7709
  38   0.0000       0.037155         1.0110
  39   0.0000       0.051572         1.4033
  40   0.0000       0.056303         1.5321
  41   0.0000       0.064632         1.7587

MULLIKEN ATOMIC CHARGES
-----------------------
   0 S :   -0.176977
   1 S :    0.402324
   2 O :   -0.676305
   3 O :   -0.678137
   4 C :    0.663005
   5 C :    0.693541
   6 C :   -0.846393
   7 C :   -0.383307
   8 H :    0.500011
   9 H :    0.502238
Sum of atomic charges:    0.0000000

LOEWDIN ATOMIC CHARGES
----------------------
   0 S :    1.247624
   1 S :    0.762266
   2 O :    0.096492
   3 O :    0.133526
   4 C :   -0.992953
   5 C :   -0.696016
   6 C :    0.093055
   7 C :   -0.183074
   8 H :   -0.192240
   9 H :   -0.268679

  Mayer bond orders larger than 0.100000
B(  0-S ,  4-C ) :   1.0010 B(  0-S ,  7-C ) :   1.1308 B(  1-S ,  2-O ) :   0.8341
B(  1-S ,  3-O ) :   0.8619 B(  2-O ,  4-C ) :   0.5317 B(  3-O ,  5-C ) :   0.4831
B(  4-C ,  5-C ) :   1.6013 B(  5-C ,  6-C ) :   0.9960 B(  5-C ,  7-C ) :  -0.1724
B(  6-C ,  7-C ) :   1.6027 B(  6-C ,  8-H ) :   0.7380 B(  7-C ,  9-H ) :   0.7352

MP2 TOTAL ENERGY:    -1098.904275561 Eh
FINAL SINGLE POINT ENERGY     -1098.904275561291

DIPOLE MOMENT
-------------
                                X             Y             Z
Electronic contribution:     -3.85946      -3.03382      -0.02533
Nuclear contribution   :      4.33931       3.39463      -0.16713
                        -----------------------------------------
Total Dipole Moment    :      0.47986       0.36081      -0.19246
                        -----------------------------------------
Magnitude (a.u.)       :      0.63047
Magnitude (Debye)      :      1.60251

Rotational constants in cm-1:     0.121466     0.041872     0.031464
Rotational constants in MHz :  3641.463245  1255.278151   943.256234

                             ****ORCA TERMINATED NORMALLY****
TOTAL RUN TIME: 0 days 0 hours 3 minutes 17 seconds 872 msec
