                         Program Version 5.0.3 -  RELEASE  -
|  1> !ri-mp2 aug-cc-pvtz aug-cc-pvtz/c tightscf
|  2> %pal nprocs 16 end
|  3>
|  4> * xyz 0 1
|  5> C     -0.574621   -0.905235    1.270480
|  6> C     -0.574621   -0.905235   -1.270480
|  7> C     -0.574621   -0.076502    0.000000
|  8> Cl     0.896612    1.024877    0.000000
|  9> H     -0.565593   -0.272482    2.155996
| 10> H     -1.473445   -1.525794    1.299465
| 11> H      0.295393   -1.561000    1.305554
| 12> H     -0.565593   -0.272482   -2.155996
| 13> H     -1.473445   -1.525794   -1.299465
| 14> H      0.295393   -1.561000   -1.305554
| 15> H     -1.411924    0.617470    0.000000
| 16> *
| 17>
| 18>                          ****END OF INPUT****

CARTESIAN COORDINATES (ANGSTROEM)
---------------------------------
  C     -0.574621   -0.905235    1.270480
  C     -0.574621   -0.905235   -1.270480
  C     -0.574621   -0.076502    0.000000
  Cl     0.896612    1.024877    0.000000
  H     -0.565593   -0.272482    2.155996
  H     -1.473445   -1.525794    1.299465
  H      0.295393   -1.561000    1.305554
  H     -0.565593   -0.272482   -2.155996
  H     -1.473445   -1.525794   -1.299465
  H      0.295393   -1.561000   -1.305554
  H     -1.411924    0.617470    0.000000

 Total Charge           Charge          ....    0
 Multiplicity           Mult            ....    1
 Number of Electrons    NEL             ....   42
 Basis Dimension        Dim             ....  349

ORBITAL ENERGIES
----------------

  NO   OCC          E(Eh)            E(eV)
   0   2.0000    -104.813116     -2852.1099
   1   2.0000     -11.302095      -307.5456
   2   2.0000     -11.231206      -305.6167
   3   2.0000     -11.231192      -305.6163
   4   2.0000     -10.537380      -286.7367
   5   2.0000      -8.004078      -217.8020
   6   2.0000      -8.002469      -217.7583
   7   2.0000      -8.002462      -217.7581
   8   2.0000      -1.139128       -30.9973
   9   2.0000      -1.016358       -27.6565
  10   2.0000      -0.954154       -25.9639
  11   2.0000      -0.800487       -21.7824
  12   2.0000      -0.648556       -17.6481
  13   2.0000      -0.614401       -16.7187
  14   2.0000      -0.590252       -16.0616
  15   2.0000      -0.556197       -15.1349
  16   2.0000      -0.518354       -14.1051
  17   2.0000      -0.513598       -13.9757
  18   2.0000      -0.484541       -13.1850
  19   2.0000      -0.427306       -11.6276
  20   2.0000      -0.427050       -11.6206
  21   0.0000       0.028469         0.7747
  22   0.0000       0.038755         1.0546
  23   0.0000       0.039197         1.0666
  24   0.0000       0.046315         1.2603
  25   0.0000       0.061543         1.6747

MULLIKEN ATOMIC CHARGES
-----------------------
   0 C :   -0.953020
   1 C :   -0.953020
   2 C :    0.235973
   3 Cl:   -0.438154
   4 H :    0.328757
   5 H :    0.285232
   6 H :    0.303366
   7 H :    0.328757
   8 H :    0.285232
   9 H :    0.303366
  10 H :    0.273511
Sum of atomic charges:   -0.0000000

LOEWDIN ATOMIC CHARGES
----------------------
   0 C :    0.492335
   1 C :    0.492335
   2 C :   -0.569856
   3 Cl:    0.880654
   4 H :   -0.185076
   5 H :   -0.170298
   6 H :   -0.179347
   7 H :   -0.185076
   8 H :   -0.170298
   9 H :   -0.179347
  10 H :   -0.226027

  Mayer bond orders larger than 0.100000
B(  0-C ,  2-C ) :   0.8501 B(  0-C ,  4-H ) :   0.9393 B(  0-C ,  5-H ) :   0.9193
B(  0-C ,  6-H ) :   0.9311 B(  1-C ,  2-C ) :   0.8501 B(  1-C ,  7-H ) :   0.9393
B(  1-C ,  8-H ) :   0.9193 B(  1-C ,  9-H ) :   0.9311 B(  2-C ,  3-Cl) :   0.7227
B(  2-C , 10-H ) :   0.9177

MP2 TOTAL ENERGY:     -577.987846378 Eh
FINAL SINGLE POINT ENERGY      -577.987846378356

DIPOLE MOMENT
-------------
                                X             Y             Z
Electronic contribution:      5.43424       6.95674       0.00000
Nuclear contribution   :     -6.20849      -7.59980       0.00000
                        -----------------------------------------
Total Dipole Moment    :     -0.77425      -0.64306       0.00000
                        -----------------------------------------
Magnitude (a.u.)       :      1.00647
Magnitude (Debye)      :      2.55825

Rotational constants in cm-1:     0.268653     0.148474     0.104861
Rotational constants in MHz :  8054.000563  4451.152908  3143.653891

                             ****ORCA TERMINATED NORMALLY****
TOTAL RUN TIME: 0 days 0 hours 1 minutes 24 seconds 50 msec
