                         Program Version 5.0.3 -  RELEASE  -
|  1> !ri-mp2 aug-cc-pvtz aug-cc-pvtz/c tightscf
|  2> %pal nprocs 16 end
|  3>
|  4> * xyz 0 1
|  5> Cl     3.117903   -0.625315    0.000000
|  6> S      0.125551   -0.848541    0.000000
|  7> O     -4.150489   -0.844343   -0.000002
|  8> N     -2.237269    0.548089    0.000001
|  9> C     -0.101979    1.727519    0.000002
| 10> C     -0.867078    0.598532    0.000001
| 11> C      1.293679    1.456131    0.000001
| 12> C      1.565665    0.124962    0.000000
| 13> C     -3.170305   -0.208471    0.000000
| 14> H     -0.528661    2.718444    0.000002
| 15> H      2.060415    2.214641    0.000002
| 16> *
| 17>
| 18>                          ****END OF INPUT****

CARTESIAN COORDINATES (ANGSTROEM)
---------------------------------
  Cl     3.117903   -0.625315    0.000000
  S      0.125551   -0.848541    0.000000
  O     -4.150489   -0.844343   -0.000002
  N     -2.237269    0.548089    0.000001
  C     -0.101979    1.727519    0.000002
  C     -0.867078    0.598532    0.000001
  C      1.293679    1.456131    0.000001
  C      1.565665    0.124962    0.000000
  C     -3.170305   -0.208471    0.000000
  H     -0.528661    2.718444    0.000002
  H      2.060415    2.214641    0.000002

 Total Charge           Charge          ....    0
 Multiplicity           Mult            ....    1
 Number of Electrons    NEL             ....   80
 Basis Dimension        Dim             ....  468

ORBITAL ENERGIES
----------------

  NO   OCC          E(Eh)            E(eV)
   0   2.0000    -104.867321     -2853.5849
   1   2.0000     -92.015514     -2503.8694
   2   2.0000     -20.629391      -561.3543
   3   2.0000     -15.623332      -425.1325
   4   2.0000     -11.426875      -310.9411
   5   2.0000     -11.345346      -308.7226
   6   2.0000     -11.338158      -308.5270
   7   2.0000     -11.265258      -306.5433
   8   2.0000     -11.261276      -306.4349
   9   2.0000     -10.590554      -288.1836
  10   2.0000      -9.015400      -245.3215
  11   2.0000      -8.057536      -219.2567
  12   2.0000      -8.055465      -219.2004
  13   2.0000      -8.055401      -219.1986
  14   2.0000      -6.696257      -182.2144
  15   2.0000      -6.695790      -182.2017
  16   2.0000      -6.694757      -182.1736
  17   2.0000      -1.481364       -40.3100
  18   2.0000      -1.316896       -35.8346
  19   2.0000      -1.214241       -33.0412
  20   2.0000      -1.139289       -31.0016
  21   2.0000      -1.018746       -27.7215
  22   2.0000      -1.005306       -27.3558
  23   2.0000      -0.871167       -23.7057
  24   2.0000      -0.769108       -20.9285
  25   2.0000      -0.746716       -20.3192
  26   2.0000      -0.729671       -19.8554
  27   2.0000      -0.677494       -18.4356
  28   2.0000      -0.666505       -18.1365
  29   2.0000      -0.641787       -17.4639
  30   2.0000      -0.593524       -16.1506
  31   2.0000      -0.583017       -15.8647
  32   2.0000      -0.579962       -15.7816
  33   2.0000      -0.526105       -14.3160
  34   2.0000      -0.521064       -14.1789
  35   2.0000      -0.474541       -12.9129
  36   2.0000      -0.461655       -12.5623
  37   2.0000      -0.457972       -12.4621
  38   2.0000      -0.377946       -10.2844
  39   2.0000      -0.321850        -8.7580
  40   0.0000       0.025089         0.6827
  41   0.0000       0.038250         1.0408
  42   0.0000       0.049321         1.3421
  43   0.0000       0.058059         1.5799
  44   0.0000       0.062400         1.6980

MULLIKEN ATOMIC CHARGES
-----------------------
   0 Cl:   -0.391799
   1 S :   -0.122147
   2 O :   -0.477089
   3 N :    0.078335
   4 C :   -0.940190
   5 C :    1.168762
   6 C :   -0.743255
   7 C :    0.678959
   8 C :   -0.265604
   9 H :    0.558315
  10 H :    0.455714
Sum of atomic charges:    0.0000000

LOEWDIN ATOMIC CHARGES
----------------------
   0 Cl:    0.904309
   1 S :    1.207049
   2 O :    0.385539
   3 N :    0.222141
   4 C :    0.081826
   5 C :   -0.712237
   6 C :   -0.015509
   7 C :   -1.221647
   8 C :   -0.463330
   9 H :   -0.185984
  10 H :   -0.202156

  Mayer bond orders larger than 0.100000
B(  0-Cl,  7-C ) :   0.6491 B(  1-S ,  4-C ) :   0.1391 B(  1-S ,  5-C ) :   0.9490
B(  1-S ,  7-C ) :   1.0423 B(  2-O ,  3-N ) :  -0.2698 B(  2-O ,  8-C ) :   2.0080
B(  3-N ,  5-C ) :   0.2516 B(  3-N ,  8-C ) :   1.8863 B(  4-C ,  5-C ) :   1.0971
B(  4-C ,  6-C ) :   1.5500 B(  4-C ,  8-C ) :   0.1116 B(  4-C ,  9-H ) :   0.6867
B(  5-C ,  6-C ) :  -0.2392 B(  5-C ,  8-C ) :  -0.3772 B(  6-C ,  7-C ) :   1.4144
B(  6-C , 10-H ) :   0.8482

MP2 TOTAL ENERGY:    -1178.550895793 Eh
FINAL SINGLE POINT ENERGY     -1178.550895792953

DIPOLE MOMENT
-------------
                                X             Y             Z
Electronic contribution:      3.27552      -4.79831      -0.00000
Nuclear contribution   :     -2.83501       5.50163       0.00000
                        -----------------------------------------
Total Dipole Moment    :      0.44051       0.70331       0.00000
                        -----------------------------------------
Magnitude (a.u.)       :      0.82988
Magnitude (Debye)      :      2.10939

Rotational constants in cm-1:     0.128664     0.019269     0.016759
Rotational constants in MHz :  3857.252862   577.679778   502.433105

                             ****ORCA TERMINATED NORMALLY****
TOTAL RUN TIME: 0 days 0 hours 4 minutes 7 seconds 774 msec
