                         Program Version 5.0.3 -  RELEASE  -
|  1> !ri-mp2 aug-cc-pvtz aug-cc-pvtz/c tightscf
|  2> %pal nprocs 16 end
|  3>
|  4> * xyz 0 1
|  5> H     0.310543     2.728828    0.000000
|  6> C    -0.313196     1.840812    0.000000
|  7> H     1.396218     0.676680    0.000000
|  8> C     0.313196     0.654900    0.000000
|  9> H    -1.396218    -0.676680    0.000000
| 10> C    -0.313196    -0.654900    0.000000
| 11> H    -0.310543    -2.728828    0.000000
| 12> C     0.313196    -1.840812    0.000000
| 13> H     2.383856    -1.194467    0.000000
| 14> H     2.072264    -2.692860    0.875470
| 15> H     2.072264    -2.692860   -0.875470
| 16> C     1.786306    -2.103254    0.000000
| 17> H    -2.383856     1.194467    0.000000
| 18> H    -2.072264     2.692860    0.875470
| 19> H    -2.072264     2.692860   -0.875470
| 20> C    -1.786306     2.103254    0.000000
| 21> *
| 22>
| 23>                          ****END OF INPUT****

CARTESIAN COORDINATES (ANGSTROEM)
---------------------------------
  H      0.310543    2.728828    0.000000
  C     -0.313196    1.840812    0.000000
  H      1.396218    0.676680    0.000000
  C      0.313196    0.654900    0.000000
  H     -1.396218   -0.676680    0.000000
  C     -0.313196   -0.654900    0.000000
  H     -0.310543   -2.728828    0.000000
  C      0.313196   -1.840812    0.000000
  H      2.383856   -1.194467    0.000000
  H      2.072264   -2.692860    0.875470
  H      2.072264   -2.692860   -0.875470
  C      1.786306   -2.103254    0.000000
  H     -2.383856    1.194467    0.000000
  H     -2.072264    2.692860    0.875470
  H     -2.072264    2.692860   -0.875470
  C     -1.786306    2.103254    0.000000

 Total Charge           Charge          ....    0
 Multiplicity           Mult            ....    1
 Number of Electrons    NEL             ....   46
 Basis Dimension        Dim             ....  506

ORBITAL ENERGIES
----------------

  NO   OCC          E(Eh)            E(eV)
   0   2.0000     -11.230859      -305.6072
   1   2.0000     -11.230854      -305.6071
   2   2.0000     -11.223923      -305.4185
   3   2.0000     -11.223067      -305.3952
   4   2.0000     -11.220662      -305.3297
   5   2.0000     -11.220662      -305.3297
   6   2.0000      -1.099115       -29.9085
   7   2.0000      -1.045281       -28.4435
   8   2.0000      -0.961435       -26.1620
   9   2.0000      -0.911235       -24.7960
  10   2.0000      -0.788459       -21.4551
  11   2.0000      -0.703999       -19.1568
  12   2.0000      -0.665903       -18.1202
  13   2.0000      -0.605370       -16.4730
  14   2.0000      -0.585774       -15.9397
  15   2.0000      -0.568563       -15.4714
  16   2.0000      -0.564461       -15.3598
  17   2.0000      -0.523620       -14.2484
  18   2.0000      -0.521321       -14.1859
  19   2.0000      -0.520346       -14.1593
  20   2.0000      -0.463639       -12.6163
  21   2.0000      -0.422164       -11.4877
  22   2.0000      -0.301810        -8.2127
  23   0.0000       0.029994         0.8162
  24   0.0000       0.032904         0.8954
  25   0.0000       0.036474         0.9925
  26   0.0000       0.045139         1.2283
  27   0.0000       0.048886         1.3303

MULLIKEN ATOMIC CHARGES
-----------------------
   0 H :    0.246258
   1 C :   -0.517059
   2 H :    0.140602
   3 C :    0.052712
   4 H :    0.140602
   5 C :    0.052712
   6 H :    0.246257
   7 C :   -0.517059
   8 H :    0.388425
   9 H :    0.236801
  10 H :    0.236801
  11 C :   -0.784541
  12 H :    0.388425
  13 H :    0.236801
  14 H :    0.236801
  15 C :   -0.784541
Sum of atomic charges:    0.0000000

LOEWDIN ATOMIC CHARGES
----------------------
   0 H :   -0.193460
   1 C :    0.216059
   2 H :   -0.217769
   3 C :    0.185967
   4 H :   -0.217769
   5 C :    0.185967
   6 H :   -0.193460
   7 C :    0.216059
   8 H :   -0.200142
   9 H :   -0.173594
  10 H :   -0.173594
  11 C :    0.556533
  12 H :   -0.200142
  13 H :   -0.173594
  14 H :   -0.173594
  15 C :    0.556533

  Mayer bond orders larger than 0.100000
B(  0-H ,  1-C ) :   1.0745 B(  1-C ,  2-H ) :  -0.1593 B(  1-C ,  3-C ) :   1.2516
B(  1-C ,  5-C ) :   0.1372 B(  1-C , 15-C ) :   0.8586 B(  2-H ,  3-C ) :   1.2719
B(  2-H ,  4-H ) :   0.1784 B(  2-H ,  5-C ) :  -0.1189 B(  3-C ,  4-H ) :  -0.1189
B(  3-C ,  5-C ) :   0.4743 B(  3-C ,  7-C ) :   0.1372 B(  4-H ,  5-C ) :   1.2719
B(  4-H ,  7-C ) :  -0.1593 B(  5-C ,  7-C ) :   1.2516 B(  6-H ,  7-C ) :   1.0745
B(  7-C , 11-C ) :   0.8586 B(  8-H , 11-C ) :   0.8186 B(  9-H , 11-C ) :   1.0257
B( 10-H , 11-C ) :   1.0257 B( 12-H , 15-C ) :   0.8186 B( 13-H , 15-C ) :   1.0257
B( 14-H , 15-C ) :   1.0257

MP2 TOTAL ENERGY:     -234.094019336 Eh
FINAL SINGLE POINT ENERGY      -234.094019336072

DIPOLE MOMENT
-------------
                                X             Y             Z
Electronic contribution:     -0.00000       0.00000       0.00000
Nuclear contribution   :     -0.00000      -0.00000       0.00000
                        -----------------------------------------
Total Dipole Moment    :     -0.00000       0.00000       0.00000
                        -----------------------------------------
Magnitude (a.u.)       :      0.00000
Magnitude (Debye)      :      0.00000

Rotational constants in cm-1:     0.392122     0.052115     0.046791
Rotational constants in MHz : 11755.534844  1562.376910  1402.746773

                             ****ORCA TERMINATED NORMALLY****
TOTAL RUN TIME: 0 days 0 hours 3 minutes 50 seconds 615 msec
