                         Program Version 5.0.3 -  RELEASE  -
|  1> !ri-mp2 aug-cc-pvtz aug-cc-pvtz/c tightscf
|  2> %pal nprocs 16 end
|  3>
|  4> * xyz 0 1
|  5> C     -0.678099    1.442161   -0.097723
|  6> C     -1.602385   -0.909150   -0.006698
|  7> C      1.963999   -0.107579    0.092089
|  8> C     -0.421488   -0.006587    0.311499
|  9> O      0.708102   -0.560944   -0.366728
| 10> H     -1.546873    1.837096    0.431111
| 11> H      0.169074    2.086994    0.135299
| 12> H     -0.870837    1.501789   -1.170041
| 13> H     -2.500908   -0.561297    0.503988
| 14> H     -1.397458   -1.932194    0.306542
| 15> H     -1.795646   -0.912336   -1.080473
| 16> H      2.130121    0.953843   -0.119355
| 17> H      2.722137   -0.686882   -0.431688
| 18> H      2.076887   -0.270336    1.171121
| 19> H     -0.223479   -0.042199    1.392313
| 20> *
| 21>
| 22>                          ****END OF INPUT****

CARTESIAN COORDINATES (ANGSTROEM)
---------------------------------
  C     -0.678099    1.442161   -0.097723
  C     -1.602385   -0.909150   -0.006698
  C      1.963999   -0.107579    0.092089
  C     -0.421488   -0.006587    0.311499
  O      0.708102   -0.560944   -0.366728
  H     -1.546873    1.837096    0.431111
  H      0.169074    2.086994    0.135299
  H     -0.870837    1.501789   -1.170041
  H     -2.500908   -0.561297    0.503988
  H     -1.397458   -1.932194    0.306542
  H     -1.795646   -0.912336   -1.080473
  H      2.130121    0.953843   -0.119355
  H      2.722137   -0.686882   -0.431688
  H      2.076887   -0.270336    1.171121
  H     -0.223479   -0.042199    1.392313

 Total Charge           Charge          ....    0
 Multiplicity           Mult            ....    1
 Number of Electrons    NEL             ....   42
 Basis Dimension        Dim             ....  460

ORBITAL ENERGIES
----------------

  NO   OCC          E(Eh)            E(eV)
   0   2.0000     -20.548587      -559.1555
   1   2.0000     -11.277596      -306.8790
   2   2.0000     -11.265742      -306.5564
   3   2.0000     -11.212654      -305.1118
   4   2.0000     -11.208820      -305.0075
   5   2.0000      -1.365098       -37.1462
   6   2.0000      -1.050602       -28.5883
   7   2.0000      -0.940469       -25.5915
   8   2.0000      -0.912118       -24.8200
   9   2.0000      -0.790956       -21.5230
  10   2.0000      -0.667414       -18.1613
  11   2.0000      -0.635195       -17.2845
  12   2.0000      -0.632217       -17.2035
  13   2.0000      -0.587232       -15.9794
  14   2.0000      -0.548990       -14.9388
  15   2.0000      -0.541166       -14.7259
  16   2.0000      -0.527711       -14.3598
  17   2.0000      -0.498084       -13.5535
  18   2.0000      -0.489714       -13.3258
  19   2.0000      -0.458230       -12.4691
  20   2.0000      -0.414951       -11.2914
  21   0.0000       0.030458         0.8288
  22   0.0000       0.037848         1.0299
  23   0.0000       0.039411         1.0724
  24   0.0000       0.041244         1.1223
  25   0.0000       0.055495         1.5101

MULLIKEN ATOMIC CHARGES
-----------------------
   0 C :   -1.021716
   1 C :   -1.037179
   2 C :   -0.878024
   3 C :    0.493484
   4 O :   -0.664744
   5 H :    0.288488
   6 H :    0.296575
   7 H :    0.285404
   8 H :    0.299647
   9 H :    0.273116
  10 H :    0.270728
  11 H :    0.354005
  12 H :    0.343427
  13 H :    0.337860
  14 H :    0.358929
Sum of atomic charges:    0.0000000

LOEWDIN ATOMIC CHARGES
----------------------
   0 C :    0.584223
   1 C :    0.578626
   2 C :    0.315435
   3 C :   -0.316154
   4 O :    0.561694
   5 H :   -0.168441
   6 H :   -0.184260
   7 H :   -0.162926
   8 H :   -0.170667
   9 H :   -0.169951
  10 H :   -0.166934
  11 H :   -0.188290
  12 H :   -0.187023
  13 H :   -0.177600
  14 H :   -0.147731

  Mayer bond orders larger than 0.100000
B(  0-C ,  1-C ) :   0.1234 B(  0-C ,  3-C ) :   0.8309 B(  0-C ,  4-O ) :   0.1116
B(  0-C ,  5-H ) :   0.9453 B(  0-C ,  6-H ) :   0.9447 B(  0-C ,  7-H ) :   0.9272
B(  1-C ,  3-C ) :   0.7674 B(  1-C ,  8-H ) :   0.9606 B(  1-C ,  9-H ) :   0.9634
B(  1-C , 10-H ) :   0.9586 B(  2-C ,  4-O ) :   1.0124 B(  2-C , 11-H ) :   0.8614
B(  2-C , 12-H ) :   0.9465 B(  2-C , 13-H ) :   0.8837 B(  3-C ,  4-O ) :   0.5890
B(  3-C , 14-H ) :   0.9014

MP2 TOTAL ENERGY:     -233.196508721 Eh
FINAL SINGLE POINT ENERGY      -233.196508720935

DIPOLE MOMENT
-------------
                                X             Y             Z
Electronic contribution:      1.31722      -1.72057      -0.79795
Nuclear contribution   :     -1.30447       2.09176       1.20574
                        -----------------------------------------
Total Dipole Moment    :      0.01275       0.37119       0.40778
                        -----------------------------------------
Magnitude (a.u.)       :      0.55157
Magnitude (Debye)      :      1.40198

Rotational constants in cm-1:     0.253098     0.125625     0.093390
Rotational constants in MHz :  7587.700887  3766.134166  2799.758971

                             ****ORCA TERMINATED NORMALLY****
TOTAL RUN TIME: 0 days 0 hours 2 minutes 29 seconds 416 msec
