                         Program Version 5.0.3 -  RELEASE  -
|  1> !ri-mp2 aug-cc-pvtz aug-cc-pvtz/c tightscf
|  2> %pal nprocs 16 end
|  3>
|  4> * xyz 0 1
|  5> C     1.685700   -1.598566    0.155043
|  6> C     1.000120   -0.422584   -0.529065
|  7> C     1.568891    0.929035   -0.216112
|  8> C     0.733478    1.900514    0.142277
|  9> C    -0.724568    1.573344    0.203570
| 10> S    -0.774100   -0.249045   -0.007386
| 11> O    -0.956176   -0.865654    1.303800
| 12> O    -1.661019   -0.613275   -1.108479
| 13> H     1.194401   -2.537785   -0.094112
| 14> H     2.721514   -1.657362   -0.182632
| 15> H     1.674864   -1.482978    1.236789
| 16> H     0.941234   -0.587664   -1.606882
| 17> H     2.639629    1.076501   -0.276618
| 18> H     1.070634    2.897063    0.393682
| 19> H    -1.307196    2.010364   -0.607179
| 20> H    -1.193646    1.807560    1.158274
| 21> *
| 22>
| 23>                          ****END OF INPUT****

CARTESIAN COORDINATES (ANGSTROEM)
---------------------------------
  C      1.685700   -1.598566    0.155043
  C      1.000120   -0.422584   -0.529065
  C      1.568891    0.929035   -0.216112
  C      0.733478    1.900514    0.142277
  C     -0.724568    1.573344    0.203570
  S     -0.774100   -0.249045   -0.007386
  O     -0.956176   -0.865654    1.303800
  O     -1.661019   -0.613275   -1.108479
  H      1.194401   -2.537785   -0.094112
  H      2.721514   -1.657362   -0.182632
  H      1.674864   -1.482978    1.236789
  H      0.941234   -0.587664   -1.606882
  H      2.639629    1.076501   -0.276618
  H      1.070634    2.897063    0.393682
  H     -1.307196    2.010364   -0.607179
  H     -1.193646    1.807560    1.158274

 Total Charge           Charge          ....    0
 Multiplicity           Mult            ....    1
 Number of Electrons    NEL             ....   70
 Basis Dimension        Dim             ....  556

ORBITAL ENERGIES
----------------

  NO   OCC          E(Eh)            E(eV)
   0   2.0000     -92.174017     -2508.1825
   1   2.0000     -20.543150      -559.0075
   2   2.0000     -20.542367      -558.9862
   3   2.0000     -11.290659      -307.2344
   4   2.0000     -11.284858      -307.0766
   5   2.0000     -11.271298      -306.7076
   6   2.0000     -11.268243      -306.6245
   7   2.0000     -11.241527      -305.8975
   8   2.0000      -9.144507      -248.8347
   9   2.0000      -6.828864      -185.8228
  10   2.0000      -6.828355      -185.8090
  11   2.0000      -6.828260      -185.8064
  12   2.0000      -1.438544       -39.1448
  13   2.0000      -1.328364       -36.1466
  14   2.0000      -1.164982       -31.7008
  15   2.0000      -1.062040       -28.8996
  16   2.0000      -0.986775       -26.8515
  17   2.0000      -0.920818       -25.0567
  18   2.0000      -0.802433       -21.8353
  19   2.0000      -0.781592       -21.2682
  20   2.0000      -0.707257       -19.2454
  21   2.0000      -0.665957       -18.1216
  22   2.0000      -0.651348       -17.7241
  23   2.0000      -0.635319       -17.2879
  24   2.0000      -0.621536       -16.9129
  25   2.0000      -0.607073       -16.5193
  26   2.0000      -0.585816       -15.9409
  27   2.0000      -0.561454       -15.2779
  28   2.0000      -0.553698       -15.0669
  29   2.0000      -0.522858       -14.2277
  30   2.0000      -0.488951       -13.3050
  31   2.0000      -0.482745       -13.1361
  32   2.0000      -0.466598       -12.6968
  33   2.0000      -0.418473       -11.3872
  34   2.0000      -0.392391       -10.6775
  35   0.0000       0.021093         0.5740
  36   0.0000       0.028530         0.7763
  37   0.0000       0.037795         1.0284
  38   0.0000       0.039866         1.0848
  39   0.0000       0.048856         1.3294

MULLIKEN ATOMIC CHARGES
-----------------------
   0 C :   -0.861267
   1 C :    0.140968
   2 C :   -0.857635
   3 C :   -0.674813
   4 C :   -0.360407
   5 S :    2.045360
   6 O :   -1.027986
   7 O :   -1.044628
   8 H :    0.271072
   9 H :    0.257939
  10 H :    0.344833
  11 H :    0.298971
  12 H :    0.472793
  13 H :    0.445266
  14 H :    0.270171
  15 H :    0.279363
Sum of atomic charges:    0.0000000

LOEWDIN ATOMIC CHARGES
----------------------
   0 C :    0.556106
   1 C :   -0.110384
   2 C :    0.190839
   3 C :    0.191275
   4 C :    0.211648
   5 S :    0.338802
   6 O :    0.027722
   7 O :    0.011213
   8 H :   -0.166053
   9 H :   -0.167021
  10 H :   -0.177166
  11 H :   -0.178831
  12 H :   -0.169920
  13 H :   -0.177567
  14 H :   -0.190518
  15 H :   -0.190144

  Mayer bond orders larger than 0.100000
B(  0-C ,  1-C ) :   0.7846 B(  0-C ,  8-H ) :   0.9595 B(  0-C ,  9-H ) :   0.9860
B(  0-C , 10-H ) :   0.9082 B(  1-C ,  2-C ) :   0.9526 B(  1-C ,  3-C ) :  -0.1072
B(  1-C ,  5-S ) :   0.8849 B(  1-C , 11-H ) :   0.9010 B(  2-C ,  3-C ) :   1.6576
B(  2-C ,  5-S ) :   0.1191 B(  2-C , 12-H ) :   0.7790 B(  3-C ,  4-C ) :   0.8494
B(  3-C ,  5-S ) :   0.1243 B(  3-C , 13-H ) :   0.8069 B(  4-C ,  5-S ) :   0.8866
B(  4-C ,  7-O ) :   0.1244 B(  4-C , 14-H ) :   0.9238 B(  4-C , 15-H ) :   0.9064
B(  5-S ,  6-O ) :   1.1813 B(  5-S ,  7-O ) :   1.0336

MP2 TOTAL ENERGY:     -742.852968664 Eh
FINAL SINGLE POINT ENERGY      -742.852968663582

DIPOLE MOMENT
-------------
                                X             Y             Z
Electronic contribution:     -6.01722      -0.17064      -0.25079
Nuclear contribution   :      7.68246       1.50194       0.02450
                        -----------------------------------------
Total Dipole Moment    :      1.66524       1.33129      -0.22629
                        -----------------------------------------
Magnitude (a.u.)       :      2.14396
Magnitude (Debye)      :      5.44952

Rotational constants in cm-1:     0.076624     0.067171     0.047471
Rotational constants in MHz :  2297.129332  2013.720992  1423.138732

                             ****ORCA TERMINATED NORMALLY****
TOTAL RUN TIME: 0 days 0 hours 6 minutes 25 seconds 209 msec
