                         Program Version 5.0.3 -  RELEASE  -
|  1> !ri-mp2 aug-cc-pvtz aug-cc-pvtz/c tightscf
|  2> %pal nprocs 16 end
|  3>
|  4> * xyz 0 1
|  5> C      0.328548    1.572029    1.131282
|  6> C     -0.328548   -1.572029    1.131282
|  7> C     -0.204552    0.748232   -0.013408
|  8> C      0.204552   -0.748232   -0.013408
|  9> F     -1.578360    0.789917   -0.017302
| 10> F      0.204552    1.293625   -1.195961
| 11> F     -0.204552   -1.293625   -1.195961
| 12> F      1.578360   -0.789917   -0.017302
| 13> H     -0.001444    2.599626    0.991670
| 14> H     -0.053588    1.204459    2.080962
| 15> H      1.415266    1.540080    1.139481
| 16> H     -1.415266   -1.540080    1.139481
| 17> H      0.001444   -2.599626    0.991670
| 18> H      0.053588   -1.204459    2.080962
| 19> *
| 20>
| 21>                          ****END OF INPUT****

CARTESIAN COORDINATES (ANGSTROEM)
---------------------------------
  C      0.328548    1.572029    1.131282
  C     -0.328548   -1.572029    1.131282
  C     -0.204552    0.748232   -0.013408
  C      0.204552   -0.748232   -0.013408
  F     -1.578360    0.789917   -0.017302
  F      0.204552    1.293625   -1.195961
  F     -0.204552   -1.293625   -1.195961
  F      1.578360   -0.789917   -0.017302
  H     -0.001444    2.599626    0.991670
  H     -0.053588    1.204459    2.080962
  H      1.415266    1.540080    1.139481
  H     -1.415266   -1.540080    1.139481
  H      0.001444   -2.599626    0.991670
  H      0.053588   -1.204459    2.080962

 Total Charge           Charge          ....    0
 Multiplicity           Mult            ....    1
 Number of Electrons    NEL             ....   66
 Basis Dimension        Dim             ....  506

ORBITAL ENERGIES
----------------

  NO   OCC          E(Eh)            E(eV)
   0   2.0000     -26.320580      -716.2194
   1   2.0000     -26.320578      -716.2194
   2   2.0000     -26.316620      -716.1116
   3   2.0000     -26.316617      -716.1116
   4   2.0000     -11.431252      -311.0602
   5   2.0000     -11.430674      -311.0445
   6   2.0000     -11.253234      -306.2161
   7   2.0000     -11.253232      -306.2160
   8   2.0000      -1.678873       -45.6845
   9   2.0000      -1.657528       -45.1036
  10   2.0000      -1.607659       -43.7466
  11   2.0000      -1.604781       -43.6683
  12   2.0000      -1.104356       -30.0511
  13   2.0000      -1.040144       -28.3037
  14   2.0000      -0.947438       -25.7811
  15   2.0000      -0.862026       -23.4569
  16   2.0000      -0.805687       -21.9239
  17   2.0000      -0.779266       -21.2049
  18   2.0000      -0.767497       -20.8847
  19   2.0000      -0.740148       -20.1405
  20   2.0000      -0.736271       -20.0350
  21   2.0000      -0.693662       -18.8755
  22   2.0000      -0.677635       -18.4394
  23   2.0000      -0.669851       -18.2276
  24   2.0000      -0.641608       -17.4590
  25   2.0000      -0.639118       -17.3913
  26   2.0000      -0.627963       -17.0877
  27   2.0000      -0.591948       -16.1077
  28   2.0000      -0.591413       -16.0932
  29   2.0000      -0.575836       -15.6693
  30   2.0000      -0.575472       -15.6594
  31   2.0000      -0.561659       -15.2835
  32   2.0000      -0.506012       -13.7693
  33   0.0000       0.025688         0.6990
  34   0.0000       0.034329         0.9341
  35   0.0000       0.041908         1.1404
  36   0.0000       0.044872         1.2210
  37   0.0000       0.056220         1.5298

MULLIKEN ATOMIC CHARGES
-----------------------
   0 C :   -1.077684
   1 C :   -1.077684
   2 C :    1.167660
   3 C :    1.167660
   4 F :   -0.516336
   5 F :   -0.504724
   6 F :   -0.504724
   7 F :   -0.516336
   8 H :    0.296901
   9 H :    0.323656
  10 H :    0.310528
  11 H :    0.310528
  12 H :    0.296901
  13 H :    0.323656
Sum of atomic charges:   -0.0000000

LOEWDIN ATOMIC CHARGES
----------------------
   0 C :    0.582255
   1 C :    0.582255
   2 C :   -1.086327
   3 C :   -1.086327
   4 F :    0.502540
   5 F :    0.509821
   6 F :    0.509821
   7 F :    0.502540
   8 H :   -0.165356
   9 H :   -0.174300
  10 H :   -0.168633
  11 H :   -0.168633
  12 H :   -0.165356
  13 H :   -0.174300

  Mayer bond orders larger than 0.100000
B(  0-C ,  2-C ) :   0.8855 B(  0-C ,  4-F ) :   0.1307 B(  0-C ,  5-F ) :   0.1163
B(  0-C ,  8-H ) :   0.9434 B(  0-C ,  9-H ) :   0.9163 B(  0-C , 10-H ) :   0.9193
B(  1-C ,  3-C ) :   0.8855 B(  1-C ,  6-F ) :   0.1163 B(  1-C ,  7-F ) :   0.1307
B(  1-C , 11-H ) :   0.9193 B(  1-C , 12-H ) :   0.9434 B(  1-C , 13-H ) :   0.9163
B(  2-C ,  3-C ) :   1.0866 B(  2-C ,  4-F ) :   0.4763 B(  2-C ,  5-F ) :   0.4734
B(  2-C ,  6-F ) :   0.1094 B(  2-C ,  7-F ) :   0.1223 B(  3-C ,  4-F ) :   0.1223
B(  3-C ,  5-F ) :   0.1094 B(  3-C ,  6-F ) :   0.4734 B(  3-C ,  7-F ) :   0.4763

MP2 TOTAL ENERGY:     -554.667229674 Eh
FINAL SINGLE POINT ENERGY      -554.667229673597

DIPOLE MOMENT
-------------
                                X             Y             Z
Electronic contribution:     -0.00000      -0.00000      -8.83497
Nuclear contribution   :     -0.00000       0.00000      10.31064
                        -----------------------------------------
Total Dipole Moment    :     -0.00000      -0.00000       1.47567
                        -----------------------------------------
Magnitude (a.u.)       :      1.47567
Magnitude (Debye)      :      3.75085

Rotational constants in cm-1:     0.086701     0.059082     0.058946
Rotational constants in MHz :  2599.245513  1771.236963  1767.146502

                             ****ORCA TERMINATED NORMALLY****
TOTAL RUN TIME: 0 days 0 hours 3 minutes 47 seconds 530 msec
