                         Program Version 5.0.3 -  RELEASE  -
|  1> !ri-mp2 aug-cc-pvtz aug-cc-pvtz/c tightscf
|  2> %pal nprocs 16 end
|  3>
|  4> * xyz 0 1
|  5> O     -3.400108   -0.733442   -0.118928
|  6> O      3.400112   -0.733432   -0.118929
|  7> N      0.000000    1.083109    0.012803
|  8> C     -1.191775    0.449091   -0.005616
|  9> C      1.191770    0.449084   -0.005610
| 10> C     -2.247386   -0.118373    0.033472
| 11> C      2.247401   -0.118342    0.033478
| 12> H     -3.781620   -0.952804    0.740381
| 13> H      3.781529   -0.952982    0.740374
| 14> H      0.000002    2.090260   -0.001864
| 15> *
| 16>
| 17>                          ****END OF INPUT****

CARTESIAN COORDINATES (ANGSTROEM)
---------------------------------
  O     -3.400108   -0.733442   -0.118928
  O      3.400112   -0.733432   -0.118929
  N      0.000000    1.083109    0.012803
  C     -1.191775    0.449091   -0.005616
  C      1.191770    0.449084   -0.005610
  C     -2.247386   -0.118373    0.033472
  C      2.247401   -0.118342    0.033478
  H     -3.781620   -0.952804    0.740381
  H      3.781529   -0.952982    0.740374
  H      0.000002    2.090260   -0.001864

 Total Charge           Charge          ....    0
 Multiplicity           Mult            ....    1
 Number of Electrons    NEL             ....   50
 Basis Dimension        Dim             ....  391

ORBITAL ENERGIES
----------------

  NO   OCC          E(Eh)            E(eV)
   0   2.0000     -20.629214      -561.3494
   1   2.0000     -20.629213      -561.3494
   2   2.0000     -15.624088      -425.1531
   3   2.0000     -11.282453      -307.0112
   4   2.0000     -11.282453      -307.0112
   5   2.0000     -11.258526      -306.3601
   6   2.0000     -11.258511      -306.3597
   7   2.0000      -1.437305       -39.1111
   8   2.0000      -1.437251       -39.1096
   9   2.0000      -1.273496       -34.6536
  10   2.0000      -1.031919       -28.0799
  11   2.0000      -0.995041       -27.0764
  12   2.0000      -0.829006       -22.5584
  13   2.0000      -0.804759       -21.8986
  14   2.0000      -0.766365       -20.8539
  15   2.0000      -0.752749       -20.4833
  16   2.0000      -0.662023       -18.0146
  17   2.0000      -0.659663       -17.9504
  18   2.0000      -0.610945       -16.6247
  19   2.0000      -0.610221       -16.6050
  20   2.0000      -0.570061       -15.5122
  21   2.0000      -0.401599       -10.9281
  22   2.0000      -0.383998       -10.4491
  23   2.0000      -0.370171       -10.0729
  24   2.0000      -0.316347        -8.6082
  25   0.0000       0.022779         0.6199
  26   0.0000       0.028199         0.7673
  27   0.0000       0.036563         0.9949
  28   0.0000       0.078295         2.1305
  29   0.0000       0.079350         2.1592

MULLIKEN ATOMIC CHARGES
-----------------------
   0 O :   -0.436654
   1 O :   -0.436652
   2 N :   -0.176693
   3 C :    0.513400
   4 C :    0.513600
   5 C :   -0.343395
   6 C :   -0.343490
   7 H :    0.236945
   8 H :    0.236942
   9 H :    0.235999
Sum of atomic charges:    0.0000000

LOEWDIN ATOMIC CHARGES
----------------------
   0 O :    0.750501
   1 O :    0.750501
   2 N :    0.347640
   3 C :   -0.103440
   4 C :   -0.103441
   5 C :   -0.196685
   6 C :   -0.196685
   7 H :   -0.473951
   8 H :   -0.473952
   9 H :   -0.300488

  Mayer bond orders larger than 0.100000
B(  0-O ,  5-C ) :   0.9688 B(  0-O ,  7-H ) :   0.9593 B(  1-O ,  6-C ) :   0.9688
B(  1-O ,  8-H ) :   0.9593 B(  2-N ,  3-C ) :   0.9433 B(  2-N ,  4-C ) :   0.9431
B(  2-N ,  9-H ) :   1.0019 B(  3-C ,  4-C ) :   0.1048 B(  3-C ,  5-C ) :   2.0557
B(  3-C ,  6-C ) :   0.1865 B(  4-C ,  5-C ) :   0.1864 B(  4-C ,  6-C ) :   2.0556

MP2 TOTAL ENERGY:     -358.620227079 Eh
FINAL SINGLE POINT ENERGY      -358.620227079188

DIPOLE MOMENT
-------------
                                X             Y             Z
Electronic contribution:      0.00002       0.00869      -0.30639
Nuclear contribution   :     -0.00009       0.16223       1.42705
                        -----------------------------------------
Total Dipole Moment    :     -0.00007       0.17092       1.12066
                        -----------------------------------------
Magnitude (a.u.)       :      1.13362
Magnitude (Debye)      :      2.88144

Rotational constants in cm-1:     0.361552     0.030335     0.028129
Rotational constants in MHz : 10839.053858   909.414850   843.276854

                             ****ORCA TERMINATED NORMALLY****
TOTAL RUN TIME: 0 days 0 hours 1 minutes 49 seconds 291 msec
