                         Program Version 5.0.3 -  RELEASE  -
|  1> !ri-mp2 aug-cc-pvtz aug-cc-pvtz/c tightscf
|  2> %pal nprocs 16 end
|  3>
|  4> * xyz 0 1
|  5> C     -2.338453    1.106760    0.151750
|  6> C     -2.887654   -0.169877    0.191707
|  7> C     -0.990243    1.249733   -0.135297
|  8> C     -2.057419   -1.252130   -0.061697
|  9> C     -0.261460    0.091175   -0.369070
| 10> C      2.022769   -0.010003    0.246139
| 11> C      3.397877   -0.012120   -0.356274
| 12> N     -0.757678   -1.126595   -0.342613
| 13> O      1.751515   -0.164505    1.402471
| 14> O      1.078492    0.204899   -0.727454
| 15> H     -2.950154    1.977738    0.343578
| 16> H     -3.933897   -0.324461    0.412893
| 17> H     -0.509700    2.215713   -0.177084
| 18> H     -2.444289   -2.263759   -0.042752
| 19> H      3.510688   -0.894802   -0.986722
| 20> H      4.140400   -0.030768    0.435030
| 21> H      3.538129    0.862122   -0.990340
| 22> *
| 23>
| 24>                          ****END OF INPUT****

CARTESIAN COORDINATES (ANGSTROEM)
---------------------------------
  C     -2.338453    1.106760    0.151750
  C     -2.887654   -0.169877    0.191707
  C     -0.990243    1.249733   -0.135297
  C     -2.057419   -1.252130   -0.061697
  C     -0.261460    0.091175   -0.369070
  C      2.022769   -0.010003    0.246139
  C      3.397877   -0.012120   -0.356274
  N     -0.757678   -1.126595   -0.342613
  O      1.751515   -0.164505    1.402471
  O      1.078492    0.204899   -0.727454
  H     -2.950154    1.977738    0.343578
  H     -3.933897   -0.324461    0.412893
  H     -0.509700    2.215713   -0.177084
  H     -2.444289   -2.263759   -0.042752
  H      3.510688   -0.894802   -0.986722
  H      4.140400   -0.030768    0.435030
  H      3.538129    0.862122   -0.990340

 Total Charge           Charge          ....    0
 Multiplicity           Mult            ....    1
 Number of Electrons    NEL             ....   72
 Basis Dimension        Dim             ....  621

ORBITAL ENERGIES
----------------

  NO   OCC          E(Eh)            E(eV)
   0   2.0000     -20.613890      -560.9325
   1   2.0000     -20.552484      -559.2615
   2   2.0000     -15.571799      -423.7302
   3   2.0000     -11.390671      -309.9559
   4   2.0000     -11.343678      -308.6772
   5   2.0000     -11.283995      -307.0531
   6   2.0000     -11.267288      -306.5985
   7   2.0000     -11.248217      -306.0796
   8   2.0000     -11.244953      -305.9907
   9   2.0000     -11.244377      -305.9750
  10   2.0000      -1.474388       -40.1201
  11   2.0000      -1.378461       -37.5098
  12   2.0000      -1.268998       -34.5312
  13   2.0000      -1.101470       -29.9725
  14   2.0000      -1.055863       -28.7315
  15   2.0000      -1.013312       -27.5736
  16   2.0000      -0.883072       -24.0296
  17   2.0000      -0.878817       -23.9138
  18   2.0000      -0.798489       -21.7280
  19   2.0000      -0.718746       -19.5581
  20   2.0000      -0.700741       -19.0681
  21   2.0000      -0.692468       -18.8430
  22   2.0000      -0.683168       -18.5899
  23   2.0000      -0.635565       -17.2946
  24   2.0000      -0.634586       -17.2680
  25   2.0000      -0.594541       -16.1783
  26   2.0000      -0.588378       -16.0106
  27   2.0000      -0.574648       -15.6370
  28   2.0000      -0.551313       -15.0020
  29   2.0000      -0.544888       -14.8272
  30   2.0000      -0.536161       -14.5897
  31   2.0000      -0.484217       -13.1762
  32   2.0000      -0.459134       -12.4937
  33   2.0000      -0.433635       -11.7998
  34   2.0000      -0.393333       -10.7031
  35   2.0000      -0.350929        -9.5493
  36   0.0000       0.025926         0.7055
  37   0.0000       0.030347         0.8258
  38   0.0000       0.034758         0.9458
  39   0.0000       0.044072         1.1993
  40   0.0000       0.047071         1.2809

MULLIKEN ATOMIC CHARGES
-----------------------
   0 C :   -0.650845
   1 C :   -0.013785
   2 C :   -0.520983
   3 C :   -0.632208
   4 C :    0.934594
   5 C :    0.241882
   6 C :   -0.625909
   7 N :   -0.475245
   8 O :   -0.701141
   9 O :   -0.292375
  10 H :    0.486427
  11 H :    0.304258
  12 H :    0.381664
  13 H :    0.619477
  14 H :    0.296364
  15 H :    0.344705
  16 H :    0.303120
Sum of atomic charges:   -0.0000000

LOEWDIN ATOMIC CHARGES
----------------------
   0 C :    0.197908
   1 C :    0.202821
   2 C :    0.219104
   3 C :    0.021659
   4 C :   -0.595812
   5 C :   -0.800400
   6 C :    0.587005
   7 N :    0.396280
   8 O :    0.463316
   9 O :    0.569559
  10 H :   -0.171616
  11 H :   -0.190518
  12 H :   -0.179850
  13 H :   -0.188095
  14 H :   -0.170892
  15 H :   -0.183119
  16 H :   -0.177351

  Mayer bond orders larger than 0.100000
B(  0-C ,  1-C ) :   1.1116 B(  0-C ,  2-C ) :   1.3152 B(  0-C ,  3-C ) :   0.2233
B(  0-C ,  4-C ) :   0.1017 B(  0-C , 10-H ) :   0.8151 B(  0-C , 11-H ) :  -0.1411
B(  1-C ,  2-C ) :  -0.1055 B(  1-C ,  3-C ) :   0.8535 B(  1-C ,  7-N ) :  -0.1518
B(  1-C , 11-H ) :   1.0432 B(  2-C ,  4-C ) :   0.9529 B(  2-C , 12-H ) :   0.9114
B(  3-C ,  4-C ) :   0.2596 B(  3-C ,  7-N ) :   1.3066 B(  3-C , 13-H ) :   0.4795
B(  4-C ,  5-C ) :  -0.1420 B(  4-C ,  7-N ) :   1.0056 B(  4-C ,  8-O ) :  -0.1830
B(  4-C ,  9-O ) :   0.3636 B(  5-C ,  6-C ) :   0.7740 B(  5-C ,  8-O ) :   1.6500
B(  5-C ,  9-O ) :   1.0789 B(  6-C , 14-H ) :   0.9264 B(  6-C , 15-H ) :   0.9080
B(  6-C , 16-H ) :   0.9430 B(  7-N ,  9-O ) :  -0.1025

MP2 TOTAL ENERGY:     -475.306137708 Eh
FINAL SINGLE POINT ENERGY      -475.306137707985

DIPOLE MOMENT
-------------
                                X             Y             Z
Electronic contribution:     -1.72585      -0.80904       0.43216
Nuclear contribution   :      1.37190       1.51434      -0.98284
                        -----------------------------------------
Total Dipole Moment    :     -0.35396       0.70531      -0.55067
                        -----------------------------------------
Magnitude (a.u.)       :      0.96228
Magnitude (Debye)      :      2.44592

Rotational constants in cm-1:     0.123810     0.027423     0.025806
Rotational constants in MHz :  3711.735597   822.131514   773.649786

                             ****ORCA TERMINATED NORMALLY****
TOTAL RUN TIME: 0 days 0 hours 8 minutes 39 seconds 36 msec
