                         Program Version 5.0.3 -  RELEASE  -
|  1> !ri-mp2 aug-cc-pvtz aug-cc-pvtz/c tightscf
|  2> %pal nprocs 16 end
|  3>
|  4> * xyz 0 1
|  5> C     -3.551731   -0.145916    0.178332
|  6> C     -2.160631   -0.497409   -0.345698
|  7> C     -1.084795    0.418115    0.210133
|  8> C      2.554528    0.252331   -0.341891
|  9> C      1.246011    0.820604    0.153652
| 10> O      2.871763   -0.915524    0.411744
| 11> O      0.173609    0.025383   -0.308235
| 12> H     -3.834247    0.874037   -0.090442
| 13> H     -4.305646   -0.815827   -0.235313
| 14> H     -3.600044   -0.226907    1.266045
| 15> H     -2.141876   -0.436709   -1.436016
| 16> H     -1.907786   -1.527183   -0.084984
| 17> H     -1.294438    1.463084   -0.062635
| 18> H     -1.068300    0.365578    1.307923
| 19> H      3.334739    1.012724   -0.218945
| 20> H      2.461235    0.020138   -1.407091
| 21> H      1.140374    1.851849   -0.212086
| 22> H      1.258753    0.851169    1.250942
| 23> H      3.573974   -1.397171   -0.032650
| 24> *
| 25>
| 26>                          ****END OF INPUT****

CARTESIAN COORDINATES (ANGSTROEM)
---------------------------------
  C     -3.551731   -0.145916    0.178332
  C     -2.160631   -0.497409   -0.345698
  C     -1.084795    0.418115    0.210133
  C      2.554528    0.252331   -0.341891
  C      1.246011    0.820604    0.153652
  O      2.871763   -0.915524    0.411744
  O      0.173609    0.025383   -0.308235
  H     -3.834247    0.874037   -0.090442
  H     -4.305646   -0.815827   -0.235313
  H     -3.600044   -0.226907    1.266045
  H     -2.141876   -0.436709   -1.436016
  H     -1.907786   -1.527183   -0.084984
  H     -1.294438    1.463084   -0.062635
  H     -1.068300    0.365578    1.307923
  H      3.334739    1.012724   -0.218945
  H      2.461235    0.020138   -1.407091
  H      1.140374    1.851849   -0.212086
  H      1.258753    0.851169    1.250942
  H      3.573974   -1.397171   -0.032650

 Total Charge           Charge          ....    0
 Multiplicity           Mult            ....    1
 Number of Electrons    NEL             ....   58
 Basis Dimension        Dim             ....  598

ORBITAL ENERGIES
----------------

  NO   OCC          E(Eh)            E(eV)
   0   2.0000     -20.554669      -559.3210
   1   2.0000     -20.549613      -559.1834
   2   2.0000     -11.275334      -306.8174
   3   2.0000     -11.272086      -306.7291
   4   2.0000     -11.268462      -306.6304
   5   2.0000     -11.215092      -305.1782
   6   2.0000     -11.213124      -305.1246
   7   2.0000      -1.373756       -37.3818
   8   2.0000      -1.350806       -36.7573
   9   2.0000      -1.058717       -28.8091
  10   2.0000      -1.001289       -27.2464
  11   2.0000      -0.907427       -24.6924
  12   2.0000      -0.824689       -22.4409
  13   2.0000      -0.804636       -21.8953
  14   2.0000      -0.709308       -19.3012
  15   2.0000      -0.672151       -18.2902
  16   2.0000      -0.660749       -17.9799
  17   2.0000      -0.615590       -16.7511
  18   2.0000      -0.599235       -16.3060
  19   2.0000      -0.597138       -16.2490
  20   2.0000      -0.565231       -15.3807
  21   2.0000      -0.537050       -14.6139
  22   2.0000      -0.521352       -14.1867
  23   2.0000      -0.502113       -13.6632
  24   2.0000      -0.476336       -12.9617
  25   2.0000      -0.472577       -12.8595
  26   2.0000      -0.464270       -12.6334
  27   2.0000      -0.446449       -12.1485
  28   2.0000      -0.417964       -11.3734
  29   0.0000       0.029327         0.7980
  30   0.0000       0.032748         0.8911
  31   0.0000       0.037252         1.0137
  32   0.0000       0.040101         1.0912
  33   0.0000       0.048869         1.3298

MULLIKEN ATOMIC CHARGES
-----------------------
   0 C :   -0.918542
   1 C :   -0.517056
   2 C :   -0.180639
   3 C :   -0.253804
   4 C :   -0.261305
   5 O :   -0.558078
   6 O :   -0.581016
   7 H :    0.272651
   8 H :    0.283138
   9 H :    0.277247
  10 H :    0.238142
  11 H :    0.234126
  12 H :    0.332106
  13 H :    0.324392
  14 H :    0.267877
  15 H :    0.281938
  16 H :    0.308233
  17 H :    0.314360
  18 H :    0.136229
Sum of atomic charges:    0.0000000

LOEWDIN ATOMIC CHARGES
----------------------
   0 C :    0.573422
   1 C :    0.254932
   2 C :    0.000613
   3 C :    0.031941
   4 C :   -0.001140
   5 O :    0.806246
   6 O :    0.577850
   7 H :   -0.172235
   8 H :   -0.173960
   9 H :   -0.171974
  10 H :   -0.151335
  11 H :   -0.150375
  12 H :   -0.147871
  13 H :   -0.148934
  14 H :   -0.161527
  15 H :   -0.159006
  16 H :   -0.153183
  17 H :   -0.154924
  18 H :   -0.498541

  Mayer bond orders larger than 0.100000
B(  0-C ,  1-C ) :   0.9021 B(  0-C ,  7-H ) :   0.9454 B(  0-C ,  8-H ) :   0.9845
B(  0-C ,  9-H ) :   0.9434 B(  1-C ,  2-C ) :   0.9109 B(  1-C , 10-H ) :   0.9706
B(  1-C , 11-H ) :   0.9753 B(  2-C ,  6-O ) :   0.9330 B(  2-C , 12-H ) :   0.8802
B(  2-C , 13-H ) :   0.8999 B(  3-C ,  4-C ) :   0.9226 B(  3-C ,  5-O ) :   0.8253
B(  3-C , 14-H ) :   0.9956 B(  3-C , 15-H ) :   0.9285 B(  4-C ,  6-O ) :   0.9515
B(  4-C , 16-H ) :   0.8930 B(  4-C , 17-H ) :   0.8524 B(  5-O , 18-H ) :   1.0304

MP2 TOTAL ENERGY:     -347.541216122 Eh
FINAL SINGLE POINT ENERGY      -347.541216122492

DIPOLE MOMENT
-------------
                                X             Y             Z
Electronic contribution:      6.80430      -1.59785      -0.31640
Nuclear contribution   :     -6.62597       2.11348       0.04851
                        -----------------------------------------
Total Dipole Moment    :      0.17833       0.51563      -0.26789
                        -----------------------------------------
Magnitude (a.u.)       :      0.60781
Magnitude (Debye)      :      1.54493

Rotational constants in cm-1:     0.288445     0.030158     0.028926
Rotational constants in MHz :  8647.364960   904.117491   867.172033

                             ****ORCA TERMINATED NORMALLY****
TOTAL RUN TIME: 0 days 0 hours 5 minutes 23 seconds 820 msec
