                         Program Version 5.0.3 -  RELEASE  -
|  1> !ri-mp2 aug-cc-pvtz aug-cc-pvtz/c tightscf
|  2> %pal nprocs 16 end
|  3>
|  4> * xyz 0 1
|  5> C     -1.178683   -0.742088    0.000000
|  6> C      0.047290   -1.388143    0.000000
|  7> C      0.000000    1.309459    0.000000
|  8> C     -1.228041    0.649909    0.000000
|  9> C      1.221409   -0.633508    0.000000
| 10> C     -2.528268    1.405525    0.000000
| 11> C      2.580459   -1.275923    0.000000
| 12> N      1.185094    0.702648    0.000000
| 13> H     -2.095720   -1.319232    0.000000
| 14> H      0.097475   -2.468673    0.000000
| 15> H      0.024650    2.395020    0.000000
| 16> H     -3.128947    1.163181    0.878919
| 17> H     -2.357997    2.481564    0.000000
| 18> H     -3.128947    1.163181   -0.878919
| 19> H      3.147907   -0.961093   -0.876888
| 20> H      3.147907   -0.961093    0.876888
| 21> H      2.513018   -2.362770    0.000000
| 22> *
| 23>
| 24>                          ****END OF INPUT****

CARTESIAN COORDINATES (ANGSTROEM)
---------------------------------
  C     -1.178683   -0.742088    0.000000
  C      0.047290   -1.388143    0.000000
  C      0.000000    1.309459    0.000000
  C     -1.228041    0.649909    0.000000
  C      1.221409   -0.633508    0.000000
  C     -2.528268    1.405525    0.000000
  C      2.580459   -1.275923    0.000000
  N      1.185094    0.702648    0.000000
  H     -2.095720   -1.319232    0.000000
  H      0.097475   -2.468673    0.000000
  H      0.024650    2.395020    0.000000
  H     -3.128947    1.163181    0.878919
  H     -2.357997    2.481564    0.000000
  H     -3.128947    1.163181   -0.878919
  H      3.147907   -0.961093   -0.876888
  H      3.147907   -0.961093    0.876888
  H      2.513018   -2.362770    0.000000

 Total Charge           Charge          ....    0
 Multiplicity           Mult            ....    1
 Number of Electrons    NEL             ....   58
 Basis Dimension        Dim             ....  575

ORBITAL ENERGIES
----------------

  NO   OCC          E(Eh)            E(eV)
   0   2.0000     -15.553822      -423.2410
   1   2.0000     -11.273073      -306.7559
   2   2.0000     -11.264213      -306.5148
   3   2.0000     -11.248806      -306.0956
   4   2.0000     -11.239487      -305.8420
   5   2.0000     -11.231929      -305.6363
   6   2.0000     -11.228904      -305.5540
   7   2.0000     -11.218963      -305.2835
   8   2.0000      -1.254784       -34.1444
   9   2.0000      -1.097613       -29.8676
  10   2.0000      -1.058963       -28.8159
  11   2.0000      -0.985636       -26.8205
  12   2.0000      -0.911891       -24.8138
  13   2.0000      -0.854841       -23.2614
  14   2.0000      -0.806718       -21.9519
  15   2.0000      -0.684395       -18.6233
  16   2.0000      -0.670551       -18.2466
  17   2.0000      -0.626685       -17.0530
  18   2.0000      -0.590316       -16.0633
  19   2.0000      -0.575192       -15.6518
  20   2.0000      -0.573621       -15.6090
  21   2.0000      -0.559458       -15.2236
  22   2.0000      -0.545699       -14.8492
  23   2.0000      -0.534053       -14.5323
  24   2.0000      -0.505037       -13.7428
  25   2.0000      -0.502423       -13.6716
  26   2.0000      -0.406241       -11.0544
  27   2.0000      -0.374144       -10.1810
  28   2.0000      -0.325365        -8.8536
  29   0.0000       0.026955         0.7335
  30   0.0000       0.030741         0.8365
  31   0.0000       0.036463         0.9922
  32   0.0000       0.043631         1.1873
  33   0.0000       0.046188         1.2568

MULLIKEN ATOMIC CHARGES
-----------------------
   0 C :   -1.063087
   1 C :   -0.750138
   2 C :   -1.053293
   3 C :    1.632564
   4 C :    0.986918
   5 C :   -0.855386
   6 C :   -0.770904
   7 N :   -0.717527
   8 H :    0.431040
   9 H :    0.037829
  10 H :    0.487732
  11 H :    0.273248
  12 H :    0.244013
  13 H :    0.273248
  14 H :    0.270258
  15 H :    0.270258
  16 H :    0.303226
Sum of atomic charges:    0.0000000

LOEWDIN ATOMIC CHARGES
----------------------
   0 C :    0.215937
   1 C :    0.221259
   2 C :    0.035483
   3 C :   -0.122239
   4 C :   -0.311716
   5 C :    0.572689
   6 C :    0.575087
   7 N :    0.398911
   8 H :   -0.164958
   9 H :   -0.186422
  10 H :   -0.188864
  11 H :   -0.168674
  12 H :   -0.181225
  13 H :   -0.168674
  14 H :   -0.170940
  15 H :   -0.170940
  16 H :   -0.184715

  Mayer bond orders larger than 0.100000
B(  0-C ,  1-C ) :   1.4876 B(  0-C ,  2-C ) :   0.4659 B(  0-C ,  3-C ) :   0.6797
B(  0-C ,  8-H ) :   0.8861 B(  1-C ,  3-C ) :  -0.3059 B(  1-C ,  4-C ) :   0.7749
B(  1-C ,  9-H ) :   1.4756 B(  2-C ,  3-C ) :   0.4563 B(  2-C ,  5-C ) :  -0.1339
B(  2-C ,  7-N ) :   1.1405 B(  2-C ,  9-H ) :   0.1564 B(  2-C , 10-H ) :   0.6998
B(  3-C ,  4-C ) :   0.1101 B(  3-C ,  5-C ) :   0.5293 B(  3-C ,  7-N ) :  -0.1637
B(  3-C ,  9-H ) :  -0.1171 B(  4-C ,  6-C ) :   0.2756 B(  4-C ,  7-N ) :   0.8206
B(  4-C ,  9-H ) :  -0.1936 B(  5-C , 11-H ) :   1.0219 B(  5-C , 12-H ) :   1.0008
B(  5-C , 13-H ) :   1.0219 B(  6-C , 14-H ) :   1.0292 B(  6-C , 15-H ) :   1.0292
B(  6-C , 16-H ) :   0.9712 B(  7-N , 10-H ) :  -0.1066

MP2 TOTAL ENERGY:     -326.239937982 Eh
FINAL SINGLE POINT ENERGY      -326.239937981947

DIPOLE MOMENT
-------------
                                X             Y             Z
Electronic contribution:      1.09209       0.44216       0.00000
Nuclear contribution   :     -1.80303      -0.88011       0.00000
                        -----------------------------------------
Total Dipole Moment    :     -0.71095      -0.43795       0.00000
                        -----------------------------------------
Magnitude (a.u.)       :      0.83502
Magnitude (Debye)      :      2.12244

Rotational constants in cm-1:     0.186114     0.049371     0.039590
Rotational constants in MHz :  5579.542584  1480.120305  1186.874410

                             ****ORCA TERMINATED NORMALLY****
TOTAL RUN TIME: 0 days 0 hours 6 minutes 31 seconds 641 msec
