                         Program Version 5.0.3 -  RELEASE  -
|  1> !ri-mp2 aug-cc-pvtz aug-cc-pvtz/c tightscf
|  2> %pal nprocs 16 end
|  3>
|  4> * xyz 0 1
|  5> H      1.090374    2.042312    0.076465
|  6> C      0.596544    1.086224    0.038981
|  7> H      2.249849   -0.338572    0.019187
|  8> C      1.198765   -0.096252    0.008788
|  9> O      0.365290   -1.176016   -0.062866
| 10> H     -1.297406    1.237768   -1.005784
| 11> H     -1.452898    1.372804    0.739281
| 12> C     -0.896855    0.873537   -0.055484
| 13> H     -1.592748   -1.131233   -0.710934
| 14> H     -1.364629   -0.974542    1.041627
| 15> C     -0.990931   -0.663577    0.064896
| 16> *
| 17>
| 18>                          ****END OF INPUT****

CARTESIAN COORDINATES (ANGSTROEM)
---------------------------------
  H      1.090374    2.042312    0.076465
  C      0.596544    1.086224    0.038981
  H      2.249849   -0.338572    0.019187
  C      1.198765   -0.096252    0.008788
  O      0.365290   -1.176016   -0.062866
  H     -1.297406    1.237768   -1.005784
  H     -1.452898    1.372804    0.739281
  C     -0.896855    0.873537   -0.055484
  H     -1.592748   -1.131233   -0.710934
  H     -1.364629   -0.974542    1.041627
  C     -0.990931   -0.663577    0.064896

 Total Charge           Charge          ....    0
 Multiplicity           Mult            ....    1
 Number of Electrons    NEL             ....   38
 Basis Dimension        Dim             ....  368

ORBITAL ENERGIES
----------------

  NO   OCC          E(Eh)            E(eV)
   0   2.0000     -20.572939      -559.8181
   1   2.0000     -11.283276      -307.0335
   2   2.0000     -11.282613      -307.0155
   3   2.0000     -11.234811      -305.7148
   4   2.0000     -11.215546      -305.1905
   5   2.0000      -1.399369       -38.0788
   6   2.0000      -1.065280       -28.9877
   7   2.0000      -0.997787       -27.1512
   8   2.0000      -0.829494       -22.5717
   9   2.0000      -0.768885       -20.9224
  10   2.0000      -0.704014       -19.1572
  11   2.0000      -0.666972       -18.1492
  12   2.0000      -0.591540       -16.0966
  13   2.0000      -0.554079       -15.0773
  14   2.0000      -0.540345       -14.7035
  15   2.0000      -0.523345       -14.2409
  16   2.0000      -0.498532       -13.5657
  17   2.0000      -0.492209       -13.3937
  18   2.0000      -0.325874        -8.8675
  19   0.0000       0.029924         0.8143
  20   0.0000       0.037798         1.0285
  21   0.0000       0.040184         1.0935
  22   0.0000       0.042590         1.1589
  23   0.0000       0.054046         1.4707

MULLIKEN ATOMIC CHARGES
-----------------------
   0 H :    0.396031
   1 C :   -0.511361
   2 H :    0.715799
   3 C :   -0.639157
   4 O :   -0.518048
   5 H :    0.278383
   6 H :    0.297686
   7 C :   -0.307570
   8 H :    0.316576
   9 H :    0.278917
  10 C :   -0.307257
Sum of atomic charges:   -0.0000000

LOEWDIN ATOMIC CHARGES
----------------------
   0 H :   -0.201308
   1 C :    0.209466
   2 H :   -0.190035
   3 C :   -0.066282
   4 O :    0.542045
   5 H :   -0.159586
   6 H :   -0.162198
   7 C :    0.258134
   8 H :   -0.161338
   9 H :   -0.158375
  10 C :    0.089478

  Mayer bond orders larger than 0.100000
B(  0-H ,  1-C ) :   0.9017 B(  1-C ,  3-C ) :   1.4611 B(  1-C ,  4-O ) :  -0.1354
B(  1-C ,  7-C ) :   0.8479 B(  2-H ,  3-C ) :   0.3742 B(  3-C ,  4-O ) :   1.0889
B(  4-O , 10-C ) :   0.7429 B(  5-H ,  7-C ) :   0.9172 B(  6-H ,  7-C ) :   0.9318
B(  7-C , 10-C ) :   1.0256 B(  8-H , 10-C ) :   0.9088 B(  9-H , 10-C ) :   0.9468

MP2 TOTAL ENERGY:     -230.779608943 Eh
FINAL SINGLE POINT ENERGY      -230.779608943463

DIPOLE MOMENT
-------------
                                X             Y             Z
Electronic contribution:      2.08971      -1.79496      -0.12570
Nuclear contribution   :     -2.40469       2.22986       0.16174
                        -----------------------------------------
Total Dipole Moment    :     -0.31497       0.43490       0.03604
                        -----------------------------------------
Magnitude (a.u.)       :      0.53819
Magnitude (Debye)      :      1.36796

Rotational constants in cm-1:     0.269879     0.260765     0.139997
Rotational constants in MHz :  8090.774851  7817.529386  4197.005407

                             ****ORCA TERMINATED NORMALLY****
TOTAL RUN TIME: 0 days 0 hours 1 minutes 57 seconds 103 msec
