                         Program Version 5.0.3 -  RELEASE  -
|  1> !ri-mp2 aug-cc-pvtz aug-cc-pvtz/c tightscf
|  2> %pal nprocs 16 end
|  3>
|  4> * xyz 0 1
|  5> O     -0.777836    0.622205   -0.000066
|  6> O      1.157333    1.699452   -0.000071
|  7> N      2.577306   -0.606933    0.000088
|  8> N      3.695819   -0.545596    0.000118
|  9> C     -1.504219   -0.618985   -0.000007
| 10> C      0.582712    0.639548   -0.000031
| 11> C      1.267948   -0.648464    0.000052
| 12> C     -2.928155   -0.331723   -0.000031
| 13> C     -4.108010   -0.128816   -0.000050
| 14> H     -1.247335   -1.201991   -0.888800
| 15> H     -1.247348   -1.201899    0.888849
| 16> H      0.837583   -1.633315    0.000081
| 17> H     -5.152401    0.062286   -0.000066
| 18> *
| 19>
| 20>                          ****END OF INPUT****

CARTESIAN COORDINATES (ANGSTROEM)
---------------------------------
  O     -0.777836    0.622205   -0.000066
  O      1.157333    1.699452   -0.000071
  N      2.577306   -0.606933    0.000088
  N      3.695819   -0.545596    0.000118
  C     -1.504219   -0.618985   -0.000007
  C      0.582712    0.639548   -0.000031
  C      1.267948   -0.648464    0.000052
  C     -2.928155   -0.331723   -0.000031
  C     -4.108010   -0.128816   -0.000050
  H     -1.247335   -1.201991   -0.888800
  H     -1.247348   -1.201899    0.888849
  H      0.837583   -1.633315    0.000081
  H     -5.152401    0.062286   -0.000066

 Total Charge           Charge          ....    0
 Multiplicity           Mult            ....    1
 Number of Electrons    NEL             ....   64
 Basis Dimension        Dim             ....  506

ORBITAL ENERGIES
----------------

  NO   OCC          E(Eh)            E(eV)
   0   2.0000     -20.615959      -560.9888
   1   2.0000     -20.538013      -558.8678
   2   2.0000     -15.780394      -429.4064
   3   2.0000     -15.715679      -427.6454
   4   2.0000     -11.399662      -310.2006
   5   2.0000     -11.341947      -308.6301
   6   2.0000     -11.298385      -307.4447
   7   2.0000     -11.252376      -306.1927
   8   2.0000     -11.245895      -306.0164
   9   2.0000      -1.516569       -41.2679
  10   2.0000      -1.463473       -39.8231
  11   2.0000      -1.367503       -37.2117
  12   2.0000      -1.169618       -31.8269
  13   2.0000      -1.081573       -29.4311
  14   2.0000      -0.985801       -26.8250
  15   2.0000      -0.894969       -24.3533
  16   2.0000      -0.768503       -20.9120
  17   2.0000      -0.767345       -20.8805
  18   2.0000      -0.741462       -20.1762
  19   2.0000      -0.714011       -19.4292
  20   2.0000      -0.706588       -19.2272
  21   2.0000      -0.693086       -18.8598
  22   2.0000      -0.681022       -18.5316
  23   2.0000      -0.645758       -17.5720
  24   2.0000      -0.615261       -16.7421
  25   2.0000      -0.587687       -15.9918
  26   2.0000      -0.547019       -14.8852
  27   2.0000      -0.476449       -12.9648
  28   2.0000      -0.462471       -12.5845
  29   2.0000      -0.416845       -11.3429
  30   2.0000      -0.408728       -11.1221
  31   2.0000      -0.365833        -9.9548
  32   0.0000       0.020092         0.5467
  33   0.0000       0.028728         0.7817
  34   0.0000       0.038421         1.0455
  35   0.0000       0.046453         1.2640
  36   0.0000       0.060030         1.6335

MULLIKEN ATOMIC CHARGES
-----------------------
   0 O :   -0.295896
   1 O :   -0.848910
   2 N :    0.489946
   3 N :   -0.950422
   4 C :   -0.120418
   5 C :    0.628165
   6 C :   -0.004981
   7 C :    1.170192
   8 C :   -1.825177
   9 H :    0.332857
  10 H :    0.332858
  11 H :    0.664710
  12 H :    0.427078
Sum of atomic charges:   -0.0000000

LOEWDIN ATOMIC CHARGES
----------------------
   0 O :    0.565879
   1 O :    0.413533
   2 N :   -0.002493
   3 N :    0.378824
   4 C :   -0.046782
   5 C :   -0.893812
   6 C :    0.038147
   7 C :    0.030013
   8 C :    0.406790
   9 H :   -0.172043
  10 H :   -0.172046
  11 H :   -0.253853
  12 H :   -0.292158

  Mayer bond orders larger than 0.100000
B(  0-O ,  1-O ) :  -0.1394 B(  0-O ,  4-C ) :   0.8468 B(  0-O ,  5-C ) :   1.0579
B(  1-O ,  5-C ) :   1.4437 B(  2-N ,  3-N ) :   1.2363 B(  2-N ,  5-C ) :  -0.1445
B(  2-N ,  6-C ) :   1.1440 B(  2-N , 11-H ) :  -0.1130 B(  3-N ,  6-C ) :  -0.3297
B(  4-C ,  7-C ) :   0.8158 B(  4-C ,  8-C ) :   0.2508 B(  4-C ,  9-H ) :   0.8936
B(  4-C , 10-H ) :   0.8936 B(  5-C ,  6-C ) :   0.8174 B(  6-C , 11-H ) :   0.4872
B(  7-C , 12-H ) :  -0.2408 B(  8-C , 12-H ) :   1.1933

MP2 TOTAL ENERGY:     -451.977137382 Eh
FINAL SINGLE POINT ENERGY      -451.977137381847

DIPOLE MOMENT
-------------
                                X             Y             Z
Electronic contribution:      6.14314       1.81114       0.00004
Nuclear contribution   :     -6.55392      -3.82103       0.00006
                        -----------------------------------------
Total Dipole Moment    :     -0.41078      -2.00989       0.00010
                        -----------------------------------------
Magnitude (a.u.)       :      2.05144
Magnitude (Debye)      :      5.21433

Rotational constants in cm-1:     0.198589     0.023961     0.021468
Rotational constants in MHz :  5953.536360   718.325482   643.587134

                             ****ORCA TERMINATED NORMALLY****
TOTAL RUN TIME: 0 days 0 hours 4 minutes 34 seconds 333 msec
