                         Program Version 5.0.3 -  RELEASE  -
|  1> !ri-mp2 aug-cc-pvtz aug-cc-pvtz/c tightscf
|  2> %pal nprocs 16 end
|  3>
|  4> * xyz 0 1
|  5> C     0.655134     1.533738       0.000000
|  6> N     0.655134     0.265229       0.000000
|  7> N    -0.655134    -0.265229       0.000000
|  8> C    -0.655134    -1.533738       0.000000
|  9> H    -0.265958     2.114793       0.000000
| 10> H     1.612147     2.041686       0.000000
| 11> H     0.265958    -2.114793       0.000000
| 12> H    -1.612147    -2.041686       0.000000
| 13> *
| 14>
| 15>                          ****END OF INPUT****

CARTESIAN COORDINATES (ANGSTROEM)
---------------------------------
  C      0.655134    1.533738    0.000000
  N      0.655134    0.265229    0.000000
  N     -0.655134   -0.265229    0.000000
  C     -0.655134   -1.533738    0.000000
  H     -0.265958    2.114793    0.000000
  H      1.612147    2.041686    0.000000
  H      0.265958   -2.114793    0.000000
  H     -1.612147   -2.041686    0.000000

 Total Charge           Charge          ....    0
 Multiplicity           Mult            ....    1
 Number of Electrons    NEL             ....   30
 Basis Dimension        Dim             ....  276

ORBITAL ENERGIES
----------------

  NO   OCC          E(Eh)            E(eV)
   0   2.0000     -15.599780      -424.4916
   1   2.0000     -15.599228      -424.4766
   2   2.0000     -11.278991      -306.9170
   3   2.0000     -11.278989      -306.9169
   4   2.0000      -1.318062       -35.8663
   5   2.0000      -1.140455       -31.0334
   6   2.0000      -0.876145       -23.8411
   7   2.0000      -0.783013       -21.3069
   8   2.0000      -0.687025       -18.6949
   9   2.0000      -0.673880       -18.3372
  10   2.0000      -0.573280       -15.5998
  11   2.0000      -0.541172       -14.7260
  12   2.0000      -0.517974       -14.0948
  13   2.0000      -0.397013       -10.8033
  14   2.0000      -0.387391       -10.5415
  15   0.0000       0.031011         0.8439
  16   0.0000       0.037501         1.0204
  17   0.0000       0.043650         1.1878
  18   0.0000       0.054795         1.4911
  19   0.0000       0.060543         1.6475

MULLIKEN ATOMIC CHARGES
-----------------------
   0 C :   -0.791548
   1 N :   -0.282657
   2 N :   -0.282657
   3 C :   -0.791548
   4 H :    0.527209
   5 H :    0.546996
   6 H :    0.527209
   7 H :    0.546996
Sum of atomic charges:    0.0000000

LOEWDIN ATOMIC CHARGES
----------------------
   0 C :    0.308976
   1 N :    0.144687
   2 N :    0.144687
   3 C :    0.308976
   4 H :   -0.218380
   5 H :   -0.235283
   6 H :   -0.218380
   7 H :   -0.235283

  Mayer bond orders larger than 0.100000
B(  0-C ,  1-N ) :   1.8034 B(  0-C ,  4-H ) :   0.6782 B(  0-C ,  5-H ) :   0.6453
B(  1-N ,  2-N ) :   0.5696 B(  2-N ,  3-C ) :   1.8034 B(  3-C ,  6-H ) :   0.6782
B(  3-C ,  7-H ) :   0.6453

MP2 TOTAL ENERGY:     -187.689237670 Eh
FINAL SINGLE POINT ENERGY      -187.689237669500

DIPOLE MOMENT
-------------
                                X             Y             Z
Electronic contribution:      0.00000       0.00000      -0.00000
Nuclear contribution   :      0.00000       0.00000       0.00000
                        -----------------------------------------
Total Dipole Moment    :      0.00000       0.00000      -0.00000
                        -----------------------------------------
Magnitude (a.u.)       :      0.00000
Magnitude (Debye)      :      0.00000

Rotational constants in cm-1:     1.733829     0.179543     0.162695
Rotational constants in MHz : 51978.873722  5382.554824  4877.478553

                             ****ORCA TERMINATED NORMALLY****
TOTAL RUN TIME: 0 days 0 hours 0 minutes 48 seconds 651 msec
