                         Program Version 5.0.3 -  RELEASE  -
|  1> !ri-mp2 aug-cc-pvtz aug-cc-pvtz/c tightscf
|  2> %pal nprocs 16 end
|  3>
|  4> * xyz 0 1
|  5> C      1.015957    1.451343    0.163935
|  6> H      0.123868    2.040690   -0.046686
|  7> H      1.188253    1.483529    1.242634
|  8> H      1.861449    1.938979   -0.323138
|  9> S     -1.912944    0.066947   -0.125366
| 10> H     -2.706994   -0.873776    0.415091
| 11> C      2.163432   -0.784591   -0.063963
| 12> H      2.089609   -1.805448   -0.442007
| 13> H      3.013177   -0.307136   -0.553827
| 14> H      2.384593   -0.837208    1.004776
| 15> C     -0.305593   -0.718329    0.333908
| 16> H     -0.334382   -1.754724    0.003227
| 17> H     -0.203516   -0.701401    1.419378
| 18> C      0.875283    0.005676   -0.319616
| 19> H      0.696575    0.020737   -1.399165
| 20> *
| 21>
| 22>                          ****END OF INPUT****

CARTESIAN COORDINATES (ANGSTROEM)
---------------------------------
  C      1.015957    1.451343    0.163935
  H      0.123868    2.040690   -0.046686
  H      1.188253    1.483529    1.242634
  H      1.861449    1.938979   -0.323138
  S     -1.912944    0.066947   -0.125366
  H     -2.706994   -0.873776    0.415091
  C      2.163432   -0.784591   -0.063963
  H      2.089609   -1.805448   -0.442007
  H      3.013177   -0.307136   -0.553827
  H      2.384593   -0.837208    1.004776
  C     -0.305593   -0.718329    0.333908
  H     -0.334382   -1.754724    0.003227
  H     -0.203516   -0.701401    1.419378
  C      0.875283    0.005676   -0.319616
  H      0.696575    0.020737   -1.399165

 Total Charge           Charge          ....    0
 Multiplicity           Mult            ....    1
 Number of Electrons    NEL             ....   50
 Basis Dimension        Dim             ....  464

ORBITAL ENERGIES
----------------

  NO   OCC          E(Eh)            E(eV)
   0   2.0000     -91.948080     -2502.0345
   1   2.0000     -11.258755      -306.3663
   2   2.0000     -11.238028      -305.8023
   3   2.0000     -11.218758      -305.2779
   4   2.0000     -11.213895      -305.1456
   5   2.0000      -8.948931      -243.5128
   6   2.0000      -6.630262      -180.4186
   7   2.0000      -6.629291      -180.3922
   8   2.0000      -6.628283      -180.3647
   9   2.0000      -1.103039       -30.0152
  10   2.0000      -0.999180       -27.1891
  11   2.0000      -0.935825       -25.4651
  12   2.0000      -0.871656       -23.7190
  13   2.0000      -0.772634       -21.0244
  14   2.0000      -0.643037       -17.4979
  15   2.0000      -0.613583       -16.6965
  16   2.0000      -0.593313       -16.1449
  17   2.0000      -0.560260       -15.2454
  18   2.0000      -0.541527       -14.7357
  19   2.0000      -0.527270       -14.3477
  20   2.0000      -0.490137       -13.3373
  21   2.0000      -0.474212       -12.9040
  22   2.0000      -0.470322       -12.7981
  23   2.0000      -0.438964       -11.9448
  24   2.0000      -0.352867        -9.6020
  25   0.0000       0.029450         0.8014
  26   0.0000       0.034933         0.9506
  27   0.0000       0.039201         1.0667
  28   0.0000       0.040281         1.0961
  29   0.0000       0.055006         1.4968

MULLIKEN ATOMIC CHARGES
-----------------------
   0 C :   -1.020911
   1 H :    0.288720
   2 H :    0.264291
   3 H :    0.277304
   4 S :   -0.343405
   5 H :    0.022311
   6 C :   -1.041930
   7 H :    0.266352
   8 H :    0.262912
   9 H :    0.272261
  10 C :   -0.446074
  11 H :    0.306719
  12 H :    0.270265
  13 C :    0.223998
  14 H :    0.397186
Sum of atomic charges:   -0.0000000

LOEWDIN ATOMIC CHARGES
----------------------
   0 C :    0.556755
   1 H :   -0.196723
   2 H :   -0.162580
   3 H :   -0.166314
   4 S :    1.285020
   5 H :   -0.586580
   6 C :    0.577467
   7 H :   -0.166893
   8 H :   -0.165420
   9 H :   -0.161596
  10 C :   -0.082205
  11 H :   -0.220727
  12 H :   -0.212662
  13 C :   -0.145415
  14 H :   -0.152128

  Mayer bond orders larger than 0.100000
B(  0-C ,  1-H ) :   0.9588 B(  0-C ,  2-H ) :   0.9698 B(  0-C ,  3-H ) :   0.9563
B(  0-C ,  6-C ) :   0.1249 B(  0-C , 10-C ) :   0.1103 B(  0-C , 13-C ) :   0.7388
B(  4-S ,  5-H ) :   1.1126 B(  4-S , 10-C ) :   0.9511 B(  6-C ,  7-H ) :   0.9768
B(  6-C ,  8-H ) :   0.9844 B(  6-C ,  9-H ) :   0.9600 B(  6-C , 13-C ) :   0.7345
B( 10-C , 11-H ) :   0.9062 B( 10-C , 12-H ) :   0.9346 B( 10-C , 13-C ) :   0.9391
B( 13-C , 14-H ) :   0.8111

MP2 TOTAL ENERGY:     -555.807212918 Eh
FINAL SINGLE POINT ENERGY      -555.807212918428

DIPOLE MOMENT
-------------
                                X             Y             Z
Electronic contribution:     -8.03519       0.39285      -1.15114
Nuclear contribution   :      8.50870      -0.83073       1.37876
                        -----------------------------------------
Total Dipole Moment    :      0.47351      -0.43787       0.22762
                        -----------------------------------------
Magnitude (a.u.)       :      0.68392
Magnitude (Debye)      :      1.73840

Rotational constants in cm-1:     0.246294     0.070658     0.059051
Rotational constants in MHz :  7383.703205  2118.264680  1770.308955

                             ****ORCA TERMINATED NORMALLY****
TOTAL RUN TIME: 0 days 0 hours 3 minutes 22 seconds 616 msec
