                         Program Version 5.0.3 -  RELEASE  -
|  1> !ri-mp2 aug-cc-pvtz aug-cc-pvtz/c tightscf
|  2> %pal nprocs 16 end
|  3>
|  4> * xyz 0 1
|  5> S     -1.950591   -0.686147   -0.303940
|  6> N      1.432922    1.428952   -0.545421
|  7> N     -0.711841    1.245188    1.046284
|  8> N      2.117170   -1.659656    0.627854
|  9> C      0.684478    0.164121   -0.583266
| 10> C     -0.693718    0.297052    0.111210
| 11> C      1.467167   -0.871492    0.100755
| 12> H      0.479303   -0.201586   -1.591769
| 13> H      1.137544    2.029439   -1.305751
| 14> H      2.426777    1.267897   -0.644579
| 15> H     -1.552470    1.410472    1.572884
| 16> H      0.102983    1.832653    1.159037
| 17> *
| 18>
| 19>                          ****END OF INPUT****

CARTESIAN COORDINATES (ANGSTROEM)
---------------------------------
  S     -1.950591   -0.686147   -0.303940
  N      1.432922    1.428952   -0.545421
  N     -0.711841    1.245188    1.046284
  N      2.117170   -1.659656    0.627854
  C      0.684478    0.164121   -0.583266
  C     -0.693718    0.297052    0.111210
  C      1.467167   -0.871492    0.100755
  H      0.479303   -0.201586   -1.591769
  H      1.137544    2.029439   -1.305751
  H      2.426777    1.267897   -0.644579
  H     -1.552470    1.410472    1.572884
  H      0.102983    1.832653    1.159037

 Total Charge           Charge          ....    0
 Multiplicity           Mult            ....    1
 Number of Electrons    NEL             ....   60
 Basis Dimension        Dim             ....  441

ORBITAL ENERGIES
----------------

  NO   OCC          E(Eh)            E(eV)
   0   2.0000     -91.917086     -2501.1911
   1   2.0000     -15.623926      -425.1486
   2   2.0000     -15.604167      -424.6110
   3   2.0000     -15.589989      -424.2252
   4   2.0000     -11.373152      -309.4792
   5   2.0000     -11.349638      -308.8393
   6   2.0000     -11.291085      -307.2460
   7   2.0000      -8.920124      -242.7289
   8   2.0000      -6.601495      -179.6358
   9   2.0000      -6.599902      -179.5925
  10   2.0000      -6.599002      -179.5680
  11   2.0000      -1.303082       -35.4587
  12   2.0000      -1.249353       -33.9966
  13   2.0000      -1.222356       -33.2620
  14   2.0000      -1.057173       -28.7671
  15   2.0000      -0.970524       -26.4093
  16   2.0000      -0.832988       -22.6668
  17   2.0000      -0.770995       -20.9799
  18   2.0000      -0.748048       -20.3554
  19   2.0000      -0.683427       -18.5970
  20   2.0000      -0.659798       -17.9540
  21   2.0000      -0.647876       -17.6296
  22   2.0000      -0.575666       -15.6647
  23   2.0000      -0.543137       -14.7795
  24   2.0000      -0.525727       -14.3058
  25   2.0000      -0.493518       -13.4293
  26   2.0000      -0.482557       -13.1310
  27   2.0000      -0.457588       -12.4516
  28   2.0000      -0.351561        -9.5665
  29   2.0000      -0.342598        -9.3226
  30   0.0000       0.015131         0.4117
  31   0.0000       0.028469         0.7747
  32   0.0000       0.038267         1.0413
  33   0.0000       0.043861         1.1935
  34   0.0000       0.057513         1.5650

MULLIKEN ATOMIC CHARGES
-----------------------
   0 S :   -0.539141
   1 N :   -0.527381
   2 N :   -0.411039
   3 N :   -0.623378
   4 C :    0.622772
   5 C :    0.387963
   6 C :    0.260103
   7 H :    0.316677
   8 H :    0.101628
   9 H :    0.113574
  10 H :    0.112546
  11 H :    0.185677
Sum of atomic charges:   -0.0000000

LOEWDIN ATOMIC CHARGES
----------------------
   0 S :    0.911218
   1 N :    0.854377
   2 N :    0.785218
   3 N :    0.286577
   4 C :   -0.261707
   5 C :   -0.937848
   6 C :   -0.226036
   7 H :   -0.185828
   8 H :   -0.293070
   9 H :   -0.310620
  10 H :   -0.289655
  11 H :   -0.332626

  Mayer bond orders larger than 0.100000
B(  0-S ,  5-C ) :   1.4761 B(  1-N ,  4-C ) :   0.5559 B(  1-N ,  5-C ) :   0.1174
B(  1-N ,  8-H ) :   1.0142 B(  1-N ,  9-H ) :   0.9995 B(  2-N ,  5-C ) :   1.0700
B(  2-N , 10-H ) :   1.0473 B(  2-N , 11-H ) :   0.9967 B(  3-N ,  6-C ) :   2.2273
B(  4-C ,  5-C ) :   0.7617 B(  4-C ,  6-C ) :   0.7948 B(  4-C ,  7-H ) :   0.8886
B(  5-C ,  6-C ) :   0.2808

MP2 TOTAL ENERGY:     -678.774283949 Eh
FINAL SINGLE POINT ENERGY      -678.774283948957

DIPOLE MOMENT
-------------
                                X             Y             Z
Electronic contribution:     -2.10059      -4.00418       0.34789
Nuclear contribution   :      2.61370       6.22947      -0.77714
                        -----------------------------------------
Total Dipole Moment    :      0.51312       2.22530      -0.42925
                        -----------------------------------------
Magnitude (a.u.)       :      2.32368
Magnitude (Debye)      :      5.90633

Rotational constants in cm-1:     0.101562     0.054612     0.042865
Rotational constants in MHz :  3044.747608  1637.227775  1285.060367

                             ****ORCA TERMINATED NORMALLY****
TOTAL RUN TIME: 0 days 0 hours 3 minutes 30 seconds 176 msec
