                         Program Version 5.0.3 -  RELEASE  -
|  1> !ri-mp2 aug-cc-pvtz aug-cc-pvtz/c tightscf
|  2> %pal nprocs 16 end
|  3>
|  4> * xyz 0 1
|  5> S     -1.176502    1.188742    0.000000
|  6> S      3.433639    0.144524    0.000000
|  7> N     -1.439432   -1.384848    0.000000
|  8> N      0.798861   -0.695105    0.000000
|  9> C     -0.535866   -0.452056    0.000000
| 10> C     -2.765808    0.515362    0.000000
| 11> C     -2.694196   -0.843269    0.000000
| 12> C      1.922253   -0.288941    0.000000
| 13> H     -3.639896    1.143256    0.000000
| 14> H     -3.548597   -1.502417    0.000000
| 15> *
| 16>
| 17>                          ****END OF INPUT****

CARTESIAN COORDINATES (ANGSTROEM)
---------------------------------
  S     -1.176502    1.188742    0.000000
  S      3.433639    0.144524    0.000000
  N     -1.439432   -1.384848    0.000000
  N      0.798861   -0.695105    0.000000
  C     -0.535866   -0.452056    0.000000
  C     -2.765808    0.515362    0.000000
  C     -2.694196   -0.843269    0.000000
  C      1.922253   -0.288941    0.000000
  H     -3.639896    1.143256    0.000000
  H     -3.548597   -1.502417    0.000000

 Total Charge           Charge          ....    0
 Multiplicity           Mult            ....    1
 Number of Electrons    NEL             ....   72
 Basis Dimension        Dim             ....  422

ORBITAL ENERGIES
----------------

  NO   OCC          E(Eh)            E(eV)
   0   2.0000     -92.018315     -2503.9456
   1   2.0000     -91.973885     -2502.7366
   2   2.0000     -15.636605      -425.4937
   3   2.0000     -15.589847      -424.2213
   4   2.0000     -11.405084      -310.3481
   5   2.0000     -11.384936      -309.7999
   6   2.0000     -11.287134      -307.1385
   7   2.0000     -11.282967      -307.0251
   8   2.0000      -9.018459      -245.4047
   9   2.0000      -8.976933      -244.2748
  10   2.0000      -6.699298      -182.2972
  11   2.0000      -6.698767      -182.2827
  12   2.0000      -6.697917      -182.2596
  13   2.0000      -6.658460      -181.1859
  14   2.0000      -6.655923      -181.1169
  15   2.0000      -6.655795      -181.1134
  16   2.0000      -1.350872       -36.7591
  17   2.0000      -1.285390       -34.9773
  18   2.0000      -1.088612       -29.6226
  19   2.0000      -1.079307       -29.3694
  20   2.0000      -1.018871       -27.7249
  21   2.0000      -0.901960       -24.5436
  22   2.0000      -0.816326       -22.2134
  23   2.0000      -0.727637       -19.8000
  24   2.0000      -0.658656       -17.9229
  25   2.0000      -0.639071       -17.3900
  26   2.0000      -0.638283       -17.3686
  27   2.0000      -0.616529       -16.7766
  28   2.0000      -0.556405       -15.1406
  29   2.0000      -0.555611       -15.1189
  30   2.0000      -0.522921       -14.2294
  31   2.0000      -0.458499       -12.4764
  32   2.0000      -0.422112       -11.4863
  33   2.0000      -0.400124       -10.8879
  34   2.0000      -0.388265       -10.5652
  35   2.0000      -0.331229        -9.0132
  36   0.0000       0.024351         0.6626
  37   0.0000       0.037261         1.0139
  38   0.0000       0.047680         1.2974
  39   0.0000       0.050615         1.3773
  40   0.0000       0.063621         1.7312

MULLIKEN ATOMIC CHARGES
-----------------------
   0 S :    0.010629
   1 S :   -0.318166
   2 N :   -0.222915
   3 N :    0.118961
   4 C :    0.625967
   5 C :   -0.328267
   6 C :   -0.577196
   7 C :   -0.372911
   8 H :    0.490308
   9 H :    0.573590
Sum of atomic charges:   -0.0000000

LOEWDIN ATOMIC CHARGES
----------------------
   0 S :    1.260183
   1 S :    0.868745
   2 N :    0.289437
   3 N :    0.140217
   4 C :   -0.889338
   5 C :   -0.202217
   6 C :   -0.121005
   7 C :   -0.875148
   8 H :   -0.267636
   9 H :   -0.203238

  Mayer bond orders larger than 0.100000
B(  0-S ,  4-C ) :   1.0508 B(  0-S ,  5-C ) :   1.1193 B(  1-S ,  3-N ) :  -0.1253
B(  1-S ,  4-C ) :   0.1009 B(  1-S ,  7-C ) :   1.8418 B(  2-N ,  3-N ) :  -0.1458
B(  2-N ,  4-C ) :   1.3293 B(  2-N ,  5-C ) :  -0.1070 B(  2-N ,  6-C ) :   1.0180
B(  3-N ,  4-C ) :   0.5801 B(  3-N ,  7-C ) :   2.0908 B(  4-C ,  6-C ) :  -0.1429
B(  4-C ,  7-C ) :  -0.5089 B(  5-C ,  6-C ) :   1.3342 B(  5-C ,  8-H ) :   0.8006
B(  6-C ,  9-H ) :   0.6617

MP2 TOTAL ENERGY:    -1058.060092654 Eh
FINAL SINGLE POINT ENERGY     -1058.060092654161

DIPOLE MOMENT
-------------
                                X             Y             Z
Electronic contribution:      5.96300       1.05405      -0.00000
Nuclear contribution   :     -6.90580      -0.39228       0.00000
                        -----------------------------------------
Total Dipole Moment    :     -0.94280       0.66177      -0.00000
                        -----------------------------------------
Magnitude (a.u.)       :      1.15187
Magnitude (Debye)      :      2.92781

Rotational constants in cm-1:     0.171349     0.023647     0.020779
Rotational constants in MHz :  5136.912881   708.906885   622.939648

                             ****ORCA TERMINATED NORMALLY****
TOTAL RUN TIME: 0 days 0 hours 2 minutes 52 seconds 498 msec
