                         Program Version 5.0.3 -  RELEASE  -
|  1> !ri-mp2 aug-cc-pvtz aug-cc-pvtz/c tightscf
|  2> %pal nprocs 16 end
|  3> %maxcore 3800
|  4>
|  5> * xyz 0 1
|  6> C      1.734839   -1.077796   -1.065905
|  7> C      2.632719    0.591958    0.605922
|  8> C     -1.734840   -1.077794    1.065906
|  9> C     -2.632718    0.591958   -0.605923
| 10> C      1.441089   -0.271419    0.195238
| 11> C     -1.441089   -0.271419   -0.195238
| 12> S      0.000000    0.866458    0.000000
| 13> H      2.591479   -1.736141   -0.899071
| 14> H      0.892872   -1.704377   -1.358644
| 15> H      1.969701   -0.415640   -1.900083
| 16> H      3.513715   -0.035344    0.754087
| 17> H      2.435115    1.129802    1.532456
| 18> H      2.869539    1.323680   -0.168464
| 19> H     -2.591478   -1.736141    0.899071
| 20> H     -0.892872   -1.704375    1.358647
| 21> H     -1.969704   -0.415638    1.900082
| 22> H     -3.513714   -0.035344   -0.754090
| 23> H     -2.435113    1.129802   -1.532458
| 24> H     -2.869540    1.323680    0.168462
| 25> H      1.204385   -0.950113    1.015660
| 26> H     -1.204384   -0.950114   -1.015659
| 27> *
| 28>
| 29>                          ****END OF INPUT****

CARTESIAN COORDINATES (ANGSTROEM)
---------------------------------
  C      1.734839   -1.077796   -1.065905
  C      2.632719    0.591958    0.605922
  C     -1.734840   -1.077794    1.065906
  C     -2.632718    0.591958   -0.605923
  C      1.441089   -0.271419    0.195238
  C     -1.441089   -0.271419   -0.195238
  S      0.000000    0.866458    0.000000
  H      2.591479   -1.736141   -0.899071
  H      0.892872   -1.704377   -1.358644
  H      1.969701   -0.415640   -1.900083
  H      3.513715   -0.035344    0.754087
  H      2.435115    1.129802    1.532456
  H      2.869539    1.323680   -0.168464
  H     -2.591478   -1.736141    0.899071
  H     -0.892872   -1.704375    1.358647
  H     -1.969704   -0.415638    1.900082
  H     -3.513714   -0.035344   -0.754090
  H     -2.435113    1.129802   -1.532458
  H     -2.869540    1.323680    0.168462
  H      1.204385   -0.950113    1.015660
  H     -1.204384   -0.950114   -1.015659

 Total Charge           Charge          ....    0
 Multiplicity           Mult            ....    1
 Number of Electrons    NEL             ....   66
 Basis Dimension        Dim             ....  648

ORBITAL ENERGIES
----------------

  NO   OCC          E(Eh)            E(eV)
   0   2.0000     -91.931434     -2501.5815
   1   2.0000     -11.259683      -306.3915
   2   2.0000     -11.259675      -306.3913
   3   2.0000     -11.218512      -305.2712
   4   2.0000     -11.218512      -305.2712
   5   2.0000     -11.218432      -305.2691
   6   2.0000     -11.218432      -305.2690
   7   2.0000      -8.931911      -243.0497
   8   2.0000      -6.613055      -179.9504
   9   2.0000      -6.612159      -179.9260
  10   2.0000      -6.611303      -179.9027
  11   2.0000      -1.102962       -30.0131
  12   2.0000      -1.064110       -28.9559
  13   2.0000      -0.938437       -25.5362
  14   2.0000      -0.936992       -25.4969
  15   2.0000      -0.918017       -24.9805
  16   2.0000      -0.800050       -21.7705
  17   2.0000      -0.748874       -20.3779
  18   2.0000      -0.641428       -17.4541
  19   2.0000      -0.626634       -17.0516
  20   2.0000      -0.603052       -16.4099
  21   2.0000      -0.577519       -15.7151
  22   2.0000      -0.563075       -15.3221
  23   2.0000      -0.562751       -15.3132
  24   2.0000      -0.541409       -14.7325
  25   2.0000      -0.541275       -14.7289
  26   2.0000      -0.497866       -13.5476
  27   2.0000      -0.494336       -13.4516
  28   2.0000      -0.493621       -13.4321
  29   2.0000      -0.485066       -13.1993
  30   2.0000      -0.437209       -11.8971
  31   2.0000      -0.406096       -11.0504
  32   2.0000      -0.330970        -9.0061
  33   0.0000       0.028754         0.7824
  34   0.0000       0.033250         0.9048
  35   0.0000       0.037957         1.0329
  36   0.0000       0.038427         1.0456
  37   0.0000       0.050559         1.3758

MULLIKEN ATOMIC CHARGES
-----------------------
   0 C :   -1.088670
   1 C :   -1.083531
   2 C :   -1.088670
   3 C :   -1.083532
   4 C :    0.338852
   5 C :    0.338854
   6 S :   -0.447174
   7 H :    0.246971
   8 H :    0.359916
   9 H :    0.312535
  10 H :    0.260230
  11 H :    0.304531
  12 H :    0.292800
  13 H :    0.246971
  14 H :    0.359915
  15 H :    0.312536
  16 H :    0.260229
  17 H :    0.304531
  18 H :    0.292800
  19 H :    0.279951
  20 H :    0.279952
Sum of atomic charges:   -0.0000000

LOEWDIN ATOMIC CHARGES
----------------------
   0 C :    0.520768
   1 C :    0.494645
   2 C :    0.520768
   3 C :    0.494645
   4 C :   -0.374712
   5 C :   -0.374712
   6 S :    1.281136
   7 H :   -0.168135
   8 H :   -0.190071
   9 H :   -0.172477
  10 H :   -0.170797
  11 H :   -0.182966
  12 H :   -0.177909
  13 H :   -0.168135
  14 H :   -0.190069
  15 H :   -0.172478
  16 H :   -0.170796
  17 H :   -0.182965
  18 H :   -0.177910
  19 H :   -0.218915
  20 H :   -0.218915

  Mayer bond orders larger than 0.100000
B(  0-C ,  1-C ) :   0.1235 B(  0-C ,  4-C ) :   0.7909 B(  0-C ,  6-S ) :   0.1106
B(  0-C ,  7-H ) :   0.9835 B(  0-C ,  8-H ) :   0.8970 B(  0-C ,  9-H ) :   0.9409
B(  1-C ,  4-C ) :   0.7226 B(  1-C , 10-H ) :   1.0019 B(  1-C , 11-H ) :   0.9682
B(  1-C , 12-H ) :   0.9699 B(  2-C ,  3-C ) :   0.1235 B(  2-C ,  5-C ) :   0.7909
B(  2-C ,  6-S ) :   0.1106 B(  2-C , 13-H ) :   0.9835 B(  2-C , 14-H ) :   0.8970
B(  2-C , 15-H ) :   0.9409 B(  3-C ,  5-C ) :   0.7226 B(  3-C , 16-H ) :   1.0019
B(  3-C , 17-H ) :   0.9682 B(  3-C , 18-H ) :   0.9699 B(  4-C ,  6-S ) :   0.8213
B(  4-C , 19-H ) :   0.8894 B(  5-C ,  6-S ) :   0.8213 B(  5-C , 20-H ) :   0.8894

MP2 TOTAL ENERGY:     -634.262195757 Eh
FINAL SINGLE POINT ENERGY      -634.262195757492

DIPOLE MOMENT
-------------
                                X             Y             Z
Electronic contribution:     -0.00000       4.31252       0.00000
Nuclear contribution   :      0.00000      -5.03514      -0.00000
                        -----------------------------------------
Total Dipole Moment    :     -0.00000      -0.72262       0.00000
                        -----------------------------------------
Magnitude (a.u.)       :      0.72262
Magnitude (Debye)      :      1.83676

Rotational constants in cm-1:     0.120539     0.039600     0.037445
Rotational constants in MHz :  3613.665967  1187.176822  1122.562108

                             ****ORCA TERMINATED NORMALLY****
TOTAL RUN TIME: 0 days 0 hours 9 minutes 1 seconds 72 msec
