                         Program Version 5.0.3 -  RELEASE  -
|  1> !ri-mp2 aug-cc-pvtz aug-cc-pvtz/c tightscf
|  2> %pal nprocs 16 end
|  3>
|  4> * xyz 0 1
|  5> C      1.231266   -1.050200        0.000000
|  6> C      1.247252    0.302719        0.000000
|  7> C     -0.014010   -1.744866        0.000000
|  8> C      0.000000    1.044703        0.000000
|  9> N     -1.158816   -1.129309        0.000000
| 10> N     -1.120005    0.204852        0.000000
| 11> O     -0.133213    2.257718        0.000000
| 12> H      2.151945   -1.618873        0.000000
| 13> H      2.161023    0.878599        0.000000
| 14> H     -0.060616   -2.824365        0.000000
| 15> H     -2.021955    0.659959        0.000000
| 16> *
| 17>
| 18>                          ****END OF INPUT****

CARTESIAN COORDINATES (ANGSTROEM)
---------------------------------
  C      1.231266   -1.050200    0.000000
  C      1.247252    0.302719    0.000000
  C     -0.014010   -1.744866    0.000000
  C      0.000000    1.044703    0.000000
  N     -1.158816   -1.129309    0.000000
  N     -1.120005    0.204852    0.000000
  O     -0.133213    2.257718    0.000000
  H      2.151945   -1.618873    0.000000
  H      2.161023    0.878599    0.000000
  H     -0.060616   -2.824365    0.000000
  H     -2.021955    0.659959    0.000000

 Total Charge           Charge          ....    0
 Multiplicity           Mult            ....    1
 Number of Electrons    NEL             ....   50
 Basis Dimension        Dim             ....  414

ORBITAL ENERGIES
----------------

  NO   OCC          E(Eh)            E(eV)
   0   2.0000     -20.525342      -558.5230
   1   2.0000     -15.651410      -425.8965
   2   2.0000     -15.646899      -425.7738
   3   2.0000     -11.367440      -309.3238
   4   2.0000     -11.293424      -307.3097
   5   2.0000     -11.287044      -307.1361
   6   2.0000     -11.271565      -306.7149
   7   2.0000      -1.409625       -38.3578
   8   2.0000      -1.354443       -36.8563
   9   2.0000      -1.146967       -31.2106
  10   2.0000      -1.110071       -30.2066
  11   2.0000      -0.924660       -25.1613
  12   2.0000      -0.893743       -24.3200
  13   2.0000      -0.776117       -21.1192
  14   2.0000      -0.730714       -19.8837
  15   2.0000      -0.681535       -18.5455
  16   2.0000      -0.644322       -17.5329
  17   2.0000      -0.637814       -17.3558
  18   2.0000      -0.609303       -16.5800
  19   2.0000      -0.587003       -15.9732
  20   2.0000      -0.522099       -14.2070
  21   2.0000      -0.501367       -13.6429
  22   2.0000      -0.443292       -12.0626
  23   2.0000      -0.428419       -11.6579
  24   2.0000      -0.349350        -9.5063
  25   0.0000       0.021620         0.5883
  26   0.0000       0.033210         0.9037
  27   0.0000       0.038796         1.0557
  28   0.0000       0.050282         1.3682
  29   0.0000       0.051405         1.3988

MULLIKEN ATOMIC CHARGES
-----------------------
   0 C :   -0.060218
   1 C :   -0.323511
   2 C :   -0.449670
   3 C :    0.261377
   4 N :   -0.702266
   5 N :    0.472856
   6 O :   -0.829463
   7 H :    0.447869
   8 H :    0.366112
   9 H :    0.680043
  10 H :    0.136871
Sum of atomic charges:    0.0000000

LOEWDIN ATOMIC CHARGES
----------------------
   0 C :    0.203993
   1 C :    0.229053
   2 C :    0.014115
   3 C :   -0.687842
   4 N :    0.308643
   5 N :    0.367275
   6 O :    0.408639
   7 H :   -0.175480
   8 H :   -0.182024
   9 H :   -0.204742
  10 H :   -0.281630

  Mayer bond orders larger than 0.100000
B(  0-C ,  1-C ) :   1.5194 B(  0-C ,  2-C ) :   0.7763 B(  0-C ,  4-N ) :  -0.1839
B(  0-C ,  7-H ) :   0.7912 B(  1-C ,  3-C ) :   0.7819 B(  1-C ,  4-N ) :   0.1239
B(  1-C ,  8-H ) :   0.9238 B(  2-C ,  4-N ) :   1.6821 B(  2-C ,  9-H ) :   0.3975
B(  3-C ,  5-N ) :   1.1718 B(  3-C ,  6-O ) :   1.3286 B(  4-N ,  5-N ) :   0.1510
B(  4-N ,  9-H ) :  -0.1114 B(  5-N ,  6-O ) :  -0.1399 B(  5-N , 10-H ) :   1.0651

MP2 TOTAL ENERGY:     -338.929562365 Eh
FINAL SINGLE POINT ENERGY      -338.929562364533

DIPOLE MOMENT
-------------
                                X             Y             Z
Electronic contribution:     -1.55228       1.32791      -0.00000
Nuclear contribution   :      2.16455      -2.80914       0.00000
                        -----------------------------------------
Total Dipole Moment    :      0.61227      -1.48123      -0.00000
                        -----------------------------------------
Magnitude (a.u.)       :      1.60279
Magnitude (Debye)      :      4.07396

Rotational constants in cm-1:     0.193986     0.095809     0.064134
Rotational constants in MHz :  5815.566481  2872.275672  1922.676520

                             ****ORCA TERMINATED NORMALLY****
TOTAL RUN TIME: 0 days 0 hours 2 minutes 49 seconds 213 msec
