                         Program Version 5.0.3 -  RELEASE  -
|  1> !ri-mp2 aug-cc-pvtz aug-cc-pvtz/c tightscf
|  2> %pal nprocs 16 end
|  3>
|  4> * xyz 0 1
|  5> C     -0.735351   -0.665405    0.000000
|  6> C      0.000000    0.449055    0.000000
|  7> C     -0.272212   -2.090707    0.000000
|  8> C     -0.654331    1.805181    0.000000
|  9> C      1.503840    0.487539    0.000000
| 10> H     -1.815046   -0.542325    0.000000
| 11> H      0.811162   -2.190686    0.000000
| 12> H     -0.654737   -2.622552    0.875627
| 13> H     -0.654737   -2.622552   -0.875627
| 14> H     -1.741078    1.730857    0.000000
| 15> H     -0.352201    2.386480    0.876320
| 16> H     -0.352201    2.386480   -0.876320
| 17> H      1.872880    1.029375   -0.875759
| 18> H      1.872880    1.029375    0.875759
| 19> H      1.961399   -0.498430    0.000000
| 20> *
| 21>
| 22>                          ****END OF INPUT****

CARTESIAN COORDINATES (ANGSTROEM)
---------------------------------
  C     -0.735351   -0.665405    0.000000
  C      0.000000    0.449055    0.000000
  C     -0.272212   -2.090707    0.000000
  C     -0.654331    1.805181    0.000000
  C      1.503840    0.487539    0.000000
  H     -1.815046   -0.542325    0.000000
  H      0.811162   -2.190686    0.000000
  H     -0.654737   -2.622552    0.875627
  H     -0.654737   -2.622552   -0.875627
  H     -1.741078    1.730857    0.000000
  H     -0.352201    2.386480    0.876320
  H     -0.352201    2.386480   -0.876320
  H      1.872880    1.029375   -0.875759
  H      1.872880    1.029375    0.875759
  H      1.961399   -0.498430    0.000000

 Total Charge           Charge          ....    0
 Multiplicity           Mult            ....    1
 Number of Electrons    NEL             ....   40
 Basis Dimension        Dim             ....  460

ORBITAL ENERGIES
----------------

  NO   OCC          E(Eh)            E(eV)
   0   2.0000     -11.228118      -305.5326
   1   2.0000     -11.215403      -305.1866
   2   2.0000     -11.214635      -305.1657
   3   2.0000     -11.213952      -305.1472
   4   2.0000     -11.213881      -305.1452
   5   2.0000      -1.094194       -29.7745
   6   2.0000      -0.990834       -26.9620
   7   2.0000      -0.937292       -25.5050
   8   2.0000      -0.870166       -23.6784
   9   2.0000      -0.701209       -19.0809
  10   2.0000      -0.629734       -17.1359
  11   2.0000      -0.594253       -16.1705
  12   2.0000      -0.589834       -16.0502
  13   2.0000      -0.554531       -15.0896
  14   2.0000      -0.531550       -14.4642
  15   2.0000      -0.530733       -14.4420
  16   2.0000      -0.515813       -14.0360
  17   2.0000      -0.503185       -13.6924
  18   2.0000      -0.464278       -12.6336
  19   2.0000      -0.331189        -9.0121
  20   0.0000       0.030852         0.8395
  21   0.0000       0.035240         0.9589
  22   0.0000       0.038251         1.0409
  23   0.0000       0.043464         1.1827
  24   0.0000       0.051404         1.3988

MULLIKEN ATOMIC CHARGES
-----------------------
   0 C :   -0.792789
   1 C :    1.160281
   2 C :   -0.823410
   3 C :   -0.994161
   4 C :   -0.990801
   5 H :    0.005383
   6 H :    0.353081
   7 H :    0.252292
   8 H :    0.252292
   9 H :    0.255390
  10 H :    0.269904
  11 H :    0.269904
  12 H :    0.223990
  13 H :    0.223990
  14 H :    0.334654
Sum of atomic charges:    0.0000000

LOEWDIN ATOMIC CHARGES
----------------------
   0 C :    0.225467
   1 C :   -0.116362
   2 C :    0.559671
   3 C :    0.555045
   4 C :    0.571011
   5 H :   -0.196340
   6 H :   -0.203231
   7 H :   -0.174545
   8 H :   -0.174545
   9 H :   -0.183237
  10 H :   -0.167657
  11 H :   -0.167657
  12 H :   -0.164408
  13 H :   -0.164408
  14 H :   -0.198805

  Mayer bond orders larger than 0.100000
B(  0-C ,  1-C ) :   0.9655 B(  0-C ,  2-C ) :   0.8102 B(  0-C ,  5-H ) :   1.4702
B(  1-C ,  3-C ) :   0.7124 B(  1-C ,  4-C ) :   0.7600 B(  1-C ,  5-H ) :  -0.2847
B(  2-C ,  6-H ) :   0.8335 B(  2-C ,  7-H ) :   1.0401 B(  2-C ,  8-H ) :   1.0401
B(  3-C ,  9-H ) :   1.0110 B(  3-C , 10-H ) :   1.0048 B(  3-C , 11-H ) :   1.0048
B(  4-C ,  5-H ) :   0.1321 B(  4-C , 12-H ) :   1.0417 B(  4-C , 13-H ) :   1.0417
B(  4-C , 14-H ) :   0.8565

MP2 TOTAL ENERGY:     -196.091308307 Eh
FINAL SINGLE POINT ENERGY      -196.091308306943

DIPOLE MOMENT
-------------
                                X             Y             Z
Electronic contribution:     -0.93241      -0.06679       0.00000
Nuclear contribution   :      1.01577       0.09214       0.00000
                        -----------------------------------------
Total Dipole Moment    :      0.08335       0.02535       0.00000
                        -----------------------------------------
Magnitude (a.u.)       :      0.08712
Magnitude (Debye)      :      0.22145

Rotational constants in cm-1:     0.269333     0.117398     0.085613
Rotational constants in MHz :  8074.407490  3519.493672  2566.621603

                             ****ORCA TERMINATED NORMALLY****
TOTAL RUN TIME: 0 days 0 hours 2 minutes 43 seconds 465 msec
