                         Program Version 5.0.3 -  RELEASE  -
|  1> !ri-mp2 aug-cc-pvtz aug-cc-pvtz/c tightscf
|  2> %pal nprocs 16 end
|  3>
|  4> * xyz 0 1
|  5> C      1.353431    1.270810    0.013760
|  6> H      0.841398    2.180726   -0.302096
|  7> H      1.417446    1.279075    1.101271
|  8> H      2.364879    1.292140   -0.393745
|  9> C      1.362786   -1.262502   -0.056829
| 10> H      0.858541   -2.157090   -0.424699
| 11> H      1.425064   -1.331889    1.028585
| 12> C      0.615424    0.013505   -0.461515
| 13> H      0.538032    0.043857   -1.552099
| 14> N     -1.818851    0.026866   -0.759937
| 15> H     -2.762329    0.014931   -0.411347
| 16> H     -1.665858    0.059091   -1.750368
| 17> C     -0.791440   -0.007396    0.135988
| 18> O     -0.987670   -0.050347    1.337337
| 19> H      2.374939   -1.252626   -0.463060
| 20> *
| 21>
| 22>                          ****END OF INPUT****

CARTESIAN COORDINATES (ANGSTROEM)
---------------------------------
  C      1.353431    1.270810    0.013760
  H      0.841398    2.180726   -0.302096
  H      1.417446    1.279075    1.101271
  H      2.364879    1.292140   -0.393745
  C      1.362786   -1.262502   -0.056829
  H      0.858541   -2.157090   -0.424699
  H      1.425064   -1.331889    1.028585
  C      0.615424    0.013505   -0.461515
  H      0.538032    0.043857   -1.552099
  N     -1.818851    0.026866   -0.759937
  H     -2.762329    0.014931   -0.411347
  H     -1.665858    0.059091   -1.750368
  C     -0.791440   -0.007396    0.135988
  O     -0.987670   -0.050347    1.337337
  H      2.374939   -1.252626   -0.463060

 Total Charge           Charge          ....    0
 Multiplicity           Mult            ....    1
 Number of Electrons    NEL             ....   48
 Basis Dimension        Dim             ....  483

ORBITAL ENERGIES
----------------

  NO   OCC          E(Eh)            E(eV)
   0   2.0000     -20.514014      -558.2147
   1   2.0000     -15.585328      -424.0983
   2   2.0000     -11.346407      -308.7514
   3   2.0000     -11.246304      -306.0275
   4   2.0000     -11.220207      -305.3174
   5   2.0000     -11.219969      -305.3109
   6   2.0000      -1.377868       -37.4937
   7   2.0000      -1.210296       -32.9338
   8   2.0000      -1.079849       -29.3842
   9   2.0000      -0.938051       -25.5257
  10   2.0000      -0.871644       -23.7186
  11   2.0000      -0.773152       -21.0385
  12   2.0000      -0.713403       -19.4127
  13   2.0000      -0.682851       -18.5813
  14   2.0000      -0.606735       -16.5101
  15   2.0000      -0.606188       -16.4952
  16   2.0000      -0.595793       -16.2124
  17   2.0000      -0.547023       -14.8853
  18   2.0000      -0.529843       -14.4177
  19   2.0000      -0.523259       -14.2386
  20   2.0000      -0.486071       -13.2267
  21   2.0000      -0.484095       -13.1729
  22   2.0000      -0.415239       -11.2992
  23   2.0000      -0.413056       -11.2398
  24   0.0000       0.021710         0.5908
  25   0.0000       0.033533         0.9125
  26   0.0000       0.038261         1.0411
  27   0.0000       0.041687         1.1344
  28   0.0000       0.054548         1.4843

MULLIKEN ATOMIC CHARGES
-----------------------
   0 C :   -1.025133
   1 H :    0.274014
   2 H :    0.295720
   3 H :    0.257721
   4 C :   -1.024188
   5 H :    0.274217
   6 H :    0.295710
   7 C :    0.418535
   8 H :    0.302471
   9 N :   -0.441509
  10 H :    0.150101
  11 H :    0.109482
  12 C :    0.763557
  13 O :   -0.908189
  14 H :    0.257490
Sum of atomic charges:   -0.0000000

LOEWDIN ATOMIC CHARGES
----------------------
   0 C :    0.586116
   1 H :   -0.161703
   2 H :   -0.165933
   3 H :   -0.165340
   4 C :    0.585843
   5 H :   -0.161659
   6 H :   -0.166243
   7 C :   -0.059398
   8 H :   -0.157829
   9 N :    0.861673
  10 H :   -0.290223
  11 H :   -0.306678
  12 C :   -0.677406
  13 O :    0.444165
  14 H :   -0.165383

  Mayer bond orders larger than 0.100000
B(  0-C ,  1-H ) :   0.9637 B(  0-C ,  2-H ) :   0.9486 B(  0-C ,  3-H ) :   0.9778
B(  0-C ,  4-C ) :   0.1389 B(  0-C ,  7-C ) :   0.7313 B(  0-C , 12-C ) :   0.1000
B(  4-C ,  5-H ) :   0.9635 B(  4-C ,  6-H ) :   0.9493 B(  4-C ,  7-C ) :   0.7317
B(  4-C , 14-H ) :   0.9779 B(  7-C ,  8-H ) :   0.8285 B(  7-C ,  9-N ) :  -0.1272
B(  7-C , 12-C ) :   0.7664 B(  9-N , 10-H ) :   1.0301 B(  9-N , 11-H ) :   1.1017
B(  9-N , 12-C ) :   0.9114 B( 12-C , 13-O ) :   1.1878

MP2 TOTAL ENERGY:     -287.306776711 Eh
FINAL SINGLE POINT ENERGY      -287.306776711381

DIPOLE MOMENT
-------------
                                X             Y             Z
Electronic contribution:     -5.49182      -0.07683       1.69790
Nuclear contribution   :      5.55221       0.13201      -3.26036
                        -----------------------------------------
Total Dipole Moment    :      0.06039       0.05518      -1.56246
                        -----------------------------------------
Magnitude (a.u.)       :      1.56460
Magnitude (Debye)      :      3.97690

Rotational constants in cm-1:     0.164138     0.087047     0.084062
Rotational constants in MHz :  4920.725429  2609.604625  2520.107980

                             ****ORCA TERMINATED NORMALLY****
TOTAL RUN TIME: 0 days 0 hours 3 minutes 52 seconds 179 msec
