                         Program Version 5.0.3 -  RELEASE  -
|  1> !ri-mp2 aug-cc-pvtz aug-cc-pvtz/c tightscf
|  2> %pal nprocs 16 end
|  3>
|  4> * xyz 0 1
|  5> O      4.066762    0.495957    0.360134
|  6> O     -4.066767    0.495911   -0.360185
|  7> C      0.673589   -0.167678   -0.057506
|  8> C     -0.673588   -0.167673    0.057516
|  9> C      1.882141   -0.160213   -0.149051
| 10> C     -1.882140   -0.160196    0.149061
| 11> C      3.314251   -0.185757   -0.295724
| 12> C     -3.314249   -0.185720    0.295752
| 13> H      3.682946   -0.885828   -1.064540
| 14> H     -3.682935   -0.885690    1.064664
| 15> *
| 16>
| 17>                          ****END OF INPUT****

CARTESIAN COORDINATES (ANGSTROEM)
---------------------------------
  O      4.066762    0.495957    0.360134
  O     -4.066767    0.495911   -0.360185
  C      0.673589   -0.167678   -0.057506
  C     -0.673588   -0.167673    0.057516
  C      1.882141   -0.160213   -0.149051
  C     -1.882140   -0.160196    0.149061
  C      3.314251   -0.185757   -0.295724
  C     -3.314249   -0.185720    0.295752
  H      3.682946   -0.885828   -1.064540
  H     -3.682935   -0.885690    1.064664

 Total Charge           Charge          ....    0
 Multiplicity           Mult            ....    1
 Number of Electrons    NEL             ....   54
 Basis Dimension        Dim             ....  414

ORBITAL ENERGIES
----------------

  NO   OCC          E(Eh)            E(eV)
   0   2.0000     -20.596374      -560.4558
   1   2.0000     -20.596374      -560.4558
   2   2.0000     -11.384036      -309.7754
   3   2.0000     -11.384035      -309.7753
   4   2.0000     -11.311024      -307.7886
   5   2.0000     -11.309681      -307.7521
   6   2.0000     -11.296489      -307.3931
   7   2.0000     -11.296469      -307.3925
   8   2.0000      -1.429572       -38.9006
   9   2.0000      -1.429564       -38.9004
  10   2.0000      -1.141185       -31.0532
  11   2.0000      -1.081439       -29.4274
  12   2.0000      -0.975382       -26.5415
  13   2.0000      -0.924438       -25.1552
  14   2.0000      -0.843716       -22.9587
  15   2.0000      -0.749130       -20.3849
  16   2.0000      -0.742252       -20.1977
  17   2.0000      -0.682673       -18.5765
  18   2.0000      -0.681933       -18.5563
  19   2.0000      -0.584011       -15.8917
  20   2.0000      -0.583509       -15.8781
  21   2.0000      -0.519396       -14.1335
  22   2.0000      -0.518426       -14.1071
  23   2.0000      -0.480973       -13.0879
  24   2.0000      -0.479946       -13.0600
  25   2.0000      -0.400129       -10.8881
  26   2.0000      -0.400118       -10.8878
  27   0.0000       0.020618         0.5611
  28   0.0000       0.023895         0.6502
  29   0.0000       0.024064         0.6548
  30   0.0000       0.028714         0.7814
  31   0.0000       0.056935         1.5493

MULLIKEN ATOMIC CHARGES
-----------------------
   0 O :   -0.605446
   1 O :   -0.605447
   2 C :   -0.950196
   3 C :   -0.950193
   4 C :    1.211514
   5 C :    1.211520
   6 C :   -0.078394
   7 C :   -0.078401
   8 H :    0.422521
   9 H :    0.422522
Sum of atomic charges:    0.0000000

LOEWDIN ATOMIC CHARGES
----------------------
   0 O :    0.430251
   1 O :    0.430250
   2 C :   -0.014540
   3 C :   -0.014540
   4 C :    0.075449
   5 C :    0.075450
   6 C :   -0.290964
   7 C :   -0.290963
   8 H :   -0.200197
   9 H :   -0.200197

  Mayer bond orders larger than 0.100000
B(  0-O ,  6-C ) :   1.6916 B(  1-O ,  7-C ) :   1.6916 B(  2-C ,  3-C ) :  12.2544
B(  2-C ,  4-C ) :  -2.1906 B(  2-C ,  5-C ) : -14.5515 B(  2-C ,  6-C ) :  -0.8114
B(  2-C ,  7-C ) :  -2.4101 B(  2-C ,  9-H ) :  -0.2088 B(  3-C ,  4-C ) : -14.5514
B(  3-C ,  5-C ) :  -2.1906 B(  3-C ,  6-C ) :  -2.4101 B(  3-C ,  7-C ) :  -0.8114
B(  3-C ,  8-H ) :  -0.2088 B(  4-C ,  5-C ) :  15.7626 B(  4-C ,  7-C ) :   3.2841
B(  4-C ,  8-H ) :  -0.1217 B(  4-C ,  9-H ) :   0.3160 B(  5-C ,  6-C ) :   3.2842
B(  5-C ,  8-H ) :   0.3160 B(  5-C ,  9-H ) :  -0.1217 B(  6-C ,  7-C ) :   0.6506
B(  6-C ,  8-H ) :   0.8603 B(  7-C ,  9-H ) :   0.8603

MP2 TOTAL ENERGY:     -379.448144765 Eh
FINAL SINGLE POINT ENERGY      -379.448144764814

DIPOLE MOMENT
-------------
                                X             Y             Z
Electronic contribution:     -0.00000       0.45721      -0.00004
Nuclear contribution   :      0.00001      -1.67868       0.00012
                        -----------------------------------------
Total Dipole Moment    :      0.00001      -1.22147       0.00007
                        -----------------------------------------
Magnitude (a.u.)       :      1.22147
Magnitude (Debye)      :      3.10473

Rotational constants in cm-1:     0.817259     0.018214     0.018165
Rotational constants in MHz : 24500.800877   546.028054   544.580603

                             ****ORCA TERMINATED NORMALLY****
TOTAL RUN TIME: 0 days 0 hours 2 minutes 9 seconds 550 msec
