                         Program Version 5.0.3 -  RELEASE  -
|  1> !ri-mp2 aug-cc-pvtz aug-cc-pvtz/c tightscf
|  2> %pal nprocs 16 end
|  3>
|  4> * xyz 0 1
|  5> S    -0.810277   -1.201087   -0.200139
|  6> S     1.913381   -0.044710    0.323269
|  7> N     0.443660   -0.088164   -0.739013
|  8> N    -0.252291    1.168391   -0.769326
|  9> C    -1.623704    0.083578    0.709655
| 10> C    -1.186766    1.266178    0.270196
| 11> H     1.326453    0.217777    1.515056
| 12> H     0.406206    1.926467   -0.878431
| 13> H    -2.353808   -0.114528    1.473493
| 14> H    -1.505287    2.242921    0.599065
| 15> *
| 16>
| 17>                          ****END OF INPUT****

CARTESIAN COORDINATES (ANGSTROEM)
---------------------------------
  S     -0.810277   -1.201087   -0.200139
  S      1.913381   -0.044710    0.323269
  N      0.443660   -0.088164   -0.739013
  N     -0.252291    1.168391   -0.769326
  C     -1.623704    0.083578    0.709655
  C     -1.186766    1.266178    0.270196
  H      1.326453    0.217777    1.515056
  H      0.406206    1.926467   -0.878431
  H     -2.353808   -0.114528    1.473493
  H     -1.505287    2.242921    0.599065

 Total Charge           Charge          ....    0
 Multiplicity           Mult            ....    1
 Number of Electrons    NEL             ....   62
 Basis Dimension        Dim             ....  376

ORBITAL ENERGIES
----------------

  NO   OCC          E(Eh)            E(eV)
   0   2.0000     -91.997091     -2503.3681
   1   2.0000     -91.988440     -2503.1327
   2   2.0000     -15.660083      -426.1325
   3   2.0000     -15.619742      -425.0348
   4   2.0000     -11.290205      -307.2221
   5   2.0000     -11.262567      -306.4700
   6   2.0000      -8.994248      -244.7459
   7   2.0000      -8.986539      -244.5362
   8   2.0000      -6.675203      -181.6415
   9   2.0000      -6.674217      -181.6147
  10   2.0000      -6.672876      -181.5782
  11   2.0000      -6.667452      -181.4306
  12   2.0000      -6.666306      -181.3994
  13   2.0000      -6.665248      -181.3706
  14   2.0000      -1.340851       -36.4864
  15   2.0000      -1.114064       -30.3152
  16   2.0000      -1.072867       -29.1942
  17   2.0000      -0.958287       -26.0763
  18   2.0000      -0.840141       -22.8614
  19   2.0000      -0.800769       -21.7900
  20   2.0000      -0.735736       -20.0204
  21   2.0000      -0.627739       -17.0816
  22   2.0000      -0.619841       -16.8667
  23   2.0000      -0.600969       -16.3532
  24   2.0000      -0.573952       -15.6180
  25   2.0000      -0.492089       -13.3904
  26   2.0000      -0.474044       -12.8994
  27   2.0000      -0.435399       -11.8478
  28   2.0000      -0.427195       -11.6246
  29   2.0000      -0.373303       -10.1581
  30   2.0000      -0.300356        -8.1731
  31   0.0000       0.024533         0.6676
  32   0.0000       0.034720         0.9448
  33   0.0000       0.042741         1.1630
  34   0.0000       0.049538         1.3480
  35   0.0000       0.070531         1.9193

MULLIKEN ATOMIC CHARGES
-----------------------
   0 S :    0.071672
   1 S :   -0.095775
   2 N :   -0.452709
   3 N :   -0.060841
   4 C :   -0.328901
   5 C :   -0.432873
   6 H :    0.194519
   7 H :    0.121824
   8 H :    0.453147
   9 H :    0.529938
Sum of atomic charges:   -0.0000000

LOEWDIN ATOMIC CHARGES
----------------------
   0 S :    0.975524
   1 S :    1.062779
   2 N :   -0.575361
   3 N :    0.232486
   4 C :   -0.214287
   5 C :   -0.072074
   6 H :   -0.600866
   7 H :   -0.350923
   8 H :   -0.274327
   9 H :   -0.182952

  Mayer bond orders larger than 0.100000
B(  0-S ,  2-N ) :   0.8993 B(  0-S ,  4-C ) :   0.9818 B(  1-S ,  2-N ) :   0.8602
B(  1-S ,  6-H ) :   0.9727 B(  2-N ,  3-N ) :   0.6873 B(  3-N ,  5-C ) :   0.9111
B(  3-N ,  7-H ) :   1.0222 B(  4-C ,  5-C ) :   1.5341 B(  4-C ,  8-H ) :   0.8252
B(  5-C ,  9-H ) :   0.7041

MP2 TOTAL ENERGY:     -983.114517607 Eh
FINAL SINGLE POINT ENERGY      -983.114517606544

DIPOLE MOMENT
-------------
                                X             Y             Z
Electronic contribution:      1.71326      -3.25916      -1.77273
Nuclear contribution   :     -2.09202       4.18280       2.61245
                        -----------------------------------------
Total Dipole Moment    :     -0.37877       0.92364       0.83972
                        -----------------------------------------
Magnitude (a.u.)       :      1.30449
Magnitude (Debye)      :      3.31576

Rotational constants in cm-1:     0.133159     0.072181     0.057325
Rotational constants in MHz :  3991.992227  2163.925039  1718.550331

                             ****ORCA TERMINATED NORMALLY****
TOTAL RUN TIME: 0 days 0 hours 2 minutes 19 seconds 860 msec
