                         Program Version 5.0.3 -  RELEASE  -
|  1> !ri-mp2 aug-cc-pvtz aug-cc-pvtz/c tightscf
|  2> %pal nprocs 16 end
|  3>
|  4> * xyz 0 1
|  5> C     0.000000     0.000000    1.108167
|  6> C     0.000000     1.252736    0.329165
|  7> C     0.000000     1.253135   -1.006331
|  8> C     0.000000     0.000000   -1.814407
|  9> C     0.000000    -1.253135   -1.006331
| 10> C     0.000000    -1.252736    0.329165
| 11> O     0.000000     0.000000    2.331070
| 12> H     0.000000     2.170549    0.902157
| 13> H     0.000000     2.189815   -1.551879
| 14> H    -0.863698     0.000000   -2.492840
| 15> H     0.863698     0.000000   -2.492840
| 16> H     0.000000    -2.189815   -1.551879
| 17> H     0.000000    -2.170549    0.902157
| 18> *
| 19>
| 20>                          ****END OF INPUT****

CARTESIAN COORDINATES (ANGSTROEM)
---------------------------------
  C      0.000000    0.000000    1.108167
  C      0.000000    1.252736    0.329165
  C      0.000000    1.253135   -1.006331
  C      0.000000    0.000000   -1.814407
  C      0.000000   -1.253135   -1.006331
  C      0.000000   -1.252736    0.329165
  O      0.000000    0.000000    2.331070
  H      0.000000    2.170549    0.902157
  H      0.000000    2.189815   -1.551879
  H     -0.863698    0.000000   -2.492840
  H      0.863698    0.000000   -2.492840
  H      0.000000   -2.189815   -1.551879
  H      0.000000   -2.170549    0.902157

 Total Charge           Charge          ....    0
 Multiplicity           Mult            ....    1
 Number of Electrons    NEL             ....   50
 Basis Dimension        Dim             ....  460

ORBITAL ENERGIES
----------------

  NO   OCC          E(Eh)            E(eV)
   0   2.0000     -20.535131      -558.7893
   1   2.0000     -11.327146      -308.2273
   2   2.0000     -11.268426      -306.6295
   3   2.0000     -11.268391      -306.6285
   4   2.0000     -11.263123      -306.4852
   5   2.0000     -11.241541      -305.8979
   6   2.0000     -11.241522      -305.8974
   7   2.0000      -1.372616       -37.3508
   8   2.0000      -1.152179       -31.3524
   9   2.0000      -1.047074       -28.4923
  10   2.0000      -1.001568       -27.2541
  11   2.0000      -0.836563       -22.7640
  12   2.0000      -0.835023       -22.7221
  13   2.0000      -0.705805       -19.2059
  14   2.0000      -0.664942       -18.0940
  15   2.0000      -0.662876       -18.0378
  16   2.0000      -0.619763       -16.8646
  17   2.0000      -0.610372       -16.6091
  18   2.0000      -0.593320       -16.1451
  19   2.0000      -0.540643       -14.7116
  20   2.0000      -0.538136       -14.6434
  21   2.0000      -0.517228       -14.0745
  22   2.0000      -0.414234       -11.2719
  23   2.0000      -0.387442       -10.5428
  24   2.0000      -0.377856       -10.2820
  25   0.0000       0.021560         0.5867
  26   0.0000       0.030348         0.8258
  27   0.0000       0.038763         1.0548
  28   0.0000       0.039211         1.0670
  29   0.0000       0.050010         1.3609

MULLIKEN ATOMIC CHARGES
-----------------------
   0 C :    0.844265
   1 C :   -0.533359
   2 C :   -0.578872
   3 C :    0.061560
   4 C :   -0.578872
   5 C :   -0.533359
   6 O :   -1.015592
   7 H :    0.482503
   8 H :    0.397206
   9 H :    0.287406
  10 H :    0.287406
  11 H :    0.397206
  12 H :    0.482503
Sum of atomic charges:   -0.0000000

LOEWDIN ATOMIC CHARGES
----------------------
   0 C :   -0.583469
   1 C :    0.219483
   2 C :    0.237366
   3 C :    0.241449
   4 C :    0.237366
   5 C :    0.219483
   6 O :    0.436976
   7 H :   -0.192253
   8 H :   -0.167608
   9 H :   -0.144466
  10 H :   -0.144466
  11 H :   -0.167608
  12 H :   -0.192253

  Mayer bond orders larger than 0.100000
B(  0-C ,  1-C ) :   1.0253 B(  0-C ,  2-C ) :   0.1013 B(  0-C ,  4-C ) :   0.1013
B(  0-C ,  5-C ) :   1.0253 B(  0-C ,  6-O ) :   1.0036 B(  1-C ,  2-C ) :   1.6220
B(  1-C ,  4-C ) :  -0.2434 B(  1-C ,  5-C ) :   0.2413 B(  1-C ,  7-H ) :   0.6816
B(  2-C ,  3-C ) :   0.7418 B(  2-C ,  4-C ) :   0.2763 B(  2-C ,  5-C ) :  -0.2434
B(  2-C ,  8-H ) :   0.8203 B(  3-C ,  4-C ) :   0.7418 B(  3-C ,  9-H ) :   0.9749
B(  3-C , 10-H ) :   0.9749 B(  4-C ,  5-C ) :   1.6220 B(  4-C , 11-H ) :   0.8203
B(  5-C , 12-H ) :   0.6816

MP2 TOTAL ENERGY:     -306.841133958 Eh
FINAL SINGLE POINT ENERGY      -306.841133958214

DIPOLE MOMENT
-------------
                                X             Y             Z
Electronic contribution:      0.00000       0.00000       4.18584
Nuclear contribution   :      0.00000       0.00000      -6.23448
                        -----------------------------------------
Total Dipole Moment    :      0.00000       0.00000      -2.04863
                        -----------------------------------------
Magnitude (a.u.)       :      2.04863
Magnitude (Debye)      :      5.20721

Rotational constants in cm-1:     0.175434     0.089537     0.059915
Rotational constants in MHz :  5259.390502  2684.251902  1796.209689

                             ****ORCA TERMINATED NORMALLY****
TOTAL RUN TIME: 0 days 0 hours 4 minutes 8 seconds 700 msec
