                         Program Version 5.0.3 -  RELEASE  -
|  1> !ri-mp2 aug-cc-pvtz aug-cc-pvtz/c tightscf
|  2> %pal nprocs 16 end
|  3> %maxcore 3800
|  4>
|  5> * xyz 0 1
|  6> C     0.000000     0.705545    3.172599
|  7> C     0.000000    -0.705545    3.172599
|  8> C     0.000000     1.396736    1.988558
|  9> C     0.000000    -1.396736    1.988558
| 10> C     0.000000     1.384878   -0.494217
| 11> C     0.000000    -1.384878   -0.494217
| 12> C     0.000000     0.711893    0.749997
| 13> C     0.000000    -0.711893    0.749997
| 14> C     0.000000     0.714904   -1.692605
| 15> C     0.000000    -0.714904   -1.692605
| 16> C     0.000000     1.476613   -2.990942
| 17> C     0.000000    -1.476613   -2.990942
| 18> H     0.000000     1.240249    4.113143
| 19> H     0.000000    -1.240249    4.113143
| 20> H     0.000000     2.479711    1.986908
| 21> H     0.000000    -2.479711    1.986908
| 22> H     0.000000     2.468780   -0.491189
| 23> H     0.000000    -2.468780   -0.491189
| 24> H    -0.876451     1.238572   -3.598523
| 25> H     0.000000     2.550606   -2.812154
| 26> H     0.876451     1.238572   -3.598523
| 27> H    -0.876451    -1.238572   -3.598523
| 28> H     0.876451    -1.238572   -3.598523
| 29> H     0.000000    -2.550606   -2.812154
| 30> *
| 31>
| 32>                          ****END OF INPUT****

CARTESIAN COORDINATES (ANGSTROEM)
---------------------------------
  C      0.000000    0.705545    3.172599
  C      0.000000   -0.705545    3.172599
  C      0.000000    1.396736    1.988558
  C      0.000000   -1.396736    1.988558
  C      0.000000    1.384878   -0.494217
  C      0.000000   -1.384878   -0.494217
  C      0.000000    0.711893    0.749997
  C      0.000000   -0.711893    0.749997
  C      0.000000    0.714904   -1.692605
  C      0.000000   -0.714904   -1.692605
  C      0.000000    1.476613   -2.990942
  C      0.000000   -1.476613   -2.990942
  H      0.000000    1.240249    4.113143
  H      0.000000   -1.240249    4.113143
  H      0.000000    2.479711    1.986908
  H      0.000000   -2.479711    1.986908
  H      0.000000    2.468780   -0.491189
  H      0.000000   -2.468780   -0.491189
  H     -0.876451    1.238572   -3.598523
  H      0.000000    2.550606   -2.812154
  H      0.876451    1.238572   -3.598523
  H     -0.876451   -1.238572   -3.598523
  H      0.876451   -1.238572   -3.598523
  H      0.000000   -2.550606   -2.812154

 Total Charge           Charge          ....    0
 Multiplicity           Mult            ....    1
 Number of Electrons    NEL             ....   84
 Basis Dimension        Dim             ....  828

ORBITAL ENERGIES
----------------

  NO   OCC          E(Eh)            E(eV)
   0   2.0000     -11.239976      -305.8553
   1   2.0000     -11.238968      -305.8279
   2   2.0000     -11.236892      -305.7714
   3   2.0000     -11.235844      -305.7429
   4   2.0000     -11.231591      -305.6271
   5   2.0000     -11.231362      -305.6209
   6   2.0000     -11.230144      -305.5878
   7   2.0000     -11.229277      -305.5642
   8   2.0000     -11.227188      -305.5073
   9   2.0000     -11.227177      -305.5070
  10   2.0000     -11.223984      -305.4201
  11   2.0000     -11.223978      -305.4200
  12   2.0000      -1.176322       -32.0093
  13   2.0000      -1.120513       -30.4907
  14   2.0000      -1.053685       -28.6722
  15   2.0000      -1.034297       -28.1447
  16   2.0000      -1.006111       -27.3777
  17   2.0000      -0.934353       -25.4250
  18   2.0000      -0.930904       -25.3312
  19   2.0000      -0.828574       -22.5466
  20   2.0000      -0.809885       -22.0381
  21   2.0000      -0.809833       -22.0367
  22   2.0000      -0.698144       -18.9975
  23   2.0000      -0.681650       -18.5486
  24   2.0000      -0.660269       -17.9668
  25   2.0000      -0.617834       -16.8121
  26   2.0000      -0.615604       -16.7514
  27   2.0000      -0.594561       -16.1788
  28   2.0000      -0.579729       -15.7752
  29   2.0000      -0.578772       -15.7492
  30   2.0000      -0.553241       -15.0545
  31   2.0000      -0.544742       -14.8232
  32   2.0000      -0.540083       -14.6964
  33   2.0000      -0.539723       -14.6866
  34   2.0000      -0.522211       -14.2101
  35   2.0000      -0.506197       -13.7743
  36   2.0000      -0.477404       -12.9908
  37   2.0000      -0.468493       -12.7483
  38   2.0000      -0.431909       -11.7528
  39   2.0000      -0.380080       -10.3425
  40   2.0000      -0.306481        -8.3398
  41   2.0000      -0.283403        -7.7118
  42   0.0000       0.028325         0.7708
  43   0.0000       0.029521         0.8033
  44   0.0000       0.030423         0.8278
  45   0.0000       0.039910         1.0860
  46   0.0000       0.043298         1.1782

MULLIKEN ATOMIC CHARGES
-----------------------
   0 C :   -0.304434
   1 C :   -0.304432
   2 C :   -1.196010
   3 C :   -1.195968
   4 C :   -1.163229
   5 C :   -1.163152
   6 C :    1.929880
   7 C :    1.929951
   8 C :    0.789691
   9 C :    0.789693
  10 C :   -0.964556
  11 C :   -0.964590
  12 H :    0.579903
  13 H :    0.579896
  14 H :    0.072375
  15 H :    0.072376
  16 H :   -0.480720
  17 H :   -0.480709
  18 H :    0.258558
  19 H :    0.219899
  20 H :    0.258558
  21 H :    0.258554
  22 H :    0.258554
  23 H :    0.219913
Sum of atomic charges:   -0.0000000

LOEWDIN ATOMIC CHARGES
----------------------
   0 C :    0.199790
   1 C :    0.199790
   2 C :    0.221516
   3 C :    0.221516
   4 C :    0.244615
   5 C :    0.244614
   6 C :   -0.110031
   7 C :   -0.110031
   8 C :   -0.083579
   9 C :   -0.083579
  10 C :    0.577936
  11 C :    0.577936
  12 H :   -0.187383
  13 H :   -0.187383
  14 H :   -0.178450
  15 H :   -0.178450
  16 H :   -0.176098
  17 H :   -0.176098
  18 H :   -0.165489
  19 H :   -0.177337
  20 H :   -0.165489
  21 H :   -0.165489
  22 H :   -0.165489
  23 H :   -0.177337

  Mayer bond orders larger than 0.100000
B(  0-C ,  1-C ) :   0.8702 B(  0-C ,  2-C ) :   1.0980 B(  0-C ,  5-C ) :   0.1129
B(  0-C , 12-H ) :   0.6071 B(  0-C , 14-H ) :  -0.1347 B(  1-C ,  3-C ) :   1.0979
B(  1-C ,  4-C ) :   0.1129 B(  1-C , 13-H ) :   0.6072 B(  1-C , 15-H ) :  -0.1347
B(  2-C ,  3-C ) :  -0.1178 B(  2-C ,  4-C ) :   0.4362 B(  2-C ,  5-C ) :  -0.1717
B(  2-C ,  6-C ) :  -0.2453 B(  2-C , 10-C ) :   0.1153 B(  2-C , 12-H ) :  -0.1950
B(  2-C , 14-H ) :   1.5198 B(  2-C , 16-H ) :  -0.1359 B(  3-C ,  4-C ) :  -0.1717
B(  3-C ,  5-C ) :   0.4361 B(  3-C ,  7-C ) :  -0.2452 B(  3-C , 11-C ) :   0.1153
B(  3-C , 13-H ) :  -0.1950 B(  3-C , 15-H ) :   1.5198 B(  3-C , 17-H ) :  -0.1359
B(  4-C ,  6-C ) :  -0.4730 B(  4-C ,  7-C ) :  -0.2810 B(  4-C ,  8-C ) :   0.7843
B(  4-C , 10-C ) :  -0.3591 B(  4-C , 14-H ) :  -0.1886 B(  4-C , 16-H ) :   2.6943
B(  4-C , 19-H ) :  -0.1713 B(  5-C ,  6-C ) :  -0.2810 B(  5-C ,  7-C ) :  -0.4732
B(  5-C ,  9-C ) :   0.7845 B(  5-C , 11-C ) :  -0.3592 B(  5-C , 15-H ) :  -0.1886
B(  5-C , 17-H ) :   2.6943 B(  5-C , 23-H ) :  -0.1713 B(  6-C ,  7-C ) :   0.8586
B(  6-C ,  8-C ) :   0.6044 B(  6-C ,  9-C ) :  -0.2198 B(  6-C , 14-H ) :  -0.2610
B(  6-C , 16-H ) :  -0.4249 B(  7-C ,  8-C ) :  -0.2199 B(  7-C ,  9-C ) :   0.6044
B(  7-C , 15-H ) :  -0.2610 B(  7-C , 17-H ) :  -0.4250 B(  8-C ,  9-C ) :   1.1043
B(  8-C , 11-C ) :   0.4530 B(  8-C , 14-H ) :   0.1661 B(  8-C , 16-H ) :  -0.3901
B(  8-C , 17-H ) :  -0.1020 B(  8-C , 18-H ) :  -0.1918 B(  8-C , 20-H ) :  -0.1918
B(  8-C , 23-H ) :   0.1419 B(  9-C , 10-C ) :   0.4531 B(  9-C , 15-H ) :   0.1661
B(  9-C , 16-H ) :  -0.1020 B(  9-C , 17-H ) :  -0.3900 B(  9-C , 19-H ) :   0.1419
B(  9-C , 21-H ) :  -0.1918 B(  9-C , 22-H ) :  -0.1918 B( 10-C , 14-H ) :   0.1029
B( 10-C , 18-H ) :   1.0500 B( 10-C , 19-H ) :   1.0386 B( 10-C , 20-H ) :   1.0500
B( 11-C , 15-H ) :   0.1029 B( 11-C , 21-H ) :   1.0500 B( 11-C , 22-H ) :   1.0500
B( 11-C , 23-H ) :   1.0386 B( 14-H , 16-H ) :  -0.1355 B( 15-H , 17-H ) :  -0.1355
B( 16-H , 17-H ) :   0.1216

MP2 TOTAL ENERGY:     -463.531406199 Eh
FINAL SINGLE POINT ENERGY      -463.531406198581

DIPOLE MOMENT
-------------
                                X             Y             Z
Electronic contribution:     -0.00000       0.00000       8.52649
Nuclear contribution   :      0.00000      -0.00000      -8.88687
                        -----------------------------------------
Total Dipole Moment    :     -0.00000       0.00000      -0.36038
                        -----------------------------------------
Magnitude (a.u.)       :      0.36038
Magnitude (Debye)      :      0.91602

Rotational constants in cm-1:     0.072692     0.022382     0.017221
Rotational constants in MHz :  2179.256613   670.984065   516.272038

                             ****ORCA TERMINATED NORMALLY****
TOTAL RUN TIME: 0 days 0 hours 25 minutes 53 seconds 968 msec
