                         Program Version 5.0.3 -  RELEASE  -
|  1> !ri-mp2 aug-cc-pvtz aug-cc-pvtz/c tightscf
|  2> %pal nprocs 16 end
|  3>
|  4> * xyz 0 1
|  5> S      0.000000    0.000000    2.086086
|  6> C      0.000000    0.000000    0.422971
|  7> N      0.000000    1.095429   -0.390077
|  8> C     -0.231274    0.733283   -1.785169
|  9> C      0.231274   -0.733283   -1.785169
| 10> N      0.000000   -1.095429   -0.390077
| 11> H     -0.275915    1.980156   -0.001574
| 12> H      0.347846    1.354361   -2.465670
| 13> H     -1.290782    0.811565   -2.048808
| 14> H      1.290782   -0.811565   -2.048808
| 15> H     -0.347846   -1.354361   -2.465670
| 16> H      0.275915   -1.980156   -0.001574
| 17> *
| 18>
| 19>                          ****END OF INPUT****

CARTESIAN COORDINATES (ANGSTROEM)
---------------------------------
  S      0.000000    0.000000    2.086086
  C      0.000000    0.000000    0.422971
  N      0.000000    1.095429   -0.390077
  C     -0.231274    0.733283   -1.785169
  C      0.231274   -0.733283   -1.785169
  N      0.000000   -1.095429   -0.390077
  H     -0.275915    1.980156   -0.001574
  H      0.347846    1.354361   -2.465670
  H     -1.290782    0.811565   -2.048808
  H      1.290782   -0.811565   -2.048808
  H     -0.347846   -1.354361   -2.465670
  H      0.275915   -1.980156   -0.001574

 Total Charge           Charge          ....    0
 Multiplicity           Mult            ....    1
 Number of Electrons    NEL             ....   54
 Basis Dimension        Dim             ....  418

ORBITAL ENERGIES
----------------

  NO   OCC          E(Eh)            E(eV)
   0   2.0000     -91.886192     -2500.3504
   1   2.0000     -15.601196      -424.5301
   2   2.0000     -15.601167      -424.5293
   3   2.0000     -11.369899      -309.3907
   4   2.0000     -11.295116      -307.3557
   5   2.0000     -11.294517      -307.3394
   6   2.0000      -8.889367      -241.8920
   7   2.0000      -6.571019      -178.8065
   8   2.0000      -6.569007      -178.7518
   9   2.0000      -6.568419      -178.7358
  10   2.0000      -1.345681       -36.6178
  11   2.0000      -1.197105       -32.5749
  12   2.0000      -1.065206       -28.9857
  13   2.0000      -0.935670       -25.4609
  14   2.0000      -0.877458       -23.8769
  15   2.0000      -0.840352       -22.8672
  16   2.0000      -0.703197       -19.1350
  17   2.0000      -0.691422       -18.8145
  18   2.0000      -0.660402       -17.9705
  19   2.0000      -0.617094       -16.7920
  20   2.0000      -0.581236       -15.8162
  21   2.0000      -0.550505       -14.9800
  22   2.0000      -0.536046       -14.5866
  23   2.0000      -0.506148       -13.7730
  24   2.0000      -0.404366       -11.0034
  25   2.0000      -0.321448        -8.7470
  26   2.0000      -0.318516        -8.6673
  27   0.0000       0.019638         0.5344
  28   0.0000       0.030198         0.8217
  29   0.0000       0.034140         0.9290
  30   0.0000       0.041800         1.1374
  31   0.0000       0.054519         1.4835

MULLIKEN ATOMIC CHARGES
-----------------------
   0 S :   -0.609079
   1 C :    0.128865
   2 N :   -0.093266
   3 C :   -0.372410
   4 C :   -0.372410
   5 N :   -0.093266
   6 H :    0.091896
   7 H :    0.332759
   8 H :    0.281128
   9 H :    0.281128
  10 H :    0.332759
  11 H :    0.091896
Sum of atomic charges:   -0.0000000

LOEWDIN ATOMIC CHARGES
----------------------
   0 S :    0.803759
   1 C :   -1.086459
   2 N :    0.492857
   3 C :    0.222225
   4 C :    0.222225
   5 N :    0.492857
   6 H :   -0.292126
   7 H :   -0.143663
   8 H :   -0.137944
   9 H :   -0.137944
  10 H :   -0.143663
  11 H :   -0.292126

  Mayer bond orders larger than 0.100000
B(  0-S ,  1-C ) :   1.5085 B(  1-C ,  2-N ) :   1.0935 B(  1-C ,  5-N ) :   1.0935
B(  2-N ,  3-C ) :   0.7752 B(  2-N ,  6-H ) :   1.0484 B(  3-C ,  4-C ) :   1.0298
B(  3-C ,  7-H ) :   0.9047 B(  3-C ,  8-H ) :   0.9383 B(  4-C ,  5-N ) :   0.7752
B(  4-C ,  9-H ) :   0.9383 B(  4-C , 10-H ) :   0.9047 B(  5-N , 11-H ) :   1.0484

MP2 TOTAL ENERGY:     -624.725887485 Eh
FINAL SINGLE POINT ENERGY      -624.725887485155

DIPOLE MOMENT
-------------
                                X             Y             Z
Electronic contribution:      0.00000      -0.00000       6.58774
Nuclear contribution   :      0.00000      -0.00000      -9.03521
                        -----------------------------------------
Total Dipole Moment    :      0.00000      -0.00000      -2.44747
                        -----------------------------------------
Magnitude (a.u.)       :      2.44747
Magnitude (Debye)      :      6.22096

Rotational constants in cm-1:     0.261342     0.068329     0.055711
Rotational constants in MHz :  7834.825997  2048.446868  1670.168735

                             ****ORCA TERMINATED NORMALLY****
TOTAL RUN TIME: 0 days 0 hours 2 minutes 34 seconds 221 msec
