                         Program Version 5.0.3 -  RELEASE  -
|  1> !ri-mp2 aug-cc-pvtz aug-cc-pvtz/c tightscf
|  2> %pal nprocs 16 end
|  3>
|  4> * xyz 0 1
|  5> C      2.233334   -0.116230    0.218263
|  6> C      1.430378   -1.225938   -0.017669
|  7> C      0.433277    1.226506   -0.053715
|  8> C     -0.386763    0.119094   -0.289925
|  9> C     -2.716909   -0.220171    0.627717
| 10> C     -1.861257    0.258329   -0.552378
| 11> N      1.734306    1.117813    0.199732
| 12> N      0.129285   -1.113947   -0.269666
| 13> H      3.291804   -0.223926    0.422137
| 14> H      1.847245   -2.226480   -0.005825
| 15> H      0.020691    2.228991   -0.073988
| 16> H     -2.497551   -1.261629    0.860291
| 17> H     -3.777994   -0.138114    0.391141
| 18> H     -2.522970    0.375105    1.521205
| 19> H     -2.091480    1.300250   -0.781301
| 20> H     -2.107242   -0.330802   -1.437880
| 21> *
| 22>
| 23>                          ****END OF INPUT****

CARTESIAN COORDINATES (ANGSTROEM)
---------------------------------
  C      2.233334   -0.116230    0.218263
  C      1.430378   -1.225938   -0.017669
  C      0.433277    1.226506   -0.053715
  C     -0.386763    0.119094   -0.289925
  C     -2.716909   -0.220171    0.627717
  C     -1.861257    0.258329   -0.552378
  N      1.734306    1.117813    0.199732
  N      0.129285   -1.113947   -0.269666
  H      3.291804   -0.223926    0.422137
  H      1.847245   -2.226480   -0.005825
  H      0.020691    2.228991   -0.073988
  H     -2.497551   -1.261629    0.860291
  H     -3.777994   -0.138114    0.391141
  H     -2.522970    0.375105    1.521205
  H     -2.091480    1.300250   -0.781301
  H     -2.107242   -0.330802   -1.437880

 Total Charge           Charge          ....    0
 Multiplicity           Mult            ....    1
 Number of Electrons    NEL             ....   58
 Basis Dimension        Dim             ....  552

ORBITAL ENERGIES
----------------

  NO   OCC          E(Eh)            E(eV)
   0   2.0000     -15.588914      -424.1959
   1   2.0000     -15.583942      -424.0606
   2   2.0000     -11.284769      -307.0742
   3   2.0000     -11.280173      -306.9491
   4   2.0000     -11.275722      -306.8280
   5   2.0000     -11.275624      -306.8253
   6   2.0000     -11.236297      -305.7552
   7   2.0000     -11.220941      -305.3373
   8   2.0000      -1.306627       -35.5551
   9   2.0000      -1.217703       -33.1354
  10   2.0000      -1.084614       -29.5138
  11   2.0000      -1.012772       -27.5589
  12   2.0000      -0.906661       -24.6715
  13   2.0000      -0.891582       -24.2612
  14   2.0000      -0.827172       -22.5085
  15   2.0000      -0.714215       -19.4348
  16   2.0000      -0.708640       -19.2831
  17   2.0000      -0.659410       -17.9435
  18   2.0000      -0.613164       -16.6850
  19   2.0000      -0.602536       -16.3958
  20   2.0000      -0.579933       -15.7808
  21   2.0000      -0.560217       -15.2443
  22   2.0000      -0.523577       -14.2472
  23   2.0000      -0.507424       -13.8077
  24   2.0000      -0.500647       -13.6233
  25   2.0000      -0.491873       -13.3845
  26   2.0000      -0.429756       -11.6942
  27   2.0000      -0.403150       -10.9703
  28   2.0000      -0.346917        -9.4401
  29   0.0000       0.028942         0.7875
  30   0.0000       0.032228         0.8770
  31   0.0000       0.036631         0.9968
  32   0.0000       0.041059         1.1173
  33   0.0000       0.046693         1.2706

MULLIKEN ATOMIC CHARGES
-----------------------
   0 C :   -0.492446
   1 C :   -0.453341
   2 C :   -0.719755
   3 C :    1.002256
   4 C :   -0.919917
   5 C :   -0.269817
   6 N :   -0.441087
   7 N :   -0.635264
   8 H :    0.584858
   9 H :    0.562242
  10 H :    0.426825
  11 H :    0.308680
  12 H :    0.286111
  13 H :    0.278496
  14 H :    0.236774
  15 H :    0.245385
Sum of atomic charges:    0.0000000

LOEWDIN ATOMIC CHARGES
----------------------
   0 C :    0.014849
   1 C :    0.023899
   2 C :    0.043933
   3 C :   -0.294780
   4 C :    0.587472
   5 C :    0.252633
   6 N :    0.376448
   7 N :    0.406395
   8 H :   -0.198883
   9 H :   -0.194482
  10 H :   -0.188904
  11 H :   -0.173623
  12 H :   -0.171593
  13 H :   -0.168814
  14 H :   -0.162932
  15 H :   -0.151618

  Mayer bond orders larger than 0.100000
B(  0-C ,  1-C ) :   1.1413 B(  0-C ,  2-C ) :  -0.2147 B(  0-C ,  3-C ) :   0.2831
B(  0-C ,  6-N ) :   1.0997 B(  0-C ,  8-H ) :   0.5832 B(  1-C ,  2-C ) :   0.1648
B(  1-C ,  3-C ) :  -0.1622 B(  1-C ,  7-N ) :   1.1446 B(  1-C ,  9-H ) :   0.6526
B(  2-C ,  3-C ) :   0.5252 B(  2-C ,  6-N ) :   0.6094 B(  2-C ,  7-N ) :   0.1482
B(  2-C , 10-H ) :   0.9242 B(  3-C ,  5-C ) :   0.5998 B(  3-C ,  7-N ) :   0.4719
B(  4-C ,  5-C ) :   0.8815 B(  4-C , 11-H ) :   0.9145 B(  4-C , 12-H ) :   0.9586
B(  4-C , 13-H ) :   0.9519 B(  5-C , 14-H ) :   0.9937 B(  5-C , 15-H ) :   0.9940

MP2 TOTAL ENERGY:     -342.266068641 Eh
FINAL SINGLE POINT ENERGY      -342.266068641001

DIPOLE MOMENT
-------------
                                X             Y             Z
Electronic contribution:      7.62449       0.21953      -0.92618
Nuclear contribution   :     -7.88331      -0.27859       0.90186
                        -----------------------------------------
Total Dipole Moment    :     -0.25883      -0.05906      -0.02431
                        -----------------------------------------
Magnitude (a.u.)       :      0.26659
Magnitude (Debye)      :      0.67763

Rotational constants in cm-1:     0.162126     0.051286     0.042427
Rotational constants in MHz :  4860.417498  1537.506069  1271.921699

                             ****ORCA TERMINATED NORMALLY****
TOTAL RUN TIME: 0 days 0 hours 5 minutes 49 seconds 573 msec
