                         Program Version 5.0.3 -  RELEASE  -
|  1> !ri-mp2 aug-cc-pvtz aug-cc-pvtz/c tightscf
|  2> %pal nprocs 16 end
|  3>
|  4> * xyz 0 1
|  5> C      1.587197   -0.663411    0.266045
|  6> C      1.587197    0.663411    0.266045
|  7> C      0.353161   -1.327115   -0.256480
|  8> C      0.353161    1.327115   -0.256480
|  9> O     -1.726065    0.000000    0.869953
| 10> S     -0.946541    0.000000   -0.417329
| 11> H      2.420926   -1.255926    0.620455
| 12> H      2.420926    1.255926    0.620455
| 13> H      0.494961   -1.789128   -1.236410
| 14> H     -0.081439   -2.065993    0.417387
| 15> H     -0.081439    2.065993    0.417387
| 16> H      0.494961    1.789128   -1.236410
| 17> *
| 18>
| 19>                          ****END OF INPUT****

CARTESIAN COORDINATES (ANGSTROEM)
---------------------------------
  C      1.587197   -0.663411    0.266045
  C      1.587197    0.663411    0.266045
  C      0.353161   -1.327115   -0.256480
  C      0.353161    1.327115   -0.256480
  O     -1.726065    0.000000    0.869953
  S     -0.946541    0.000000   -0.417329
  H      2.420926   -1.255926    0.620455
  H      2.420926    1.255926    0.620455
  H      0.494961   -1.789128   -1.236410
  H     -0.081439   -2.065993    0.417387
  H     -0.081439    2.065993    0.417387
  H      0.494961    1.789128   -1.236410

 Total Charge           Charge          ....    0
 Multiplicity           Mult            ....    1
 Number of Electrons    NEL             ....   54
 Basis Dimension        Dim             ....  418

ORBITAL ENERGIES
----------------

  NO   OCC          E(Eh)            E(eV)
   0   2.0000     -92.069282     -2505.3325
   1   2.0000     -20.503963      -557.9412
   2   2.0000     -11.272886      -306.7508
   3   2.0000     -11.272871      -306.7504
   4   2.0000     -11.256168      -306.2959
   5   2.0000     -11.254376      -306.2471
   6   2.0000      -9.055551      -246.4141
   7   2.0000      -6.736935      -183.3213
   8   2.0000      -6.736814      -183.3180
   9   2.0000      -6.735552      -183.2837
  10   2.0000      -1.328714       -36.1561
  11   2.0000      -1.143446       -31.1147
  12   2.0000      -1.003298       -27.3011
  13   2.0000      -0.976157       -26.5626
  14   2.0000      -0.810783       -22.0625
  15   2.0000      -0.764074       -20.7915
  16   2.0000      -0.692739       -18.8504
  17   2.0000      -0.642250       -17.4765
  18   2.0000      -0.609634       -16.5890
  19   2.0000      -0.578513       -15.7421
  20   2.0000      -0.562604       -15.3092
  21   2.0000      -0.549194       -14.9443
  22   2.0000      -0.534851       -14.5540
  23   2.0000      -0.519236       -14.1291
  24   2.0000      -0.407894       -11.0994
  25   2.0000      -0.379755       -10.3336
  26   2.0000      -0.367594       -10.0027
  27   0.0000       0.023909         0.6506
  28   0.0000       0.032386         0.8813
  29   0.0000       0.035182         0.9573
  30   0.0000       0.048434         1.3180
  31   0.0000       0.048651         1.3239

MULLIKEN ATOMIC CHARGES
-----------------------
   0 C :   -0.651631
   1 C :   -0.651631
   2 C :   -0.261023
   3 C :   -0.261023
   4 O :   -0.931247
   5 S :    0.646907
   6 H :    0.477269
   7 H :    0.477269
   8 H :    0.290067
   9 H :    0.287488
  10 H :    0.287488
  11 H :    0.290067
Sum of atomic charges:   -0.0000000

LOEWDIN ATOMIC CHARGES
----------------------
   0 C :    0.161186
   1 C :    0.161186
   2 C :    0.107962
   3 C :    0.107962
   4 O :   -0.199137
   5 S :    0.877577
   6 H :   -0.181774
   7 H :   -0.181774
   8 H :   -0.212606
   9 H :   -0.213989
  10 H :   -0.213989
  11 H :   -0.212606

  Mayer bond orders larger than 0.100000
B(  0-C ,  1-C ) :   1.6905 B(  0-C ,  2-C ) :   0.9041 B(  0-C ,  6-H ) :   0.7669
B(  1-C ,  3-C ) :   0.9041 B(  1-C ,  7-H ) :   0.7669 B(  2-C ,  5-S ) :   0.8988
B(  2-C ,  8-H ) :   0.9260 B(  2-C ,  9-H ) :   0.9169 B(  3-C ,  5-S ) :   0.8988
B(  3-C , 10-H ) :   0.9169 B(  3-C , 11-H ) :   0.9260 B(  4-O ,  5-S ) :   1.3052

MP2 TOTAL ENERGY:     -628.487192587 Eh
FINAL SINGLE POINT ENERGY      -628.487192587009

DIPOLE MOMENT
-------------
                                X             Y             Z
Electronic contribution:     -4.03783       0.00000      -0.55593
Nuclear contribution   :      5.63008       0.00000      -0.36788
                        -----------------------------------------
Total Dipole Moment    :      1.59225       0.00000      -0.92381
                        -----------------------------------------
Magnitude (a.u.)       :      1.84084
Magnitude (Debye)      :      4.67904

Rotational constants in cm-1:     0.175094     0.095190     0.075577
Rotational constants in MHz :  5249.177546  2853.734958  2265.727977

                             ****ORCA TERMINATED NORMALLY****
TOTAL RUN TIME: 0 days 0 hours 2 minutes 43 seconds 792 msec
