                         Program Version 5.0.3 -  RELEASE  -
|  1> !ri-mp2 aug-cc-pvtz aug-cc-pvtz/c tightscf
|  2> %pal nprocs 16 end
|  3>
|  4> * xyz 0 1
|  5> O     0.662791    2.150274   -1.440821
|  6> O    -0.662791   -2.150274   -1.440821
|  7> N    -1.126502    1.290107    1.322386
|  8> N     1.126502   -1.290107    1.322386
|  9> C    -0.235728    0.702221    0.369706
| 10> C     0.235728   -0.702221    0.369706
| 11> C     0.235728    1.488873   -0.589450
| 12> C    -0.235728   -1.488873   -0.589450
| 13> H    -0.752204    1.293584    2.261984
| 14> H    -2.038657    0.851873    1.326339
| 15> H     0.752204   -1.293584    2.261984
| 16> H     2.038657   -0.851873    1.326339
| 17> *
| 18>
| 19>                          ****END OF INPUT****

CARTESIAN COORDINATES (ANGSTROEM)
---------------------------------
  O      0.662791    2.150274   -1.440821
  O     -0.662791   -2.150274   -1.440821
  N     -1.126502    1.290107    1.322386
  N      1.126502   -1.290107    1.322386
  C     -0.235728    0.702221    0.369706
  C      0.235728   -0.702221    0.369706
  C      0.235728    1.488873   -0.589450
  C     -0.235728   -1.488873   -0.589450
  H     -0.752204    1.293584    2.261984
  H     -2.038657    0.851873    1.326339
  H      0.752204   -1.293584    2.261984
  H      2.038657   -0.851873    1.326339

 Total Charge           Charge          ....    0
 Multiplicity           Mult            ....    1
 Number of Electrons    NEL             ....   58
 Basis Dimension        Dim             ....  460

ORBITAL ENERGIES
----------------

  NO   OCC          E(Eh)            E(eV)
   0   2.0000     -20.634811      -561.5017
   1   2.0000     -20.634810      -561.5017
   2   2.0000     -15.576971      -423.8709
   3   2.0000     -15.576970      -423.8709
   4   2.0000     -11.386222      -309.8348
   5   2.0000     -11.386220      -309.8348
   6   2.0000     -11.288166      -307.1666
   7   2.0000     -11.287460      -307.1474
   8   2.0000      -1.480765       -40.2937
   9   2.0000      -1.479968       -40.2720
  10   2.0000      -1.238595       -33.7039
  11   2.0000      -1.200998       -32.6808
  12   2.0000      -1.060274       -28.8515
  13   2.0000      -0.978368       -26.6227
  14   2.0000      -0.778319       -21.1791
  15   2.0000      -0.748642       -20.3716
  16   2.0000      -0.713431       -19.4134
  17   2.0000      -0.700029       -19.0488
  18   2.0000      -0.696851       -18.9623
  19   2.0000      -0.676794       -18.4165
  20   2.0000      -0.664428       -18.0800
  21   2.0000      -0.642246       -17.4764
  22   2.0000      -0.639826       -17.4106
  23   2.0000      -0.601905       -16.3787
  24   2.0000      -0.584339       -15.9007
  25   2.0000      -0.461860       -12.5679
  26   2.0000      -0.424160       -11.5420
  27   2.0000      -0.381710       -10.3869
  28   2.0000      -0.340934        -9.2773
  29   0.0000       0.018045         0.4910
  30   0.0000       0.033496         0.9115
  31   0.0000       0.044173         1.2020
  32   0.0000       0.044365         1.2072
  33   0.0000       0.063758         1.7349

MULLIKEN ATOMIC CHARGES
-----------------------
   0 O :   -0.548841
   1 O :   -0.548841
   2 N :   -0.643773
   3 N :   -0.643773
   4 C :    0.586309
   5 C :    0.586309
   6 C :    0.274437
   7 C :    0.274437
   8 H :    0.154927
   9 H :    0.176941
  10 H :    0.154927
  11 H :    0.176941
Sum of atomic charges:   -0.0000000

LOEWDIN ATOMIC CHARGES
----------------------
   0 O :    0.431426
   1 O :    0.431426
   2 N :    0.789355
   3 N :    0.789355
   4 C :   -0.339731
   5 C :   -0.339731
   6 C :   -0.236580
   7 C :   -0.236580
   8 H :   -0.323898
   9 H :   -0.320573
  10 H :   -0.323898
  11 H :   -0.320573

  Mayer bond orders larger than 0.100000
B(  0-O ,  6-C ) :   1.7484 B(  1-O ,  7-C ) :   1.7484 B(  2-N ,  4-C ) :   0.5191
B(  2-N ,  6-C ) :   0.1356 B(  2-N ,  8-H ) :   0.9647 B(  2-N ,  9-H ) :   0.9535
B(  3-N ,  5-C ) :   0.5191 B(  3-N ,  7-C ) :   0.1356 B(  3-N , 10-H ) :   0.9647
B(  3-N , 11-H ) :   0.9535 B(  4-C ,  5-C ) :   1.0634 B(  4-C ,  6-C ) :   1.2417
B(  4-C ,  7-C ) :   0.1240 B(  5-C ,  6-C ) :   0.1240 B(  5-C ,  7-C ) :   1.2417
B(  6-C ,  7-C ) :   0.1383

MP2 TOTAL ENERGY:     -413.999415758 Eh
FINAL SINGLE POINT ENERGY      -413.999415758402

DIPOLE MOMENT
-------------
                                X             Y             Z
Electronic contribution:     -0.00000      -0.00000      -5.53413
Nuclear contribution   :      0.00000       0.00000       6.94528
                        -----------------------------------------
Total Dipole Moment    :     -0.00000      -0.00000       1.41114
                        -----------------------------------------
Magnitude (a.u.)       :      1.41114
Magnitude (Debye)      :      3.58684

Rotational constants in cm-1:     0.083380     0.051663     0.041620
Rotational constants in MHz :  2499.682586  1548.806713  1247.735039

                             ****ORCA TERMINATED NORMALLY****
TOTAL RUN TIME: 0 days 0 hours 3 minutes 33 seconds 364 msec
