                         Program Version 5.0.3 -  RELEASE  -
|  1> !ri-mp2 aug-cc-pvtz aug-cc-pvtz/c tightscf
|  2> %pal nprocs 16 end
|  3>
|  4> * xyz 0 1
|  5> C      2.394338   -0.198378    0.010397
|  6> C     -1.213963    0.512011   -0.011820
|  7> C      0.040704   -0.342423    0.060690
|  8> N     -2.400419   -0.343513    0.068122
|  9> O      1.170345    0.499841   -0.068361
| 10> H      3.193257    0.531998   -0.100922
| 11> H      2.481000   -0.946782   -0.786913
| 12> H      2.505379   -0.705551    0.976378
| 13> H     -1.223477    1.192544    0.840371
| 14> H     -1.165713    1.129196   -0.917074
| 15> H      0.034198   -1.091761   -0.745001
| 16> H      0.066402   -0.885403    1.013302
| 17> H     -2.543778   -0.851532   -0.796036
| 18> H     -3.233572    0.205897    0.230329
| 19> *
| 20>
| 21>                          ****END OF INPUT****

CARTESIAN COORDINATES (ANGSTROEM)
---------------------------------
  C      2.394338   -0.198378    0.010397
  C     -1.213963    0.512011   -0.011820
  C      0.040704   -0.342423    0.060690
  N     -2.400419   -0.343513    0.068122
  O      1.170345    0.499841   -0.068361
  H      3.193257    0.531998   -0.100922
  H      2.481000   -0.946782   -0.786913
  H      2.505379   -0.705551    0.976378
  H     -1.223477    1.192544    0.840371
  H     -1.165713    1.129196   -0.917074
  H      0.034198   -1.091761   -0.745001
  H      0.066402   -0.885403    1.013302
  H     -2.543778   -0.851532   -0.796036
  H     -3.233572    0.205897    0.230329

 Total Charge           Charge          ....    0
 Multiplicity           Mult            ....    1
 Number of Electrons    NEL             ....   42
 Basis Dimension        Dim             ....  437

ORBITAL ENERGIES
----------------

  NO   OCC          E(Eh)            E(eV)
   0   2.0000     -20.554012      -559.3031
   1   2.0000     -15.542462      -422.9319
   2   2.0000     -11.268670      -306.6361
   3   2.0000     -11.268252      -306.6247
   4   2.0000     -11.246331      -306.0282
   5   2.0000      -1.371439       -37.3187
   6   2.0000      -1.178747       -32.0753
   7   2.0000      -0.995254       -27.0822
   8   2.0000      -0.899565       -24.4784
   9   2.0000      -0.821546       -22.3554
  10   2.0000      -0.682658       -18.5761
  11   2.0000      -0.662503       -18.0276
  12   2.0000      -0.646100       -17.5813
  13   2.0000      -0.618346       -16.8261
  14   2.0000      -0.590415       -16.0660
  15   2.0000      -0.563416       -15.3313
  16   2.0000      -0.514838       -14.0094
  17   2.0000      -0.498266       -13.5585
  18   2.0000      -0.474453       -12.9105
  19   2.0000      -0.421180       -11.4609
  20   2.0000      -0.393391       -10.7047
  21   0.0000       0.029427         0.8007
  22   0.0000       0.035127         0.9559
  23   0.0000       0.040375         1.0987
  24   0.0000       0.043973         1.1966
  25   0.0000       0.055492         1.5100

MULLIKEN ATOMIC CHARGES
-----------------------
   0 C :   -0.832205
   1 C :   -0.230842
   2 C :   -0.147104
   3 N :   -0.592383
   4 O :   -0.595900
   5 H :    0.347366
   6 H :    0.335716
   7 H :    0.333337
   8 H :    0.303025
   9 H :    0.290034
  10 H :    0.283027
  11 H :    0.288728
  12 H :    0.112666
  13 H :    0.104535
Sum of atomic charges:    0.0000000

LOEWDIN ATOMIC CHARGES
----------------------
   0 C :    0.311370
   1 C :    0.143039
   2 C :   -0.009076
   3 N :    0.832413
   4 O :    0.544979
   5 H :   -0.189702
   6 H :   -0.180064
   7 H :   -0.179822
   8 H :   -0.155184
   9 H :   -0.150772
  10 H :   -0.153615
  11 H :   -0.154387
  12 H :   -0.328948
  13 H :   -0.330230

  Mayer bond orders larger than 0.100000
B(  0-C ,  4-O ) :   0.9581 B(  0-C ,  5-H ) :   0.9422 B(  0-C ,  6-H ) :   0.8736
B(  0-C ,  7-H ) :   0.8735 B(  1-C ,  2-C ) :   0.9313 B(  1-C ,  3-N ) :   0.7954
B(  1-C ,  8-H ) :   0.9185 B(  1-C ,  9-H ) :   0.9327 B(  2-C ,  4-O ) :   0.8436
B(  2-C , 10-H ) :   0.9139 B(  2-C , 11-H ) :   0.9071 B(  3-N , 12-H ) :   0.9888
B(  3-N , 13-H ) :   1.0013

MP2 TOTAL ENERGY:     -249.225309610 Eh
FINAL SINGLE POINT ENERGY      -249.225309609668

DIPOLE MOMENT
-------------
                                X             Y             Z
Electronic contribution:     -0.20570       1.30193      -0.00519
Nuclear contribution   :      0.12398      -1.48654      -0.30060
                        -----------------------------------------
Total Dipole Moment    :     -0.08172      -0.18461      -0.30579
                        -----------------------------------------
Magnitude (a.u.)       :      0.36642
Magnitude (Debye)      :      0.93138

Rotational constants in cm-1:     0.721038     0.070943     0.067478
Rotational constants in MHz : 21616.178111  2126.819788  2022.945870

                             ****ORCA TERMINATED NORMALLY****
TOTAL RUN TIME: 0 days 0 hours 2 minutes 16 seconds 31 msec
