                         Program Version 5.0.3 -  RELEASE  -
|  1> !ri-mp2 aug-cc-pvtz aug-cc-pvtz/c tightscf
|  2> %pal nprocs 16 end
|  3>
|  4> * xyz 0 1
|  5> C    -1.966141   -0.243997    0.652074
|  6> C     1.427449   -0.406198   -0.004522
|  7> C     0.548506    0.597372   -0.160463
|  8> C     1.159927   -1.840030   -0.373853
|  9> C     2.811134   -0.200827    0.559532
| 10> C     0.786607    2.053943    0.137899
| 11> O    -3.126754   -0.539822    0.672071
| 12> S    -1.103623    0.293545   -0.820783
| 13> H    -1.304658   -0.279475    1.536228
| 14> H     1.992891   -2.231161   -0.963195
| 15> H     1.099429   -2.460899    0.524518
| 16> H     0.242889   -1.970157   -0.939207
| 17> H     2.984133    0.790914    0.963815
| 18> H     3.562165   -0.391258   -0.212287
| 19> H     2.996780   -0.925244    1.356070
| 20> H     0.160197    2.390423    0.967818
| 21> H     1.822753    2.273115    0.382174
| 22> H     0.510533    2.664030   -0.723971
| 23> *
| 24>
| 25>                          ****END OF INPUT****

CARTESIAN COORDINATES (ANGSTROEM)
---------------------------------
  C     -1.966141   -0.243997    0.652074
  C      1.427449   -0.406198   -0.004522
  C      0.548506    0.597372   -0.160463
  C      1.159927   -1.840030   -0.373853
  C      2.811134   -0.200827    0.559532
  C      0.786607    2.053943    0.137899
  O     -3.126754   -0.539822    0.672071
  S     -1.103623    0.293545   -0.820783
  H     -1.304658   -0.279475    1.536228
  H      1.992891   -2.231161   -0.963195
  H      1.099429   -2.460899    0.524518
  H      0.242889   -1.970157   -0.939207
  H      2.984133    0.790914    0.963815
  H      3.562165   -0.391258   -0.212287
  H      2.996780   -0.925244    1.356070
  H      0.160197    2.390423    0.967818
  H      1.822753    2.273115    0.382174
  H      0.510533    2.664030   -0.723971

 Total Charge           Charge          ....    0
 Multiplicity           Mult            ....    1
 Number of Electrons    NEL             ....   70
 Basis Dimension        Dim             ....  602

ORBITAL ENERGIES
----------------

  NO   OCC          E(Eh)            E(eV)
   0   2.0000     -91.972097     -2502.6880
   1   2.0000     -20.565801      -559.6239
   2   2.0000     -11.362393      -309.1864
   3   2.0000     -11.271951      -306.7254
   4   2.0000     -11.268348      -306.6273
   5   2.0000     -11.238623      -305.8185
   6   2.0000     -11.236119      -305.7503
   7   2.0000     -11.232662      -305.6563
   8   2.0000      -8.973154      -244.1719
   9   2.0000      -6.654133      -181.0682
  10   2.0000      -6.653268      -181.0446
  11   2.0000      -6.652620      -181.0270
  12   2.0000      -1.408475       -38.3265
  13   2.0000      -1.138458       -30.9790
  14   2.0000      -1.044382       -28.4191
  15   2.0000      -0.989545       -26.9269
  16   2.0000      -0.952349       -25.9147
  17   2.0000      -0.891657       -24.2632
  18   2.0000      -0.805582       -21.9210
  19   2.0000      -0.707333       -19.2475
  20   2.0000      -0.669077       -18.2065
  21   2.0000      -0.649922       -17.6853
  22   2.0000      -0.626358       -17.0441
  23   2.0000      -0.614023       -16.7084
  24   2.0000      -0.589877       -16.0514
  25   2.0000      -0.573117       -15.5953
  26   2.0000      -0.556435       -15.1414
  27   2.0000      -0.552895       -15.0450
  28   2.0000      -0.550609       -14.9828
  29   2.0000      -0.533790       -14.5252
  30   2.0000      -0.523210       -14.2373
  31   2.0000      -0.461298       -12.5526
  32   2.0000      -0.422258       -11.4902
  33   2.0000      -0.374892       -10.2013
  34   2.0000      -0.355866        -9.6836
  35   0.0000       0.022942         0.6243
  36   0.0000       0.030914         0.8412
  37   0.0000       0.034157         0.9295
  38   0.0000       0.037208         1.0125
  39   0.0000       0.050954         1.3865

MULLIKEN ATOMIC CHARGES
-----------------------
   0 C :    0.064124
   1 C :    0.628176
   2 C :    0.487600
   3 C :   -1.122798
   4 C :   -1.109424
   5 C :   -0.963567
   6 O :   -0.719812
   7 S :   -0.360920
   8 H :    0.541562
   9 H :    0.253981
  10 H :    0.270633
  11 H :    0.324822
  12 H :    0.331971
  13 H :    0.268476
  14 H :    0.227403
  15 H :    0.280077
  16 H :    0.306910
  17 H :    0.290788
Sum of atomic charges:    0.0000000

LOEWDIN ATOMIC CHARGES
----------------------
   0 C :   -0.616699
   1 C :   -0.174131
   2 C :   -0.457048
   3 C :    0.541523
   4 C :    0.580735
   5 C :    0.486375
   6 O :    0.337132
   7 S :    1.203555
   8 H :   -0.258025
   9 H :   -0.164830
  10 H :   -0.161218
  11 H :   -0.230747
  12 H :   -0.200598
  13 H :   -0.155691
  14 H :   -0.160482
  15 H :   -0.175043
  16 H :   -0.207586
  17 H :   -0.187224

  Mayer bond orders larger than 0.100000
B(  0-C ,  6-O ) :   1.5788 B(  0-C ,  7-S ) :   1.1300 B(  0-C ,  8-H ) :   0.6531
B(  1-C ,  2-C ) :   1.7494 B(  1-C ,  3-C ) :   0.7216 B(  1-C ,  4-C ) :   0.6955
B(  2-C ,  5-C ) :   0.6482 B(  2-C ,  7-S ) :   0.7607 B(  3-C ,  9-H ) :   1.0412
B(  3-C , 10-H ) :   1.0014 B(  3-C , 11-H ) :   0.9434 B(  4-C , 12-H ) :   0.8891
B(  4-C , 13-H ) :   1.0323 B(  4-C , 14-H ) :   1.0893 B(  5-C ,  7-S ) :  -0.1065
B(  5-C , 15-H ) :   1.0047 B(  5-C , 16-H ) :   0.8857 B(  5-C , 17-H ) :   1.0423

MP2 TOTAL ENERGY:     -706.968191554 Eh
FINAL SINGLE POINT ENERGY      -706.968191553682

DIPOLE MOMENT
-------------
                                X             Y             Z
Electronic contribution:    -12.24929       0.29944      -2.62083
Nuclear contribution   :     14.18787      -0.15880       2.95622
                        -----------------------------------------
Total Dipole Moment    :      1.93858       0.14064       0.33539
                        -----------------------------------------
Magnitude (a.u.)       :      1.97240
Magnitude (Debye)      :      5.01344

Rotational constants in cm-1:     0.088805     0.035329     0.029591
Rotational constants in MHz :  2662.312258  1059.141772   887.112436

                             ****ORCA TERMINATED NORMALLY****
TOTAL RUN TIME: 0 days 0 hours 8 minutes 20 seconds 999 msec
