                         Program Version 5.0.3 -  RELEASE  -
|  1> !ri-mp2 aug-cc-pvtz aug-cc-pvtz/c tightscf
|  2> %pal nprocs 16 end
|  3>
|  4> * xyz 0 1
|  5> N      0.585676    1.381629   -0.230174
|  6> H     -0.201181    1.952915    0.050435
|  7> H      1.420699    1.844860    0.107244
|  8> C      1.770975   -0.732575   -0.002480
|  9> H      1.914810   -0.792002   -1.082494
| 10> H      2.641620   -0.231533    0.426249
| 11> H      1.738854   -1.745293    0.401057
| 12> C      0.486227    0.022813    0.322074
| 13> H      0.370190    0.037096    1.417614
| 14> C     -0.738648   -0.689705   -0.258545
| 15> H     -0.627441   -0.732000   -1.345347
| 16> H     -0.732698   -1.721265    0.103456
| 17> C     -2.075899   -0.042076    0.099323
| 18> H     -2.909692   -0.633466   -0.280918
| 19> H     -2.171947    0.956485   -0.330085
| 20> H     -2.198874    0.042059    1.181772
| 21> *
| 22>
| 23>                          ****END OF INPUT****

CARTESIAN COORDINATES (ANGSTROEM)
---------------------------------
  N      0.585676    1.381629   -0.230174
  H     -0.201181    1.952915    0.050435
  H      1.420699    1.844860    0.107244
  C      1.770975   -0.732575   -0.002480
  H      1.914810   -0.792002   -1.082494
  H      2.641620   -0.231533    0.426249
  H      1.738854   -1.745293    0.401057
  C      0.486227    0.022813    0.322074
  H      0.370190    0.037096    1.417614
  C     -0.738648   -0.689705   -0.258545
  H     -0.627441   -0.732000   -1.345347
  H     -0.732698   -1.721265    0.103456
  C     -2.075899   -0.042076    0.099323
  H     -2.909692   -0.633466   -0.280918
  H     -2.171947    0.956485   -0.330085
  H     -2.198874    0.042059    1.181772

 Total Charge           Charge          ....    0
 Multiplicity           Mult            ....    1
 Number of Electrons    NEL             ....   42
 Basis Dimension        Dim             ....  483

ORBITAL ENERGIES
----------------

  NO   OCC          E(Eh)            E(eV)
   0   2.0000     -15.534564      -422.7170
   1   2.0000     -11.250024      -306.1287
   2   2.0000     -11.213452      -305.1335
   3   2.0000     -11.211472      -305.0797
   4   2.0000     -11.208529      -304.9996
   5   2.0000      -1.181545       -32.1515
   6   2.0000      -1.036286       -28.1988
   7   2.0000      -0.976553       -26.5734
   8   2.0000      -0.861254       -23.4359
   9   2.0000      -0.770152       -20.9569
  10   2.0000      -0.657410       -17.8890
  11   2.0000      -0.655037       -17.8245
  12   2.0000      -0.583615       -15.8810
  13   2.0000      -0.574586       -15.6353
  14   2.0000      -0.561693       -15.2844
  15   2.0000      -0.517362       -14.0781
  16   2.0000      -0.513308       -13.9678
  17   2.0000      -0.479294       -13.0423
  18   2.0000      -0.476761       -12.9733
  19   2.0000      -0.458542       -12.4776
  20   2.0000      -0.384861       -10.4726
  21   0.0000       0.030013         0.8167
  22   0.0000       0.035972         0.9789
  23   0.0000       0.038370         1.0441
  24   0.0000       0.040574         1.1041
  25   0.0000       0.055123         1.5000

MULLIKEN ATOMIC CHARGES
-----------------------
   0 N :   -0.700019
   1 H :    0.103325
   2 H :    0.075410
   3 C :   -1.064142
   4 H :    0.271680
   5 H :    0.263028
   6 H :    0.270244
   7 C :    0.605636
   8 H :    0.290603
   9 C :   -0.538222
  10 H :    0.301424
  11 H :    0.260588
  12 C :   -0.953356
  13 H :    0.257221
  14 H :    0.284974
  15 H :    0.271606
Sum of atomic charges:   -0.0000000

LOEWDIN ATOMIC CHARGES
----------------------
   0 N :    0.857290
   1 H :   -0.338005
   2 H :   -0.323130
   3 C :    0.581651
   4 H :   -0.162679
   5 H :   -0.168884
   6 H :   -0.167929
   7 C :   -0.177206
   8 H :   -0.131798
   9 C :    0.264008
  10 H :   -0.144844
  11 H :   -0.150423
  12 C :    0.581923
  13 H :   -0.171428
  14 H :   -0.180763
  15 H :   -0.167781

  Mayer bond orders larger than 0.100000
B(  0-N ,  1-H ) :   0.9740 B(  0-N ,  2-H ) :   1.0195 B(  0-N ,  7-C ) :   0.4089
B(  0-N ,  9-C ) :   0.1426 B(  3-C ,  4-H ) :   0.9822 B(  3-C ,  5-H ) :   0.9985
B(  3-C ,  6-H ) :   0.9708 B(  3-C ,  7-C ) :   0.7133 B(  7-C ,  8-H ) :   0.9043
B(  7-C ,  9-C ) :   0.8283 B(  9-C , 10-H ) :   0.9274 B(  9-C , 11-H ) :   0.9463
B(  9-C , 12-C ) :   0.8550 B( 12-C , 13-H ) :   1.0112 B( 12-C , 14-H ) :   0.9414
B( 12-C , 15-H ) :   0.9470

MP2 TOTAL ENERGY:     -213.349683969 Eh
FINAL SINGLE POINT ENERGY      -213.349683968557

DIPOLE MOMENT
-------------
                                X             Y             Z
Electronic contribution:      0.78620       1.10520      -0.21026
Nuclear contribution   :     -0.81126      -1.09362       0.69846
                        -----------------------------------------
Total Dipole Moment    :     -0.02506       0.01158       0.48820
                        -----------------------------------------
Magnitude (a.u.)       :      0.48898
Magnitude (Debye)      :      1.24290

Rotational constants in cm-1:     0.260653     0.113432     0.087102
Rotational constants in MHz :  7814.176086  3400.613001  2611.256438

                             ****ORCA TERMINATED NORMALLY****
TOTAL RUN TIME: 0 days 0 hours 3 minutes 28 seconds 193 msec
