                         Program Version 5.0.3 -  RELEASE  -
|  1> !ri-mp2 aug-cc-pvtz aug-cc-pvtz/c tightscf
|  2> %pal nprocs 16 end
|  3>
|  4> * xyz 0 1
|  5> O     3.181131   -0.527751   -0.000030
|  6> N    -0.504861   -0.979797    0.000012
|  7> N    -1.316186    1.134512    0.000007
|  8> N    -1.860177   -0.974625    0.000024
|  9> C    -0.220224    0.316198    0.000000
| 10> C    -2.321692    0.286099    0.000022
| 11> C     1.127446    0.850818   -0.000016
| 12> C     2.212545    0.104559   -0.000024
| 13> H    -2.366760   -1.842693    0.000036
| 14> H    -3.369334    0.536264    0.000030
| 15> H     1.267161    1.921766   -0.000023
| 16> *
| 17>
| 18>                          ****END OF INPUT****

CARTESIAN COORDINATES (ANGSTROEM)
---------------------------------
  O      3.181131   -0.527751   -0.000030
  N     -0.504861   -0.979797    0.000012
  N     -1.316186    1.134512    0.000007
  N     -1.860177   -0.974625    0.000024
  C     -0.220224    0.316198    0.000000
  C     -2.321692    0.286099    0.000022
  C      1.127446    0.850818   -0.000016
  C      2.212545    0.104559   -0.000024
  H     -2.366760   -1.842693    0.000036
  H     -3.369334    0.536264    0.000030
  H      1.267161    1.921766   -0.000023

 Total Charge           Charge          ....    0
 Multiplicity           Mult            ....    1
 Number of Electrons    NEL             ....   56
 Basis Dimension        Dim             ....  437

ORBITAL ENERGIES
----------------

  NO   OCC          E(Eh)            E(eV)
   0   2.0000     -20.640388      -561.6535
   1   2.0000     -15.659309      -426.1115
   2   2.0000     -15.595170      -424.3662
   3   2.0000     -15.564705      -423.5371
   4   2.0000     -11.393090      -310.0217
   5   2.0000     -11.328719      -308.2701
   6   2.0000     -11.316466      -307.9367
   7   2.0000     -11.250979      -306.1547
   8   2.0000      -1.486134       -40.4398
   9   2.0000      -1.421125       -38.6708
  10   2.0000      -1.208221       -32.8774
  11   2.0000      -1.143706       -31.1218
  12   2.0000      -1.058314       -28.7982
  13   2.0000      -0.881395       -23.9840
  14   2.0000      -0.842092       -22.9145
  15   2.0000      -0.778793       -21.1920
  16   2.0000      -0.754069       -20.5193
  17   2.0000      -0.696149       -18.9432
  18   2.0000      -0.658342       -17.9144
  19   2.0000      -0.645237       -17.5578
  20   2.0000      -0.641969       -17.4689
  21   2.0000      -0.618602       -16.8330
  22   2.0000      -0.570517       -15.5246
  23   2.0000      -0.515450       -14.0261
  24   2.0000      -0.455261       -12.3883
  25   2.0000      -0.453328       -12.3357
  26   2.0000      -0.411294       -11.1919
  27   2.0000      -0.327421        -8.9096
  28   0.0000       0.020140         0.5480
  29   0.0000       0.034013         0.9255
  30   0.0000       0.038613         1.0507
  31   0.0000       0.065463         1.7813
  32   0.0000       0.069809         1.8996

MULLIKEN ATOMIC CHARGES
-----------------------
   0 O :   -0.526636
   1 N :   -0.727476
   2 N :   -0.410588
   3 N :    0.173260
   4 C :    0.486854
   5 C :   -0.642836
   6 C :    0.058570
   7 C :    0.500127
   8 H :    0.160889
   9 H :    0.636793
  10 H :    0.291042
Sum of atomic charges:    0.0000000

LOEWDIN ATOMIC CHARGES
----------------------
   0 O :    0.436893
   1 N :    0.316639
   2 N :    0.373633
   3 N :    0.331220
   4 C :   -0.616206
   5 C :   -0.071941
   6 C :    0.130559
   7 C :   -0.241143
   8 H :   -0.260505
   9 H :   -0.168251
  10 H :   -0.230897

  Mayer bond orders larger than 0.100000
B(  0-O ,  6-C ) :  -0.1729 B(  0-O ,  7-C ) :   1.8836 B(  1-N ,  3-N ) :   0.4811
B(  1-N ,  4-C ) :   1.2948 B(  1-N ,  6-C ) :  -0.1448 B(  2-N ,  4-C ) :   0.7161
B(  2-N ,  5-C ) :   1.4451 B(  3-N ,  5-C ) :   1.2847 B(  3-N ,  8-H ) :   1.0549
B(  4-C ,  5-C ) :  -0.3093 B(  4-C ,  6-C ) :   0.4438 B(  4-C ,  7-C ) :   0.1231
B(  5-C ,  9-H ) :   0.5217 B(  6-C ,  7-C ) :   1.4258 B(  6-C , 10-H ) :   0.9098

MP2 TOTAL ENERGY:     -392.984261185 Eh
FINAL SINGLE POINT ENERGY      -392.984261185193

DIPOLE MOMENT
-------------
                                X             Y             Z
Electronic contribution:      2.95594      -0.76358      -0.00003
Nuclear contribution   :     -4.28100       0.58059       0.00004
                        -----------------------------------------
Total Dipole Moment    :     -1.32505      -0.18300       0.00001
                        -----------------------------------------
Magnitude (a.u.)       :      1.33763
Magnitude (Debye)      :      3.39998

Rotational constants in cm-1:     0.249354     0.042548     0.036346
Rotational constants in MHz :  7475.459801  1275.566514  1089.637473

                             ****ORCA TERMINATED NORMALLY****
TOTAL RUN TIME: 0 days 0 hours 3 minutes 12 seconds 859 msec
