                         Program Version 5.0.3 -  RELEASE  -
|  1> !ri-mp2 aug-cc-pvtz aug-cc-pvtz/c tightscf
|  2> %pal nprocs 16 end
|  3> %maxcore 3800
|  4>
|  5> * xyz 0 1
|  6> C     4.003632    0.781182   -0.318561
|  7> C     2.827443    1.218501    0.371503
|  8> C    -2.371864    1.192790   -0.026218
|  9> C     3.730184   -0.458141   -0.785971
| 10> C    -4.074244   -0.047206   -0.382089
| 11> C    -1.871478   -0.079363   -0.130780
| 12> C     1.920234    0.210847    0.273998
| 13> C     0.008227   -1.281057    1.209323
| 14> C    -0.510143   -0.639727   -0.057973
| 15> C     0.549025    0.058342    0.769007
| 16> N    -3.738614    1.201606   -0.180938
| 17> N    -2.984446   -0.866017   -0.361682
| 18> O     2.461749   -0.825836   -0.433788
| 19> H     4.925307    1.321844   -0.446217
| 20> H     2.677596    2.159109    0.872631
| 21> H    -1.821739    2.102483    0.144386
| 22> H     4.287911   -1.179392   -1.354371
| 23> H    -5.072787   -0.417046   -0.546593
| 24> H    -0.640952   -1.290605    2.073149
| 25> H     0.657884   -2.137778    1.105053
| 26> H    -0.139037   -1.085527   -0.973867
| 27> H     0.211409    0.911932    1.338833
| 28> H    -2.984259   -1.864464   -0.477790
| 29> *
| 30>
| 31>                          ****END OF INPUT****

CARTESIAN COORDINATES (ANGSTROEM)
---------------------------------
  C      4.003632    0.781182   -0.318561
  C      2.827443    1.218501    0.371503
  C     -2.371864    1.192790   -0.026218
  C      3.730184   -0.458141   -0.785971
  C     -4.074244   -0.047206   -0.382089
  C     -1.871478   -0.079363   -0.130780
  C      1.920234    0.210847    0.273998
  C      0.008227   -1.281057    1.209323
  C     -0.510143   -0.639727   -0.057973
  C      0.549025    0.058342    0.769007
  N     -3.738614    1.201606   -0.180938
  N     -2.984446   -0.866017   -0.361682
  O      2.461749   -0.825836   -0.433788
  H      4.925307    1.321844   -0.446217
  H      2.677596    2.159109    0.872631
  H     -1.821739    2.102483    0.144386
  H      4.287911   -1.179392   -1.354371
  H     -5.072787   -0.417046   -0.546593
  H     -0.640952   -1.290605    2.073149
  H      0.657884   -2.137778    1.105053
  H     -0.139037   -1.085527   -0.973867
  H      0.211409    0.911932    1.338833
  H     -2.984259   -1.864464   -0.477790

 Total Charge           Charge          ....    0
 Multiplicity           Mult            ....    1
 Number of Electrons    NEL             ....   92
 Basis Dimension        Dim             ....  828

ORBITAL ENERGIES
----------------

  NO   OCC          E(Eh)            E(eV)
   0   2.0000     -20.622488      -561.1664
   1   2.0000     -15.617451      -424.9725
   2   2.0000     -15.542216      -422.9252
   3   2.0000     -11.297406      -307.4181
   4   2.0000     -11.293800      -307.3199
   5   2.0000     -11.285413      -307.0917
   6   2.0000     -11.265990      -306.5632
   7   2.0000     -11.256423      -306.3028
   8   2.0000     -11.255564      -306.2795
   9   2.0000     -11.242247      -305.9171
  10   2.0000     -11.238246      -305.8082
  11   2.0000     -11.230522      -305.5980
  12   2.0000     -11.224918      -305.4456
  13   2.0000      -1.458161       -39.6786
  14   2.0000      -1.340274       -36.4707
  15   2.0000      -1.178161       -32.0594
  16   2.0000      -1.160151       -31.5693
  17   2.0000      -1.085206       -29.5300
  18   2.0000      -1.027054       -27.9476
  19   2.0000      -0.999602       -27.2005
  20   2.0000      -0.872731       -23.7482
  21   2.0000      -0.855482       -23.2788
  22   2.0000      -0.822197       -22.3731
  23   2.0000      -0.811359       -22.0782
  24   2.0000      -0.790429       -21.5087
  25   2.0000      -0.759224       -20.6595
  26   2.0000      -0.733951       -19.9718
  27   2.0000      -0.724397       -19.7118
  28   2.0000      -0.645924       -17.5765
  29   2.0000      -0.642232       -17.4760
  30   2.0000      -0.637310       -17.3421
  31   2.0000      -0.609777       -16.5929
  32   2.0000      -0.597168       -16.2498
  33   2.0000      -0.580988       -15.8095
  34   2.0000      -0.569488       -15.4966
  35   2.0000      -0.564199       -15.3526
  36   2.0000      -0.547934       -14.9100
  37   2.0000      -0.544505       -14.8167
  38   2.0000      -0.535600       -14.5744
  39   2.0000      -0.465157       -12.6576
  40   2.0000      -0.458429       -12.4745
  41   2.0000      -0.425345       -11.5742
  42   2.0000      -0.398101       -10.8329
  43   2.0000      -0.396903       -10.8003
  44   2.0000      -0.312154        -8.4941
  45   2.0000      -0.304068        -8.2741
  46   0.0000       0.022529         0.6131
  47   0.0000       0.027356         0.7444
  48   0.0000       0.032644         0.8883
  49   0.0000       0.036085         0.9819
  50   0.0000       0.041952         1.1416

MULLIKEN ATOMIC CHARGES
-----------------------
   0 C :   -0.541576
   1 C :   -1.225517
   2 C :   -0.602794
   3 C :   -0.676113
   4 C :   -0.918718
   5 C :    1.021189
   6 C :    1.146455
   7 C :   -1.107359
   8 C :    0.163693
   9 C :    0.226864
  10 N :   -0.618900
  11 N :   -0.223671
  12 O :   -0.409059
  13 H :    0.501735
  14 H :    0.430727
  15 H :    0.473339
  16 H :    0.707037
  17 H :    0.639346
  18 H :    0.371886
  19 H :    0.280884
  20 H :    0.141349
  21 H :    0.139011
  22 H :    0.080190
Sum of atomic charges:    0.0000000

LOEWDIN ATOMIC CHARGES
----------------------
   0 C :    0.173301
   1 C :    0.203009
   2 C :    0.025882
   3 C :   -0.020246
   4 C :   -0.078325
   5 C :   -0.186124
   6 C :   -0.330733
   7 C :    0.411262
   8 C :    0.058440
   9 C :    0.048428
  10 N :    0.346764
  11 N :    0.534625
  12 O :    0.587230
  13 H :   -0.194698
  14 H :   -0.186262
  15 H :   -0.193706
  16 H :   -0.196077
  17 H :   -0.180127
  18 H :   -0.146982
  19 H :   -0.153342
  20 H :   -0.139040
  21 H :   -0.141879
  22 H :   -0.241399

  Mayer bond orders larger than 0.100000
B(  0-C ,  1-C ) :   1.2059 B(  0-C ,  3-C ) :   1.2572 B(  0-C , 12-O ) :  -0.1218
B(  0-C , 13-H ) :   0.8415 B(  1-C ,  6-C ) :   1.0351 B(  1-C , 14-H ) :   1.0633
B(  2-C ,  4-C ) :  -0.1161 B(  2-C ,  5-C ) :   0.9808 B(  2-C ,  8-C ) :  -0.1075
B(  2-C , 10-N ) :   0.2505 B(  2-C , 11-N ) :  -0.1833 B(  2-C , 15-H ) :   0.9538
B(  3-C ,  6-C ) :  -0.1331 B(  3-C , 12-O ) :   1.2235 B(  3-C , 16-H ) :   0.4921
B(  4-C ,  5-C ) :  -0.5270 B(  4-C , 10-N ) :   1.4203 B(  4-C , 11-N ) :   1.5035
B(  4-C , 17-H ) :   0.4949 B(  5-C ,  8-C ) :   0.7168 B(  5-C ,  9-C ) :  -0.1475
B(  5-C , 10-N ) :   0.2894 B(  5-C , 11-N ) :   0.7194 B(  6-C ,  8-C ) :  -0.1389
B(  6-C ,  9-C ) :   0.6205 B(  6-C , 12-O ) :   0.7834 B(  6-C , 21-H ) :  -0.1485
B(  7-C ,  8-C ) :   1.0674 B(  7-C ,  9-C ) :   0.6651 B(  7-C , 18-H ) :   0.8119
B(  7-C , 19-H ) :   1.0105 B(  8-C ,  9-C ) :   0.6348 B(  8-C , 11-N ) :  -0.1251
B(  8-C , 20-H ) :   1.0333 B(  9-C , 21-H ) :   1.1988 B( 10-N , 11-N ) :  -0.1193
B( 11-N , 22-H ) :   1.1385

MP2 TOTAL ENERGY:     -570.664827203 Eh
FINAL SINGLE POINT ENERGY      -570.664827203256

DIPOLE MOMENT
-------------
                                X             Y             Z
Electronic contribution:     -1.54987       0.23666      -1.68828
Nuclear contribution   :      2.08355      -1.47834       1.71112
                        -----------------------------------------
Total Dipole Moment    :      0.53369      -1.24168       0.02285
                        -----------------------------------------
Magnitude (a.u.)       :      1.35171
Magnitude (Debye)      :      3.43577

Rotational constants in cm-1:     0.088367     0.012238     0.011557
Rotational constants in MHz :  2649.175028   366.880849   346.476543

                             ****ORCA TERMINATED NORMALLY****
TOTAL RUN TIME: 0 days 0 hours 21 minutes 10 seconds 899 msec
