                         Program Version 5.0.3 -  RELEASE  -
|  1> !ri-mp2 aug-cc-pvtz aug-cc-pvtz/c tightscf
|  2> %pal nprocs 16 end
|  3>
|  4> * xyz 0 1
|  5> C     0.000000     1.456520   -0.815071
|  6> C     1.261383    -0.728260   -0.815071
|  7> C    -1.261383    -0.728260   -0.815071
|  8> C     0.000000     0.000000   -0.370596
|  9> Cl    0.000000     0.000000    1.489306
| 10> H    -0.883600     1.977898   -0.450456
| 11> H     0.883600     1.977898   -0.450456
| 12> H     0.000000     1.501962   -1.906872
| 13> H     2.154710    -0.223729   -0.450456
| 14> H     1.271110    -1.754169   -0.450456
| 15> H     1.300737    -0.750981   -1.906872
| 16> H    -2.154710    -0.223729   -0.450456
| 17> H    -1.271110    -1.754169   -0.450456
| 18> H    -1.300737    -0.750981   -1.906872
| 19> *
| 20>
| 21>                          ****END OF INPUT****

CARTESIAN COORDINATES (ANGSTROEM)
---------------------------------
  C      0.000000    1.456520   -0.815071
  C      1.261383   -0.728260   -0.815071
  C     -1.261383   -0.728260   -0.815071
  C      0.000000    0.000000   -0.370596
  Cl     0.000000    0.000000    1.489306
  H     -0.883600    1.977898   -0.450456
  H      0.883600    1.977898   -0.450456
  H      0.000000    1.501962   -1.906872
  H      2.154710   -0.223729   -0.450456
  H      1.271110   -1.754169   -0.450456
  H      1.300737   -0.750981   -1.906872
  H     -2.154710   -0.223729   -0.450456
  H     -1.271110   -1.754169   -0.450456
  H     -1.300737   -0.750981   -1.906872

 Total Charge           Charge          ....    0
 Multiplicity           Mult            ....    1
 Number of Electrons    NEL             ....   50
 Basis Dimension        Dim             ....  441

ORBITAL ENERGIES
----------------

  NO   OCC          E(Eh)            E(eV)
   0   2.0000    -104.807592     -2851.9596
   1   2.0000     -11.309096      -307.7361
   2   2.0000     -11.228795      -305.5511
   3   2.0000     -11.228795      -305.5511
   4   2.0000     -11.228775      -305.5505
   5   2.0000     -10.531959      -286.5892
   6   2.0000      -7.998594      -217.6528
   7   2.0000      -7.997047      -217.6107
   8   2.0000      -7.997047      -217.6107
   9   2.0000      -1.149928       -31.2911
  10   2.0000      -1.022726       -27.8298
  11   2.0000      -0.953632       -25.9496
  12   2.0000      -0.953632       -25.9496
  13   2.0000      -0.753508       -20.5040
  14   2.0000      -0.632409       -17.2087
  15   2.0000      -0.621688       -16.9170
  16   2.0000      -0.621688       -16.9170
  17   2.0000      -0.561061       -15.2672
  18   2.0000      -0.561061       -15.2672
  19   2.0000      -0.530622       -14.4390
  20   2.0000      -0.500052       -13.6071
  21   2.0000      -0.500052       -13.6071
  22   2.0000      -0.471546       -12.8314
  23   2.0000      -0.423815       -11.5326
  24   2.0000      -0.423815       -11.5326
  25   0.0000       0.027967         0.7610
  26   0.0000       0.038290         1.0419
  27   0.0000       0.038290         1.0419
  28   0.0000       0.045204         1.2301
  29   0.0000       0.059006         1.6056

MULLIKEN ATOMIC CHARGES
-----------------------
   0 C :   -1.061525
   1 C :   -1.061524
   2 C :   -1.061524
   3 C :    1.089569
   4 Cl:   -0.582222
   5 H :    0.307071
   6 H :    0.307071
   7 H :    0.278265
   8 H :    0.307072
   9 H :    0.307071
  10 H :    0.278265
  11 H :    0.307072
  12 H :    0.307071
  13 H :    0.278265
Sum of atomic charges:    0.0000000

LOEWDIN ATOMIC CHARGES
----------------------
   0 C :    0.494401
   1 C :    0.494401
   2 C :    0.494401
   3 C :   -0.850161
   4 Cl:    0.914762
   5 H :   -0.177070
   6 H :   -0.177070
   7 H :   -0.161795
   8 H :   -0.177070
   9 H :   -0.177070
  10 H :   -0.161795
  11 H :   -0.177070
  12 H :   -0.177070
  13 H :   -0.161795

  Mayer bond orders larger than 0.100000
B(  0-C ,  3-C ) :   0.6667 B(  0-C ,  5-H ) :   0.9698 B(  0-C ,  6-H ) :   0.9698
B(  0-C ,  7-H ) :   0.9212 B(  1-C ,  3-C ) :   0.6667 B(  1-C ,  8-H ) :   0.9698
B(  1-C ,  9-H ) :   0.9698 B(  1-C , 10-H ) :   0.9212 B(  2-C ,  3-C ) :   0.6667
B(  2-C , 11-H ) :   0.9698 B(  2-C , 12-H ) :   0.9698 B(  2-C , 13-H ) :   0.9212
B(  3-C ,  4-Cl) :   0.5218

MP2 TOTAL ENERGY:     -617.219204902 Eh
FINAL SINGLE POINT ENERGY      -617.219204902198

DIPOLE MOMENT
-------------
                                X             Y             Z
Electronic contribution:      0.00000      -0.00000       9.66728
Nuclear contribution   :     -0.00000       0.00000     -10.70620
                        -----------------------------------------
Total Dipole Moment    :      0.00000      -0.00000      -1.03892
                        -----------------------------------------
Magnitude (a.u.)       :      1.03892
Magnitude (Debye)      :      2.64072

Rotational constants in cm-1:     0.150992     0.098536     0.098536
Rotational constants in MHz :  4526.614019  2954.031600  2954.031267

                             ****ORCA TERMINATED NORMALLY****
TOTAL RUN TIME: 0 days 0 hours 2 minutes 54 seconds 687 msec
