                         Program Version 5.0.3 -  RELEASE  -
|  1> !ri-mp2 aug-cc-pvtz aug-cc-pvtz/c tightscf
|  2> %pal nprocs 16 end
|  3>
|  4> * xyz 0 1
|  5> C      1.837929   -0.075225    0.168133
|  6> H      1.826268    0.039396    1.255725
|  7> H      2.650139   -0.742755   -0.108297
|  8> H      2.008448    0.898348   -0.296127
|  9> O      0.647190   -0.693975   -0.300207
| 10> C     -0.598702    1.412224   -0.036759
| 11> H     -0.014163    1.839066    0.780446
| 12> H     -0.198576    1.814610   -0.970439
| 13> H     -1.625342    1.752574    0.072846
| 14> C     -0.558029   -0.087441   -0.037725
| 15> C     -1.627694   -0.863197    0.124504
| 16> H     -2.606952   -0.428216    0.248327
| 17> H     -1.538361   -1.939393    0.110257
| 18> *
| 19>
| 20>                          ****END OF INPUT****

CARTESIAN COORDINATES (ANGSTROEM)
---------------------------------
  C      1.837929   -0.075225    0.168133
  H      1.826268    0.039396    1.255725
  H      2.650139   -0.742755   -0.108297
  H      2.008448    0.898348   -0.296127
  O      0.647190   -0.693975   -0.300207
  C     -0.598702    1.412224   -0.036759
  H     -0.014163    1.839066    0.780446
  H     -0.198576    1.814610   -0.970439
  H     -1.625342    1.752574    0.072846
  C     -0.558029   -0.087441   -0.037725
  C     -1.627694   -0.863197    0.124504
  H     -2.606952   -0.428216    0.248327
  H     -1.538361   -1.939393    0.110257

 Total Charge           Charge          ....    0
 Multiplicity           Mult            ....    1
 Number of Electrons    NEL             ....   40
 Basis Dimension        Dim             ....  414

ORBITAL ENERGIES
----------------

  NO   OCC          E(Eh)            E(eV)
   0   2.0000     -20.572665      -559.8107
   1   2.0000     -11.292052      -307.2723
   2   2.0000     -11.280143      -306.9483
   3   2.0000     -11.230218      -305.5898
   4   2.0000     -11.200065      -304.7693
   5   2.0000      -1.394762       -37.9534
   6   2.0000      -1.060621       -28.8610
   7   2.0000      -0.963153       -26.2087
   8   2.0000      -0.917966       -24.9791
   9   2.0000      -0.750680       -20.4270
  10   2.0000      -0.662339       -18.0232
  11   2.0000      -0.655878       -17.8473
  12   2.0000      -0.644988       -17.5510
  13   2.0000      -0.576475       -15.6867
  14   2.0000      -0.562176       -15.2976
  15   2.0000      -0.557808       -15.1787
  16   2.0000      -0.531100       -14.4520
  17   2.0000      -0.497472       -13.5369
  18   2.0000      -0.465646       -12.6709
  19   2.0000      -0.333016        -9.0618
  20   0.0000       0.028389         0.7725
  21   0.0000       0.037410         1.0180
  22   0.0000       0.038896         1.0584
  23   0.0000       0.043405         1.1811
  24   0.0000       0.054368         1.4794

MULLIKEN ATOMIC CHARGES
-----------------------
   0 C :   -0.832820
   1 H :    0.350019
   2 H :    0.376683
   3 H :    0.344609
   4 O :   -0.609311
   5 C :   -0.635685
   6 H :    0.268945
   7 H :    0.290835
   8 H :    0.264646
   9 C :    0.753286
  10 C :   -1.331497
  11 H :    0.312044
  12 H :    0.448245
Sum of atomic charges:    0.0000000

LOEWDIN ATOMIC CHARGES
----------------------
   0 C :    0.336925
   1 H :   -0.170906
   2 H :   -0.184227
   3 H :   -0.187625
   4 O :    0.551570
   5 C :    0.551373
   6 H :   -0.176437
   7 H :   -0.165294
   8 H :   -0.181252
   9 C :   -0.416787
  10 C :    0.516347
  11 H :   -0.241673
  12 H :   -0.232014

  Mayer bond orders larger than 0.100000
B(  0-C ,  1-H ) :   0.8801 B(  0-C ,  2-H ) :   0.8955 B(  0-C ,  3-H ) :   0.8793
B(  0-C ,  4-O ) :   0.9828 B(  4-O ,  9-C ) :   0.7739 B(  5-C ,  6-H ) :   0.9673
B(  5-C ,  7-H ) :   0.9525 B(  5-C ,  8-H ) :   0.9910 B(  5-C ,  9-C ) :   0.7178
B(  9-C , 10-C ) :   1.2627 B( 10-C , 11-H ) :   1.0535 B( 10-C , 12-H ) :   0.7680

MP2 TOTAL ENERGY:     -231.972753487 Eh
FINAL SINGLE POINT ENERGY      -231.972753486998

DIPOLE MOMENT
-------------
                                X             Y             Z
Electronic contribution:     -0.18114      -2.68046      -0.91410
Nuclear contribution   :      0.53306       3.35748       1.13351
                        -----------------------------------------
Total Dipole Moment    :      0.35192       0.67703       0.21942
                        -----------------------------------------
Magnitude (a.u.)       :      0.79395
Magnitude (Debye)      :      2.01806

Rotational constants in cm-1:     0.275897     0.141774     0.099518
Rotational constants in MHz :  8271.198443  4250.265411  2983.461489

                             ****ORCA TERMINATED NORMALLY****
TOTAL RUN TIME: 0 days 0 hours 2 minutes 18 seconds 854 msec
