                         Program Version 5.0.3 -  RELEASE  -
|  1> !ri-mp2 aug-cc-pvtz aug-cc-pvtz/c tightscf
|  2> %pal nprocs 16 end
|  3>
|  4> * xyz 0 1
|  5> C     -2.240901   -0.228900    0.078947
|  6> C      1.357635    0.506201   -0.241163
|  7> C     -0.057727    0.632576    0.286522
|  8> O      1.985166   -0.733246    0.058970
|  9> O     -0.911332   -0.260311   -0.393888
| 10> H     -2.296798   -0.511289    1.137407
| 11> H     -2.810353   -0.945359   -0.509172
| 12> H     -2.687110    0.766333   -0.039775
| 13> H      1.946368    1.347748    0.143838
| 14> H      1.344535    0.574466   -1.328580
| 15> H     -0.397375    1.669916    0.147193
| 16> H     -0.075546    0.427374    1.368715
| 17> H      2.031563   -0.840001    1.013883
| 18> *
| 19>
| 20>                          ****END OF INPUT****

CARTESIAN COORDINATES (ANGSTROEM)
---------------------------------
  C     -2.240901   -0.228900    0.078947
  C      1.357635    0.506201   -0.241163
  C     -0.057727    0.632576    0.286522
  O      1.985166   -0.733246    0.058970
  O     -0.911332   -0.260311   -0.393888
  H     -2.296798   -0.511289    1.137407
  H     -2.810353   -0.945359   -0.509172
  H     -2.687110    0.766333   -0.039775
  H      1.946368    1.347748    0.143838
  H      1.344535    0.574466   -1.328580
  H     -0.397375    1.669916    0.147193
  H     -0.075546    0.427374    1.368715
  H      2.031563   -0.840001    1.013883

 Total Charge           Charge          ....    0
 Multiplicity           Mult            ....    1
 Number of Electrons    NEL             ....   42
 Basis Dimension        Dim             ....  414

ORBITAL ENERGIES
----------------

  NO   OCC          E(Eh)            E(eV)
   0   2.0000     -20.558647      -559.4292
   1   2.0000     -20.555778      -559.3511
   2   2.0000     -11.280621      -306.9613
   3   2.0000     -11.276432      -306.8473
   4   2.0000     -11.272398      -306.7376
   5   2.0000      -1.380603       -37.5681
   6   2.0000      -1.353462       -36.8296
   7   2.0000      -1.018153       -27.7054
   8   2.0000      -0.915590       -24.9145
   9   2.0000      -0.838634       -22.8204
  10   2.0000      -0.692508       -18.8441
  11   2.0000      -0.675643       -18.3852
  12   2.0000      -0.658180       -17.9100
  13   2.0000      -0.627243       -17.0681
  14   2.0000      -0.602273       -16.3887
  15   2.0000      -0.564418       -15.3586
  16   2.0000      -0.535711       -14.5774
  17   2.0000      -0.506221       -13.7750
  18   2.0000      -0.476528       -12.9670
  19   2.0000      -0.444846       -12.1049
  20   2.0000      -0.427414       -11.6305
  21   0.0000       0.027207         0.7403
  22   0.0000       0.036286         0.9874
  23   0.0000       0.037987         1.0337
  24   0.0000       0.044599         1.2136
  25   0.0000       0.056361         1.5337

MULLIKEN ATOMIC CHARGES
-----------------------
   0 C :   -0.842778
   1 C :   -0.220131
   2 C :   -0.179378
   3 O :   -0.591632
   4 O :   -0.580596
   5 H :    0.333054
   6 H :    0.345653
   7 H :    0.334335
   8 H :    0.287057
   9 H :    0.323563
  10 H :    0.336769
  11 H :    0.296313
  12 H :    0.157771
Sum of atomic charges:    0.0000000

LOEWDIN ATOMIC CHARGES
----------------------
   0 C :    0.313278
   1 C :    0.032825
   2 C :   -0.009351
   3 O :    0.805489
   4 O :    0.547426
   5 H :   -0.180269
   6 H :   -0.188044
   7 H :   -0.179652
   8 H :   -0.161006
   9 H :   -0.167424
  10 H :   -0.155292
  11 H :   -0.157851
  12 H :   -0.500129

  Mayer bond orders larger than 0.100000
B(  0-C ,  4-O ) :   0.9753 B(  0-C ,  5-H ) :   0.8791 B(  0-C ,  6-H ) :   0.9369
B(  0-C ,  7-H ) :   0.8740 B(  1-C ,  2-C ) :   0.8856 B(  1-C ,  3-O ) :   0.7460
B(  1-C ,  8-H ) :   0.9748 B(  1-C ,  9-H ) :   0.9210 B(  2-C ,  4-O ) :   0.8295
B(  2-C , 10-H ) :   0.8820 B(  2-C , 11-H ) :   0.9056 B(  3-O , 12-H ) :   1.0100

MP2 TOTAL ENERGY:     -269.086335967 Eh
FINAL SINGLE POINT ENERGY      -269.086335966779

DIPOLE MOMENT
-------------
                                X             Y             Z
Electronic contribution:      2.57763      -1.79857      -1.16860
Nuclear contribution   :     -3.03491       2.56402       1.99878
                        -----------------------------------------
Total Dipole Moment    :     -0.45727       0.76546       0.83018
                        -----------------------------------------
Magnitude (a.u.)       :      1.21828
Magnitude (Debye)      :      3.09663

Rotational constants in cm-1:     0.464871     0.084365     0.078400
Rotational constants in MHz : 13936.484865  2529.190047  2350.370753

                             ****ORCA TERMINATED NORMALLY****
TOTAL RUN TIME: 0 days 0 hours 2 minutes 3 seconds 428 msec
