                         Program Version 5.0.3 -  RELEASE  -
|  1> !ri-mp2 aug-cc-pvtz aug-cc-pvtz/c tightscf
|  2> %pal nprocs 16 end
|  3>
|  4> * xyz 0 1
|  5> C      1.129531   -1.313585   -0.008560
|  6> C     -0.238510   -1.556011   -0.001692
|  7> C      0.696232    1.038980   -0.007975
|  8> C      1.615630   -0.006887   -0.009477
|  9> C     -1.168888   -0.520347    0.002959
| 10> C     -0.670298    0.788304   -0.000863
| 11> C      3.095047    0.276324    0.010869
| 12> C     -2.651007   -0.783942    0.006802
| 13> O     -1.498806    1.880695   -0.001109
| 14> H      1.821316   -2.145686   -0.015281
| 15> H     -0.597329   -2.578032   -0.002925
| 16> H      1.028405    2.069063   -0.014268
| 17> H      3.349610    1.113290   -0.640203
| 18> H      3.430665    0.535881    1.018029
| 19> H      3.668352   -0.591678   -0.312831
| 20> H     -3.141766   -0.362979    0.890092
| 21> H     -3.146115   -0.365455   -0.875291
| 22> H     -2.851563   -1.853728    0.008728
| 23> H     -2.417548    1.596761    0.000440
| 24> *
| 25>
| 26>                          ****END OF INPUT****

CARTESIAN COORDINATES (ANGSTROEM)
---------------------------------
  C      1.129531   -1.313585   -0.008560
  C     -0.238510   -1.556011   -0.001692
  C      0.696232    1.038980   -0.007975
  C      1.615630   -0.006887   -0.009477
  C     -1.168888   -0.520347    0.002959
  C     -0.670298    0.788304   -0.000863
  C      3.095047    0.276324    0.010869
  C     -2.651007   -0.783942    0.006802
  O     -1.498806    1.880695   -0.001109
  H      1.821316   -2.145686   -0.015281
  H     -0.597329   -2.578032   -0.002925
  H      1.028405    2.069063   -0.014268
  H      3.349610    1.113290   -0.640203
  H      3.430665    0.535881    1.018029
  H      3.668352   -0.591678   -0.312831
  H     -3.141766   -0.362979    0.890092
  H     -3.146115   -0.365455   -0.875291
  H     -2.851563   -1.853728    0.008728
  H     -2.417548    1.596761    0.000440

 Total Charge           Charge          ....    0
 Multiplicity           Mult            ....    1
 Number of Electrons    NEL             ....   66
 Basis Dimension        Dim             ....  644

ORBITAL ENERGIES
----------------

  NO   OCC          E(Eh)            E(eV)
   0   2.0000     -20.586309      -560.1819
   1   2.0000     -11.295213      -307.3584
   2   2.0000     -11.240206      -305.8616
   3   2.0000     -11.235223      -305.7260
   4   2.0000     -11.234317      -305.7013
   5   2.0000     -11.232900      -305.6628
   6   2.0000     -11.220947      -305.3375
   7   2.0000     -11.218080      -305.2595
   8   2.0000     -11.217621      -305.2470
   9   2.0000      -1.400688       -38.1147
  10   2.0000      -1.151719       -31.3399
  11   2.0000      -1.064913       -28.9778
  12   2.0000      -1.003071       -27.2950
  13   2.0000      -0.981054       -26.6958
  14   2.0000      -0.900582       -24.5061
  15   2.0000      -0.825271       -22.4568
  16   2.0000      -0.807922       -21.9847
  17   2.0000      -0.707761       -19.2592
  18   2.0000      -0.671174       -18.2636
  19   2.0000      -0.648223       -17.6390
  20   2.0000      -0.606942       -16.5157
  21   2.0000      -0.605076       -16.4650
  22   2.0000      -0.572070       -15.5668
  23   2.0000      -0.568443       -15.4681
  24   2.0000      -0.561753       -15.2861
  25   2.0000      -0.560172       -15.2431
  26   2.0000      -0.553843       -15.0708
  27   2.0000      -0.526212       -14.3190
  28   2.0000      -0.499249       -13.5853
  29   2.0000      -0.480948       -13.0873
  30   2.0000      -0.464921       -12.6511
  31   2.0000      -0.326098        -8.8736
  32   2.0000      -0.305908        -8.3242
  33   0.0000       0.026804         0.7294
  34   0.0000       0.031164         0.8480
  35   0.0000       0.035223         0.9585
  36   0.0000       0.044392         1.2080
  37   0.0000       0.046273         1.2591

MULLIKEN ATOMIC CHARGES
-----------------------
   0 C :   -0.829830
   1 C :   -0.698200
   2 C :   -1.164511
   3 C :    1.325859
   4 C :    1.236577
   5 C :    0.317534
   6 C :   -0.964986
   7 C :   -0.966674
   8 O :   -0.929482
   9 H :    0.245531
  10 H :    0.210693
  11 H :    0.417205
  12 H :    0.261146
  13 H :    0.303761
  14 H :    0.264840
  15 H :    0.267418
  16 H :    0.268498
  17 H :    0.221286
  18 H :    0.213337
Sum of atomic charges:    0.0000000

LOEWDIN ATOMIC CHARGES
----------------------
   0 C :    0.211266
   1 C :    0.207329
   2 C :    0.227768
   3 C :   -0.133376
   4 C :   -0.099893
   5 C :   -0.346221
   6 C :    0.580293
   7 C :    0.572458
   8 O :    0.856432
   9 H :   -0.187242
  10 H :   -0.178936
  11 H :   -0.176402
  12 H :   -0.172269
  13 H :   -0.163647
  14 H :   -0.178781
  15 H :   -0.163514
  16 H :   -0.163457
  17 H :   -0.175961
  18 H :   -0.515848

  Mayer bond orders larger than 0.100000
B(  0-C ,  1-C ) :   1.1588 B(  0-C ,  2-C ) :   0.1497 B(  0-C ,  3-C ) :   0.6184
B(  0-C ,  9-H ) :   1.1523 B(  1-C ,  2-C ) :  -0.1280 B(  1-C ,  4-C ) :   0.7025
B(  1-C ,  5-C ) :  -0.1961 B(  1-C , 10-H ) :   1.1886 B(  2-C ,  3-C ) :   0.6989
B(  2-C ,  4-C ) :   0.3050 B(  2-C ,  5-C ) :   1.2166 B(  2-C ,  6-C ) :   0.1124
B(  2-C ,  8-O ) :   0.2034 B(  2-C , 11-H ) :   0.7784 B(  3-C ,  6-C ) :   0.4738
B(  4-C ,  5-C ) :   1.0147 B(  4-C ,  7-C ) :   0.2920 B(  4-C ,  8-O ) :  -0.2057
B(  4-C , 10-H ) :  -0.1405 B(  4-C , 15-H ) :  -0.1108 B(  4-C , 16-H ) :  -0.1137
B(  5-C ,  7-C ) :   0.2856 B(  5-C ,  8-O ) :   0.4299 B(  5-C , 10-H ) :   0.1134
B(  6-C , 12-H ) :   1.0318 B(  6-C , 13-H ) :   0.9747 B(  6-C , 14-H ) :   1.0046
B(  7-C , 15-H ) :   0.9836 B(  7-C , 16-H ) :   0.9899 B(  7-C , 17-H ) :   1.0929
B(  8-O , 18-H ) :   0.9672

MP2 TOTAL ENERGY:     -385.336695311 Eh
FINAL SINGLE POINT ENERGY      -385.336695311396

DIPOLE MOMENT
-------------
                                X             Y             Z
Electronic contribution:     -1.47976       2.15532      -0.04468
Nuclear contribution   :      1.13678      -2.59024       0.05730
                        -----------------------------------------
Total Dipole Moment    :     -0.34298      -0.43491       0.01262
                        -----------------------------------------
Magnitude (a.u.)       :      0.55403
Magnitude (Debye)      :      1.40822

Rotational constants in cm-1:     0.102106     0.043308     0.030758
Rotational constants in MHz :  3061.061191  1298.354347   922.090230

                             ****ORCA TERMINATED NORMALLY****
TOTAL RUN TIME: 0 days 0 hours 9 minutes 40 seconds 892 msec
