                         Program Version 5.0.3 -  RELEASE  -
|  1> !ri-mp2 aug-cc-pvtz aug-cc-pvtz/c tightscf
|  2> %pal nprocs 16 end
|  3>
|  4> * xyz 0 1
|  5> S     0.000000     0.000000    1.252467
|  6> C     0.000000     1.350899   -0.004471
|  7> C     0.000000    -1.350899   -0.004471
|  8> C     0.000000     0.662535   -1.335066
|  9> C     0.000000    -0.662535   -1.335066
| 10> H    -0.881617     1.980110    0.130213
| 11> H     0.881617     1.980110    0.130213
| 12> H     0.881617    -1.980110    0.130213
| 13> H    -0.881617    -1.980110    0.130213
| 14> H     0.000000     1.252912   -2.242943
| 15> H     0.000000    -1.252912   -2.242943
| 16> *
| 17>
| 18>                          ****END OF INPUT****

CARTESIAN COORDINATES (ANGSTROEM)
---------------------------------
  S      0.000000    0.000000    1.252467
  C      0.000000    1.350899   -0.004471
  C      0.000000   -1.350899   -0.004471
  C      0.000000    0.662535   -1.335066
  C      0.000000   -0.662535   -1.335066
  H     -0.881617    1.980110    0.130213
  H      0.881617    1.980110    0.130213
  H      0.881617   -1.980110    0.130213
  H     -0.881617   -1.980110    0.130213
  H      0.000000    1.252912   -2.242943
  H      0.000000   -1.252912   -2.242943

 Total Charge           Charge          ....    0
 Multiplicity           Mult            ....    1
 Number of Electrons    NEL             ....   46
 Basis Dimension        Dim             ....  372

ORBITAL ENERGIES
----------------

  NO   OCC          E(Eh)            E(eV)
   0   2.0000     -91.942810     -2501.8911
   1   2.0000     -11.261962      -306.4536
   2   2.0000     -11.261950      -306.4532
   3   2.0000     -11.241518      -305.8972
   4   2.0000     -11.239710      -305.8481
   5   2.0000      -8.942887      -243.3483
   6   2.0000      -6.624029      -180.2490
   7   2.0000      -6.623270      -180.2283
   8   2.0000      -6.622241      -180.2003
   9   2.0000      -1.135425       -30.8965
  10   2.0000      -0.984946       -26.8017
  11   2.0000      -0.972573       -26.4651
  12   2.0000      -0.801005       -21.7965
  13   2.0000      -0.741024       -20.1643
  14   2.0000      -0.671637       -18.2762
  15   2.0000      -0.619593       -16.8600
  16   2.0000      -0.579814       -15.7775
  17   2.0000      -0.559649       -15.2288
  18   2.0000      -0.518666       -14.1136
  19   2.0000      -0.486019       -13.2252
  20   2.0000      -0.431458       -11.7406
  21   2.0000      -0.370827       -10.0907
  22   2.0000      -0.332338        -9.0434
  23   0.0000       0.028444         0.7740
  24   0.0000       0.034921         0.9502
  25   0.0000       0.043294         1.1781
  26   0.0000       0.043750         1.1905
  27   0.0000       0.052146         1.4190

MULLIKEN ATOMIC CHARGES
-----------------------
   0 S :   -0.243922
   1 C :   -0.252542
   2 C :   -0.252542
   3 C :   -0.615724
   4 C :   -0.615724
   5 H :    0.265438
   6 H :    0.265438
   7 H :    0.265438
   8 H :    0.265438
   9 H :    0.459349
  10 H :    0.459349
Sum of atomic charges:   -0.0000000

LOEWDIN ATOMIC CHARGES
----------------------
   0 S :    1.167277
   1 C :   -0.075600
   2 C :   -0.075600
   3 C :    0.135883
   4 C :    0.135883
   5 H :   -0.229463
   6 H :   -0.229463
   7 H :   -0.229463
   8 H :   -0.229463
   9 H :   -0.184995
  10 H :   -0.184995

  Mayer bond orders larger than 0.100000
B(  0-S ,  1-C ) :   0.9470 B(  0-S ,  2-C ) :   0.9470 B(  1-C ,  3-C ) :   0.9095
B(  1-C ,  5-H ) :   0.9470 B(  1-C ,  6-H ) :   0.9470 B(  2-C ,  4-C ) :   0.9095
B(  2-C ,  7-H ) :   0.9470 B(  2-C ,  8-H ) :   0.9470 B(  3-C ,  4-C ) :   1.6754
B(  3-C ,  9-H ) :   0.7811 B(  4-C , 10-H ) :   0.7811

MP2 TOTAL ENERGY:     -553.390491414 Eh
FINAL SINGLE POINT ENERGY      -553.390491414303

DIPOLE MOMENT
-------------
                                X             Y             Z
Electronic contribution:     -0.00000       0.00000       3.24996
Nuclear contribution   :      0.00000       0.00000      -4.01480
                        -----------------------------------------
Total Dipole Moment    :     -0.00000       0.00000      -0.76485
                        -----------------------------------------
Magnitude (a.u.)       :      0.76485
Magnitude (Debye)      :      1.94409

Rotational constants in cm-1:     0.220389     0.158631     0.095515
Rotational constants in MHz :  6607.104448  4755.638350  2863.467745

                             ****ORCA TERMINATED NORMALLY****
TOTAL RUN TIME: 0 days 0 hours 1 minutes 32 seconds 761 msec
