                         Program Version 5.0.3 -  RELEASE  -
|  1> !ri-mp2 aug-cc-pvtz aug-cc-pvtz/c tightscf
|  2> %pal nprocs 16 end
|  3>
|  4> * xyz 0 1
|  5> C     -0.376341    0.220360    0.000000
|  6> H      1.502631    0.816125    0.875477
|  7> H      1.502631    0.816125   -0.875477
|  8> N      1.913976   -1.014914    0.000000
|  9> H      1.709887   -1.574258    0.817358
| 10> H      1.709887   -1.574258   -0.817358
| 11> N     -0.906035    1.595947    0.000000
| 12> H     -0.583445    2.106254   -0.814987
| 13> H     -0.583445    2.106254    0.814987
| 14> C      1.179166    0.245313    0.000000
| 15> C     -0.906035   -0.473601   -1.257115
| 16> C     -0.906035   -0.473601    1.257115
| 17> H     -0.558883    0.037001   -2.158942
| 18> H     -0.558883    0.037001    2.158942
| 19> H     -0.574785   -1.511227    1.310395
| 20> H     -0.574785   -1.511227   -1.310395
| 21> H     -1.995459   -0.462925   -1.263115
| 22> H     -1.995459   -0.462925    1.263115
| 23> *
| 24>
| 25>                          ****END OF INPUT****

CARTESIAN COORDINATES (ANGSTROEM)
---------------------------------
  C     -0.376341    0.220360    0.000000
  H      1.502631    0.816125    0.875477
  H      1.502631    0.816125   -0.875477
  N      1.913976   -1.014914    0.000000
  H      1.709887   -1.574258    0.817358
  H      1.709887   -1.574258   -0.817358
  N     -0.906035    1.595947    0.000000
  H     -0.583445    2.106254   -0.814987
  H     -0.583445    2.106254    0.814987
  C      1.179166    0.245313    0.000000
  C     -0.906035   -0.473601   -1.257115
  C     -0.906035   -0.473601    1.257115
  H     -0.558883    0.037001   -2.158942
  H     -0.558883    0.037001    2.158942
  H     -0.574785   -1.511227    1.310395
  H     -0.574785   -1.511227   -1.310395
  H     -1.995459   -0.462925   -1.263115
  H     -1.995459   -0.462925    1.263115

 Total Charge           Charge          ....    0
 Multiplicity           Mult            ....    1
 Number of Electrons    NEL             ....   50
 Basis Dimension        Dim             ....  552

ORBITAL ENERGIES
----------------

  NO   OCC          E(Eh)            E(eV)
   0   2.0000     -15.539636      -422.8550
   1   2.0000     -15.538014      -422.8108
   2   2.0000     -11.259752      -306.3934
   3   2.0000     -11.245622      -306.0089
   4   2.0000     -11.212252      -305.1009
   5   2.0000     -11.212238      -305.1005
   6   2.0000      -1.202690       -32.7268
   7   2.0000      -1.163144       -31.6507
   8   2.0000      -1.017635       -27.6913
   9   2.0000      -0.938130       -25.5278
  10   2.0000      -0.903955       -24.5979
  11   2.0000      -0.753740       -20.5103
  12   2.0000      -0.676332       -18.4039
  13   2.0000      -0.653572       -17.7846
  14   2.0000      -0.643818       -17.5192
  15   2.0000      -0.612057       -16.6549
  16   2.0000      -0.566384       -15.4121
  17   2.0000      -0.556406       -15.1406
  18   2.0000      -0.531910       -14.4740
  19   2.0000      -0.509638       -13.8679
  20   2.0000      -0.508461       -13.8359
  21   2.0000      -0.488556       -13.2943
  22   2.0000      -0.464619       -12.6429
  23   2.0000      -0.430094       -11.7035
  24   2.0000      -0.361427        -9.8349
  25   0.0000       0.028735         0.7819
  26   0.0000       0.034983         0.9519
  27   0.0000       0.036045         0.9808
  28   0.0000       0.041017         1.1161
  29   0.0000       0.055167         1.5012

MULLIKEN ATOMIC CHARGES
-----------------------
   0 C :    1.836053
   1 H :    0.251601
   2 H :    0.251601
   3 N :   -0.676575
   4 H :    0.063725
   5 H :    0.063725
   6 N :   -0.905539
   7 H :    0.088571
   8 H :    0.088571
   9 C :   -0.242442
  10 C :   -1.190797
  11 C :   -1.190797
  12 H :    0.254613
  13 H :    0.254613
  14 H :    0.282861
  15 H :    0.282861
  16 H :    0.243678
  17 H :    0.243678
Sum of atomic charges:   -0.0000000

LOEWDIN ATOMIC CHARGES
----------------------
   0 C :   -0.466657
   1 H :   -0.152664
   2 H :   -0.152664
   3 N :    0.850349
   4 H :   -0.332206
   5 H :   -0.332206
   6 N :    0.860439
   7 H :   -0.316044
   8 H :   -0.316044
   9 C :    0.170342
  10 C :    0.581744
  11 C :    0.581744
  12 H :   -0.158919
  13 H :   -0.158919
  14 H :   -0.169122
  15 H :   -0.169122
  16 H :   -0.160026
  17 H :   -0.160026

  Mayer bond orders larger than 0.100000
B(  0-C ,  9-C ) :   0.6399 B(  0-C , 10-C ) :   0.3050 B(  0-C , 11-C ) :   0.3050
B(  0-C , 12-H ) :  -0.1195 B(  0-C , 13-H ) :  -0.1195 B(  1-H ,  9-C ) :   1.0232
B(  2-H ,  9-C ) :   1.0232 B(  3-N ,  4-H ) :   1.0312 B(  3-N ,  5-H ) :   1.0312
B(  3-N ,  9-C ) :   0.6081 B(  6-N ,  7-H ) :   1.0010 B(  6-N ,  8-H ) :   1.0010
B(  6-N ,  9-C ) :   0.1386 B( 10-C , 11-C ) :   0.1155 B( 10-C , 12-H ) :   1.0503
B( 10-C , 15-H ) :   0.9779 B( 10-C , 16-H ) :   1.0821 B( 11-C , 13-H ) :   1.0503
B( 11-C , 14-H ) :   0.9779 B( 11-C , 17-H ) :   1.0821

MP2 TOTAL ENERGY:     -268.614575633 Eh
FINAL SINGLE POINT ENERGY      -268.614575633200

DIPOLE MOMENT
-------------
                                X             Y             Z
Electronic contribution:      1.02922       1.12932      -0.00000
Nuclear contribution   :     -1.05904      -1.25126       0.00000
                        -----------------------------------------
Total Dipole Moment    :     -0.02982      -0.12195      -0.00000
                        -----------------------------------------
Magnitude (a.u.)       :      0.12554
Magnitude (Debye)      :      0.31910

Rotational constants in cm-1:     0.146871     0.084933     0.084187
Rotational constants in MHz :  4403.075168  2546.241081  2523.876475

                             ****ORCA TERMINATED NORMALLY****
TOTAL RUN TIME: 0 days 0 hours 5 minutes 42 seconds 998 msec
