                         Program Version 5.0.3 -  RELEASE  -
|  1> !ri-mp2 aug-cc-pvtz aug-cc-pvtz/c tightscf
|  2> %pal nprocs 16 end
|  3>
|  4> * xyz 0 1
|  5> Cl    0.000000    1.591361    2.692912
|  6> C     0.000000    0.696756    1.212282
|  7> C     0.000000   -0.696756    1.212282
|  8> Cl    0.000000   -1.591361    2.692912
|  9> C     0.000000   -1.409756    0.008295
| 10> O     0.000000   -2.759999    0.052901
| 11> C     0.000000   -0.695960   -1.189657
| 12> Cl    0.000000   -1.601358   -2.678734
| 13> C     0.000000    0.695960   -1.189657
| 14> C     0.000000    1.409756    0.008295
| 15> O     0.000000    2.759999    0.052901
| 16> Cl    0.000000    1.601358   -2.678734
| 17> H     0.000000   -3.106114   -0.849754
| 18> H     0.000000    3.106114   -0.849754
| 19> *
| 20>
| 21>                          ****END OF INPUT****

CARTESIAN COORDINATES (ANGSTROEM)
---------------------------------
  Cl     0.000000    1.591361    2.692912
  C      0.000000    0.696756    1.212282
  C      0.000000   -0.696756    1.212282
  Cl     0.000000   -1.591361    2.692912
  C      0.000000   -1.409756    0.008295
  O      0.000000   -2.759999    0.052901
  C      0.000000   -0.695960   -1.189657
  Cl     0.000000   -1.601358   -2.678734
  C      0.000000    0.695960   -1.189657
  C      0.000000    1.409756    0.008295
  O      0.000000    2.759999    0.052901
  Cl     0.000000    1.601358   -2.678734
  H      0.000000   -3.106114   -0.849754
  H      0.000000    3.106114   -0.849754

 Total Charge           Charge          ....    0
 Multiplicity           Mult            ....    1
 Number of Electrons    NEL             ....  122
 Basis Dimension        Dim             ....  614

ORBITAL ENERGIES
----------------

  NO   OCC          E(Eh)            E(eV)
   0   2.0000    -104.883172     -2854.0162
   1   2.0000    -104.883172     -2854.0162
   2   2.0000    -104.858763     -2853.3520
   3   2.0000    -104.858763     -2853.3520
   4   2.0000     -20.618883      -561.0683
   5   2.0000     -20.618883      -561.0683
   6   2.0000     -11.349412      -308.8332
   7   2.0000     -11.349405      -308.8330
   8   2.0000     -11.343593      -308.6749
   9   2.0000     -11.342391      -308.6421
  10   2.0000     -11.336887      -308.4924
  11   2.0000     -11.335673      -308.4593
  12   2.0000     -10.606642      -288.6214
  13   2.0000     -10.606639      -288.6213
  14   2.0000     -10.582190      -287.9560
  15   2.0000     -10.582186      -287.9559
  16   2.0000      -8.073500      -219.6911
  17   2.0000      -8.073497      -219.6910
  18   2.0000      -8.071614      -219.6398
  19   2.0000      -8.071613      -219.6398
  20   2.0000      -8.071510      -219.6370
  21   2.0000      -8.071507      -219.6369
  22   2.0000      -8.049118      -219.0276
  23   2.0000      -8.049115      -219.0275
  24   2.0000      -8.047046      -218.9713
  25   2.0000      -8.047043      -218.9712
  26   2.0000      -8.046992      -218.9698
  27   2.0000      -8.046991      -218.9698
  28   2.0000      -1.444170       -39.2979
  29   2.0000      -1.442069       -39.2407
  30   2.0000      -1.245361       -33.8880
  31   2.0000      -1.208428       -32.8830
  32   2.0000      -1.165192       -31.7065
  33   2.0000      -1.146418       -31.1956
  34   2.0000      -1.105741       -30.0887
  35   2.0000      -1.018492       -27.7146
  36   2.0000      -0.991243       -26.9731
  37   2.0000      -0.873844       -23.7785
  38   2.0000      -0.857911       -23.3450
  39   2.0000      -0.790528       -21.5114
  40   2.0000      -0.751933       -20.4611
  41   2.0000      -0.723887       -19.6980
  42   2.0000      -0.658985       -17.9319
  43   2.0000      -0.644308       -17.5325
  44   2.0000      -0.632099       -17.2003
  45   2.0000      -0.621394       -16.9090
  46   2.0000      -0.620419       -16.8825
  47   2.0000      -0.608378       -16.5548
  48   2.0000      -0.590079       -16.0569
  49   2.0000      -0.559735       -15.2312
  50   2.0000      -0.546910       -14.8822
  51   2.0000      -0.542328       -14.7575
  52   2.0000      -0.515507       -14.0277
  53   2.0000      -0.512490       -13.9456
  54   2.0000      -0.492805       -13.4099
  55   2.0000      -0.488538       -13.2938
  56   2.0000      -0.483767       -13.1640
  57   2.0000      -0.455288       -12.3890
  58   2.0000      -0.452172       -12.3042
  59   2.0000      -0.357063        -9.7162
  60   2.0000      -0.331501        -9.0206
  61   0.0000       0.028431         0.7736
  62   0.0000       0.034078         0.9273
  63   0.0000       0.057710         1.5704
  64   0.0000       0.067668         1.8413
  65   0.0000       0.071539         1.9467

MULLIKEN ATOMIC CHARGES
-----------------------
   0 Cl:   -0.405319
   1 C :    0.804947
   2 C :    0.804947
   3 Cl:   -0.405319
   4 C :    0.244295
   5 O :   -0.609327
   6 C :    0.204125
   7 Cl:   -0.470976
   8 C :    0.204125
   9 C :    0.244295
  10 O :   -0.609327
  11 Cl:   -0.470976
  12 H :    0.232255
  13 H :    0.232255
Sum of atomic charges:   -0.0000000

LOEWDIN ATOMIC CHARGES
----------------------
   0 Cl:    1.007432
   1 C :   -0.864396
   2 C :   -0.864396
   3 Cl:    1.007432
   4 C :   -0.592814
   5 O :    0.808662
   6 C :   -0.821406
   7 Cl:    1.045556
   8 C :   -0.821406
   9 C :   -0.592814
  10 O :    0.808662
  11 Cl:    1.045556
  12 H :   -0.583034
  13 H :   -0.583034

  Mayer bond orders larger than 0.100000
B(  0-Cl,  1-C ) :   0.3798 B(  0-Cl,  2-C ) :   0.1901 B(  0-Cl,  9-C ) :   0.1621
B(  1-C ,  2-C ) :   1.5208 B(  1-C ,  3-Cl) :   0.1901 B(  1-C ,  4-C ) :  -0.1914
B(  1-C ,  5-O ) :  -0.1335 B(  1-C ,  9-C ) :   1.3571 B(  1-C , 11-Cl) :  -0.1744
B(  2-C ,  3-Cl) :   0.3798 B(  2-C ,  4-C ) :   1.3571 B(  2-C ,  7-Cl) :  -0.1744
B(  2-C ,  9-C ) :  -0.1914 B(  2-C , 10-O ) :  -0.1335 B(  3-Cl,  4-C ) :   0.1621
B(  4-C ,  5-O ) :   0.5542 B(  4-C ,  6-C ) :   1.1978 B(  4-C ,  8-C ) :  -0.1255
B(  4-C ,  9-C ) :   0.6084 B(  5-O ,  6-C ) :   0.1392 B(  5-O ,  8-C ) :   0.1261
B(  5-O , 12-H ) :   0.9711 B(  6-C ,  7-Cl) :   0.5622 B(  6-C ,  8-C ) :   1.5076
B(  6-C ,  9-C ) :  -0.1255 B(  6-C , 10-O ) :   0.1261 B(  6-C , 11-Cl) :   0.2797
B(  7-Cl,  8-C ) :   0.2797 B(  8-C ,  9-C ) :   1.1978 B(  8-C , 10-O ) :   0.1392
B(  8-C , 11-Cl) :   0.5622 B(  9-C , 10-O ) :   0.5542 B( 10-O , 13-H ) :   0.9711

MP2 TOTAL ENERGY:    -2218.492764429 Eh
FINAL SINGLE POINT ENERGY     -2218.492764428958

DIPOLE MOMENT
-------------
                                X             Y             Z
Electronic contribution:      0.00000       0.00000       0.51635
Nuclear contribution   :      0.00000       0.00000      -1.60680
                        -----------------------------------------
Total Dipole Moment    :      0.00000       0.00000      -1.09045
                        -----------------------------------------
Magnitude (a.u.)       :      1.09045
Magnitude (Debye)      :      2.77169

Rotational constants in cm-1:     0.024234     0.015412     0.009421
Rotational constants in MHz :   726.507223   462.029643   282.421086

                             ****ORCA TERMINATED NORMALLY****
TOTAL RUN TIME: 0 days 0 hours 11 minutes 0 seconds 611 msec
