                         Program Version 5.0.3 -  RELEASE  -
|  1> !ri-mp2 aug-cc-pvtz aug-cc-pvtz/c tightscf
|  2> %pal nprocs 16 end
|  3>
|  4> * xyz 0 1
|  5> N     -1.254654    0.394118    0.000000
|  6> C      0.000000    1.081090    0.000000
|  7> C      1.244764    0.286621    0.000000
|  8> C      1.223615   -1.045676    0.000000
|  9> C     -0.067291   -1.783582    0.000000
| 10> C     -1.258745   -0.878361    0.000000
| 11> O      0.015804    2.291171    0.000000
| 12> H      2.166216    0.852058    0.000000
| 13> H      2.142475   -1.619589    0.000000
| 14> H     -0.136811   -2.456207    0.864752
| 15> H     -2.232984   -1.368807    0.000000
| 16> H     -0.136811   -2.456207   -0.864752
| 17> *
| 18>
| 19>                          ****END OF INPUT****

CARTESIAN COORDINATES (ANGSTROEM)
---------------------------------
  N     -1.254654    0.394118    0.000000
  C      0.000000    1.081090    0.000000
  C      1.244764    0.286621    0.000000
  C      1.223615   -1.045676    0.000000
  C     -0.067291   -1.783582    0.000000
  C     -1.258745   -0.878361    0.000000
  O      0.015804    2.291171    0.000000
  H      2.166216    0.852058    0.000000
  H      2.142475   -1.619589    0.000000
  H     -0.136811   -2.456207    0.864752
  H     -2.232984   -1.368807    0.000000
  H     -0.136811   -2.456207   -0.864752

 Total Charge           Charge          ....    0
 Multiplicity           Mult            ....    1
 Number of Electrons    NEL             ....   50
 Basis Dimension        Dim             ....  437

ORBITAL ENERGIES
----------------

  NO   OCC          E(Eh)            E(eV)
   0   2.0000     -20.541465      -558.9617
   1   2.0000     -15.576849      -423.8676
   2   2.0000     -11.354570      -308.9735
   3   2.0000     -11.319840      -308.0285
   4   2.0000     -11.278624      -306.9069
   5   2.0000     -11.276511      -306.8495
   6   2.0000     -11.254132      -306.2405
   7   2.0000      -1.393685       -37.9241
   8   2.0000      -1.257867       -34.2283
   9   2.0000      -1.114877       -30.3373
  10   2.0000      -1.028522       -27.9875
  11   2.0000      -0.872204       -23.7339
  12   2.0000      -0.857647       -23.3377
  13   2.0000      -0.711060       -19.3489
  14   2.0000      -0.701194       -19.0805
  15   2.0000      -0.674868       -18.3641
  16   2.0000      -0.640318       -17.4239
  17   2.0000      -0.610390       -16.6096
  18   2.0000      -0.602062       -16.3829
  19   2.0000      -0.559949       -15.2370
  20   2.0000      -0.551301       -15.0017
  21   2.0000      -0.467357       -12.7174
  22   2.0000      -0.443846       -12.0777
  23   2.0000      -0.407591       -11.0911
  24   2.0000      -0.393016       -10.6945
  25   0.0000       0.017304         0.4709
  26   0.0000       0.029232         0.7954
  27   0.0000       0.035304         0.9607
  28   0.0000       0.040211         1.0942
  29   0.0000       0.050851         1.3837

MULLIKEN ATOMIC CHARGES
-----------------------
   0 N :   -0.210542
   1 C :    0.385999
   2 C :   -0.214521
   3 C :   -0.630040
   4 C :    0.071881
   5 C :   -0.509517
   6 O :   -0.760549
   7 H :    0.424864
   8 H :    0.338299
   9 H :    0.281351
  10 H :    0.541424
  11 H :    0.281351
Sum of atomic charges:    0.0000000

LOEWDIN ATOMIC CHARGES
----------------------
   0 N :    0.379845
   1 C :   -0.743519
   2 C :    0.209481
   3 C :    0.230895
   4 C :    0.255912
   5 C :    0.048684
   6 O :    0.436441
   7 H :   -0.193027
   8 H :   -0.166791
   9 H :   -0.143950
  10 H :   -0.170022
  11 H :   -0.143950

  Mayer bond orders larger than 0.100000
B(  0-N ,  1-C ) :   0.9758 B(  0-N ,  5-C ) :   1.3272 B(  0-N ,  6-O ) :  -0.1904
B(  1-C ,  2-C ) :   0.9376 B(  1-C ,  3-C ) :   0.1562 B(  1-C ,  6-O ) :   1.3697
B(  2-C ,  3-C ) :   1.5017 B(  2-C ,  5-C ) :  -0.1157 B(  2-C ,  7-H ) :   0.7649
B(  3-C ,  4-C ) :   0.8051 B(  3-C ,  5-C ) :   0.3637 B(  3-C ,  8-H ) :   0.9771
B(  4-C ,  5-C ) :   0.5273 B(  4-C ,  9-H ) :   0.9441 B(  4-C , 11-H ) :   0.9441
B(  5-C , 10-H ) :   0.6203

MP2 TOTAL ENERGY:     -322.877329852 Eh
FINAL SINGLE POINT ENERGY      -322.877329852263

DIPOLE MOMENT
-------------
                                X             Y             Z
Electronic contribution:     -1.17775       4.36660       0.00000
Nuclear contribution   :      1.77237      -6.92206       0.00000
                        -----------------------------------------
Total Dipole Moment    :      0.59462      -2.55545       0.00000
                        -----------------------------------------
Magnitude (a.u.)       :      2.62372
Magnitude (Debye)      :      6.66897

Rotational constants in cm-1:     0.180056     0.093538     0.062244
Rotational constants in MHz :  5397.949787  2804.205894  1866.031348

                             ****ORCA TERMINATED NORMALLY****
TOTAL RUN TIME: 0 days 0 hours 3 minutes 14 seconds 975 msec
