                         Program Version 5.0.3 -  RELEASE  -
|  1> !ri-mp2 aug-cc-pvtz aug-cc-pvtz/c tightscf
|  2> %pal nprocs 16 end
|  3>
|  4> * xyz 0 1
|  5> S     -0.180530   -1.510125    0.096697
|  6> S     -0.180530    1.510125   -0.096698
|  7> F      1.690299   -0.019073   -1.077617
|  8> F      1.690298    0.019073    1.077618
|  9> C      0.856748    0.000000    0.000000
| 10> C     -1.750263   -0.681445   -0.334640
| 11> C     -1.750262    0.681445    0.334641
| 12> H     -2.551770   -1.315256    0.043945
| 13> H     -1.841107   -0.594140   -1.415457
| 14> H     -2.551770    1.315257   -0.043944
| 15> H     -1.841105    0.594141    1.415458
| 16> *
| 17>
| 18>                          ****END OF INPUT****

CARTESIAN COORDINATES (ANGSTROEM)
---------------------------------
  S     -0.180530   -1.510125    0.096697
  S     -0.180530    1.510125   -0.096698
  F      1.690299   -0.019073   -1.077617
  F      1.690298    0.019073    1.077618
  C      0.856748    0.000000    0.000000
  C     -1.750263   -0.681445   -0.334640
  C     -1.750262    0.681445    0.334641
  H     -2.551770   -1.315256    0.043945
  H     -1.841107   -0.594140   -1.415457
  H     -2.551770    1.315257   -0.043944
  H     -1.841105    0.594141    1.415458

 Total Charge           Charge          ....    0
 Multiplicity           Mult            ....    1
 Number of Electrons    NEL             ....   72
 Basis Dimension        Dim             ....  422

ORBITAL ENERGIES
----------------

  NO   OCC          E(Eh)            E(eV)
   0   2.0000     -91.984080     -2503.0141
   1   2.0000     -91.984079     -2503.0141
   2   2.0000     -26.322406      -716.2691
   3   2.0000     -26.322383      -716.2685
   4   2.0000     -11.472995      -312.1961
   5   2.0000     -11.294171      -307.3300
   6   2.0000     -11.293535      -307.3127
   7   2.0000      -8.984825      -244.4895
   8   2.0000      -8.984816      -244.4893
   9   2.0000      -6.665758      -181.3845
  10   2.0000      -6.665756      -181.3844
  11   2.0000      -6.664923      -181.3618
  12   2.0000      -6.664921      -181.3617
  13   2.0000      -6.663847      -181.3325
  14   2.0000      -6.663847      -181.3325
  15   2.0000      -1.675440       -45.5910
  16   2.0000      -1.608438       -43.7678
  17   2.0000      -1.150010       -31.2934
  18   2.0000      -1.012043       -27.5391
  19   2.0000      -1.009789       -27.4778
  20   2.0000      -0.856483       -23.3061
  21   2.0000      -0.846830       -23.0434
  22   2.0000      -0.769003       -20.9256
  23   2.0000      -0.735084       -20.0026
  24   2.0000      -0.728964       -19.8361
  25   2.0000      -0.675488       -18.3810
  26   2.0000      -0.662246       -18.0206
  27   2.0000      -0.644741       -17.5443
  28   2.0000      -0.637077       -17.3358
  29   2.0000      -0.581035       -15.8108
  30   2.0000      -0.569608       -15.4998
  31   2.0000      -0.497610       -13.5407
  32   2.0000      -0.497239       -13.5306
  33   2.0000      -0.445715       -12.1285
  34   2.0000      -0.394303       -10.7295
  35   2.0000      -0.375216       -10.2101
  36   0.0000       0.022820         0.6210
  37   0.0000       0.038120         1.0373
  38   0.0000       0.038296         1.0421
  39   0.0000       0.051832         1.4104
  40   0.0000       0.063549         1.7292

MULLIKEN ATOMIC CHARGES
-----------------------
   0 S :   -0.279334
   1 S :   -0.279334
   2 F :   -0.434706
   3 F :   -0.434706
   4 C :    1.074310
   5 C :   -0.414302
   6 C :   -0.414301
   7 H :    0.314231
   8 H :    0.276956
   9 H :    0.314231
  10 H :    0.276956
Sum of atomic charges:   -0.0000000

LOEWDIN ATOMIC CHARGES
----------------------
   0 S :    1.136362
   1 S :    1.136362
   2 F :    0.364761
   3 F :    0.364761
   4 C :   -1.795687
   5 C :   -0.148523
   6 C :   -0.148524
   7 H :   -0.225839
   8 H :   -0.228918
   9 H :   -0.225837
  10 H :   -0.228918

  Mayer bond orders larger than 0.100000
B(  0-S ,  4-C ) :   1.0089 B(  0-S ,  5-C ) :   0.9633 B(  1-S ,  4-C ) :   1.0089
B(  1-S ,  6-C ) :   0.9633 B(  2-F ,  4-C ) :   0.6419 B(  3-F ,  4-C ) :   0.6419
B(  5-C ,  6-C ) :   0.9899 B(  5-C ,  7-H ) :   0.8911 B(  5-C ,  8-H ) :   0.9263
B(  6-C ,  9-H ) :   0.8911 B(  6-C , 10-H ) :   0.9263

MP2 TOTAL ENERGY:    -1111.386679042 Eh
FINAL SINGLE POINT ENERGY     -1111.386679041505

DIPOLE MOMENT
-------------
                                X             Y             Z
Electronic contribution:      9.84703      -0.00000      -0.00000
Nuclear contribution   :    -11.52031       0.00000       0.00000
                        -----------------------------------------
Total Dipole Moment    :     -1.67328       0.00000       0.00000
                        -----------------------------------------
Magnitude (a.u.)       :      1.67328
Magnitude (Debye)      :      4.25315

Rotational constants in cm-1:     0.079126     0.063993     0.045121
Rotational constants in MHz :  2372.138585  1918.455364  1352.696157

                             ****ORCA TERMINATED NORMALLY****
TOTAL RUN TIME: 0 days 0 hours 2 minutes 42 seconds 866 msec
