                         Program Version 5.0.3 -  RELEASE  -
|  1> !ri-mp2 aug-cc-pvtz aug-cc-pvtz/c tightscf
|  2> %pal nprocs 16 end
|  3>
|  4> * xyz 0 1
|  5> O     1.368073   -0.041927    1.328654
|  6> S     0.744052    0.002026    0.009543
|  7> O     1.597344    0.012383   -1.173724
|  8> C    -0.537812   -1.301973   -0.132311
|  9> C    -1.894471   -0.605338    0.038088
| 10> C    -1.683857    0.887280   -0.028918
| 11> C    -0.438708    1.331798   -0.052416
| 12> H    -0.319494   -2.041155    0.632439
| 13> H    -0.409741   -1.736972   -1.119449
| 14> H    -2.352765   -0.862446    0.995568
| 15> H    -2.595132   -0.923617   -0.735185
| 16> H    -2.540636    1.548631   -0.035815
| 17> H    -0.081319    2.348887   -0.076348
| 18> *
| 19>
| 20>                          ****END OF INPUT****

CARTESIAN COORDINATES (ANGSTROEM)
---------------------------------
  O      1.368073   -0.041927    1.328654
  S      0.744052    0.002026    0.009543
  O      1.597344    0.012383   -1.173724
  C     -0.537812   -1.301973   -0.132311
  C     -1.894471   -0.605338    0.038088
  C     -1.683857    0.887280   -0.028918
  C     -0.438708    1.331798   -0.052416
  H     -0.319494   -2.041155    0.632439
  H     -0.409741   -1.736972   -1.119449
  H     -2.352765   -0.862446    0.995568
  H     -2.595132   -0.923617   -0.735185
  H     -2.540636    1.548631   -0.035815
  H     -0.081319    2.348887   -0.076348

 Total Charge           Charge          ....    0
 Multiplicity           Mult            ....    1
 Number of Electrons    NEL             ....   62
 Basis Dimension        Dim             ....  464

ORBITAL ENERGIES
----------------

  NO   OCC          E(Eh)            E(eV)
   0   2.0000     -92.179553     -2508.3331
   1   2.0000     -20.542071      -558.9782
   2   2.0000     -20.541331      -558.9580
   3   2.0000     -11.289947      -307.2151
   4   2.0000     -11.284779      -307.0745
   5   2.0000     -11.279355      -306.9269
   6   2.0000     -11.279094      -306.9198
   7   2.0000      -9.149069      -248.9588
   8   2.0000      -6.833875      -185.9592
   9   2.0000      -6.832987      -185.9350
  10   2.0000      -6.832943      -185.9338
  11   2.0000      -1.439807       -39.1792
  12   2.0000      -1.327076       -36.1116
  13   2.0000      -1.166977       -31.7550
  14   2.0000      -1.036768       -28.2119
  15   2.0000      -0.973992       -26.5037
  16   2.0000      -0.834311       -22.7028
  17   2.0000      -0.784948       -21.3595
  18   2.0000      -0.716239       -19.4898
  19   2.0000      -0.681907       -18.5556
  20   2.0000      -0.645191       -17.5565
  21   2.0000      -0.636533       -17.3209
  22   2.0000      -0.623039       -16.9537
  23   2.0000      -0.582643       -15.8545
  24   2.0000      -0.565395       -15.3852
  25   2.0000      -0.556502       -15.1432
  26   2.0000      -0.494813       -13.4646
  27   2.0000      -0.486444       -13.2368
  28   2.0000      -0.472146       -12.8477
  29   2.0000      -0.433025       -11.7832
  30   2.0000      -0.408893       -11.1265
  31   0.0000       0.018636         0.5071
  32   0.0000       0.030716         0.8358
  33   0.0000       0.036253         0.9865
  34   0.0000       0.039324         1.0701
  35   0.0000       0.050627         1.3776

MULLIKEN ATOMIC CHARGES
-----------------------
   0 O :   -0.979341
   1 S :    2.001778
   2 O :   -0.981719
   3 C :   -0.564178
   4 C :   -0.291236
   5 C :   -0.523201
   6 C :   -0.686976
   7 H :    0.265114
   8 H :    0.228440
   9 H :    0.298794
  10 H :    0.307685
  11 H :    0.385969
  12 H :    0.538869
Sum of atomic charges:    0.0000000

LOEWDIN ATOMIC CHARGES
----------------------
   0 O :    0.006082
   1 S :    0.260914
   2 O :    0.005279
   3 C :    0.241974
   4 C :    0.245409
   5 C :    0.177517
   6 C :    0.130911
   7 H :   -0.188659
   8 H :   -0.191785
   9 H :   -0.150456
  10 H :   -0.152509
  11 H :   -0.169406
  12 H :   -0.215274

  Mayer bond orders larger than 0.100000
B(  0-O ,  1-S ) :   1.1946 B(  1-S ,  2-O ) :   1.1747 B(  1-S ,  3-C ) :   0.8785
B(  1-S ,  4-C ) :   0.1073 B(  1-S ,  6-C ) :   1.0477 B(  2-O ,  6-C ) :   0.1036
B(  3-C ,  4-C ) :   1.0077 B(  3-C ,  7-H ) :   0.9258 B(  3-C ,  8-H ) :   0.9534
B(  4-C ,  5-C ) :   0.7800 B(  4-C ,  9-H ) :   0.9218 B(  4-C , 10-H ) :   0.9236
B(  5-C ,  6-C ) :   1.5512 B(  5-C , 11-H ) :   0.9318 B(  6-C , 12-H ) :   0.6692

MP2 TOTAL ENERGY:     -703.620272411 Eh
FINAL SINGLE POINT ENERGY      -703.620272411133

DIPOLE MOMENT
-------------
                                X             Y             Z
Electronic contribution:      5.65741       1.54868       0.17721
Nuclear contribution   :     -8.15557      -1.64308      -0.33177
                        -----------------------------------------
Total Dipole Moment    :     -2.49816      -0.09439      -0.15456
                        -----------------------------------------
Magnitude (a.u.)       :      2.50471
Magnitude (Debye)      :      6.36647

Rotational constants in cm-1:     0.133679     0.069133     0.064243
Rotational constants in MHz :  4007.592380  2072.564930  1925.945408

                             ****ORCA TERMINATED NORMALLY****
TOTAL RUN TIME: 0 days 0 hours 4 minutes 0 seconds 488 msec
