                         Program Version 5.0.3 -  RELEASE  -
|  1> !ri-mp2 aug-cc-pvtz aug-cc-pvtz/c tightscf
|  2> %pal nprocs 16 end
|  3>
|  4> * xyz 0 1
|  5> C     -1.639261    1.150479    0.000000
|  6> H     -2.490302    0.487611    0.000000
|  7> H     -1.809141    2.216402    0.000000
|  8> C     -0.417478    0.652524    0.000000
|  9> F      0.670083    1.440552    0.000000
| 10> C     -0.079576   -0.806625    0.000000
| 11> H     -0.974900   -1.428241    0.000000
| 12> F      0.670083   -1.123278    1.097373
| 13> F      0.670083   -1.123278   -1.097373
| 14> *
| 15>
| 16>                          ****END OF INPUT****

CARTESIAN COORDINATES (ANGSTROEM)
---------------------------------
  C     -1.639261    1.150479    0.000000
  H     -2.490302    0.487611    0.000000
  H     -1.809141    2.216402    0.000000
  C     -0.417478    0.652524    0.000000
  F      0.670083    1.440552    0.000000
  C     -0.079576   -0.806625    0.000000
  H     -0.974900   -1.428241    0.000000
  F      0.670083   -1.123278    1.097373
  F      0.670083   -1.123278   -1.097373

 Total Charge           Charge          ....    0
 Multiplicity           Mult            ....    1
 Number of Electrons    NEL             ....   48
 Basis Dimension        Dim             ....  345

ORBITAL ENERGIES
----------------

  NO   OCC          E(Eh)            E(eV)
   0   2.0000     -26.328591      -716.4374
   1   2.0000     -26.321680      -716.2493
   2   2.0000     -26.321661      -716.2488
   3   2.0000     -11.432480      -311.0936
   4   2.0000     -11.354617      -308.9748
   5   2.0000     -11.264671      -306.5273
   6   2.0000      -1.672020       -45.4980
   7   2.0000      -1.643574       -44.7239
   8   2.0000      -1.607763       -43.7495
   9   2.0000      -1.109523       -30.1916
  10   2.0000      -0.981666       -26.7125
  11   2.0000      -0.857242       -23.3267
  12   2.0000      -0.788593       -21.4587
  13   2.0000      -0.779786       -21.2191
  14   2.0000      -0.767861       -20.8946
  15   2.0000      -0.710343       -19.3294
  16   2.0000      -0.707018       -19.2389
  17   2.0000      -0.686760       -18.6877
  18   2.0000      -0.670184       -18.2366
  19   2.0000      -0.639256       -17.3950
  20   2.0000      -0.618517       -16.8307
  21   2.0000      -0.600625       -16.3438
  22   2.0000      -0.545307       -14.8385
  23   2.0000      -0.413405       -11.2493
  24   0.0000       0.024002         0.6531
  25   0.0000       0.035383         0.9628
  26   0.0000       0.047343         1.2883
  27   0.0000       0.072721         1.9788
  28   0.0000       0.077250         2.1021

MULLIKEN ATOMIC CHARGES
-----------------------
   0 C :   -1.232591
   1 H :    0.331455
   2 H :    0.502078
   3 C :    0.595238
   4 F :   -0.402609
   5 C :    0.713540
   6 H :    0.352462
   7 F :   -0.429786
   8 F :   -0.429786
Sum of atomic charges:    0.0000000

LOEWDIN ATOMIC CHARGES
----------------------
   0 C :    0.523596
   1 H :   -0.227106
   2 H :   -0.214539
   3 C :   -0.535156
   4 F :    0.494092
   5 C :   -0.793531
   6 H :   -0.190786
   7 F :    0.471716
   8 F :    0.471716

  Mayer bond orders larger than 0.100000
B(  0-C ,  1-H ) :   1.0217 B(  0-C ,  2-H ) :   0.6593 B(  0-C ,  3-C ) :   1.3572
B(  0-C ,  4-F ) :   0.1465 B(  3-C ,  4-F ) :   0.6646 B(  3-C ,  5-C ) :   0.9058
B(  5-C ,  6-H ) :   0.9292 B(  5-C ,  7-F ) :   0.7423 B(  5-C ,  8-F ) :   0.7423

MP2 TOTAL ENERGY:     -415.050650773 Eh
FINAL SINGLE POINT ENERGY      -415.050650773200

DIPOLE MOMENT
-------------
                                X             Y             Z
Electronic contribution:      5.42744      -1.84985       0.00000
Nuclear contribution   :     -6.81345       1.94444       0.00000
                        -----------------------------------------
Total Dipole Moment    :     -1.38601       0.09458       0.00000
                        -----------------------------------------
Magnitude (a.u.)       :      1.38924
Magnitude (Debye)      :      3.53116

Rotational constants in cm-1:     0.177276     0.088810     0.087165
Rotational constants in MHz :  5314.590791  2662.447088  2613.146449

                             ****ORCA TERMINATED NORMALLY****
TOTAL RUN TIME: 0 days 0 hours 1 minutes 22 seconds 356 msec
