                         Program Version 5.0.3 -  RELEASE  -
|  1> !ri-mp2 aug-cc-pvtz aug-cc-pvtz/c tightscf
|  2> %pal nprocs 16 end
|  3>
|  4> * xyz 0 1
|  5> C      0.000000    2.369897    0.648656
|  6> C      1.795861    1.149187   -0.648464
|  7> C      0.000000   -2.369897    0.648656
|  8> C     -1.795861   -1.149187   -0.648464
|  9> C      0.328511    1.169473   -0.225250
| 10> C     -0.328511   -1.169473   -0.225250
| 11> O      0.000000    0.000000    0.530194
| 12> H      0.237389    3.300652    0.131809
| 13> H     -1.057482    2.376595    0.910750
| 14> H      0.579665    2.331751    1.572195
| 15> H      2.036399    2.028649   -1.248423
| 16> H      2.027144    0.266481   -1.245332
| 17> H      2.440231    1.144037    0.231844
| 18> H     -0.237389   -3.300652    0.131809
| 19> H      1.057482   -2.376595    0.910750
| 20> H     -0.579665   -2.331751    1.572195
| 21> H     -2.036399   -2.028649   -1.248423
| 22> H     -2.027144   -0.266481   -1.245332
| 23> H     -2.440231   -1.144037    0.231844
| 24> H     -0.300157    1.205375   -1.123271
| 25> H      0.300157   -1.205375   -1.123271
| 26> *
| 27>
| 28>                          ****END OF INPUT****

CARTESIAN COORDINATES (ANGSTROEM)
---------------------------------
  C      0.000000    2.369897    0.648656
  C      1.795861    1.149187   -0.648464
  C      0.000000   -2.369897    0.648656
  C     -1.795861   -1.149187   -0.648464
  C      0.328511    1.169473   -0.225250
  C     -0.328511   -1.169473   -0.225250
  O      0.000000    0.000000    0.530194
  H      0.237389    3.300652    0.131809
  H     -1.057482    2.376595    0.910750
  H      0.579665    2.331751    1.572195
  H      2.036399    2.028649   -1.248423
  H      2.027144    0.266481   -1.245332
  H      2.440231    1.144037    0.231844
  H     -0.237389   -3.300652    0.131809
  H      1.057482   -2.376595    0.910750
  H     -0.579665   -2.331751    1.572195
  H     -2.036399   -2.028649   -1.248423
  H     -2.027144   -0.266481   -1.245332
  H     -2.440231   -1.144037    0.231844
  H     -0.300157    1.205375   -1.123271
  H      0.300157   -1.205375   -1.123271

 Total Charge           Charge          ....    0
 Multiplicity           Mult            ....    1
 Number of Electrons    NEL             ....   58
 Basis Dimension        Dim             ....  644

ORBITAL ENERGIES
----------------

  NO   OCC          E(Eh)            E(eV)
   0   2.0000     -20.540998      -558.9490
   1   2.0000     -11.275419      -306.8198
   2   2.0000     -11.275402      -306.8193
   3   2.0000     -11.210447      -305.0518
   4   2.0000     -11.210447      -305.0518
   5   2.0000     -11.207746      -304.9783
   6   2.0000     -11.207746      -304.9783
   7   2.0000      -1.359789       -37.0017
   8   2.0000      -1.068651       -29.0795
   9   2.0000      -1.012831       -27.5605
  10   2.0000      -0.935924       -25.4678
  11   2.0000      -0.932430       -25.3727
  12   2.0000      -0.811509       -22.0823
  13   2.0000      -0.778198       -21.1758
  14   2.0000      -0.677470       -18.4349
  15   2.0000      -0.631314       -17.1789
  16   2.0000      -0.621363       -16.9081
  17   2.0000      -0.579237       -15.7618
  18   2.0000      -0.577419       -15.7124
  19   2.0000      -0.560781       -15.2596
  20   2.0000      -0.537208       -14.6182
  21   2.0000      -0.536340       -14.5946
  22   2.0000      -0.516732       -14.0610
  23   2.0000      -0.512112       -13.9353
  24   2.0000      -0.506959       -13.7951
  25   2.0000      -0.483299       -13.1512
  26   2.0000      -0.473710       -12.8903
  27   2.0000      -0.446573       -12.1519
  28   2.0000      -0.405972       -11.0471
  29   0.0000       0.029753         0.8096
  30   0.0000       0.035141         0.9562
  31   0.0000       0.036871         1.0033
  32   0.0000       0.038823         1.0564
  33   0.0000       0.051817         1.4100

MULLIKEN ATOMIC CHARGES
-----------------------
   0 C :   -1.194233
   1 C :   -1.075659
   2 C :   -1.194233
   3 C :   -1.075659
   4 C :    0.592831
   5 C :    0.592831
   6 O :   -0.697172
   7 H :    0.303998
   8 H :    0.252262
   9 H :    0.258652
  10 H :    0.251152
  11 H :    0.291728
  12 H :    0.281083
  13 H :    0.303998
  14 H :    0.252262
  15 H :    0.258652
  16 H :    0.251152
  17 H :    0.291728
  18 H :    0.281083
  19 H :    0.386773
  20 H :    0.386773
Sum of atomic charges:   -0.0000000

LOEWDIN ATOMIC CHARGES
----------------------
   0 C :    0.583866
   1 C :    0.591623
   2 C :    0.583866
   3 C :    0.591623
   4 C :   -0.309419
   5 C :   -0.309419
   6 O :    0.601349
   7 H :   -0.169354
   8 H :   -0.168510
   9 H :   -0.166023
  10 H :   -0.166931
  11 H :   -0.177784
  12 H :   -0.163440
  13 H :   -0.169354
  14 H :   -0.168510
  15 H :   -0.166023
  16 H :   -0.166931
  17 H :   -0.177784
  18 H :   -0.163440
  19 H :   -0.154703
  20 H :   -0.154703

  Mayer bond orders larger than 0.100000
B(  0-C ,  1-C ) :   0.1587 B(  0-C ,  4-C ) :   0.6871 B(  0-C ,  7-H ) :   0.9685
B(  0-C ,  8-H ) :   1.0096 B(  0-C ,  9-H ) :   1.0004 B(  1-C ,  4-C ) :   0.7500
B(  1-C , 10-H ) :   1.0073 B(  1-C , 11-H ) :   0.9510 B(  1-C , 12-H ) :   0.9613
B(  2-C ,  3-C ) :   0.1587 B(  2-C ,  5-C ) :   0.6871 B(  2-C , 13-H ) :   0.9685
B(  2-C , 14-H ) :   1.0096 B(  2-C , 15-H ) :   1.0004 B(  3-C ,  5-C ) :   0.7500
B(  3-C , 16-H ) :   1.0073 B(  3-C , 17-H ) :   0.9510 B(  3-C , 18-H ) :   0.9613
B(  4-C ,  6-O ) :   0.6792 B(  4-C , 19-H ) :   0.8766 B(  5-C ,  6-O ) :   0.6792
B(  5-C , 20-H ) :   0.8766

MP2 TOTAL ENERGY:     -311.655891920 Eh
FINAL SINGLE POINT ENERGY      -311.655891920402

DIPOLE MOMENT
-------------
                                X             Y             Z
Electronic contribution:      0.00000      -0.00000       1.09589
Nuclear contribution   :      0.00000      -0.00000      -1.63376
                        -----------------------------------------
Total Dipole Moment    :      0.00000      -0.00000      -0.53786
                        -----------------------------------------
Magnitude (a.u.)       :      0.53786
Magnitude (Debye)      :      1.36714

Rotational constants in cm-1:     0.136332     0.051219     0.045591
Rotational constants in MHz :  4087.116510  1535.495082  1366.789478

                             ****ORCA TERMINATED NORMALLY****
TOTAL RUN TIME: 0 days 0 hours 9 minutes 1 seconds 392 msec
