                         Program Version 5.0.3 -  RELEASE  -
|  1> !ri-mp2 aug-cc-pvtz aug-cc-pvtz/c tightscf
|  2> %pal nprocs 16 end
|  3>
|  4> * xyz 0 1
|  5> O      0.000000    0.687878    0.000070
|  6> N     -0.688992   -1.412640   -0.000142
|  7> N      0.688992   -1.412640   -0.000140
|  8> C     -1.060811   -0.167259   -0.000017
|  9> C      1.060811   -0.167259   -0.000015
| 10> C     -2.366481    0.358061    0.000033
| 11> C      2.366481    0.358061    0.000038
| 12> C     -3.480741    0.800640    0.000075
| 13> C      3.480741    0.800640    0.000084
| 14> H     -4.469667    1.188310    0.000112
| 15> H      4.469667    1.188310    0.000122
| 16> *
| 17>
| 18>                          ****END OF INPUT****

CARTESIAN COORDINATES (ANGSTROEM)
---------------------------------
  O      0.000000    0.687878    0.000070
  N     -0.688992   -1.412640   -0.000142
  N      0.688992   -1.412640   -0.000140
  C     -1.060811   -0.167259   -0.000017
  C      1.060811   -0.167259   -0.000015
  C     -2.366481    0.358061    0.000033
  C      2.366481    0.358061    0.000038
  C     -3.480741    0.800640    0.000075
  C      3.480741    0.800640    0.000084
  H     -4.469667    1.188310    0.000112
  H      4.469667    1.188310    0.000122

 Total Charge           Charge          ....    0
 Multiplicity           Mult            ....    1
 Number of Electrons    NEL             ....   60
 Basis Dimension        Dim             ....  460

ORBITAL ENERGIES
----------------

  NO   OCC          E(Eh)            E(eV)
   0   2.0000     -20.680753      -562.7519
   1   2.0000     -15.624886      -425.1748
   2   2.0000     -15.624233      -425.1570
   3   2.0000     -11.383588      -309.7632
   4   2.0000     -11.383545      -309.7620
   5   2.0000     -11.278230      -306.8962
   6   2.0000     -11.278228      -306.8962
   7   2.0000     -11.273153      -306.7581
   8   2.0000     -11.273152      -306.7581
   9   2.0000      -1.543419       -41.9986
  10   2.0000      -1.331603       -36.2348
  11   2.0000      -1.175607       -31.9899
  12   2.0000      -1.082236       -29.4491
  13   2.0000      -1.055593       -28.7241
  14   2.0000      -0.926798       -25.2194
  15   2.0000      -0.918377       -24.9903
  16   2.0000      -0.809775       -22.0351
  17   2.0000      -0.773841       -21.0573
  18   2.0000      -0.740044       -20.1376
  19   2.0000      -0.713817       -19.4239
  20   2.0000      -0.708967       -19.2920
  21   2.0000      -0.659121       -17.9356
  22   2.0000      -0.527703       -14.3595
  23   2.0000      -0.512413       -13.9435
  24   2.0000      -0.505230       -13.7480
  25   2.0000      -0.482817       -13.1381
  26   2.0000      -0.445641       -12.1265
  27   2.0000      -0.444013       -12.0822
  28   2.0000      -0.437069       -11.8933
  29   2.0000      -0.358683        -9.7603
  30   0.0000       0.023824         0.6483
  31   0.0000       0.024699         0.6721
  32   0.0000       0.050823         1.3830
  33   0.0000       0.061870         1.6836
  34   0.0000       0.069702         1.8967

MULLIKEN ATOMIC CHARGES
-----------------------
   0 O :   -0.219747
   1 N :   -0.437246
   2 N :   -0.437245
   3 C :    0.816020
   4 C :    0.816019
   5 C :    1.124393
   6 C :    1.124394
   7 C :   -1.759530
   8 C :   -1.759530
   9 H :    0.366235
  10 H :    0.366235
Sum of atomic charges:    0.0000000

LOEWDIN ATOMIC CHARGES
----------------------
   0 O :    0.593021
   1 N :    0.212523
   2 N :    0.212523
   3 C :   -0.664019
   4 C :   -0.664019
   5 C :    0.004189
   6 C :    0.004189
   7 C :    0.427687
   8 C :    0.427687
   9 H :   -0.276891
  10 H :   -0.276891

  Mayer bond orders larger than 0.100000
B(  0-O ,  3-C ) :   0.9946 B(  0-O ,  4-C ) :   0.9946 B(  0-O ,  5-C ) :  -0.1027
B(  0-O ,  6-C ) :  -0.1027 B(  1-N ,  2-N ) :   0.2995 B(  1-N ,  3-C ) :   1.2722
B(  1-N ,  4-C ) :   0.1383 B(  1-N ,  5-C ) :  -0.1548 B(  1-N ,  7-C ) :   0.1576
B(  2-N ,  3-C ) :   0.1383 B(  2-N ,  4-C ) :   1.2722 B(  2-N ,  6-C ) :  -0.1548
B(  2-N ,  8-C ) :   0.1576 B(  3-C ,  4-C ) :  -0.2157 B(  3-C ,  5-C ) :   0.9409
B(  3-C ,  7-C ) :  -0.6969 B(  3-C ,  8-C ) :   0.1487 B(  4-C ,  6-C ) :   0.9409
B(  4-C ,  7-C ) :   0.1487 B(  4-C ,  8-C ) :  -0.6969 B(  5-C ,  7-C ) :   0.5645
B(  5-C ,  9-H ) :  -0.3433 B(  6-C ,  8-C ) :   0.5645 B(  6-C , 10-H ) :  -0.3433
B(  7-C ,  9-H ) :   1.3760 B(  8-C , 10-H ) :   1.3760

MP2 TOTAL ENERGY:     -413.638809722 Eh
FINAL SINGLE POINT ENERGY      -413.638809722445

DIPOLE MOMENT
-------------
                                X             Y             Z
Electronic contribution:     -0.00000      -0.88251      -0.00009
Nuclear contribution   :      0.00000       2.26226       0.00022
                        -----------------------------------------
Total Dipole Moment    :     -0.00000       1.37974       0.00014
                        -----------------------------------------
Magnitude (a.u.)       :      1.37974
Magnitude (Debye)      :      3.50703

Rotational constants in cm-1:     0.197341     0.033304     0.028495
Rotational constants in MHz :  5916.130120   998.428038   854.259962

                             ****ORCA TERMINATED NORMALLY****
TOTAL RUN TIME: 0 days 0 hours 3 minutes 26 seconds 595 msec
