                         Program Version 5.0.3 -  RELEASE  -
|  1> !ri-mp2 aug-cc-pvtz aug-cc-pvtz/c tightscf
|  2> %pal nprocs 16 end
|  3>
|  4> * xyz 0 1
|  5> N     -2.017293   -0.027830   -0.195165
|  6> H     -2.820908   -0.592269    0.048212
|  7> H     -2.147266    0.872192    0.248999
|  8> C     -0.776018   -0.669821    0.249843
|  9> H     -0.672045   -0.698833    1.345476
| 10> H     -0.809076   -1.707432   -0.088935
| 11> C      1.722505   -0.804982    0.017003
| 12> H      1.877218   -0.832599    1.098733
| 13> H      1.649672   -1.835748   -0.334919
| 14> H      2.613446   -0.362479   -0.430967
| 15> C      0.606424    1.454776    0.111148
| 16> H      1.501894    1.911846   -0.313053
| 17> H     -0.244796    2.059218   -0.204351
| 18> H      0.687235    1.520067    1.200032
| 19> C      0.469897   -0.001587   -0.340529
| 20> H      0.348831   -0.009471   -1.427859
| 21> *
| 22>
| 23>                          ****END OF INPUT****

CARTESIAN COORDINATES (ANGSTROEM)
---------------------------------
  N     -2.017293   -0.027830   -0.195165
  H     -2.820908   -0.592269    0.048212
  H     -2.147266    0.872192    0.248999
  C     -0.776018   -0.669821    0.249843
  H     -0.672045   -0.698833    1.345476
  H     -0.809076   -1.707432   -0.088935
  C      1.722505   -0.804982    0.017003
  H      1.877218   -0.832599    1.098733
  H      1.649672   -1.835748   -0.334919
  H      2.613446   -0.362479   -0.430967
  C      0.606424    1.454776    0.111148
  H      1.501894    1.911846   -0.313053
  H     -0.244796    2.059218   -0.204351
  H      0.687235    1.520067    1.200032
  C      0.469897   -0.001587   -0.340529
  H      0.348831   -0.009471   -1.427859

 Total Charge           Charge          ....    0
 Multiplicity           Mult            ....    1
 Number of Electrons    NEL             ....   42
 Basis Dimension        Dim             ....  483

ORBITAL ENERGIES
----------------

  NO   OCC          E(Eh)            E(eV)
   0   2.0000     -15.536431      -422.7678
   1   2.0000     -11.242912      -305.9352
   2   2.0000     -11.219987      -305.3114
   3   2.0000     -11.208826      -305.0077
   4   2.0000     -11.208617      -305.0020
   5   2.0000      -1.175681       -31.9919
   6   2.0000      -1.061983       -28.8980
   7   2.0000      -0.928223       -25.2582
   8   2.0000      -0.893806       -24.3217
   9   2.0000      -0.763770       -20.7832
  10   2.0000      -0.667165       -18.1545
  11   2.0000      -0.633649       -17.2425
  12   2.0000      -0.594778       -16.1847
  13   2.0000      -0.580353       -15.7922
  14   2.0000      -0.552678       -15.0391
  15   2.0000      -0.534345       -14.5403
  16   2.0000      -0.517401       -14.0792
  17   2.0000      -0.468756       -12.7555
  18   2.0000      -0.464262       -12.6332
  19   2.0000      -0.459494       -12.5035
  20   2.0000      -0.385716       -10.4959
  21   0.0000       0.030027         0.8171
  22   0.0000       0.036129         0.9831
  23   0.0000       0.038265         1.0412
  24   0.0000       0.040847         1.1115
  25   0.0000       0.056084         1.5261

MULLIKEN ATOMIC CHARGES
-----------------------
   0 N :   -0.623026
   1 H :    0.074216
   2 H :    0.101132
   3 C :   -0.210936
   4 H :    0.264497
   5 H :    0.308639
   6 C :   -1.060910
   7 H :    0.264912
   8 H :    0.261731
   9 H :    0.261355
  10 C :   -1.074591
  11 H :    0.266159
  12 H :    0.283692
  13 H :    0.262437
  14 C :    0.234284
  15 H :    0.386408
Sum of atomic charges:   -0.0000000

LOEWDIN ATOMIC CHARGES
----------------------
   0 N :    0.846323
   1 H :   -0.326996
   2 H :   -0.339504
   3 C :    0.150870
   4 H :   -0.140696
   5 H :   -0.152147
   6 C :    0.577635
   7 H :   -0.162834
   8 H :   -0.166516
   9 H :   -0.167093
  10 C :    0.580885
  11 H :   -0.165863
  12 H :   -0.176520
  13 H :   -0.160721
  14 C :   -0.061226
  15 H :   -0.135597

  Mayer bond orders larger than 0.100000
B(  0-N ,  1-H ) :   1.0312 B(  0-N ,  2-H ) :   0.9889 B(  0-N ,  3-C ) :   0.6732
B(  3-C ,  4-H ) :   0.9485 B(  3-C ,  5-H ) :   0.9261 B(  3-C , 10-C ) :   0.1099
B(  3-C , 14-C ) :   0.8476 B(  6-C ,  7-H ) :   0.9656 B(  6-C ,  8-H ) :   0.9896
B(  6-C ,  9-H ) :   0.9833 B(  6-C , 10-C ) :   0.1216 B(  6-C , 14-C ) :   0.7538
B( 10-C , 11-H ) :   0.9909 B( 10-C , 12-H ) :   0.9653 B( 10-C , 13-H ) :   0.9667
B( 10-C , 14-C ) :   0.7107 B( 14-C , 15-H ) :   0.8054

MP2 TOTAL ENERGY:     -213.347232074 Eh
FINAL SINGLE POINT ENERGY      -213.347232073812

DIPOLE MOMENT
-------------
                                X             Y             Z
Electronic contribution:     -2.16664      -0.41483      -0.78548
Nuclear contribution   :      2.12716       0.34978       1.22971
                        -----------------------------------------
Total Dipole Moment    :     -0.03948      -0.06504       0.44423
                        -----------------------------------------
Magnitude (a.u.)       :      0.45070
Magnitude (Debye)      :      1.14558

Rotational constants in cm-1:     0.249641     0.114944     0.086688
Rotational constants in MHz :  7484.047145  3445.930340  2598.833597

                             ****ORCA TERMINATED NORMALLY****
TOTAL RUN TIME: 0 days 0 hours 3 minutes 23 seconds 580 msec
