                         Program Version 5.0.3 -  RELEASE  -
|  1> !ri-mp2 aug-cc-pvtz aug-cc-pvtz/c tightscf
|  2> %pal nprocs 16 end
|  3>
|  4> * xyz 0 1
|  5> C      2.147973   -1.066945    0.000000
|  6> H      2.507268   -2.095782    0.000000
|  7> H      2.554206   -0.572788    0.882885
|  8> H      2.554206   -0.572788   -0.882885
|  9> C      0.621595   -1.051458    0.000000
| 10> H      0.241625   -1.595107   -0.869387
| 11> H      0.241625   -1.595107    0.869387
| 12> C      0.604486    1.490130    0.000000
| 13> H      1.683307    1.546561    0.000000
| 14> C      0.000000    0.312724    0.000000
| 15> Cl    -1.769241    0.256602    0.000000
| 16> H      0.050536    2.416069    0.000000
| 17> *
| 18>
| 19>                          ****END OF INPUT****

CARTESIAN COORDINATES (ANGSTROEM)
---------------------------------
  C      2.147973   -1.066945    0.000000
  H      2.507268   -2.095782    0.000000
  H      2.554206   -0.572788    0.882885
  H      2.554206   -0.572788   -0.882885
  C      0.621595   -1.051458    0.000000
  H      0.241625   -1.595107   -0.869387
  H      0.241625   -1.595107    0.869387
  C      0.604486    1.490130    0.000000
  H      1.683307    1.546561    0.000000
  C      0.000000    0.312724    0.000000
  Cl    -1.769241    0.256602    0.000000
  H      0.050536    2.416069    0.000000

 Total Charge           Charge          ....    0
 Multiplicity           Mult            ....    1
 Number of Electrons    NEL             ....   48
 Basis Dimension        Dim             ....  395

ORBITAL ENERGIES
----------------

  NO   OCC          E(Eh)            E(eV)
   0   2.0000    -104.832945     -2852.6495
   1   2.0000     -11.304774      -307.6185
   2   2.0000     -11.245478      -306.0050
   3   2.0000     -11.234084      -305.6950
   4   2.0000     -11.227743      -305.5224
   5   2.0000     -10.556874      -287.2671
   6   2.0000      -8.023689      -218.3357
   7   2.0000      -8.021912      -218.2873
   8   2.0000      -8.021899      -218.2870
   9   2.0000      -1.160431       -31.5769
  10   2.0000      -1.054242       -28.6874
  11   2.0000      -0.992558       -27.0089
  12   2.0000      -0.886082       -24.1115
  13   2.0000      -0.732600       -19.9351
  14   2.0000      -0.653536       -17.7836
  15   2.0000      -0.631673       -17.1887
  16   2.0000      -0.609633       -16.5889
  17   2.0000      -0.562420       -15.3042
  18   2.0000      -0.527009       -14.3406
  19   2.0000      -0.514337       -13.9958
  20   2.0000      -0.498609       -13.5678
  21   2.0000      -0.476483       -12.9658
  22   2.0000      -0.444909       -12.1066
  23   2.0000      -0.363308        -9.8861
  24   0.0000       0.029005         0.7893
  25   0.0000       0.034582         0.9410
  26   0.0000       0.041838         1.1385
  27   0.0000       0.042716         1.1624
  28   0.0000       0.056371         1.5339

MULLIKEN ATOMIC CHARGES
-----------------------
   0 C :   -0.861435
   1 H :    0.258302
   2 H :    0.278777
   3 H :    0.278777
   4 C :   -0.294675
   5 H :    0.284816
   6 H :    0.284816
   7 C :   -1.226941
   8 H :    0.345363
   9 C :    0.610288
  10 Cl:   -0.411741
  11 H :    0.453654
Sum of atomic charges:    0.0000000

LOEWDIN ATOMIC CHARGES
----------------------
   0 C :    0.562320
   1 H :   -0.169150
   2 H :   -0.170881
   3 H :   -0.170881
   4 C :    0.144226
   5 H :   -0.172259
   6 H :   -0.172259
   7 C :    0.426536
   8 H :   -0.237494
   9 C :   -0.731972
  10 Cl:    0.934570
  11 H :   -0.242758

  Mayer bond orders larger than 0.100000
B(  0-C ,  1-H ) :   1.0011 B(  0-C ,  2-H ) :   0.9358 B(  0-C ,  3-H ) :   0.9358
B(  0-C ,  4-C ) :   0.8807 B(  4-C ,  5-H ) :   0.9532 B(  4-C ,  6-H ) :   0.9532
B(  4-C ,  9-C ) :   0.7888 B(  7-C ,  8-H ) :   0.9680 B(  7-C ,  9-C ) :   1.4327
B(  7-C , 11-H ) :   0.7565 B(  9-C , 10-Cl) :   0.7612

MP2 TOTAL ENERGY:     -615.986274890 Eh
FINAL SINGLE POINT ENERGY      -615.986274890023

DIPOLE MOMENT
-------------
                                X             Y             Z
Electronic contribution:    -11.51128       2.67101      -0.00000
Nuclear contribution   :     12.30858      -2.82335       0.00000
                        -----------------------------------------
Total Dipole Moment    :      0.79730      -0.15234      -0.00000
                        -----------------------------------------
Magnitude (a.u.)       :      0.81172
Magnitude (Debye)      :      2.06323

Rotational constants in cm-1:     0.268505     0.078341     0.062028
Rotational constants in MHz :  8049.567123  2348.600494  1859.542311

                             ****ORCA TERMINATED NORMALLY****
TOTAL RUN TIME: 0 days 0 hours 1 minutes 59 seconds 329 msec
