                         Program Version 5.0.3 -  RELEASE  -
|  1> !ri-mp2 aug-cc-pvtz aug-cc-pvtz/c tightscf
|  2> %pal nprocs 16 end
|  3>
|  4> * xyz 0 1
|  5> C     0.000000     0.000000    1.454540
|  6> C     0.000000     0.000000    0.123825
|  7> C     0.000000     1.272551   -0.676777
|  8> C     0.000000    -1.272551   -0.676777
|  9> H     0.000000    -0.922142    2.021334
| 10> H     0.000000     0.922142    2.021334
| 11> H     0.876282     1.321528   -1.329331
| 12> H    -0.876282     1.321528   -1.329331
| 13> H     0.000000     2.153807   -0.037106
| 14> H    -0.876282    -1.321528   -1.329331
| 15> H     0.876282    -1.321528   -1.329331
| 16> H     0.000000    -2.153807   -0.037106
| 17> *
| 18>
| 19>                          ****END OF INPUT****

CARTESIAN COORDINATES (ANGSTROEM)
---------------------------------
  C      0.000000    0.000000    1.454540
  C      0.000000    0.000000    0.123825
  C      0.000000    1.272551   -0.676777
  C      0.000000   -1.272551   -0.676777
  H      0.000000   -0.922142    2.021334
  H      0.000000    0.922142    2.021334
  H      0.876282    1.321528   -1.329331
  H     -0.876282    1.321528   -1.329331
  H      0.000000    2.153807   -0.037106
  H     -0.876282   -1.321528   -1.329331
  H      0.876282   -1.321528   -1.329331
  H      0.000000   -2.153807   -0.037106

 Total Charge           Charge          ....    0
 Multiplicity           Mult            ....    1
 Number of Electrons    NEL             ....   32
 Basis Dimension        Dim             ....  368

ORBITAL ENERGIES
----------------

  NO   OCC          E(Eh)            E(eV)
   0   2.0000     -11.238026      -305.8022
   1   2.0000     -11.218985      -305.2841
   2   2.0000     -11.218960      -305.2834
   3   2.0000     -11.207421      -304.9694
   4   2.0000      -1.089798       -29.6549
   5   2.0000      -0.941794       -25.6275
   6   2.0000      -0.927141       -25.2288
   7   2.0000      -0.718886       -19.5619
   8   2.0000      -0.619740       -16.8640
   9   2.0000      -0.610486       -16.6122
  10   2.0000      -0.590144       -16.0586
  11   2.0000      -0.536812       -14.6074
  12   2.0000      -0.521416       -14.1885
  13   2.0000      -0.515962       -14.0400
  14   2.0000      -0.479068       -13.0361
  15   2.0000      -0.347398        -9.4532
  16   0.0000       0.030368         0.8264
  17   0.0000       0.038175         1.0388
  18   0.0000       0.038344         1.0434
  19   0.0000       0.044968         1.2237
  20   0.0000       0.054585         1.4853

MULLIKEN ATOMIC CHARGES
-----------------------
   0 C :   -1.238486
   1 C :    0.855921
   2 C :   -0.942789
   3 C :   -0.942789
   4 H :    0.339058
   5 H :    0.339058
   6 H :    0.269149
   7 H :    0.269149
   8 H :    0.256717
   9 H :    0.269149
  10 H :    0.269149
  11 H :    0.256717
Sum of atomic charges:   -0.0000000

LOEWDIN ATOMIC CHARGES
----------------------
   0 C :    0.532921
   1 C :   -0.163452
   2 C :    0.557268
   3 C :    0.557268
   4 H :   -0.224936
   5 H :   -0.224936
   6 H :   -0.168002
   7 H :   -0.168002
   8 H :   -0.181062
   9 H :   -0.168002
  10 H :   -0.168002
  11 H :   -0.181062

  Mayer bond orders larger than 0.100000
B(  0-C ,  1-C ) :   1.1525 B(  0-C ,  4-H ) :   0.9397 B(  0-C ,  5-H ) :   0.9397
B(  1-C ,  2-C ) :   0.8426 B(  1-C ,  3-C ) :   0.8426 B(  2-C ,  3-C ) :   0.1136
B(  2-C ,  6-H ) :   0.9747 B(  2-C ,  7-H ) :   0.9747 B(  2-C ,  8-H ) :   0.9997
B(  3-C ,  9-H ) :   0.9747 B(  3-C , 10-H ) :   0.9747 B(  3-C , 11-H ) :   0.9997

MP2 TOTAL ENERGY:     -156.864855415 Eh
FINAL SINGLE POINT ENERGY      -156.864855414880

DIPOLE MOMENT
-------------
                                X             Y             Z
Electronic contribution:      0.00000       0.00000       1.21523
Nuclear contribution   :      0.00000      -0.00000      -1.44480
                        -----------------------------------------
Total Dipole Moment    :      0.00000       0.00000      -0.22956
                        -----------------------------------------
Magnitude (a.u.)       :      0.22956
Magnitude (Debye)      :      0.58350

Rotational constants in cm-1:     0.306351     0.280471     0.154743
Rotational constants in MHz :  9184.178283  8408.295919  4639.064983

                             ****ORCA TERMINATED NORMALLY****
TOTAL RUN TIME: 0 days 0 hours 1 minutes 31 seconds 214 msec
