                         Program Version 5.0.3 -  RELEASE  -
|  1> !ri-mp2 aug-cc-pvtz aug-cc-pvtz/c tightscf
|  2> %pal nprocs 16 end
|  3>
|  4> * xyz 0 1
|  5> S     -1.970085   -1.004828    0.404057
|  6> S     -1.139601    1.747515   -0.120095
|  7> O      2.148970    1.195734   -0.147249
|  8> O      1.936106   -0.474436    1.215650
|  9> N      1.643397    0.143182    0.214618
| 10> C      0.530339   -0.432912   -0.684238
| 11> C     -0.823235    0.025273   -0.124545
| 12> C      0.716287   -1.928719   -0.821212
| 13> H      0.055105    2.176069   -0.582816
| 14> H      0.695123    0.073347   -1.632561
| 15> H      0.587915   -2.431303    0.132211
| 16> H     -0.020664   -2.316756   -1.520848
| 17> H      1.712761   -2.138853   -1.208928
| 18> *
| 19>
| 20>                          ****END OF INPUT****

CARTESIAN COORDINATES (ANGSTROEM)
---------------------------------
  S     -1.970085   -1.004828    0.404057
  S     -1.139601    1.747515   -0.120095
  O      2.148970    1.195734   -0.147249
  O      1.936106   -0.474436    1.215650
  N      1.643397    0.143182    0.214618
  C      0.530339   -0.432912   -0.684238
  C     -0.823235    0.025273   -0.124545
  C      0.716287   -1.928719   -0.821212
  H      0.055105    2.176069   -0.582816
  H      0.695123    0.073347   -1.632561
  H      0.587915   -2.431303    0.132211
  H     -0.020664   -2.316756   -1.520848
  H      1.712761   -2.138853   -1.208928

 Total Charge           Charge          ....    0
 Multiplicity           Mult            ....    1
 Number of Electrons    NEL             ....   78
 Basis Dimension        Dim             ....  491

ORBITAL ENERGIES
----------------

  NO   OCC          E(Eh)            E(eV)
   0   2.0000     -92.009462     -2503.7048
   1   2.0000     -91.963386     -2502.4509
   2   2.0000     -20.627539      -561.3039
   3   2.0000     -20.622510      -561.1670
   4   2.0000     -15.866730      -431.7557
   5   2.0000     -11.383830      -309.7697
   6   2.0000     -11.351137      -308.8801
   7   2.0000     -11.256458      -306.3038
   8   2.0000      -9.010532      -245.1890
   9   2.0000      -8.965661      -243.9680
  10   2.0000      -6.691534      -182.0859
  11   2.0000      -6.690496      -182.0576
  12   2.0000      -6.689662      -182.0350
  13   2.0000      -6.646439      -180.8588
  14   2.0000      -6.645642      -180.8371
  15   2.0000      -6.644144      -180.7964
  16   2.0000      -1.628541       -44.3149
  17   2.0000      -1.424369       -38.7590
  18   2.0000      -1.187451       -32.3122
  19   2.0000      -1.088964       -29.6322
  20   2.0000      -0.998263       -27.1641
  21   2.0000      -0.970497       -26.4086
  22   2.0000      -0.874854       -23.8060
  23   2.0000      -0.796850       -21.6834
  24   2.0000      -0.761829       -20.7304
  25   2.0000      -0.743403       -20.2290
  26   2.0000      -0.714368       -19.4389
  27   2.0000      -0.667438       -18.1619
  28   2.0000      -0.616708       -16.7815
  29   2.0000      -0.590813       -16.0768
  30   2.0000      -0.571954       -15.5637
  31   2.0000      -0.544446       -14.8151
  32   2.0000      -0.518956       -14.1215
  33   2.0000      -0.511629       -13.9221
  34   2.0000      -0.499648       -13.5961
  35   2.0000      -0.480285       -13.0692
  36   2.0000      -0.471588       -12.8326
  37   2.0000      -0.371252       -10.1023
  38   2.0000      -0.369293       -10.0490
  39   0.0000       0.013584         0.3696
  40   0.0000       0.026277         0.7150
  41   0.0000       0.036020         0.9802
  42   0.0000       0.042909         1.1676
  43   0.0000       0.045784         1.2458

MULLIKEN ATOMIC CHARGES
-----------------------
   0 S :   -0.397498
   1 S :   -0.268223
   2 O :   -0.720731
   3 O :   -0.714376
   4 N :    0.991011
   5 C :    0.140578
   6 C :    0.269242
   7 C :   -0.852279
   8 H :    0.195123
   9 H :    0.375528
  10 H :    0.366088
  11 H :    0.341966
  12 H :    0.273571
Sum of atomic charges:    0.0000000

LOEWDIN ATOMIC CHARGES
----------------------
   0 S :    0.941942
   1 S :    1.281235
   2 O :    0.385635
   3 O :    0.412318
   4 N :   -0.705374
   5 C :   -0.275891
   6 C :   -1.252985
   7 C :    0.521455
   8 H :   -0.585147
   9 H :   -0.187356
  10 H :   -0.198912
  11 H :   -0.176285
  12 H :   -0.160634

  Mayer bond orders larger than 0.100000
B(  0-S ,  6-C ) :   1.6959 B(  1-S ,  6-C ) :   1.0417 B(  1-S ,  8-H ) :   0.9982
B(  2-O ,  3-O ) :   0.1557 B(  2-O ,  4-N ) :   1.0775 B(  3-O ,  4-N ) :   1.1043
B(  4-N ,  5-C ) :   0.9405 B(  5-C ,  6-C ) :   0.9327 B(  5-C ,  7-C ) :   0.7825
B(  5-C ,  9-H ) :   0.8530 B(  7-C , 10-H ) :   0.9290 B(  7-C , 11-H ) :   0.9229
B(  7-C , 12-H ) :   0.9608

MP2 TOTAL ENERGY:    -1117.329207559 Eh
FINAL SINGLE POINT ENERGY     -1117.329207558619

DIPOLE MOMENT
-------------
                                X             Y             Z
Electronic contribution:     -3.20559       4.26961       3.42347
Nuclear contribution   :      3.10058      -4.50346      -4.65402
                        -----------------------------------------
Total Dipole Moment    :     -0.10501      -0.23385      -1.23055
                        -----------------------------------------
Magnitude (a.u.)       :      1.25696
Magnitude (Debye)      :      3.19495

Rotational constants in cm-1:     0.061227     0.041100     0.028870
Rotational constants in MHz :  1835.543257  1232.145557   865.505012

                             ****ORCA TERMINATED NORMALLY****
TOTAL RUN TIME: 0 days 0 hours 5 minutes 38 seconds 496 msec
