                         Program Version 5.0.3 -  RELEASE  -
|  1> !ri-mp2 aug-cc-pvtz aug-cc-pvtz/c tightscf
|  2> %pal nprocs 16 end
|  3>
|  4> * xyz 0 1
|  5> C     -0.213058    2.110789   -0.000013
|  6> C      1.042586    1.522127    0.000007
|  7> C     -1.349117    1.314820   -0.000027
|  8> C      1.187094    0.132469   -0.000047
|  9> C      0.046570   -0.684289   -0.000161
| 10> C     -1.210519   -0.067972   -0.000041
| 11> C      2.574664   -0.460211    0.000086
| 12> C      0.106756   -2.189188   -0.000088
| 13> O     -2.303561   -0.899154    0.000146
| 14> H     -0.310027    3.188042    0.000026
| 15> H      1.926806    2.145506    0.000092
| 16> H     -2.337118    1.760334    0.000039
| 17> H      2.748533   -1.085830    0.877800
| 18> H      2.749167   -1.084718   -0.878307
| 19> H      3.326642    0.326983    0.000827
| 20> H     -0.398378   -2.599980    0.876317
| 21> H     -0.408082   -2.600325   -0.870566
| 22> H      1.128274   -2.557539   -0.005554
| 23> H     -3.107182   -0.370501   -0.000145
| 24> *
| 25>
| 26>                          ****END OF INPUT****

CARTESIAN COORDINATES (ANGSTROEM)
---------------------------------
  C     -0.213058    2.110789   -0.000013
  C      1.042586    1.522127    0.000007
  C     -1.349117    1.314820   -0.000027
  C      1.187094    0.132469   -0.000047
  C      0.046570   -0.684289   -0.000161
  C     -1.210519   -0.067972   -0.000041
  C      2.574664   -0.460211    0.000086
  C      0.106756   -2.189188   -0.000088
  O     -2.303561   -0.899154    0.000146
  H     -0.310027    3.188042    0.000026
  H      1.926806    2.145506    0.000092
  H     -2.337118    1.760334    0.000039
  H      2.748533   -1.085830    0.877800
  H      2.749167   -1.084718   -0.878307
  H      3.326642    0.326983    0.000827
  H     -0.398378   -2.599980    0.876317
  H     -0.408082   -2.600325   -0.870566
  H      1.128274   -2.557539   -0.005554
  H     -3.107182   -0.370501   -0.000145

 Total Charge           Charge          ....    0
 Multiplicity           Mult            ....    1
 Number of Electrons    NEL             ....   66
 Basis Dimension        Dim             ....  644

ORBITAL ENERGIES
----------------

  NO   OCC          E(Eh)            E(eV)
   0   2.0000     -20.587288      -560.2086
   1   2.0000     -11.294931      -307.3507
   2   2.0000     -11.241111      -305.8862
   3   2.0000     -11.233106      -305.6683
   4   2.0000     -11.229900      -305.5811
   5   2.0000     -11.225790      -305.4693
   6   2.0000     -11.221526      -305.3533
   7   2.0000     -11.217713      -305.2495
   8   2.0000     -11.214011      -305.1487
   9   2.0000      -1.401248       -38.1299
  10   2.0000      -1.151678       -31.3387
  11   2.0000      -1.052711       -28.6457
  12   2.0000      -1.024039       -27.8655
  13   2.0000      -0.946542       -25.7567
  14   2.0000      -0.916540       -24.9403
  15   2.0000      -0.822318       -22.3764
  16   2.0000      -0.798249       -21.7215
  17   2.0000      -0.708532       -19.2801
  18   2.0000      -0.672983       -18.3128
  19   2.0000      -0.655509       -17.8373
  20   2.0000      -0.602538       -16.3959
  21   2.0000      -0.600223       -16.3329
  22   2.0000      -0.569411       -15.4945
  23   2.0000      -0.569164       -15.4877
  24   2.0000      -0.559863       -15.2347
  25   2.0000      -0.543945       -14.8015
  26   2.0000      -0.543347       -14.7852
  27   2.0000      -0.529998       -14.4220
  28   2.0000      -0.494561       -13.4577
  29   2.0000      -0.476208       -12.9583
  30   2.0000      -0.467538       -12.7223
  31   2.0000      -0.323135        -8.7929
  32   2.0000      -0.307480        -8.3670
  33   0.0000       0.027238         0.7412
  34   0.0000       0.032276         0.8783
  35   0.0000       0.033937         0.9235
  36   0.0000       0.043829         1.1926
  37   0.0000       0.045598         1.2408

MULLIKEN ATOMIC CHARGES
-----------------------
   0 C :   -0.316141
   1 C :   -1.114039
   2 C :   -0.805151
   3 C :    1.036701
   4 C :    0.599857
   5 C :    0.478968
   6 C :   -0.915658
   7 C :   -0.990043
   8 O :   -0.775693
   9 H :    0.498494
  10 H :    0.139624
  11 H :    0.563692
  12 H :    0.227247
  13 H :    0.227877
  14 H :    0.210798
  15 H :    0.251348
  16 H :    0.251608
  17 H :    0.311605
  18 H :    0.118907
Sum of atomic charges:   -0.0000000

LOEWDIN ATOMIC CHARGES
----------------------
   0 C :    0.187605
   1 C :    0.204842
   2 C :    0.208755
   3 C :   -0.098465
   4 C :   -0.079004
   5 C :   -0.354915
   6 C :    0.577303
   7 C :    0.578121
   8 O :    0.849986
   9 H :   -0.182673
  10 H :   -0.190920
  11 H :   -0.187272
  12 H :   -0.163561
  13 H :   -0.163641
  14 H :   -0.180750
  15 H :   -0.163813
  16 H :   -0.164261
  17 H :   -0.198345
  18 H :   -0.478990

  Mayer bond orders larger than 0.100000
B(  0-C ,  1-C ) :   0.9740 B(  0-C ,  2-C ) :   0.9903 B(  0-C ,  5-C ) :  -0.2279
B(  0-C ,  9-H ) :   0.7149 B(  1-C ,  2-C ) :   0.2547 B(  1-C ,  3-C ) :   0.2467
B(  1-C ,  4-C ) :   0.3121 B(  1-C ,  9-H ) :  -0.1201 B(  1-C , 10-H ) :   1.3592
B(  2-C ,  3-C ) :  -0.2442 B(  2-C ,  4-C ) :   0.3552 B(  2-C ,  5-C ) :   0.9147
B(  2-C ,  8-O ) :  -0.1027 B(  2-C , 11-H ) :   0.5504 B(  3-C ,  4-C ) :   0.8887
B(  3-C ,  6-C ) :   0.5179 B(  3-C ,  7-C ) :   0.1146 B(  4-C ,  5-C ) :   1.1277
B(  4-C ,  6-C ) :   0.1053 B(  4-C ,  7-C ) :   0.5039 B(  5-C ,  8-O ) :   0.5035
B(  5-C ,  9-H ) :   0.1080 B(  6-C , 12-H ) :   1.0238 B(  6-C , 13-H ) :   1.0228
B(  6-C , 14-H ) :   1.0704 B(  7-C , 15-H ) :   1.0040 B(  7-C , 16-H ) :   1.0032
B(  7-C , 17-H ) :   0.9530 B(  8-O , 18-H ) :   1.0886

MP2 TOTAL ENERGY:     -385.336345618 Eh
FINAL SINGLE POINT ENERGY      -385.336345618058

DIPOLE MOMENT
-------------
                                X             Y             Z
Electronic contribution:     -5.47637       3.18968      -0.00060
Nuclear contribution   :      5.35954      -2.93448       0.00054
                        -----------------------------------------
Total Dipole Moment    :     -0.11683       0.25520      -0.00006
                        -----------------------------------------
Magnitude (a.u.)       :      0.28067
Magnitude (Debye)      :      0.71341

Rotational constants in cm-1:     0.075121     0.059124     0.033491
Rotational constants in MHz :  2252.083400  1772.507113  1004.048127

                             ****ORCA TERMINATED NORMALLY****
TOTAL RUN TIME: 0 days 0 hours 9 minutes 54 seconds 781 msec
