                         Program Version 5.0.3 -  RELEASE  -
|  1> !ri-mp2 aug-cc-pvtz aug-cc-pvtz/c tightscf
|  2> %pal nprocs 16 end
|  3>
|  4> * xyz 0 1
|  5> C      0.937510   -0.611839   -0.203807
|  6> C     -1.492937   -0.871125    0.255516
|  7> C     -0.484063    1.465272    0.040969
|  8> C     -0.424750    0.011005   -0.411659
|  9> O      1.895644   -0.059648    0.273304
| 10> H      1.010074   -1.671441   -0.531638
| 11> H     -1.421772   -1.909325   -0.072827
| 12> H     -2.490925   -0.510468    0.007755
| 13> H     -1.387988   -0.851504    1.341538
| 14> H     -1.458920    1.896200   -0.188710
| 15> H      0.282990    2.063378   -0.448681
| 16> H     -0.321324    1.543319    1.116354
| 17> H     -0.591848   -0.042855   -1.496335
| 18> *
| 19>
| 20>                          ****END OF INPUT****

CARTESIAN COORDINATES (ANGSTROEM)
---------------------------------
  C      0.937510   -0.611839   -0.203807
  C     -1.492937   -0.871125    0.255516
  C     -0.484063    1.465272    0.040969
  C     -0.424750    0.011005   -0.411659
  O      1.895644   -0.059648    0.273304
  H      1.010074   -1.671441   -0.531638
  H     -1.421772   -1.909325   -0.072827
  H     -2.490925   -0.510468    0.007755
  H     -1.387988   -0.851504    1.341538
  H     -1.458920    1.896200   -0.188710
  H      0.282990    2.063378   -0.448681
  H     -0.321324    1.543319    1.116354
  H     -0.591848   -0.042855   -1.496335

 Total Charge           Charge          ....    0
 Multiplicity           Mult            ....    1
 Number of Electrons    NEL             ....   40
 Basis Dimension        Dim             ....  414

ORBITAL ENERGIES
----------------

  NO   OCC          E(Eh)            E(eV)
   0   2.0000     -20.557471      -559.3972
   1   2.0000     -11.328685      -308.2692
   2   2.0000     -11.249229      -306.1071
   3   2.0000     -11.234212      -305.6984
   4   2.0000     -11.219152      -305.2886
   5   2.0000      -1.395263       -37.9670
   6   2.0000      -1.092604       -29.7313
   7   2.0000      -0.946632       -25.7592
   8   2.0000      -0.888601       -24.1801
   9   2.0000      -0.760794       -20.7023
  10   2.0000      -0.681327       -18.5398
  11   2.0000      -0.642970       -17.4961
  12   2.0000      -0.625286       -17.0149
  13   2.0000      -0.567910       -15.4536
  14   2.0000      -0.551880       -15.0174
  15   2.0000      -0.535674       -14.5764
  16   2.0000      -0.525204       -14.2915
  17   2.0000      -0.495650       -13.4873
  18   2.0000      -0.482688       -13.1346
  19   2.0000      -0.415316       -11.3013
  20   0.0000       0.025968         0.7066
  21   0.0000       0.036023         0.9802
  22   0.0000       0.037247         1.0136
  23   0.0000       0.043334         1.1792
  24   0.0000       0.057174         1.5558

MULLIKEN ATOMIC CHARGES
-----------------------
   0 C :   -0.078345
   1 C :   -0.971299
   2 C :   -0.911769
   3 C :    0.238548
   4 O :   -0.776578
   5 H :    0.477427
   6 H :    0.266711
   7 H :    0.281376
   8 H :    0.305354
   9 H :    0.269897
  10 H :    0.281869
  11 H :    0.295679
  12 H :    0.321130
Sum of atomic charges:   -0.0000000

LOEWDIN ATOMIC CHARGES
----------------------
   0 C :   -0.210243
   1 C :    0.578790
   2 C :    0.570315
   3 C :   -0.083136
   4 O :    0.452135
   5 H :   -0.170039
   6 H :   -0.171198
   7 H :   -0.163711
   8 H :   -0.160803
   9 H :   -0.167000
  10 H :   -0.168712
  11 H :   -0.163767
  12 H :   -0.142633

  Mayer bond orders larger than 0.100000
B(  0-C ,  1-C ) :   0.1106 B(  0-C ,  3-C ) :   0.7611 B(  0-C ,  4-O ) :   1.5103
B(  0-C ,  5-H ) :   0.7273 B(  1-C ,  3-C ) :   0.8058 B(  1-C ,  6-H ) :   0.9752
B(  1-C ,  7-H ) :   0.9526 B(  1-C ,  8-H ) :   0.9289 B(  2-C ,  3-C ) :   0.7990
B(  2-C ,  9-H ) :   0.9628 B(  2-C , 10-H ) :   0.9627 B(  2-C , 11-H ) :   0.9425
B(  3-C , 12-H ) :   0.9193

MP2 TOTAL ENERGY:     -232.006314375 Eh
FINAL SINGLE POINT ENERGY      -232.006314374690

DIPOLE MOMENT
-------------
                                X             Y             Z
Electronic contribution:      5.49497      -0.90784      -0.16300
Nuclear contribution   :     -6.61542       0.53796      -0.27946
                        -----------------------------------------
Total Dipole Moment    :     -1.12044      -0.36988      -0.44246
                        -----------------------------------------
Magnitude (a.u.)       :      1.26015
Magnitude (Debye)      :      3.20304

Rotational constants in cm-1:     0.249337     0.136398     0.098884
Rotational constants in MHz :  7474.935487  4089.119496  2964.478915

                             ****ORCA TERMINATED NORMALLY****
TOTAL RUN TIME: 0 days 0 hours 2 minutes 30 seconds 43 msec
