                         Program Version 5.0.3 -  RELEASE  -
|  1> !ri-mp2 aug-cc-pvtz aug-cc-pvtz/c tightscf
|  2> %pal nprocs 16 end
|  3>
|  4> * xyz 0 1
|  5> F     -0.375818    1.697446    0.222764
|  6> O      0.626983    0.220870   -1.127340
|  7> O     -2.388585    0.216606   -0.155235
|  8> O     -1.228699   -1.610380    0.030610
|  9> N     -1.359931   -0.402241   -0.018206
| 10> C     -0.021614    0.404745    0.085285
| 11> C      0.896960   -0.092476    1.209348
| 12> C      1.920548   -0.209156   -0.846755
| 13> C      2.155262   -0.394312    0.440990
| 14> H      0.482254   -0.975565    1.692874
| 15> H      1.010076    0.694126    1.955231
| 16> H      2.540130   -0.330936   -1.718095
| 17> H      3.084893   -0.718520    0.875072
| 18> *
| 19>
| 20>                          ****END OF INPUT****

CARTESIAN COORDINATES (ANGSTROEM)
---------------------------------
  F     -0.375818    1.697446    0.222764
  O      0.626983    0.220870   -1.127340
  O     -2.388585    0.216606   -0.155235
  O     -1.228699   -1.610380    0.030610
  N     -1.359931   -0.402241   -0.018206
  C     -0.021614    0.404745    0.085285
  C      0.896960   -0.092476    1.209348
  C      1.920548   -0.209156   -0.846755
  C      2.155262   -0.394312    0.440990
  H      0.482254   -0.975565    1.692874
  H      1.010076    0.694126    1.955231
  H      2.540130   -0.330936   -1.718095
  H      3.084893   -0.718520    0.875072

 Total Charge           Charge          ....    0
 Multiplicity           Mult            ....    1
 Number of Electrons    NEL             ....   68
 Basis Dimension        Dim             ....  506

ORBITAL ENERGIES
----------------

  NO   OCC          E(Eh)            E(eV)
   0   2.0000     -26.343202      -716.8350
   1   2.0000     -20.639000      -561.6157
   2   2.0000     -20.623576      -561.1960
   3   2.0000     -20.615701      -560.9817
   4   2.0000     -15.859858      -431.5687
   5   2.0000     -11.471181      -312.1467
   6   2.0000     -11.328291      -308.2585
   7   2.0000     -11.283429      -307.0377
   8   2.0000     -11.263296      -306.4899
   9   2.0000      -1.677654       -45.6513
  10   2.0000      -1.620146       -44.0864
  11   2.0000      -1.474271       -40.1170
  12   2.0000      -1.421691       -38.6862
  13   2.0000      -1.126334       -30.6491
  14   2.0000      -1.086904       -29.5762
  15   2.0000      -0.963603       -26.2210
  16   2.0000      -0.871805       -23.7230
  17   2.0000      -0.843226       -22.9454
  18   2.0000      -0.814162       -22.1545
  19   2.0000      -0.780641       -21.2423
  20   2.0000      -0.739045       -20.1104
  21   2.0000      -0.728339       -19.8191
  22   2.0000      -0.717100       -19.5133
  23   2.0000      -0.700745       -19.0682
  24   2.0000      -0.670369       -18.2417
  25   2.0000      -0.637505       -17.3474
  26   2.0000      -0.608211       -16.5503
  27   2.0000      -0.597047       -16.2465
  28   2.0000      -0.574728       -15.6391
  29   2.0000      -0.560572       -15.2540
  30   2.0000      -0.512166       -13.9368
  31   2.0000      -0.491317       -13.3694
  32   2.0000      -0.466056       -12.6820
  33   2.0000      -0.382826       -10.4172
  34   0.0000       0.021094         0.5740
  35   0.0000       0.030802         0.8382
  36   0.0000       0.039073         1.0632
  37   0.0000       0.044680         1.2158
  38   0.0000       0.072131         1.9628

MULLIKEN ATOMIC CHARGES
-----------------------
   0 F :   -0.441959
   1 O :   -0.501551
   2 O :   -0.668390
   3 O :   -0.680063
   4 N :    0.947682
   5 C :    1.226245
   6 C :   -0.515936
   7 C :   -0.624833
   8 C :   -0.521493
   9 H :    0.336686
  10 H :    0.297659
  11 H :    0.742565
  12 H :    0.403389
Sum of atomic charges:    0.0000000

LOEWDIN ATOMIC CHARGES
----------------------
   0 F :    0.542458
   1 O :    0.572397
   2 O :    0.382057
   3 O :    0.383710
   4 N :   -0.696191
   5 C :   -1.011919
   6 C :    0.273233
   7 C :    0.005674
   8 C :    0.233991
   9 H :   -0.174389
  10 H :   -0.151285
  11 H :   -0.177174
  12 H :   -0.182562

  Mayer bond orders larger than 0.100000
B(  0-F ,  5-C ) :   0.4884 B(  1-O ,  5-C ) :   0.7452 B(  1-O ,  7-C ) :   1.0319
B(  1-O ,  8-C ) :  -0.1375 B(  2-O ,  3-O ) :   0.1604 B(  2-O ,  4-N ) :   1.1142
B(  3-O ,  4-N ) :   1.1046 B(  4-N ,  5-C ) :   0.9639 B(  5-C ,  6-C ) :   1.0032
B(  5-C ,  7-C ) :  -0.1338 B(  6-C ,  8-C ) :   1.0116 B(  6-C ,  9-H ) :   0.8835
B(  6-C , 10-H ) :   0.9112 B(  7-C ,  8-C ) :   1.4715 B(  7-C , 11-H ) :   0.3226
B(  8-C , 12-H ) :   0.9200

MP2 TOTAL ENERGY:     -534.161568767 Eh
FINAL SINGLE POINT ENERGY      -534.161568767245

DIPOLE MOMENT
-------------
                                X             Y             Z
Electronic contribution:     -5.25112       2.88124      -1.86498
Nuclear contribution   :      7.13349      -2.90596       2.46174
                        -----------------------------------------
Total Dipole Moment    :      1.88237      -0.02471       0.59676
                        -----------------------------------------
Magnitude (a.u.)       :      1.97485
Magnitude (Debye)      :      5.01968

Rotational constants in cm-1:     0.100834     0.049909     0.043952
Rotational constants in MHz :  3022.934413  1496.245461  1317.652943

                             ****ORCA TERMINATED NORMALLY****
TOTAL RUN TIME: 0 days 0 hours 5 minutes 17 seconds 83 msec
