                         Program Version 5.0.3 -  RELEASE  -
|  1> !ri-mp2 aug-cc-pvtz aug-cc-pvtz/c tightscf
|  2> %pal nprocs 16 end
|  3>
|  4> * xyz 0 1
|  5> C     -1.943932   -1.168905   -0.210590
|  6> C     -1.162345   -0.135589    0.096240
|  7> C     -1.665731    1.281359    0.033583
|  8> C      2.748156   -0.046354    0.013425
|  9> C      0.268935   -0.331004    0.532941
| 10> C      1.316548    0.202314   -0.457619
| 11> H     -1.582768   -2.188058   -0.155400
| 12> H     -2.970744   -1.031650   -0.524857
| 13> H     -1.553525    1.775593    1.002859
| 14> H     -1.100728    1.876555   -0.687415
| 15> H     -2.716479    1.319449   -0.249678
| 16> H      2.941697   -1.113171    0.142398
| 17> H      2.938946    0.440991    0.971889
| 18> H      3.474380    0.337828   -0.704090
| 19> H      0.450856   -1.395047    0.699684
| 20> H      0.420342    0.167127    1.497865
| 21> H      1.169178    1.273433   -0.612395
| 22> H      1.159056   -0.273982   -1.428743
| 23> *
| 24>
| 25>                          ****END OF INPUT****

CARTESIAN COORDINATES (ANGSTROEM)
---------------------------------
  C     -1.943932   -1.168905   -0.210590
  C     -1.162345   -0.135589    0.096240
  C     -1.665731    1.281359    0.033583
  C      2.748156   -0.046354    0.013425
  C      0.268935   -0.331004    0.532941
  C      1.316548    0.202314   -0.457619
  H     -1.582768   -2.188058   -0.155400
  H     -2.970744   -1.031650   -0.524857
  H     -1.553525    1.775593    1.002859
  H     -1.100728    1.876555   -0.687415
  H     -2.716479    1.319449   -0.249678
  H      2.941697   -1.113171    0.142398
  H      2.938946    0.440991    0.971889
  H      3.474380    0.337828   -0.704090
  H      0.450856   -1.395047    0.699684
  H      0.420342    0.167127    1.497865
  H      1.169178    1.273433   -0.612395
  H      1.159056   -0.273982   -1.428743

 Total Charge           Charge          ....    0
 Multiplicity           Mult            ....    1
 Number of Electrons    NEL             ....   48
 Basis Dimension        Dim             ....  552

ORBITAL ENERGIES
----------------

  NO   OCC          E(Eh)            E(eV)
   0   2.0000     -11.234955      -305.7187
   1   2.0000     -11.221093      -305.3415
   2   2.0000     -11.219998      -305.3117
   3   2.0000     -11.217749      -305.2505
   4   2.0000     -11.212330      -305.1030
   5   2.0000     -11.206945      -304.9565
   6   2.0000      -1.101354       -29.9694
   7   2.0000      -1.034192       -28.1418
   8   2.0000      -0.934711       -25.4348
   9   2.0000      -0.920197       -25.0398
  10   2.0000      -0.811385       -22.0789
  11   2.0000      -0.717298       -19.5187
  12   2.0000      -0.639530       -17.4025
  13   2.0000      -0.625616       -17.0239
  14   2.0000      -0.588931       -16.0256
  15   2.0000      -0.578577       -15.7439
  16   2.0000      -0.561554       -15.2807
  17   2.0000      -0.529548       -14.4097
  18   2.0000      -0.518812       -14.1176
  19   2.0000      -0.507588       -13.8122
  20   2.0000      -0.480267       -13.0687
  21   2.0000      -0.468124       -12.7383
  22   2.0000      -0.460304       -12.5255
  23   2.0000      -0.345602        -9.4043
  24   0.0000       0.030089         0.8188
  25   0.0000       0.035390         0.9630
  26   0.0000       0.036152         0.9837
  27   0.0000       0.038742         1.0542
  28   0.0000       0.050664         1.3786

MULLIKEN ATOMIC CHARGES
-----------------------
   0 C :   -1.240893
   1 C :    0.809377
   2 C :   -0.959577
   3 C :   -0.992472
   4 C :   -0.336202
   5 C :   -0.462355
   6 H :    0.313226
   7 H :    0.333068
   8 H :    0.261677
   9 H :    0.249652
  10 H :    0.242621
  11 H :    0.276715
  12 H :    0.267007
  13 H :    0.268379
  14 H :    0.171439
  15 H :    0.280377
  16 H :    0.251623
  17 H :    0.266338
Sum of atomic charges:    0.0000000

LOEWDIN ATOMIC CHARGES
----------------------
   0 C :    0.544362
   1 C :   -0.133484
   2 C :    0.567403
   3 C :    0.580864
   4 C :    0.257731
   5 C :    0.261065
   6 H :   -0.220168
   7 H :   -0.222268
   8 H :   -0.163076
   9 H :   -0.174150
  10 H :   -0.179164
  11 H :   -0.170689
  12 H :   -0.170154
  13 H :   -0.172786
  14 H :   -0.159992
  15 H :   -0.142799
  16 H :   -0.159285
  17 H :   -0.143413

  Mayer bond orders larger than 0.100000
B(  0-C ,  1-C ) :   1.0456 B(  0-C ,  2-C ) :  -0.1142 B(  0-C ,  6-H ) :   0.9861
B(  0-C ,  7-H ) :   0.9331 B(  1-C ,  2-C ) :   0.8122 B(  1-C ,  4-C ) :   0.9316
B(  2-C ,  8-H ) :   0.9881 B(  2-C ,  9-H ) :   1.0100 B(  2-C , 10-H ) :   1.0244
B(  3-C ,  5-C ) :   0.8786 B(  3-C , 11-H ) :   0.9619 B(  3-C , 12-H ) :   0.9569
B(  3-C , 13-H ) :   0.9764 B(  4-C ,  5-C ) :   0.9223 B(  4-C , 14-H ) :   1.0322
B(  4-C , 15-H ) :   0.9474 B(  5-C , 16-H ) :   0.9483 B(  5-C , 17-H ) :   0.9617

MP2 TOTAL ENERGY:     -235.314424715 Eh
FINAL SINGLE POINT ENERGY      -235.314424714926

DIPOLE MOMENT
-------------
                                X             Y             Z
Electronic contribution:     -2.66460      -1.09274       0.07126
Nuclear contribution   :      2.81727       1.27363      -0.05129
                        -----------------------------------------
Total Dipole Moment    :      0.15267       0.18089       0.01997
                        -----------------------------------------
Magnitude (a.u.)       :      0.23755
Magnitude (Debye)      :      0.60379

Rotational constants in cm-1:     0.231274     0.060724     0.052631
Rotational constants in MHz :  6933.419666  1820.469963  1577.828115

                             ****ORCA TERMINATED NORMALLY****
TOTAL RUN TIME: 0 days 0 hours 5 minutes 37 seconds 177 msec
