                         Program Version 5.0.3 -  RELEASE  -
|  1> !ri-mp2 aug-cc-pvtz aug-cc-pvtz/c tightscf
|  2> %pal nprocs 16 end
|  3>
|  4> * xyz 0 1
|  5> C      1.137455    0.146005   -0.002101
|  6> C      2.339985   -0.775148    0.003438
|  7> C     -2.754057   -0.294448   -0.000481
|  8> C     -0.225440   -0.525525   -0.005704
|  9> C     -1.410723    0.432588    0.006368
| 10> O      1.262714    1.350118   -0.002835
| 11> H      2.311679   -1.443961   -0.859263
| 12> H      2.326989   -1.406936    0.894211
| 13> H      3.256222   -0.191143   -0.015540
| 14> H     -2.862511   -0.940914    0.873136
| 15> H     -2.864356   -0.920583   -0.888559
| 16> H     -3.583566    0.413374    0.008555
| 17> H     -0.263760   -1.203516    0.854803
| 18> H     -0.266645   -1.183799   -0.881400
| 19> H     -1.338759    1.077971    0.883375
| 20> H     -1.340329    1.097732   -0.855756
| 21> *
| 22>
| 23>                          ****END OF INPUT****

CARTESIAN COORDINATES (ANGSTROEM)
---------------------------------
  C      1.137455    0.146005   -0.002101
  C      2.339985   -0.775148    0.003438
  C     -2.754057   -0.294448   -0.000481
  C     -0.225440   -0.525525   -0.005704
  C     -1.410723    0.432588    0.006368
  O      1.262714    1.350118   -0.002835
  H      2.311679   -1.443961   -0.859263
  H      2.326989   -1.406936    0.894211
  H      3.256222   -0.191143   -0.015540
  H     -2.862511   -0.940914    0.873136
  H     -2.864356   -0.920583   -0.888559
  H     -3.583566    0.413374    0.008555
  H     -0.263760   -1.203516    0.854803
  H     -0.266645   -1.183799   -0.881400
  H     -1.338759    1.077971    0.883375
  H     -1.340329    1.097732   -0.855756

 Total Charge           Charge          ....    0
 Multiplicity           Mult            ....    1
 Number of Electrons    NEL             ....   48
 Basis Dimension        Dim             ....  506

ORBITAL ENERGIES
----------------

  NO   OCC          E(Eh)            E(eV)
   0   2.0000     -20.543435      -559.0153
   1   2.0000     -11.328613      -308.2672
   2   2.0000     -11.236641      -305.7646
   3   2.0000     -11.233283      -305.6732
   4   2.0000     -11.221852      -305.3621
   5   2.0000     -11.216128      -305.2063
   6   2.0000      -1.385820       -37.7101
   7   2.0000      -1.077879       -29.3306
   8   2.0000      -1.016667       -27.6649
   9   2.0000      -0.946573       -25.7576
  10   2.0000      -0.824166       -22.4267
  11   2.0000      -0.734096       -19.9758
  12   2.0000      -0.653300       -17.7772
  13   2.0000      -0.649212       -17.6660
  14   2.0000      -0.625053       -17.0086
  15   2.0000      -0.596880       -16.2419
  16   2.0000      -0.567047       -15.4301
  17   2.0000      -0.559260       -15.2182
  18   2.0000      -0.544828       -14.8255
  19   2.0000      -0.502100       -13.6628
  20   2.0000      -0.489376       -13.3166
  21   2.0000      -0.484847       -13.1934
  22   2.0000      -0.475586       -12.9414
  23   2.0000      -0.408105       -11.1051
  24   0.0000       0.025873         0.7040
  25   0.0000       0.032632         0.8880
  26   0.0000       0.036958         1.0057
  27   0.0000       0.041702         1.1348
  28   0.0000       0.052625         1.4320

MULLIKEN ATOMIC CHARGES
-----------------------
   0 C :    0.458627
   1 C :   -0.835986
   2 C :   -0.938811
   3 C :   -0.233083
   4 C :   -0.433708
   5 O :   -0.836599
   6 H :    0.309398
   7 H :    0.310339
   8 H :    0.309679
   9 H :    0.269256
  10 H :    0.269493
  11 H :    0.286172
  12 H :    0.284466
  13 H :    0.284057
  14 H :    0.247958
  15 H :    0.248743
Sum of atomic charges:    0.0000000

LOEWDIN ATOMIC CHARGES
----------------------
   0 C :   -0.510469
   1 C :    0.588869
   2 C :    0.578985
   3 C :    0.263225
   4 C :    0.246763
   5 O :    0.473727
   6 H :   -0.173652
   7 H :   -0.173125
   8 H :   -0.183016
   9 H :   -0.171678
  10 H :   -0.171660
  11 H :   -0.172187
  12 H :   -0.147827
  13 H :   -0.147704
  14 H :   -0.149909
  15 H :   -0.150341

  Mayer bond orders larger than 0.100000
B(  0-C ,  1-C ) :   0.8952 B(  0-C ,  3-C ) :   0.8335 B(  0-C ,  5-O ) :   1.2361
B(  1-C ,  6-H ) :   0.9337 B(  1-C ,  7-H ) :   0.9315 B(  1-C ,  8-H ) :   0.9499
B(  2-C ,  4-C ) :   0.9122 B(  2-C ,  9-H ) :   0.9547 B(  2-C , 10-H ) :   0.9547
B(  2-C , 11-H ) :   0.9697 B(  3-C ,  4-C ) :   0.9359 B(  3-C , 12-H ) :   0.9325
B(  3-C , 13-H ) :   0.9307 B(  4-C , 14-H ) :   0.9572 B(  4-C , 15-H ) :   0.9578

MP2 TOTAL ENERGY:     -271.239929389 Eh
FINAL SINGLE POINT ENERGY      -271.239929388789

DIPOLE MOMENT
-------------
                                X             Y             Z
Electronic contribution:      4.63769       3.67447      -0.01242
Nuclear contribution   :     -4.81971      -4.89858       0.01415
                        -----------------------------------------
Total Dipole Moment    :     -0.18202      -1.22411       0.00173
                        -----------------------------------------
Magnitude (a.u.)       :      1.23757
Magnitude (Debye)      :      3.14566

Rotational constants in cm-1:     0.279405     0.059516     0.050890
Rotational constants in MHz :  8376.352900  1784.256052  1525.641906

                             ****ORCA TERMINATED NORMALLY****
TOTAL RUN TIME: 0 days 0 hours 4 minutes 4 seconds 664 msec
