                         Program Version 5.0.3 -  RELEASE  -
|  1> !ri-mp2 aug-cc-pvtz aug-cc-pvtz/c tightscf
|  2> %pal nprocs 16 end
|  3>
|  4> * xyz 0 1
|  5> F    -2.432062   -0.840581   -0.001430
|  6> O    -1.549974    1.772119    0.004185
|  7> N     0.623463    1.045644   -0.000115
|  8> N     1.145451   -1.283249    0.004540
|  9> N     2.809376    0.312221   -0.053279
| 10> C    -0.665617    0.765530   -0.000417
| 11> C    -1.116639   -0.556241   -0.001881
| 12> C     1.480636    0.009952   -0.004752
| 13> C    -0.163020   -1.546056    0.003960
| 14> H    -1.037104    2.592592    0.000511
| 15> H     3.451036   -0.430928    0.156545
| 16> H     3.081893    1.251498    0.171878
| 17> H    -0.467661   -2.586310    0.010977
| 18> *
| 19>
| 20>                          ****END OF INPUT****

CARTESIAN COORDINATES (ANGSTROEM)
---------------------------------
  F     -2.432062   -0.840581   -0.001430
  O     -1.549974    1.772119    0.004185
  N      0.623463    1.045644   -0.000115
  N      1.145451   -1.283249    0.004540
  N      2.809376    0.312221   -0.053279
  C     -0.665617    0.765530   -0.000417
  C     -1.116639   -0.556241   -0.001881
  C      1.480636    0.009952   -0.004752
  C     -0.163020   -1.546056    0.003960
  H     -1.037104    2.592592    0.000511
  H      3.451036   -0.430928    0.156545
  H      3.081893    1.251498    0.171878
  H     -0.467661   -2.586310    0.010977

 Total Charge           Charge          ....    0
 Multiplicity           Mult            ....    1
 Number of Electrons    NEL             ....   66
 Basis Dimension        Dim             ....  506

ORBITAL ENERGIES
----------------

  NO   OCC          E(Eh)            E(eV)
   0   2.0000     -26.313618      -716.0299
   1   2.0000     -20.622070      -561.1550
   2   2.0000     -15.583925      -424.0601
   3   2.0000     -15.573408      -423.7740
   4   2.0000     -15.563736      -423.5108
   5   2.0000     -11.375310      -309.5379
   6   2.0000     -11.365990      -309.2843
   7   2.0000     -11.317945      -307.9769
   8   2.0000     -11.306103      -307.6547
   9   2.0000      -1.628992       -44.3271
  10   2.0000      -1.453607       -39.5547
  11   2.0000      -1.338304       -36.4171
  12   2.0000      -1.215160       -33.0662
  13   2.0000      -1.202190       -32.7133
  14   2.0000      -1.056414       -28.7465
  15   2.0000      -0.923414       -25.1274
  16   2.0000      -0.885879       -24.1060
  17   2.0000      -0.799359       -21.7517
  18   2.0000      -0.766570       -20.8594
  19   2.0000      -0.748705       -20.3733
  20   2.0000      -0.704789       -19.1783
  21   2.0000      -0.701515       -19.0892
  22   2.0000      -0.688616       -18.7382
  23   2.0000      -0.637678       -17.3521
  24   2.0000      -0.628766       -17.1096
  25   2.0000      -0.618123       -16.8200
  26   2.0000      -0.592058       -16.1107
  27   2.0000      -0.578974       -15.7547
  28   2.0000      -0.515707       -14.0331
  29   2.0000      -0.468506       -12.7487
  30   2.0000      -0.425693       -11.5837
  31   2.0000      -0.424480       -11.5507
  32   2.0000      -0.333961        -9.0876
  33   0.0000       0.024126         0.6565
  34   0.0000       0.034282         0.9329
  35   0.0000       0.036512         0.9936
  36   0.0000       0.051914         1.4127
  37   0.0000       0.069345         1.8870

MULLIKEN ATOMIC CHARGES
-----------------------
   0 F :   -0.529483
   1 O :   -0.558302
   2 N :   -0.266348
   3 N :   -0.307081
   4 N :   -0.461591
   5 C :    0.389208
   6 C :    0.934100
   7 C :    0.114045
   8 C :   -0.486430
   9 H :    0.255440
  10 H :    0.115112
  11 H :    0.127492
  12 H :    0.673840
Sum of atomic charges:    0.0000000

LOEWDIN ATOMIC CHARGES
----------------------
   0 F :    0.485253
   1 O :    0.856165
   2 N :    0.414893
   3 N :    0.382788
   4 N :    0.848036
   5 C :   -0.590918
   6 C :   -0.504145
   7 C :   -0.633703
   8 C :   -0.004389
   9 H :   -0.470518
  10 H :   -0.303485
  11 H :   -0.304398
  12 H :   -0.175579

  Mayer bond orders larger than 0.100000
B(  0-F ,  5-C ) :   0.1699 B(  0-F ,  6-C ) :   0.4766 B(  0-F ,  8-C ) :   0.1548
B(  1-O ,  2-N ) :  -0.1214 B(  1-O ,  5-C ) :   0.8419 B(  1-O ,  9-H ) :   0.9411
B(  2-N ,  4-N ) :  -0.1657 B(  2-N ,  5-C ) :   1.0312 B(  2-N ,  6-C ) :  -0.1344
B(  2-N ,  7-C ) :   1.1366 B(  3-N ,  4-N ) :  -0.1838 B(  3-N ,  6-C ) :  -0.1053
B(  3-N ,  7-C ) :   1.1520 B(  3-N ,  8-C ) :   1.1145 B(  4-N ,  7-C ) :   1.0278
B(  4-N , 10-H ) :   1.0749 B(  4-N , 11-H ) :   1.0594 B(  5-C ,  6-C ) :   0.8837
B(  5-C ,  7-C ) :  -0.1509 B(  5-C ,  8-C ) :   0.3238 B(  6-C ,  8-C ) :   1.1554
B(  7-C ,  8-C ) :  -0.2164 B(  8-C , 12-H ) :   0.3925

MP2 TOTAL ENERGY:     -493.374413575 Eh
FINAL SINGLE POINT ENERGY      -493.374413574792

DIPOLE MOMENT
-------------
                                X             Y             Z
Electronic contribution:     -6.23134      -1.13447      -0.07053
Nuclear contribution   :      7.13648       1.61825       0.32752
                        -----------------------------------------
Total Dipole Moment    :      0.90515       0.48379       0.25698
                        -----------------------------------------
Magnitude (a.u.)       :      1.05801
Magnitude (Debye)      :      2.68924

Rotational constants in cm-1:     0.106541     0.047528     0.032878
Rotational constants in MHz :  3194.024533  1424.840614   985.652438

                             ****ORCA TERMINATED NORMALLY****
TOTAL RUN TIME: 0 days 0 hours 5 minutes 5 seconds 475 msec
