                         Program Version 5.0.3 -  RELEASE  -
|  1> !ri-mp2 aug-cc-pvtz aug-cc-pvtz/c tightscf
|  2> %pal nprocs 16 end
|  3>
|  4> * xyz 0 1
|  5> C      0.046940    0.737664    0.000000
|  6> C     -0.046940   -0.737664    0.000000
|  7> C      1.229298   -1.540526    0.000000
|  8> C     -1.229298   -1.365802   -0.000001
|  9> C     -1.229298    1.540526    0.000000
| 10> C      1.229298    1.365802   -0.000001
| 11> H      1.011005   -2.606697    0.000002
| 12> H      1.839074   -1.319891   -0.878346
| 13> H      1.839074   -1.319889    0.878347
| 14> H     -1.285187   -2.445953   -0.000001
| 15> H     -2.170393   -0.836461   -0.000001
| 16> H     -1.839074    1.319889    0.878347
| 17> H     -1.011005    2.606697    0.000002
| 18> H     -1.839074    1.319891   -0.878346
| 19> H      2.170393    0.836461   -0.000001
| 20> H      1.285187    2.445953   -0.000001
| 21> *
| 22>
| 23>                          ****END OF INPUT****

CARTESIAN COORDINATES (ANGSTROEM)
---------------------------------
  C      0.046940    0.737664    0.000000
  C     -0.046940   -0.737664    0.000000
  C      1.229298   -1.540526    0.000000
  C     -1.229298   -1.365802   -0.000001
  C     -1.229298    1.540526    0.000000
  C      1.229298    1.365802   -0.000001
  H      1.011005   -2.606697    0.000002
  H      1.839074   -1.319891   -0.878346
  H      1.839074   -1.319889    0.878347
  H     -1.285187   -2.445953   -0.000001
  H     -2.170393   -0.836461   -0.000001
  H     -1.839074    1.319889    0.878347
  H     -1.011005    2.606697    0.000002
  H     -1.839074    1.319891   -0.878346
  H      2.170393    0.836461   -0.000001
  H      1.285187    2.445953   -0.000001

 Total Charge           Charge          ....    0
 Multiplicity           Mult            ....    1
 Number of Electrons    NEL             ....   46
 Basis Dimension        Dim             ....  506

ORBITAL ENERGIES
----------------

  NO   OCC          E(Eh)            E(eV)
   0   2.0000     -11.242619      -305.9272
   1   2.0000     -11.241848      -305.9062
   2   2.0000     -11.218804      -305.2792
   3   2.0000     -11.218801      -305.2791
   4   2.0000     -11.218599      -305.2736
   5   2.0000     -11.218597      -305.2735
   6   2.0000      -1.119589       -30.4656
   7   2.0000      -1.027130       -27.9496
   8   2.0000      -0.951777       -25.8992
   9   2.0000      -0.914636       -24.8885
  10   2.0000      -0.808282       -21.9945
  11   2.0000      -0.689516       -18.7627
  12   2.0000      -0.658280       -17.9127
  13   2.0000      -0.618372       -16.8267
  14   2.0000      -0.581053       -15.8113
  15   2.0000      -0.560207       -15.2440
  16   2.0000      -0.560051       -15.2398
  17   2.0000      -0.546318       -14.8661
  18   2.0000      -0.531919       -14.4742
  19   2.0000      -0.506704       -13.7881
  20   2.0000      -0.471429       -12.8282
  21   2.0000      -0.404146       -10.9974
  22   2.0000      -0.320678        -8.7261
  23   0.0000       0.030907         0.8410
  24   0.0000       0.034239         0.9317
  25   0.0000       0.034855         0.9485
  26   0.0000       0.044424         1.2088
  27   0.0000       0.046747         1.2721

MULLIKEN ATOMIC CHARGES
-----------------------
   0 C :    1.041969
   1 C :    1.041969
   2 C :   -0.858885
   3 C :   -1.551260
   4 C :   -0.858885
   5 C :   -1.551260
   6 H :    0.233866
   7 H :    0.254822
   8 H :    0.254821
   9 H :    0.298560
  10 H :    0.326107
  11 H :    0.254821
  12 H :    0.233866
  13 H :    0.254822
  14 H :    0.326107
  15 H :    0.298560
Sum of atomic charges:    0.0000000

LOEWDIN ATOMIC CHARGES
----------------------
   0 C :   -0.138211
   1 C :   -0.138211
   2 C :    0.548002
   3 C :    0.553102
   4 C :    0.548002
   5 C :    0.553102
   6 H :   -0.182027
   7 H :   -0.167559
   8 H :   -0.167558
   9 H :   -0.214590
  10 H :   -0.231160
  11 H :   -0.167558
  12 H :   -0.182027
  13 H :   -0.167559
  14 H :   -0.231160
  15 H :   -0.214590

  Mayer bond orders larger than 0.100000
B(  0-C ,  1-C ) :   0.6910 B(  0-C ,  3-C ) :   0.3067 B(  0-C ,  4-C ) :   0.6853
B(  0-C ,  5-C ) :   0.7767 B(  1-C ,  2-C ) :   0.6853 B(  1-C ,  3-C ) :   0.7767
B(  1-C ,  5-C ) :   0.3067 B(  2-C ,  5-C ) :  -0.1020 B(  2-C ,  6-H ) :   0.9886
B(  2-C ,  7-H ) :   1.0062 B(  2-C ,  8-H ) :   1.0062 B(  3-C ,  4-C ) :  -0.1020
B(  3-C ,  9-H ) :   0.9233 B(  3-C , 10-H ) :   1.0523 B(  4-C , 11-H ) :   1.0062
B(  4-C , 12-H ) :   0.9886 B(  4-C , 13-H ) :   1.0062 B(  5-C , 14-H ) :   1.0523
B(  5-C , 15-H ) :   0.9233

MP2 TOTAL ENERGY:     -234.098829694 Eh
FINAL SINGLE POINT ENERGY      -234.098829693769

DIPOLE MOMENT
-------------
                                X             Y             Z
Electronic contribution:     -0.00000      -0.00000      -0.00000
Nuclear contribution   :      0.00000      -0.00000       0.00000
                        -----------------------------------------
Total Dipole Moment    :     -0.00000      -0.00000      -0.00000
                        -----------------------------------------
Magnitude (a.u.)       :      0.00000
Magnitude (Debye)      :      0.00000

Rotational constants in cm-1:     0.164464     0.109475     0.067359
Rotational constants in MHz :  4930.492570  3281.970664  2019.368616

                             ****ORCA TERMINATED NORMALLY****
TOTAL RUN TIME: 0 days 0 hours 4 minutes 9 seconds 831 msec
