                         Program Version 5.0.3 -  RELEASE  -
|  1> !ri-mp2 aug-cc-pvtz aug-cc-pvtz/c tightscf
|  2> %pal nprocs 16 end
|  3>
|  4> * xyz 0 1
|  5> C     -1.071798    1.395295   -0.516943
|  6> H     -2.097308    1.655846   -0.745207
|  7> H     -0.324065    2.139068   -0.752121
|  8> C     -1.846494   -0.781611    0.354048
|  9> H     -1.822725   -1.041562    1.416022
| 10> H     -2.835490   -0.389471    0.122101
| 11> H     -1.717430   -1.714418   -0.199086
| 12> C     -0.767616    0.217558    0.024788
| 13> C      1.126951   -1.341248   -0.574524
| 14> H      2.119063   -1.686706   -0.279687
| 15> H      0.459313   -2.201864   -0.554699
| 16> H      1.185647   -0.984025   -1.604310
| 17> C      0.651228   -0.212141    0.359200
| 18> H      0.614475   -0.630270    1.372557
| 19> C      1.673172    0.925370    0.370849
| 20> H      1.815739    1.345990   -0.626310
| 21> H      1.368190    1.732615    1.036949
| 22> H      2.641935    0.555459    0.709287
| 23> *
| 24>
| 25>                          ****END OF INPUT****

CARTESIAN COORDINATES (ANGSTROEM)
---------------------------------
  C     -1.071798    1.395295   -0.516943
  H     -2.097308    1.655846   -0.745207
  H     -0.324065    2.139068   -0.752121
  C     -1.846494   -0.781611    0.354048
  H     -1.822725   -1.041562    1.416022
  H     -2.835490   -0.389471    0.122101
  H     -1.717430   -1.714418   -0.199086
  C     -0.767616    0.217558    0.024788
  C      1.126951   -1.341248   -0.574524
  H      2.119063   -1.686706   -0.279687
  H      0.459313   -2.201864   -0.554699
  H      1.185647   -0.984025   -1.604310
  C      0.651228   -0.212141    0.359200
  H      0.614475   -0.630270    1.372557
  C      1.673172    0.925370    0.370849
  H      1.815739    1.345990   -0.626310
  H      1.368190    1.732615    1.036949
  H      2.641935    0.555459    0.709287

 Total Charge           Charge          ....    0
 Multiplicity           Mult            ....    1
 Number of Electrons    NEL             ....   48
 Basis Dimension        Dim             ....  552

ORBITAL ENERGIES
----------------

  NO   OCC          E(Eh)            E(eV)
   0   2.0000     -11.234018      -305.6932
   1   2.0000     -11.231213      -305.6168
   2   2.0000     -11.216909      -305.2276
   3   2.0000     -11.213117      -305.1244
   4   2.0000     -11.209772      -305.0334
   5   2.0000     -11.205836      -304.9263
   6   2.0000      -1.108741       -30.1704
   7   2.0000      -1.018596       -27.7174
   8   2.0000      -0.940777       -25.5998
   9   2.0000      -0.916234       -24.9320
  10   2.0000      -0.827974       -22.5303
  11   2.0000      -0.704015       -19.1572
  12   2.0000      -0.642633       -17.4869
  13   2.0000      -0.616999       -16.7894
  14   2.0000      -0.591476       -16.0949
  15   2.0000      -0.568684       -15.4747
  16   2.0000      -0.557900       -15.1812
  17   2.0000      -0.536996       -14.6124
  18   2.0000      -0.527962       -14.3666
  19   2.0000      -0.512081       -13.9344
  20   2.0000      -0.478803       -13.0289
  21   2.0000      -0.467338       -12.7169
  22   2.0000      -0.455109       -12.3842
  23   2.0000      -0.346515        -9.4291
  24   0.0000       0.030504         0.8301
  25   0.0000       0.035100         0.9551
  26   0.0000       0.036095         0.9822
  27   0.0000       0.040044         1.0897
  28   0.0000       0.050904         1.3852

MULLIKEN ATOMIC CHARGES
-----------------------
   0 C :   -1.384863
   1 H :    0.242415
   2 H :    0.378356
   3 C :   -1.031854
   4 H :    0.234603
   5 H :    0.262233
   6 H :    0.267572
   7 C :    0.924090
   8 C :   -1.070744
   9 H :    0.245865
  10 H :    0.310609
  11 H :    0.286514
  12 C :    0.244621
  13 H :    0.358784
  14 C :   -1.037417
  15 H :    0.266064
  16 H :    0.280648
  17 H :    0.222506
Sum of atomic charges:   -0.0000000

LOEWDIN ATOMIC CHARGES
----------------------
   0 C :    0.548451
   1 H :   -0.218876
   2 H :   -0.230389
   3 C :    0.568847
   4 H :   -0.162358
   5 H :   -0.178945
   6 H :   -0.176354
   7 C :   -0.116137
   8 C :    0.591227
   9 H :   -0.164323
  10 H :   -0.178542
  11 H :   -0.157359
  12 C :   -0.057208
  13 H :   -0.140914
  14 C :    0.568315
  15 H :   -0.168173
  16 H :   -0.162784
  17 H :   -0.164478

  Mayer bond orders larger than 0.100000
B(  0-C ,  1-H ) :   1.0557 B(  0-C ,  2-H ) :   0.9474 B(  0-C ,  7-C ) :   0.8169
B(  3-C ,  4-H ) :   1.0151 B(  3-C ,  5-H ) :   1.0039 B(  3-C ,  6-H ) :   1.0158
B(  3-C ,  7-C ) :   0.7540 B(  7-C ,  8-C ) :   0.1312 B(  7-C , 12-C ) :   0.9388
B(  7-C , 14-C ) :   0.1013 B(  8-C ,  9-H ) :   0.9893 B(  8-C , 10-H ) :   0.9407
B(  8-C , 11-H ) :   0.9697 B(  8-C , 12-C ) :   0.7121 B(  8-C , 14-C ) :   0.1396
B( 12-C , 13-H ) :   0.8694 B( 12-C , 14-C ) :   0.7274 B( 14-C , 15-H ) :   0.9930
B( 14-C , 16-H ) :   0.9604 B( 14-C , 17-H ) :   1.0387

MP2 TOTAL ENERGY:     -235.316107502 Eh
FINAL SINGLE POINT ENERGY      -235.316107501790

DIPOLE MOMENT
-------------
                                X             Y             Z
Electronic contribution:     -1.43973       1.10818       0.21628
Nuclear contribution   :      1.50743      -1.30606      -0.11194
                        -----------------------------------------
Total Dipole Moment    :      0.06770      -0.19788       0.10434
                        -----------------------------------------
Magnitude (a.u.)       :      0.23372
Magnitude (Debye)      :      0.59408

Rotational constants in cm-1:     0.151203     0.096031     0.069341
Rotational constants in MHz :  4532.946703  2878.941830  2078.783552

                             ****ORCA TERMINATED NORMALLY****
TOTAL RUN TIME: 0 days 0 hours 5 minutes 41 seconds 765 msec
