                         Program Version 5.0.3 -  RELEASE  -
|  1> !ri-mp2 aug-cc-pvtz aug-cc-pvtz/c tightscf
|  2> %pal nprocs 16 end
|  3>
|  4> * xyz 0 1
|  5> S     -0.785680    1.458954   -0.000008
|  6> N     -3.431367   -1.222926    0.000007
|  7> N      3.697033   -0.916364    0.000004
|  8> C     -1.052269   -0.263674    0.000002
|  9> C      1.258799   -0.088174    0.000000
| 10> C      0.130306   -0.953110    0.000005
| 11> C      0.907286    1.241520   -0.000007
| 12> C     -2.359652   -0.797434    0.000005
| 13> C      2.606930   -0.544009    0.000002
| 14> H      0.193528   -2.029602    0.000011
| 15> H      1.569280    2.090663   -0.000012
| 16> *
| 17>
| 18>                          ****END OF INPUT****

CARTESIAN COORDINATES (ANGSTROEM)
---------------------------------
  S     -0.785680    1.458954   -0.000008
  N     -3.431367   -1.222926    0.000007
  N      3.697033   -0.916364    0.000004
  C     -1.052269   -0.263674    0.000002
  C      1.258799   -0.088174    0.000000
  C      0.130306   -0.953110    0.000005
  C      0.907286    1.241520   -0.000007
  C     -2.359652   -0.797434    0.000005
  C      2.606930   -0.544009    0.000002
  H      0.193528   -2.029602    0.000011
  H      1.569280    2.090663   -0.000012

 Total Charge           Charge          ....    0
 Multiplicity           Mult            ....    1
 Number of Electrons    NEL             ....   68
 Basis Dimension        Dim             ....  464

ORBITAL ENERGIES
----------------

  NO   OCC          E(Eh)            E(eV)
   0   2.0000     -92.050580     -2504.8236
   1   2.0000     -15.599614      -424.4871
   2   2.0000     -15.595950      -424.3874
   3   2.0000     -11.340245      -308.5838
   4   2.0000     -11.337733      -308.5154
   5   2.0000     -11.321214      -308.0659
   6   2.0000     -11.312319      -307.8239
   7   2.0000     -11.303953      -307.5962
   8   2.0000     -11.299549      -307.4764
   9   2.0000      -9.050041      -246.2641
  10   2.0000      -6.730834      -183.1553
  11   2.0000      -6.730260      -183.1397
  12   2.0000      -6.729509      -183.1193
  13   2.0000      -1.263278       -34.3756
  14   2.0000      -1.247376       -33.9428
  15   2.0000      -1.226691       -33.3799
  16   2.0000      -1.082385       -29.4532
  17   2.0000      -1.060735       -28.8641
  18   2.0000      -0.901684       -24.5361
  19   2.0000      -0.864400       -23.5215
  20   2.0000      -0.785095       -21.3635
  21   2.0000      -0.704935       -19.1823
  22   2.0000      -0.636671       -17.3247
  23   2.0000      -0.628159       -17.0931
  24   2.0000      -0.610892       -16.6232
  25   2.0000      -0.582723       -15.8567
  26   2.0000      -0.582136       -15.8407
  27   2.0000      -0.545632       -14.8474
  28   2.0000      -0.537610       -14.6291
  29   2.0000      -0.497407       -13.5351
  30   2.0000      -0.495006       -13.4698
  31   2.0000      -0.485028       -13.1983
  32   2.0000      -0.401259       -10.9188
  33   2.0000      -0.375324       -10.2131
  34   0.0000       0.019946         0.5428
  35   0.0000       0.026852         0.7307
  36   0.0000       0.031686         0.8622
  37   0.0000       0.048501         1.3198
  38   0.0000       0.059782         1.6267

MULLIKEN ATOMIC CHARGES
-----------------------
   0 S :   -0.214453
   1 N :   -0.714585
   2 N :   -0.747204
   3 C :    1.297238
   4 C :    1.267226
   5 C :   -1.306978
   6 C :   -0.677542
   7 C :    0.220998
   8 C :    0.126388
   9 H :    0.308591
  10 H :    0.440321
Sum of atomic charges:    0.0000000

LOEWDIN ATOMIC CHARGES
----------------------
   0 S :    1.329169
   1 N :    0.265545
   2 N :    0.273531
   3 C :   -0.565466
   4 C :   -0.312109
   5 C :    0.116531
   6 C :   -0.154190
   7 C :   -0.323043
   8 C :   -0.239700
   9 H :   -0.158800
  10 H :   -0.231467

  Mayer bond orders larger than 0.100000
B(  0-S ,  3-C ) :   0.7989 B(  0-S ,  4-C ) :  -0.1073 B(  0-S ,  5-C ) :   0.3025
B(  0-S ,  6-C ) :   1.3999 B(  1-N ,  5-C ) :   0.1155 B(  1-N ,  7-C ) :   2.0088
B(  2-N ,  4-C ) :  -0.1696 B(  2-N ,  6-C ) :   0.1109 B(  2-N ,  8-C ) :   2.0211
B(  3-C ,  5-C ) :   0.9570 B(  3-C ,  7-C ) :   0.6426 B(  4-C ,  5-C ) :   0.8390
B(  4-C ,  6-C ) :   1.0599 B(  4-C ,  8-C ) :   0.6113 B(  5-C ,  7-C ) :   0.2206
B(  5-C ,  8-C ) :   0.2245 B(  5-C ,  9-H ) :   1.0927 B(  6-C , 10-H ) :   0.8501

MP2 TOTAL ENERGY:     -736.381045000 Eh
FINAL SINGLE POINT ENERGY      -736.381045000271

DIPOLE MOMENT
-------------
                                X             Y             Z
Electronic contribution:     -1.56114       1.15374      -0.00001
Nuclear contribution   :      1.70266       0.00332      -0.00000
                        -----------------------------------------
Total Dipole Moment    :      0.14151       1.15706      -0.00001
                        -----------------------------------------
Magnitude (a.u.)       :      1.16568
Magnitude (Debye)      :      2.96292

Rotational constants in cm-1:     0.111615     0.029595     0.023393
Rotational constants in MHz :  3346.120049   887.245190   701.292884

                             ****ORCA TERMINATED NORMALLY****
TOTAL RUN TIME: 0 days 0 hours 4 minutes 20 seconds 731 msec
