                         Program Version 5.0.3 -  RELEASE  -
|  1> !ri-mp2 aug-cc-pvtz aug-cc-pvtz/c tightscf
|  2> %pal nprocs 16 end
|  3>
|  4> * xyz 0 1
|  5> C      0.000000    0.000000    0.000000
|  6> C      0.886726    0.886726    0.886726
|  7> C     -0.886726   -0.886726    0.886726
|  8> C      0.886726   -0.886726   -0.886726
|  9> C     -0.886726    0.886726   -0.886726
| 10> H     -1.529798    0.282357   -1.529798
| 11> H      1.529798    1.529798    0.282357
| 12> H      1.529798   -0.282357   -1.529798
| 13> H      1.529798    0.282357    1.529798
| 14> H     -1.529798   -0.282357    1.529798
| 15> H      1.529798   -1.529798   -0.282357
| 16> H     -0.282357    1.529798   -1.529798
| 17> H      0.282357    1.529798    1.529798
| 18> H      0.282357   -1.529798   -1.529798
| 19> H     -0.282357   -1.529798    1.529798
| 20> H     -1.529798    1.529798   -0.282357
| 21> H     -1.529798   -1.529798    0.282357
| 22> *
| 23>
| 24>                          ****END OF INPUT****

CARTESIAN COORDINATES (ANGSTROEM)
---------------------------------
  C      0.000000    0.000000    0.000000
  C      0.886726    0.886726    0.886726
  C     -0.886726   -0.886726    0.886726
  C      0.886726   -0.886726   -0.886726
  C     -0.886726    0.886726   -0.886726
  H     -1.529798    0.282357   -1.529798
  H      1.529798    1.529798    0.282357
  H      1.529798   -0.282357   -1.529798
  H      1.529798    0.282357    1.529798
  H     -1.529798   -0.282357    1.529798
  H      1.529798   -1.529798   -0.282357
  H     -0.282357    1.529798   -1.529798
  H      0.282357    1.529798    1.529798
  H      0.282357   -1.529798   -1.529798
  H     -0.282357   -1.529798    1.529798
  H     -1.529798    1.529798   -0.282357
  H     -1.529798   -1.529798    0.282357

 Total Charge           Charge          ....    0
 Multiplicity           Mult            ....    1
 Number of Electrons    NEL             ....   42
 Basis Dimension        Dim             ....  506

ORBITAL ENERGIES
----------------

  NO   OCC          E(Eh)            E(eV)
   0   2.0000     -11.231074      -305.6131
   1   2.0000     -11.206861      -304.9542
   2   2.0000     -11.206861      -304.9542
   3   2.0000     -11.206861      -304.9542
   4   2.0000     -11.206827      -304.9533
   5   2.0000      -1.101245       -29.9664
   6   2.0000      -0.927501       -25.2386
   7   2.0000      -0.927501       -25.2386
   8   2.0000      -0.927501       -25.2386
   9   2.0000      -0.730427       -19.8759
  10   2.0000      -0.609331       -16.5807
  11   2.0000      -0.609331       -16.5807
  12   2.0000      -0.609331       -16.5807
  13   2.0000      -0.551647       -15.0111
  14   2.0000      -0.551647       -15.0111
  15   2.0000      -0.509267       -13.8578
  16   2.0000      -0.509267       -13.8578
  17   2.0000      -0.509267       -13.8578
  18   2.0000      -0.451863       -12.2958
  19   2.0000      -0.451863       -12.2958
  20   2.0000      -0.451863       -12.2958
  21   0.0000       0.030171         0.8210
  22   0.0000       0.038432         1.0458
  23   0.0000       0.038432         1.0458
  24   0.0000       0.038432         1.0458
  25   0.0000       0.059233         1.6118

MULLIKEN ATOMIC CHARGES
-----------------------
   0 C :    1.600308
   1 C :   -1.203206
   2 C :   -1.203206
   3 C :   -1.203207
   4 C :   -1.203205
   5 H :    0.267710
   6 H :    0.267709
   7 H :    0.267710
   8 H :    0.267710
   9 H :    0.267710
  10 H :    0.267709
  11 H :    0.267710
  12 H :    0.267710
  13 H :    0.267710
  14 H :    0.267710
  15 H :    0.267709
  16 H :    0.267709
Sum of atomic charges:   -0.0000000

LOEWDIN ATOMIC CHARGES
----------------------
   0 C :   -0.390922
   1 C :    0.576382
   2 C :    0.576382
   3 C :    0.576382
   4 C :    0.576382
   5 H :   -0.159550
   6 H :   -0.159550
   7 H :   -0.159550
   8 H :   -0.159550
   9 H :   -0.159550
  10 H :   -0.159550
  11 H :   -0.159550
  12 H :   -0.159550
  13 H :   -0.159550
  14 H :   -0.159550
  15 H :   -0.159550
  16 H :   -0.159550

  Mayer bond orders larger than 0.100000
B(  0-C ,  1-C ) :   0.5163 B(  0-C ,  2-C ) :   0.5163 B(  0-C ,  3-C ) :   0.5163
B(  0-C ,  4-C ) :   0.5163 B(  1-C ,  6-H ) :   1.0025 B(  1-C ,  8-H ) :   1.0025
B(  1-C , 12-H ) :   1.0025 B(  2-C ,  9-H ) :   1.0025 B(  2-C , 14-H ) :   1.0025
B(  2-C , 16-H ) :   1.0025 B(  3-C ,  7-H ) :   1.0025 B(  3-C , 10-H ) :   1.0025
B(  3-C , 13-H ) :   1.0025 B(  4-C ,  5-H ) :   1.0025 B(  4-C , 11-H ) :   1.0025
B(  4-C , 15-H ) :   1.0025

MP2 TOTAL ENERGY:     -197.317812298 Eh
FINAL SINGLE POINT ENERGY      -197.317812297769

DIPOLE MOMENT
-------------
                                X             Y             Z
Electronic contribution:      0.00000      -0.00000      -0.00000
Nuclear contribution   :      0.00000       0.00000      -0.00000
                        -----------------------------------------
Total Dipole Moment    :      0.00000      -0.00000      -0.00000
                        -----------------------------------------
Magnitude (a.u.)       :      0.00000
Magnitude (Debye)      :      0.00000

Rotational constants in cm-1:     0.147953     0.147953     0.147953
Rotational constants in MHz :  4435.513729  4435.513729  4435.513729

                             ****ORCA TERMINATED NORMALLY****
TOTAL RUN TIME: 0 days 0 hours 4 minutes 7 seconds 571 msec
