                         Program Version 5.0.3 -  RELEASE  -
|  1> !ri-mp2 aug-cc-pvtz aug-cc-pvtz/c tightscf
|  2> %pal nprocs 16 end
|  3>
|  4> * xyz 0 1
|  5> S     -1.746638   -0.491801   -0.024174
|  6> N      1.069100   -1.539005    0.070067
|  7> N     -0.321863    1.747667    0.040754
|  8> N      2.022193    0.634247   -0.054121
|  9> C      1.041264   -0.187875   -0.000463
| 10> C     -0.357714    0.420697    0.009753
| 11> H      0.188021   -2.026997    0.000787
| 12> H      1.927591   -2.037227   -0.074943
| 13> H      0.590765    2.186653    0.033004
| 14> H     -1.174968    2.277579    0.029518
| 15> H      2.927486    0.171511   -0.054209
| 16> *
| 17>
| 18>                          ****END OF INPUT****

CARTESIAN COORDINATES (ANGSTROEM)
---------------------------------
  S     -1.746638   -0.491801   -0.024174
  N      1.069100   -1.539005    0.070067
  N     -0.321863    1.747667    0.040754
  N      2.022193    0.634247   -0.054121
  C      1.041264   -0.187875   -0.000463
  C     -0.357714    0.420697    0.009753
  H      0.188021   -2.026997    0.000787
  H      1.927591   -2.037227   -0.074943
  H      0.590765    2.186653    0.033004
  H     -1.174968    2.277579    0.029518
  H      2.927486    0.171511   -0.054209

 Total Charge           Charge          ....    0
 Multiplicity           Mult            ....    1
 Number of Electrons    NEL             ....   54
 Basis Dimension        Dim             ....  395

ORBITAL ENERGIES
----------------

  NO   OCC          E(Eh)            E(eV)
   0   2.0000     -91.913633     -2501.0971
   1   2.0000     -15.610744      -424.7899
   2   2.0000     -15.590098      -424.2281
   3   2.0000     -15.549688      -423.1285
   4   2.0000     -11.363330      -309.2119
   5   2.0000     -11.349116      -308.8251
   6   2.0000      -8.916730      -242.6366
   7   2.0000      -6.598091      -179.5432
   8   2.0000      -6.596568      -179.5017
   9   2.0000      -6.595726      -179.4788
  10   2.0000      -1.307499       -35.5789
  11   2.0000      -1.255786       -34.1717
  12   2.0000      -1.163593       -31.6630
  13   2.0000      -1.014037       -27.5934
  14   2.0000      -0.886231       -24.1156
  15   2.0000      -0.789685       -21.4884
  16   2.0000      -0.756958       -20.5979
  17   2.0000      -0.723585       -19.6897
  18   2.0000      -0.692347       -18.8397
  19   2.0000      -0.622413       -16.9367
  20   2.0000      -0.584269       -15.8988
  21   2.0000      -0.515096       -14.0165
  22   2.0000      -0.512125       -13.9356
  23   2.0000      -0.464343       -12.6354
  24   2.0000      -0.386187       -10.5087
  25   2.0000      -0.344421        -9.3722
  26   2.0000      -0.341772        -9.3001
  27   0.0000       0.022911         0.6234
  28   0.0000       0.031758         0.8642
  29   0.0000       0.041207         1.1213
  30   0.0000       0.053535         1.4568
  31   0.0000       0.058702         1.5974

MULLIKEN ATOMIC CHARGES
-----------------------
   0 S :   -0.589142
   1 N :   -0.317038
   2 N :   -0.371463
   3 N :   -0.676288
   4 C :    0.536409
   5 C :    0.678617
   6 H :    0.181132
   7 H :    0.132979
   8 H :    0.202300
   9 H :    0.106942
  10 H :    0.115552
Sum of atomic charges:    0.0000000

LOEWDIN ATOMIC CHARGES
----------------------
   0 S :    0.915389
   1 N :    0.827487
   2 N :    0.769802
   3 N :    0.655738
   4 C :   -0.504736
   5 C :   -0.884371
   6 H :   -0.418158
   7 H :   -0.286138
   8 H :   -0.364214
   9 H :   -0.293809
  10 H :   -0.416990

  Mayer bond orders larger than 0.100000
B(  0-S ,  2-N ) :   0.1075 B(  0-S ,  4-C ) :   0.1655 B(  0-S ,  5-C ) :   1.3150
B(  1-N ,  4-C ) :   0.8922 B(  1-N ,  6-H ) :   1.0358 B(  1-N ,  7-H ) :   1.0629
B(  2-N ,  3-N ) :  -0.1409 B(  2-N ,  5-C ) :   0.9872 B(  2-N ,  8-H ) :   0.9985
B(  2-N ,  9-H ) :   1.0870 B(  3-N ,  4-C ) :   1.1413 B(  3-N ,  5-C ) :   0.1671
B(  3-N , 10-H ) :   1.0016 B(  4-C ,  5-C ) :   0.7938

MP2 TOTAL ENERGY:     -640.770781989 Eh
FINAL SINGLE POINT ENERGY      -640.770781988891

DIPOLE MOMENT
-------------
                                X             Y             Z
Electronic contribution:     -3.43614      -0.52897      -0.00434
Nuclear contribution   :      4.45321       0.58174      -0.06368
                        -----------------------------------------
Total Dipole Moment    :      1.01707       0.05276      -0.06802
                        -----------------------------------------
Magnitude (a.u.)       :      1.02071
Magnitude (Debye)      :      2.59444

Rotational constants in cm-1:     0.153019     0.083649     0.054140
Rotational constants in MHz :  4587.395693  2507.741473  1623.082193

                             ****ORCA TERMINATED NORMALLY****
TOTAL RUN TIME: 0 days 0 hours 2 minutes 22 seconds 88 msec
