                         Program Version 5.0.3 -  RELEASE  -
|  1> !ri-mp2 aug-cc-pvtz aug-cc-pvtz/c tightscf
|  2> %pal nprocs 16 end
|  3>
|  4> * xyz 0 1
|  5> C     -0.634025    0.771526    1.262380
|  6> C      1.518392    1.037638    0.000000
|  7> C     -0.634025    0.771526   -1.262380
|  8> C     -0.634025   -1.948562    0.000000
|  9> C      0.140834    0.377397    0.000000
| 10> O      0.443226   -1.034249    0.000000
| 11> H     -0.101780    0.437781    2.153609
| 12> H     -0.741929    1.855478    1.313981
| 13> H     -1.636409    0.343353    1.277197
| 14> H      2.081691    0.735411   -0.882718
| 15> H      2.081691    0.735411    0.882718
| 16> H      1.426783    2.124044    0.000000
| 17> H     -1.636409    0.343353   -1.277197
| 18> H     -0.741929    1.855478   -1.313981
| 19> H     -0.101780    0.437781   -2.153609
| 20> H     -1.264755   -1.854556   -0.889485
| 21> H     -1.264755   -1.854556    0.889485
| 22> H     -0.189132   -2.942139    0.000000
| 23> *
| 24>
| 25>                          ****END OF INPUT****

CARTESIAN COORDINATES (ANGSTROEM)
---------------------------------
  C     -0.634025    0.771526    1.262380
  C      1.518392    1.037638    0.000000
  C     -0.634025    0.771526   -1.262380
  C     -0.634025   -1.948562    0.000000
  C      0.140834    0.377397    0.000000
  O      0.443226   -1.034249    0.000000
  H     -0.101780    0.437781    2.153609
  H     -0.741929    1.855478    1.313981
  H     -1.636409    0.343353    1.277197
  H      2.081691    0.735411   -0.882718
  H      2.081691    0.735411    0.882718
  H      1.426783    2.124044    0.000000
  H     -1.636409    0.343353   -1.277197
  H     -0.741929    1.855478   -1.313981
  H     -0.101780    0.437781   -2.153609
  H     -1.264755   -1.854556   -0.889485
  H     -1.264755   -1.854556    0.889485
  H     -0.189132   -2.942139    0.000000

 Total Charge           Charge          ....    0
 Multiplicity           Mult            ....    1
 Number of Electrons    NEL             ....   50
 Basis Dimension        Dim             ....  552

ORBITAL ENERGIES
----------------

  NO   OCC          E(Eh)            E(eV)
   0   2.0000     -20.544512      -559.0446
   1   2.0000     -11.284150      -307.0573
   2   2.0000     -11.262703      -306.4737
   3   2.0000     -11.212035      -305.0950
   4   2.0000     -11.212020      -305.0946
   5   2.0000     -11.206144      -304.9347
   6   2.0000      -1.359490       -36.9936
   7   2.0000      -1.071979       -29.1700
   8   2.0000      -0.943788       -25.6818
   9   2.0000      -0.939244       -25.5581
  10   2.0000      -0.908946       -24.7337
  11   2.0000      -0.749936       -20.4068
  12   2.0000      -0.652825       -17.7643
  13   2.0000      -0.639883       -17.4121
  14   2.0000      -0.632575       -17.2132
  15   2.0000      -0.592886       -16.1333
  16   2.0000      -0.573338       -15.6013
  17   2.0000      -0.551918       -15.0184
  18   2.0000      -0.532832       -14.4991
  19   2.0000      -0.522583       -14.2202
  20   2.0000      -0.514417       -13.9980
  21   2.0000      -0.487327       -13.2609
  22   2.0000      -0.485297       -13.2056
  23   2.0000      -0.443983       -12.0814
  24   2.0000      -0.411442       -11.1959
  25   0.0000       0.029793         0.8107
  26   0.0000       0.036553         0.9946
  27   0.0000       0.038200         1.0395
  28   0.0000       0.039431         1.0730
  29   0.0000       0.053918         1.4672

MULLIKEN ATOMIC CHARGES
-----------------------
   0 C :   -1.171390
   1 C :   -1.164350
   2 C :   -1.171390
   3 C :   -0.948881
   4 C :    1.730867
   5 O :   -0.798311
   6 H :    0.285594
   7 H :    0.256572
   8 H :    0.298822
   9 H :    0.259659
  10 H :    0.259659
  11 H :    0.296827
  12 H :    0.298822
  13 H :    0.256572
  14 H :    0.285594
  15 H :    0.342279
  16 H :    0.342279
  17 H :    0.340776
Sum of atomic charges:    0.0000000

LOEWDIN ATOMIC CHARGES
----------------------
   0 C :    0.580314
   1 C :    0.573392
   2 C :    0.580314
   3 C :    0.318891
   4 C :   -0.596677
   5 O :    0.578912
   6 H :   -0.156604
   7 H :   -0.160732
   8 H :   -0.177037
   9 H :   -0.162654
  10 H :   -0.162654
  11 H :   -0.164034
  12 H :   -0.177037
  13 H :   -0.160732
  14 H :   -0.156604
  15 H :   -0.186310
  16 H :   -0.186310
  17 H :   -0.184439

  Mayer bond orders larger than 0.100000
B(  0-C ,  2-C ) :   0.1348 B(  0-C ,  4-C ) :   0.6677 B(  0-C ,  5-O ) :   0.1217
B(  0-C ,  6-H ) :   0.9699 B(  0-C ,  7-H ) :   0.9950 B(  0-C ,  8-H ) :   0.9682
B(  1-C ,  4-C ) :   0.4541 B(  1-C ,  9-H ) :   1.0283 B(  1-C , 10-H ) :   1.0283
B(  1-C , 11-H ) :   0.9872 B(  2-C ,  4-C ) :   0.6677 B(  2-C ,  5-O ) :   0.1217
B(  2-C , 12-H ) :   0.9682 B(  2-C , 13-H ) :   0.9950 B(  2-C , 14-H ) :   0.9699
B(  3-C ,  5-O ) :   1.0815 B(  3-C , 15-H ) :   0.8821 B(  3-C , 16-H ) :   0.8821
B(  3-C , 17-H ) :   0.9678

MP2 TOTAL ENERGY:     -272.425781996 Eh
FINAL SINGLE POINT ENERGY      -272.425781995910

DIPOLE MOMENT
-------------
                                X             Y             Z
Electronic contribution:      1.72019      -2.11376       0.00000
Nuclear contribution   :     -2.21760       2.34417       0.00000
                        -----------------------------------------
Total Dipole Moment    :     -0.49742       0.23041       0.00000
                        -----------------------------------------
Magnitude (a.u.)       :      0.54819
Magnitude (Debye)      :      1.39338

Rotational constants in cm-1:     0.146131     0.090472     0.090363
Rotational constants in MHz :  4380.901471  2712.292604  2709.010193

                             ****ORCA TERMINATED NORMALLY****
TOTAL RUN TIME: 0 days 0 hours 5 minutes 19 seconds 204 msec
