                         Program Version 5.0.3 -  RELEASE  -
|  1> !ri-mp2 aug-cc-pvtz aug-cc-pvtz/c tightscf
|  2> %pal nprocs 16 end
|  3>
|  4> * xyz 0 1
|  5> C      0.000000    0.000000    0.410032
|  6> C      0.000000    1.303082    0.410018
|  7> C      0.000000   -1.303082    0.410018
|  8> C     -0.871882    2.172515   -0.457285
|  9> C      0.871882   -2.172515   -0.457285
| 10> H      0.676863    1.817656    1.088068
| 11> H     -0.676863   -1.817656    1.088068
| 12> H     -1.504967    2.819715    0.154671
| 13> H     -0.264433    2.825078   -1.089145
| 14> H     -1.514184    1.573281   -1.100088
| 15> H      1.504967   -2.819715    0.154671
| 16> H      0.264433   -2.825078   -1.089145
| 17> H      1.514184   -1.573281   -1.100088
| 18> *
| 19>
| 20>                          ****END OF INPUT****

CARTESIAN COORDINATES (ANGSTROEM)
---------------------------------
  C      0.000000    0.000000    0.410032
  C      0.000000    1.303082    0.410018
  C      0.000000   -1.303082    0.410018
  C     -0.871882    2.172515   -0.457285
  C      0.871882   -2.172515   -0.457285
  H      0.676863    1.817656    1.088068
  H     -0.676863   -1.817656    1.088068
  H     -1.504967    2.819715    0.154671
  H     -0.264433    2.825078   -1.089145
  H     -1.514184    1.573281   -1.100088
  H      1.504967   -2.819715    0.154671
  H      0.264433   -2.825078   -1.089145
  H      1.514184   -1.573281   -1.100088

 Total Charge           Charge          ....    0
 Multiplicity           Mult            ....    1
 Number of Electrons    NEL             ....   38
 Basis Dimension        Dim             ....  414

ORBITAL ENERGIES
----------------

  NO   OCC          E(Eh)            E(eV)
   0   2.0000     -11.237069      -305.7762
   1   2.0000     -11.234636      -305.7100
   2   2.0000     -11.233791      -305.6870
   3   2.0000     -11.223928      -305.4186
   4   2.0000     -11.223928      -305.4186
   5   2.0000      -1.090654       -29.6782
   6   2.0000      -1.027657       -27.9640
   7   2.0000      -0.931892       -25.3581
   8   2.0000      -0.861063       -23.4307
   9   2.0000      -0.692110       -18.8333
  10   2.0000      -0.644352       -17.5337
  11   2.0000      -0.581791       -15.8313
  12   2.0000      -0.573330       -15.6011
  13   2.0000      -0.563101       -15.3228
  14   2.0000      -0.556613       -15.1462
  15   2.0000      -0.525953       -14.3119
  16   2.0000      -0.519748       -14.1431
  17   2.0000      -0.354450        -9.6451
  18   2.0000      -0.354281        -9.6405
  19   0.0000       0.030488         0.8296
  20   0.0000       0.034562         0.9405
  21   0.0000       0.040038         1.0895
  22   0.0000       0.040067         1.0903
  23   0.0000       0.054500         1.4830

MULLIKEN ATOMIC CHARGES
-----------------------
   0 C :    0.693177
   1 C :   -0.581185
   2 C :   -0.581185
   3 C :   -0.823455
   4 C :   -0.823455
   5 H :    0.272902
   6 H :    0.272902
   7 H :    0.261092
   8 H :    0.268121
   9 H :    0.255937
  10 H :    0.261092
  11 H :    0.268121
  12 H :    0.255937
Sum of atomic charges:    0.0000000

LOEWDIN ATOMIC CHARGES
----------------------
   0 C :    0.138528
   1 C :    0.149482
   2 C :    0.149482
   3 C :    0.538023
   4 C :    0.538023
   5 H :   -0.208861
   6 H :   -0.208861
   7 H :   -0.181509
   8 H :   -0.181509
   9 H :   -0.184892
  10 H :   -0.181509
  11 H :   -0.181509
  12 H :   -0.184892

  Mayer bond orders larger than 0.100000
B(  0-C ,  1-C ) :   1.4755 B(  0-C ,  2-C ) :   1.4755 B(  1-C ,  2-C ) :  -0.3366
B(  1-C ,  3-C ) :   1.0058 B(  1-C ,  5-H ) :   1.0267 B(  2-C ,  4-C ) :   1.0058
B(  2-C ,  6-H ) :   1.0267 B(  3-C ,  7-H ) :   0.9769 B(  3-C ,  8-H ) :   0.9628
B(  3-C ,  9-H ) :   0.9433 B(  4-C , 10-H ) :   0.9769 B(  4-C , 11-H ) :   0.9628
B(  4-C , 12-H ) :   0.9433

MP2 TOTAL ENERGY:     -194.846398229 Eh
FINAL SINGLE POINT ENERGY      -194.846398228624

DIPOLE MOMENT
-------------
                                X             Y             Z
Electronic contribution:      0.00000      -0.00000       1.89406
Nuclear contribution   :      0.00000      -0.00000      -1.98324
                        -----------------------------------------
Total Dipole Moment    :      0.00000      -0.00000      -0.08918
                        -----------------------------------------
Magnitude (a.u.)       :      0.08918
Magnitude (Debye)      :      0.22668

Rotational constants in cm-1:     0.582889     0.074442     0.072004
Rotational constants in MHz : 17474.576992  2231.723176  2158.613742

                             ****ORCA TERMINATED NORMALLY****
TOTAL RUN TIME: 0 days 0 hours 2 minutes 10 seconds 194 msec
