                         Program Version 5.0.3 -  RELEASE  -
|  1> !ri-mp2 aug-cc-pvtz aug-cc-pvtz/c tightscf
|  2> %pal nprocs 16 end
|  3>
|  4> * xyz 0 1
|  5> C     -1.519478   -0.306091    0.116403
|  6> N     -2.579509   -0.707080   -0.081472
|  7> C     -0.053322    1.653906   -0.147603
|  8> H     -0.178135    1.700270   -1.229566
|  9> H     -0.816479    2.281556    0.309582
| 10> H      0.921467    2.065882    0.106210
| 11> C      2.314757   -0.422465    0.087354
| 12> H      2.455299   -0.421432    1.170184
| 13> H      2.992332   -1.166370   -0.331717
| 14> H      2.625607    0.550800   -0.292013
| 15> C      0.870992   -0.753554   -0.283413
| 16> H      0.745929   -0.734085   -1.368367
| 17> H      0.638768   -1.770647    0.035713
| 18> C     -0.164996    0.202947    0.349922
| 19> H     -0.015943    0.195124    1.434302
| 20> *
| 21>
| 22>                          ****END OF INPUT****

CARTESIAN COORDINATES (ANGSTROEM)
---------------------------------
  C     -1.519478   -0.306091    0.116403
  N     -2.579509   -0.707080   -0.081472
  C     -0.053322    1.653906   -0.147603
  H     -0.178135    1.700270   -1.229566
  H     -0.816479    2.281556    0.309582
  H      0.921467    2.065882    0.106210
  C      2.314757   -0.422465    0.087354
  H      2.455299   -0.421432    1.170184
  H      2.992332   -1.166370   -0.331717
  H      2.625607    0.550800   -0.292013
  C      0.870992   -0.753554   -0.283413
  H      0.745929   -0.734085   -1.368367
  H      0.638768   -1.770647    0.035713
  C     -0.164996    0.202947    0.349922
  H     -0.015943    0.195124    1.434302

 Total Charge           Charge          ....    0
 Multiplicity           Mult            ....    1
 Number of Electrons    NEL             ....   46
 Basis Dimension        Dim             ....  483

ORBITAL ENERGIES
----------------

  NO   OCC          E(Eh)            E(eV)
   0   2.0000     -15.562517      -423.4776
   1   2.0000     -11.284901      -307.0778
   2   2.0000     -11.265374      -306.5464
   3   2.0000     -11.248546      -306.0885
   4   2.0000     -11.242234      -305.9167
   5   2.0000     -11.232785      -305.6596
   6   2.0000      -1.218188       -33.1486
   7   2.0000      -1.116436       -30.3798
   8   2.0000      -1.013746       -27.5854
   9   2.0000      -0.920959       -25.0606
  10   2.0000      -0.834469       -22.7071
  11   2.0000      -0.705986       -19.2109
  12   2.0000      -0.657722       -17.8975
  13   2.0000      -0.613252       -16.6874
  14   2.0000      -0.588184       -16.0053
  15   2.0000      -0.563958       -15.3461
  16   2.0000      -0.556743       -15.1498
  17   2.0000      -0.544491       -14.8164
  18   2.0000      -0.518429       -14.1072
  19   2.0000      -0.507336       -13.8053
  20   2.0000      -0.499769       -13.5994
  21   2.0000      -0.452445       -12.3117
  22   2.0000      -0.448921       -12.2158
  23   0.0000       0.023744         0.6461
  24   0.0000       0.032655         0.8886
  25   0.0000       0.034948         0.9510
  26   0.0000       0.041422         1.1272
  27   0.0000       0.053294         1.4502

MULLIKEN ATOMIC CHARGES
-----------------------
   0 C :    0.283710
   1 N :   -0.769521
   2 C :   -0.944997
   3 H :    0.288199
   4 H :    0.279509
   5 H :    0.286543
   6 C :   -0.960814
   7 H :    0.253208
   8 H :    0.278443
   9 H :    0.302785
  10 C :   -0.480871
  11 H :    0.241374
  12 H :    0.286256
  13 C :    0.338468
  14 H :    0.317709
Sum of atomic charges:    0.0000000

LOEWDIN ATOMIC CHARGES
----------------------
   0 C :   -0.211369
   1 N :    0.272515
   2 C :    0.593339
   3 H :   -0.155114
   4 H :   -0.160894
   5 H :   -0.172381
   6 C :    0.590872
   7 H :   -0.162720
   8 H :   -0.166335
   9 H :   -0.177397
  10 C :    0.268847
  11 H :   -0.141329
  12 H :   -0.147087
  13 C :   -0.084992
  14 H :   -0.145954

  Mayer bond orders larger than 0.100000
B(  0-C ,  1-N ) :   1.9685 B(  0-C ,  2-C ) :   0.1186 B(  0-C , 10-C ) :   0.1073
B(  0-C , 13-C ) :   0.9662 B(  1-N , 13-C ) :   0.1112 B(  2-C ,  3-H ) :   0.9587
B(  2-C ,  4-H ) :   0.9725 B(  2-C ,  5-H ) :   0.9474 B(  2-C , 10-C ) :   0.1176
B(  2-C , 13-C ) :   0.6897 B(  6-C ,  7-H ) :   0.9705 B(  6-C ,  8-H ) :   0.9775
B(  6-C ,  9-H ) :   0.9216 B(  6-C , 10-C ) :   0.8882 B( 10-C , 11-H ) :   0.9664
B( 10-C , 12-H ) :   0.9378 B( 10-C , 13-C ) :   0.8137 B( 13-C , 14-H ) :   0.9233

MP2 TOTAL ENERGY:     -250.173678545 Eh
FINAL SINGLE POINT ENERGY      -250.173678545478

DIPOLE MOMENT
-------------
                                X             Y             Z
Electronic contribution:     -8.05196      -2.22464       0.38488
Nuclear contribution   :      9.72020       2.80262      -0.17266
                        -----------------------------------------
Total Dipole Moment    :      1.66824       0.57798       0.21222
                        -----------------------------------------
Magnitude (a.u.)       :      1.77824
Magnitude (Debye)      :      4.51992

Rotational constants in cm-1:     0.214785     0.073722     0.058794
Rotational constants in MHz :  6439.084302  2210.120823  1762.606341

                             ****ORCA TERMINATED NORMALLY****
TOTAL RUN TIME: 0 days 0 hours 3 minutes 42 seconds 515 msec
