                         Program Version 5.0.3 -  RELEASE  -
|  1> !ri-mp2 aug-cc-pvtz aug-cc-pvtz/c tightscf
|  2> %pal nprocs 16 end
|  3>
|  4> * xyz 0 1
|  5> O      1.200695   -1.750566    0.240229
|  6> N      2.095132    0.298369   -0.157996
|  7> N     -2.390612   -1.479398   -0.111412
|  8> N     -0.628948    2.555406   -0.003648
|  9> C     -0.321090    0.047446   -0.017924
| 10> C      1.054680   -0.568996    0.024318
| 11> C     -1.457343   -0.805306   -0.066056
| 12> C     -0.506482    1.358873    0.056891
| 13> H      1.962629    1.187336   -0.607887
| 14> H      3.009679   -0.117160   -0.220990
| 15> H     -0.725463    3.121623    0.835062
| 16> *
| 17>
| 18>                          ****END OF INPUT****

CARTESIAN COORDINATES (ANGSTROEM)
---------------------------------
  O      1.200695   -1.750566    0.240229
  N      2.095132    0.298369   -0.157996
  N     -2.390612   -1.479398   -0.111412
  N     -0.628948    2.555406   -0.003648
  C     -0.321090    0.047446   -0.017924
  C      1.054680   -0.568996    0.024318
  C     -1.457343   -0.805306   -0.066056
  C     -0.506482    1.358873    0.056891
  H      1.962629    1.187336   -0.607887
  H      3.009679   -0.117160   -0.220990
  H     -0.725463    3.121623    0.835062

 Total Charge           Charge          ....    0
 Multiplicity           Mult            ....    1
 Number of Electrons    NEL             ....   56
 Basis Dimension        Dim             ....  437

ORBITAL ENERGIES
----------------

  NO   OCC          E(Eh)            E(eV)
   0   2.0000     -20.549042      -559.1679
   1   2.0000     -15.653853      -425.9630
   2   2.0000     -15.610456      -424.7821
   3   2.0000     -15.576967      -423.8708
   4   2.0000     -11.395288      -310.0815
   5   2.0000     -11.395079      -310.0759
   6   2.0000     -11.313738      -307.8625
   7   2.0000     -11.287061      -307.1365
   8   2.0000      -1.416167       -38.5359
   9   2.0000      -1.322598       -35.9897
  10   2.0000      -1.242384       -33.8070
  11   2.0000      -1.228605       -33.4320
  12   2.0000      -1.116856       -30.3912
  13   2.0000      -0.879097       -23.9215
  14   2.0000      -0.851387       -23.1674
  15   2.0000      -0.793630       -21.5958
  16   2.0000      -0.772203       -21.0127
  17   2.0000      -0.695035       -18.9129
  18   2.0000      -0.639517       -17.4021
  19   2.0000      -0.636848       -17.3295
  20   2.0000      -0.596558       -16.2332
  21   2.0000      -0.570154       -15.5147
  22   2.0000      -0.552042       -15.0218
  23   2.0000      -0.514955       -14.0126
  24   2.0000      -0.477323       -12.9886
  25   2.0000      -0.462209       -12.5773
  26   2.0000      -0.443706       -12.0738
  27   2.0000      -0.388742       -10.5782
  28   0.0000       0.011050         0.3007
  29   0.0000       0.025192         0.6855
  30   0.0000       0.045191         1.2297
  31   0.0000       0.061794         1.6815
  32   0.0000       0.066586         1.8119

MULLIKEN ATOMIC CHARGES
-----------------------
   0 O :   -0.747917
   1 N :   -0.372073
   2 N :   -0.679854
   3 N :   -0.666875
   4 C :    1.092818
   5 C :    0.331967
   6 C :    0.109297
   7 C :    0.387216
   8 H :    0.145487
   9 H :    0.155940
  10 H :    0.243995
Sum of atomic charges:    0.0000000

LOEWDIN ATOMIC CHARGES
----------------------
   0 O :    0.452254
   1 N :    0.847119
   2 N :    0.273868
   3 N :    0.674050
   4 C :   -0.216938
   5 C :   -0.725479
   6 C :   -0.290420
   7 C :   -0.031753
   8 H :   -0.315146
   9 H :   -0.287760
  10 H :   -0.379794

  Mayer bond orders larger than 0.100000
B(  0-O ,  5-C ) :   1.4399 B(  1-N ,  5-C ) :   0.9609 B(  1-N ,  8-H ) :   1.0283
B(  1-N ,  9-H ) :   1.0223 B(  2-N ,  6-C ) :   2.1283 B(  3-N ,  7-C ) :   1.4352
B(  3-N , 10-H ) :   0.8913 B(  4-C ,  5-C ) :   0.3196 B(  4-C ,  6-C ) :   0.4011
B(  4-C ,  7-C ) :   1.0798 B(  5-C ,  6-C ) :   0.2149 B(  5-C ,  7-C ) :   0.1615
B(  6-C ,  7-C ) :   0.3383

MP2 TOTAL ENERGY:     -392.979993042 Eh
FINAL SINGLE POINT ENERGY      -392.979993041757

DIPOLE MOMENT
-------------
                                X             Y             Z
Electronic contribution:     -2.80248      -1.28105       0.15477
Nuclear contribution   :      4.10741       4.02250       0.00807
                        -----------------------------------------
Total Dipole Moment    :      1.30493       2.74144       0.16283
                        -----------------------------------------
Magnitude (a.u.)       :      3.04054
Magnitude (Debye)      :      7.72843

Rotational constants in cm-1:     0.076616     0.073496     0.037956
Rotational constants in MHz :  2296.888972  2203.347533  1137.894052

                             ****ORCA TERMINATED NORMALLY****
TOTAL RUN TIME: 0 days 0 hours 2 minutes 57 seconds 36 msec
