                         Program Version 5.0.3 -  RELEASE  -
|  1> !ri-mp2 aug-cc-pvtz aug-cc-pvtz/c tightscf
|  2> %pal nprocs 16 end
|  3>
|  4> * xyz 0 1
|  5> O    -0.632058    0.672130   -0.429729
|  6> O    -3.588830   -0.935067   -0.145234
|  7> O     3.802898   -0.381162   -0.172489
|  8> N     0.433297    0.185855    0.340131
|  9> C    -1.809404    0.727301    0.307417
| 10> C     1.516191    0.170796   -0.329905
| 11> C    -2.745700   -0.171725    0.074575
| 12> C     2.724311   -0.315122    0.366593
| 13> H    -1.953915    1.509033    1.036401
| 14> H     1.584308    0.490399   -1.366547
| 15> H     2.568061   -0.615137    1.416763
| 16> *
| 17>
| 18>                          ****END OF INPUT****

CARTESIAN COORDINATES (ANGSTROEM)
---------------------------------
  O     -0.632058    0.672130   -0.429729
  O     -3.588830   -0.935067   -0.145234
  O      3.802898   -0.381162   -0.172489
  N      0.433297    0.185855    0.340131
  C     -1.809404    0.727301    0.307417
  C      1.516191    0.170796   -0.329905
  C     -2.745700   -0.171725    0.074575
  C      2.724311   -0.315122    0.366593
  H     -1.953915    1.509033    1.036401
  H      1.584308    0.490399   -1.366547
  H      2.568061   -0.615137    1.416763

 Total Charge           Charge          ....    0
 Multiplicity           Mult            ....    1
 Number of Electrons    NEL             ....   58
 Basis Dimension        Dim             ....  437

ORBITAL ENERGIES
----------------

  NO   OCC          E(Eh)            E(eV)
   0   2.0000     -20.655578      -562.0668
   1   2.0000     -20.651561      -561.9575
   2   2.0000     -20.585982      -560.1730
   3   2.0000     -15.680008      -426.6747
   4   2.0000     -11.398852      -310.1785
   5   2.0000     -11.358654      -309.0847
   6   2.0000     -11.311822      -307.8103
   7   2.0000     -11.310814      -307.7829
   8   2.0000      -1.496461       -40.7208
   9   2.0000      -1.482297       -40.3353
  10   2.0000      -1.420249       -38.6469
  11   2.0000      -1.227113       -33.3915
  12   2.0000      -1.050469       -28.5847
  13   2.0000      -0.934701       -25.4345
  14   2.0000      -0.816190       -22.2097
  15   2.0000      -0.786951       -21.4140
  16   2.0000      -0.742317       -20.1995
  17   2.0000      -0.738947       -20.1078
  18   2.0000      -0.717249       -19.5173
  19   2.0000      -0.665754       -18.1161
  20   2.0000      -0.655904       -17.8481
  21   2.0000      -0.647881       -17.6297
  22   2.0000      -0.618311       -16.8251
  23   2.0000      -0.596796       -16.2397
  24   2.0000      -0.558898       -15.2084
  25   2.0000      -0.499780       -13.5997
  26   2.0000      -0.458808       -12.4848
  27   2.0000      -0.437279       -11.8990
  28   2.0000      -0.374204       -10.1826
  29   0.0000       0.025125         0.6837
  30   0.0000       0.036828         1.0021
  31   0.0000       0.039099         1.0639
  32   0.0000       0.048865         1.3297
  33   0.0000       0.054555         1.4845

MULLIKEN ATOMIC CHARGES
-----------------------
   0 O :   -0.336966
   1 O :   -0.417201
   2 O :   -0.680704
   3 N :   -0.280478
   4 C :   -0.098714
   5 C :   -0.255824
   6 C :    0.331154
   7 C :    0.072882
   8 H :    0.441855
   9 H :    0.614836
  10 H :    0.609159
Sum of atomic charges:   -0.0000000

LOEWDIN ATOMIC CHARGES
----------------------
   0 O :    0.343843
   1 O :    0.417331
   2 O :    0.429400
   3 N :    0.140455
   4 C :   -0.151509
   5 C :   -0.017194
   6 C :   -0.270426
   7 C :   -0.263712
   8 H :   -0.246705
   9 H :   -0.184268
  10 H :   -0.197215

  Mayer bond orders larger than 0.100000
B(  0-O ,  3-N ) :   0.7764 B(  0-O ,  4-C ) :   0.8418 B(  1-O ,  4-C ) :  -0.1180
B(  1-O ,  6-C ) :   1.9929 B(  2-O ,  7-C ) :   1.7121 B(  3-N ,  4-C ) :  -0.1163
B(  3-N ,  5-C ) :   1.6382 B(  3-N ,  7-C ) :  -0.1376 B(  4-C ,  6-C ) :   1.6403
B(  4-C ,  8-H ) :   0.8074 B(  5-C ,  7-C ) :   0.8050 B(  5-C ,  9-H ) :   0.5592
B(  7-C , 10-H ) :   0.5678

MP2 TOTAL ENERGY:     -433.798736746 Eh
FINAL SINGLE POINT ENERGY      -433.798736745538

DIPOLE MOMENT
-------------
                                X             Y             Z
Electronic contribution:     -2.64312      -0.81175      -0.62301
Nuclear contribution   :      2.11399       1.32483       1.03737
                        -----------------------------------------
Total Dipole Moment    :     -0.52913       0.51309       0.41436
                        -----------------------------------------
Magnitude (a.u.)       :      0.84554
Magnitude (Debye)      :      2.14918

Rotational constants in cm-1:     0.339547     0.023394     0.022742
Rotational constants in MHz : 10179.354016   701.347125   681.791352

                             ****ORCA TERMINATED NORMALLY****
TOTAL RUN TIME: 0 days 0 hours 2 minutes 37 seconds 197 msec
