                         Program Version 5.0.3 -  RELEASE  -
|  1> !ri-mp2 aug-cc-pvtz aug-cc-pvtz/c tightscf
|  2> %pal nprocs 16 end
|  3>
|  4> * xyz 0 1
|  5> C      0.000000    0.000000    0.697725
|  6> C      0.000000    1.263786    1.332760
|  7> C      0.000000    0.000000   -0.697725
|  8> N      0.000000    2.398784    0.679888
|  9> C      0.000000    1.263786   -1.332760
| 10> N      0.000000    2.398784   -0.679888
| 11> C      0.000000   -1.263786   -1.332760
| 12> N      0.000000   -2.398784   -0.679888
| 13> C      0.000000   -1.263786    1.332760
| 14> N      0.000000   -2.398784    0.679888
| 15> H      0.000000   -1.340928   -2.414429
| 16> H      0.000000    1.340928    2.414429
| 17> H      0.000000   -1.340928    2.414429
| 18> H      0.000000    1.340928   -2.414429
| 19> *
| 20>
| 21>                          ****END OF INPUT****

CARTESIAN COORDINATES (ANGSTROEM)
---------------------------------
  C      0.000000    0.000000    0.697725
  C      0.000000    1.263786    1.332760
  C      0.000000    0.000000   -0.697725
  N      0.000000    2.398784    0.679888
  C      0.000000    1.263786   -1.332760
  N      0.000000    2.398784   -0.679888
  C      0.000000   -1.263786   -1.332760
  N      0.000000   -2.398784   -0.679888
  C      0.000000   -1.263786    1.332760
  N      0.000000   -2.398784    0.679888
  H      0.000000   -1.340928   -2.414429
  H      0.000000    1.340928    2.414429
  H      0.000000   -1.340928    2.414429
  H      0.000000    1.340928   -2.414429

 Total Charge           Charge          ....    0
 Multiplicity           Mult            ....    1
 Number of Electrons    NEL             ....   68
 Basis Dimension        Dim             ....  552

ORBITAL ENERGIES
----------------

  NO   OCC          E(Eh)            E(eV)
   0   2.0000     -15.632890      -425.3926
   1   2.0000     -15.632889      -425.3925
   2   2.0000     -15.632182      -425.3733
   3   2.0000     -15.632181      -425.3733
   4   2.0000     -11.313777      -307.8635
   5   2.0000     -11.313759      -307.8630
   6   2.0000     -11.313747      -307.8627
   7   2.0000     -11.313719      -307.8620
   8   2.0000     -11.301622      -307.5328
   9   2.0000     -11.300384      -307.4991
  10   2.0000      -1.370839       -37.3024
  11   2.0000      -1.358819       -36.9754
  12   2.0000      -1.166568       -31.7439
  13   2.0000      -1.160632       -31.5824
  14   2.0000      -1.140087       -31.0233
  15   2.0000      -0.959289       -26.1036
  16   2.0000      -0.958100       -26.0712
  17   2.0000      -0.893323       -24.3086
  18   2.0000      -0.771412       -20.9912
  19   2.0000      -0.765855       -20.8400
  20   2.0000      -0.760883       -20.7047
  21   2.0000      -0.681447       -18.5431
  22   2.0000      -0.680088       -18.5061
  23   2.0000      -0.639867       -17.4117
  24   2.0000      -0.625707       -17.0264
  25   2.0000      -0.622916       -16.9504
  26   2.0000      -0.569176       -15.4881
  27   2.0000      -0.499034       -13.5794
  28   2.0000      -0.490519       -13.3477
  29   2.0000      -0.457056       -12.4371
  30   2.0000      -0.454760       -12.3746
  31   2.0000      -0.422519       -11.4973
  32   2.0000      -0.419007       -11.4018
  33   2.0000      -0.378714       -10.3053
  34   0.0000       0.024250         0.6599
  35   0.0000       0.025210         0.6860
  36   0.0000       0.035191         0.9576
  37   0.0000       0.038165         1.0385
  38   0.0000       0.041202         1.1212

MULLIKEN ATOMIC CHARGES
-----------------------
   0 C :    1.511789
   1 C :   -0.745781
   2 C :    1.511789
   3 N :   -0.515399
   4 C :   -0.745781
   5 N :   -0.515399
   6 C :   -0.745782
   7 N :   -0.515400
   8 C :   -0.745782
   9 N :   -0.515400
  10 H :    0.505286
  11 H :    0.505286
  12 H :    0.505286
  13 H :    0.505286
Sum of atomic charges:   -0.0000000

LOEWDIN ATOMIC CHARGES
----------------------
   0 C :   -0.137522
   1 C :    0.035639
   2 C :   -0.137522
   3 N :    0.216999
   4 C :    0.035639
   5 N :    0.216999
   6 C :    0.035639
   7 N :    0.216999
   8 C :    0.035639
   9 N :    0.216999
  10 H :   -0.183877
  11 H :   -0.183877
  12 H :   -0.183877
  13 H :   -0.183877

  Mayer bond orders larger than 0.100000
B(  0-C ,  1-C ) :   0.3391 B(  0-C ,  2-C ) :   1.0070 B(  0-C ,  3-N ) :  -0.1503
B(  0-C ,  8-C ) :   0.3391 B(  0-C ,  9-N ) :  -0.1503 B(  1-C ,  3-N ) :   1.1997
B(  1-C ,  8-C ) :  -0.4497 B(  1-C , 11-H ) :   0.6674 B(  2-C ,  4-C ) :   0.3391
B(  2-C ,  5-N ) :  -0.1503 B(  2-C ,  6-C ) :   0.3391 B(  2-C ,  7-N ) :  -0.1503
B(  3-N ,  5-N ) :   0.3494 B(  4-C ,  5-N ) :   1.1997 B(  4-C ,  6-C ) :  -0.4497
B(  4-C , 13-H ) :   0.6674 B(  6-C ,  7-N ) :   1.1997 B(  6-C , 10-H ) :   0.6674
B(  7-N ,  9-N ) :   0.3494 B(  8-C ,  9-N ) :   1.1997 B(  8-C , 12-H ) :   0.6674

MP2 TOTAL ENERGY:     -449.129765073 Eh
FINAL SINGLE POINT ENERGY      -449.129765073451

DIPOLE MOMENT
-------------
                                X             Y             Z
Electronic contribution:     -0.00000       0.00000      -0.00000
Nuclear contribution   :      0.00000       0.00000       0.00000
                        -----------------------------------------
Total Dipole Moment    :     -0.00000       0.00000      -0.00000
                        -----------------------------------------
Magnitude (a.u.)       :      0.00000
Magnitude (Debye)      :      0.00000

Rotational constants in cm-1:     0.115120     0.041483     0.030494
Rotational constants in MHz :  3451.203148  1243.619355   914.194952

                             ****ORCA TERMINATED NORMALLY****
TOTAL RUN TIME: 0 days 0 hours 6 minutes 29 seconds 754 msec
