                         Program Version 5.0.3 -  RELEASE  -
|  1> !ri-mp2 aug-cc-pvtz aug-cc-pvtz/c tightscf
|  2> %pal nprocs 16 end
|  3> %maxcore 3800
|  4>
|  5> * xyz 0 1
|  6> O      1.156985    1.267774    1.230191
|  7> S      0.843996    0.000062    0.585576
|  8> C      1.650805   -0.000061   -1.080985
|  9> C      3.089778   -0.000082   -0.968083
| 10> C      4.283059   -0.000104   -0.864662
| 11> O      1.157003   -1.267545    1.230387
| 12> C     -0.900255    0.000015    0.152344
| 13> C     -1.559782   -1.213746   -0.004980
| 14> C     -2.908652   -1.207188   -0.338370
| 15> C     -3.579238   -0.000063   -0.507878
| 16> C     -2.908689    1.207101   -0.338507
| 17> C     -1.559819    1.213738   -0.005118
| 18> H      1.278876    0.889853   -1.588820
| 19> H      1.278846   -0.890027   -1.588706
| 20> H      5.340191   -0.000125   -0.768376
| 21> H     -1.026919   -2.140103    0.154686
| 22> H     -3.436604   -2.143231   -0.457340
| 23> H     -4.629833   -0.000093   -0.764710
| 24> H     -3.436669    2.143114   -0.457585
| 25> H     -1.026981    2.140129    0.154442
| 26> *
| 27>
| 28>                          ****END OF INPUT****

CARTESIAN COORDINATES (ANGSTROEM)
---------------------------------
  O      1.156985    1.267774    1.230191
  S      0.843996    0.000062    0.585576
  C      1.650805   -0.000061   -1.080985
  C      3.089778   -0.000082   -0.968083
  C      4.283059   -0.000104   -0.864662
  O      1.157003   -1.267545    1.230387
  C     -0.900255    0.000015    0.152344
  C     -1.559782   -1.213746   -0.004980
  C     -2.908652   -1.207188   -0.338370
  C     -3.579238   -0.000063   -0.507878
  C     -2.908689    1.207101   -0.338507
  C     -1.559819    1.213738   -0.005118
  H      1.278876    0.889853   -1.588820
  H      1.278846   -0.890027   -1.588706
  H      5.340191   -0.000125   -0.768376
  H     -1.026919   -2.140103    0.154686
  H     -3.436604   -2.143231   -0.457340
  H     -4.629833   -0.000093   -0.764710
  H     -3.436669    2.143114   -0.457585
  H     -1.026981    2.140129    0.154442

 Total Charge           Charge          ....    0
 Multiplicity           Mult            ....    1
 Number of Electrons    NEL             ....   94
 Basis Dimension        Dim             ....  740

ORBITAL ENERGIES
----------------

  NO   OCC          E(Eh)            E(eV)
   0   2.0000     -92.188336     -2508.5721
   1   2.0000     -20.547451      -559.1246
   2   2.0000     -20.547431      -559.1240
   3   2.0000     -11.307344      -307.6885
   4   2.0000     -11.285520      -307.0946
   5   2.0000     -11.271853      -306.7227
   6   2.0000     -11.271781      -306.7208
   7   2.0000     -11.268373      -306.6280
   8   2.0000     -11.262119      -306.4578
   9   2.0000     -11.261988      -306.4543
  10   2.0000     -11.251619      -306.1721
  11   2.0000     -11.242401      -305.9213
  12   2.0000      -9.157036      -249.1756
  13   2.0000      -6.841589      -186.1691
  14   2.0000      -6.841245      -186.1597
  15   2.0000      -6.841084      -186.1554
  16   2.0000      -1.447103       -39.3777
  17   2.0000      -1.336940       -36.3800
  18   2.0000      -1.190054       -32.3830
  19   2.0000      -1.102472       -29.9998
  20   2.0000      -1.062458       -28.9109
  21   2.0000      -1.049615       -28.5615
  22   2.0000      -1.000727       -27.2312
  23   2.0000      -0.902322       -24.5534
  24   2.0000      -0.861216       -23.4349
  25   2.0000      -0.815816       -22.1995
  26   2.0000      -0.741779       -20.1848
  27   2.0000      -0.741044       -20.1648
  28   2.0000      -0.689348       -18.7581
  29   2.0000      -0.679130       -18.4801
  30   2.0000      -0.672459       -18.2985
  31   2.0000      -0.652293       -17.7498
  32   2.0000      -0.651428       -17.7263
  33   2.0000      -0.637495       -17.3471
  34   2.0000      -0.620980       -16.8977
  35   2.0000      -0.615411       -16.7462
  36   2.0000      -0.551196       -14.9988
  37   2.0000      -0.537987       -14.6394
  38   2.0000      -0.527744       -14.3606
  39   2.0000      -0.500645       -13.6233
  40   2.0000      -0.499191       -13.5837
  41   2.0000      -0.474036       -12.8992
  42   2.0000      -0.455592       -12.3973
  43   2.0000      -0.406649       -11.0655
  44   2.0000      -0.398327       -10.8390
  45   2.0000      -0.375266       -10.2115
  46   2.0000      -0.367058        -9.9882
  47   0.0000       0.020493         0.5577
  48   0.0000       0.029671         0.8074
  49   0.0000       0.030680         0.8349
  50   0.0000       0.035578         0.9681
  51   0.0000       0.043113         1.1732

MULLIKEN ATOMIC CHARGES
-----------------------
   0 O :   -1.075776
   1 S :    2.044844
   2 C :   -0.540725
   3 C :    1.216333
   4 C :   -1.843000
   5 O :   -1.075777
   6 C :    0.904624
   7 C :   -0.844252
   8 C :   -0.513207
   9 C :   -0.280349
  10 C :   -0.513202
  11 C :   -0.844242
  12 H :    0.299769
  13 H :    0.299770
  14 H :    0.501940
  15 H :    0.464847
  16 H :    0.411875
  17 H :    0.509822
  18 H :    0.411865
  19 H :    0.464841
Sum of atomic charges:    0.0000000

LOEWDIN ATOMIC CHARGES
----------------------
   0 O :    0.043572
   1 S :    0.280038
   2 C :    0.134873
   3 C :   -0.030370
   4 C :    0.409617
   5 O :    0.043573
   6 C :   -0.239515
   7 C :    0.167242
   8 C :    0.211190
   9 C :    0.211128
  10 C :    0.211189
  11 C :    0.167243
  12 H :   -0.198345
  13 H :   -0.198347
  14 H :   -0.288962
  15 H :   -0.193142
  16 H :   -0.180728
  17 H :   -0.176386
  18 H :   -0.180729
  19 H :   -0.193142

  Mayer bond orders larger than 0.100000
B(  0-O ,  1-S ) :   1.1625 B(  0-O ,  2-C ) :   0.1408 B(  0-O ,  6-C ) :   0.1150
B(  1-S ,  2-C ) :   0.9046 B(  1-S ,  5-O ) :   1.1625 B(  1-S ,  6-C ) :   1.1741
B(  2-C ,  3-C ) :   0.9796 B(  2-C ,  5-O ) :   0.1408 B(  2-C ,  6-C ) :   0.1125
B(  2-C , 12-H ) :   0.9087 B(  2-C , 13-H ) :   0.9087 B(  3-C , 14-H ) :  -0.1158
B(  4-C , 14-H ) :   0.9313 B(  5-O ,  6-C ) :   0.1150 B(  6-C ,  7-C ) :   0.5971
B(  6-C , 11-C ) :   0.5970 B(  7-C ,  8-C ) :   1.1885 B(  7-C ,  9-C ) :   0.1288
B(  7-C , 11-C ) :   0.3061 B(  7-C , 15-H ) :   0.7814 B(  8-C ,  9-C ) :   1.1551
B(  8-C , 16-H ) :   0.9537 B(  9-C , 10-C ) :   1.1551 B(  9-C , 11-C ) :   0.1288
B(  9-C , 17-H ) :   0.7418 B( 10-C , 11-C ) :   1.1885 B( 10-C , 18-H ) :   0.9538
B( 11-C , 19-H ) :   0.7814

MP2 TOTAL ENERGY:     -894.910229858 Eh
FINAL SINGLE POINT ENERGY      -894.910229857703

DIPOLE MOMENT
-------------
                                X             Y             Z
Electronic contribution:      4.18469       0.00032       3.46109
Nuclear contribution   :     -5.53325      -0.00047      -5.18749
                        -----------------------------------------
Total Dipole Moment    :     -1.34856      -0.00015      -1.72640
                        -----------------------------------------
Magnitude (a.u.)       :      2.19068
Magnitude (Debye)      :      5.56826

Rotational constants in cm-1:     0.067888     0.016139     0.015609
Rotational constants in MHz :  2035.227937   483.839398   467.940154

                             ****ORCA TERMINATED NORMALLY****
TOTAL RUN TIME: 0 days 0 hours 17 minutes 11 seconds 265 msec
