                         Program Version 5.0.3 -  RELEASE  -
|  1> !ri-mp2 aug-cc-pvtz aug-cc-pvtz/c tightscf
|  2> %pal nprocs 16 end
|  3>
|  4> * xyz 0 1
|  5> O      2.314952   -0.784408    0.074091
|  6> N      0.623911    0.847435   -0.202435
|  7> N     -2.202485   -1.136869   -0.048234
|  8> C     -0.767680    1.044455    0.111907
|  9> C      1.438243   -0.023374   -0.027656
| 10> C     -1.574416   -0.177183    0.019351
| 11> H     -1.175339    1.782439   -0.578436
| 12> H     -0.871142    1.455478    1.118785
| 13> *
| 14>
| 15>                          ****END OF INPUT****

CARTESIAN COORDINATES (ANGSTROEM)
---------------------------------
  O      2.314952   -0.784408    0.074091
  N      0.623911    0.847435   -0.202435
  N     -2.202485   -1.136869   -0.048234
  C     -0.767680    1.044455    0.111907
  C      1.438243   -0.023374   -0.027656
  C     -1.574416   -0.177183    0.019351
  H     -1.175339    1.782439   -0.578436
  H     -0.871142    1.455478    1.118785

 Total Charge           Charge          ....    0
 Multiplicity           Mult            ....    1
 Number of Electrons    NEL             ....   42
 Basis Dimension        Dim             ....  322

ORBITAL ENERGIES
----------------

  NO   OCC          E(Eh)            E(eV)
   0   2.0000     -20.632768      -561.4462
   1   2.0000     -15.617515      -424.9742
   2   2.0000     -15.597213      -424.4217
   3   2.0000     -11.426571      -310.9328
   4   2.0000     -11.364113      -309.2332
   5   2.0000     -11.297058      -307.4086
   6   2.0000      -1.486054       -40.4376
   7   2.0000      -1.310594       -35.6631
   8   2.0000      -1.244653       -33.8687
   9   2.0000      -1.068685       -29.0804
  10   2.0000      -0.812492       -22.1090
  11   2.0000      -0.747260       -20.3340
  12   2.0000      -0.722541       -19.6613
  13   2.0000      -0.706579       -19.2270
  14   2.0000      -0.654896       -17.8206
  15   2.0000      -0.641320       -17.4512
  16   2.0000      -0.583448       -15.8764
  17   2.0000      -0.507680       -13.8147
  18   2.0000      -0.495590       -13.4857
  19   2.0000      -0.472954       -12.8697
  20   2.0000      -0.451731       -12.2922
  21   0.0000       0.019448         0.5292
  22   0.0000       0.035929         0.9777
  23   0.0000       0.053837         1.4650
  24   0.0000       0.057842         1.5740
  25   0.0000       0.082734         2.2513

MULLIKEN ATOMIC CHARGES
-----------------------
   0 O :   -0.376685
   1 N :   -0.039664
   2 N :   -0.449611
   3 C :    0.270054
   4 C :   -0.106187
   5 C :   -0.006694
   6 H :    0.358845
   7 H :    0.349942
Sum of atomic charges:    0.0000000

LOEWDIN ATOMIC CHARGES
----------------------
   0 O :    0.394790
   1 N :    0.293871
   2 N :    0.266190
   3 C :    0.054935
   4 C :   -0.464312
   5 C :   -0.208533
   6 H :   -0.171843
   7 H :   -0.165098

  Mayer bond orders larger than 0.100000
B(  0-O ,  1-N ) :  -0.1580 B(  0-O ,  4-C ) :   2.0444 B(  1-N ,  3-C ) :   0.6128
B(  1-N ,  4-C ) :   1.7931 B(  2-N ,  5-C ) :   2.4079 B(  3-C ,  4-C ) :  -0.1518
B(  3-C ,  5-C ) :   0.7519 B(  3-C ,  6-H ) :   0.8691 B(  3-C ,  7-H ) :   0.9028

MP2 TOTAL ENERGY:     -299.709344861 Eh
FINAL SINGLE POINT ENERGY      -299.709344861068

DIPOLE MOMENT
-------------
                                X             Y             Z
Electronic contribution:      1.82659      -1.62545      -0.26006
Nuclear contribution   :     -1.94093       3.09881       0.51910
                        -----------------------------------------
Total Dipole Moment    :     -0.11434       1.47336       0.25904
                        -----------------------------------------
Magnitude (a.u.)       :      1.50032
Magnitude (Debye)      :      3.81352

Rotational constants in cm-1:     0.285294     0.074770     0.060280
Rotational constants in MHz :  8552.900152  2241.541131  1807.144534

                             ****ORCA TERMINATED NORMALLY****
TOTAL RUN TIME: 0 days 0 hours 1 minutes 13 seconds 256 msec
