                         Program Version 5.0.3 -  RELEASE  -
|  1> !ri-mp2 aug-cc-pvtz aug-cc-pvtz/c tightscf
|  2> %pal nprocs 16 end
|  3>
|  4> * xyz 0 1
|  5> C      0.350820   -1.850666    0.000000
|  6> C      0.350820    1.050444    1.263414
|  7> C      0.350820    1.050444   -1.263414
|  8> C     -0.805408   -0.847966    0.000000
|  9> C     -0.414139    0.642850    0.000000
| 10> H     -0.031506   -2.872394    0.000000
| 11> H      0.984723   -1.741982    0.880927
| 12> H      0.984723   -1.741982   -0.880927
| 13> H      1.332012    0.574521    1.311117
| 14> H     -0.197555    0.775240    2.166524
| 15> H      0.512150    2.129575    1.288536
| 16> H      1.332012    0.574521   -1.311117
| 17> H      0.512150    2.129575   -1.288536
| 18> H     -0.197555    0.775240   -2.166524
| 19> H     -1.436172   -1.037018   -0.873465
| 20> H     -1.436172   -1.037018    0.873465
| 21> H     -1.356290    1.201080    0.000000
| 22> *
| 23>
| 24>                          ****END OF INPUT****

CARTESIAN COORDINATES (ANGSTROEM)
---------------------------------
  C      0.350820   -1.850666    0.000000
  C      0.350820    1.050444    1.263414
  C      0.350820    1.050444   -1.263414
  C     -0.805408   -0.847966    0.000000
  C     -0.414139    0.642850    0.000000
  H     -0.031506   -2.872394    0.000000
  H      0.984723   -1.741982    0.880927
  H      0.984723   -1.741982   -0.880927
  H      1.332012    0.574521    1.311117
  H     -0.197555    0.775240    2.166524
  H      0.512150    2.129575    1.288536
  H      1.332012    0.574521   -1.311117
  H      0.512150    2.129575   -1.288536
  H     -0.197555    0.775240   -2.166524
  H     -1.436172   -1.037018   -0.873465
  H     -1.436172   -1.037018    0.873465
  H     -1.356290    1.201080    0.000000

 Total Charge           Charge          ....    0
 Multiplicity           Mult            ....    1
 Number of Electrons    NEL             ....   42
 Basis Dimension        Dim             ....  506

ORBITAL ENERGIES
----------------

  NO   OCC          E(Eh)            E(eV)
   0   2.0000     -11.221732      -305.3588
   1   2.0000     -11.213788      -305.1427
   2   2.0000     -11.207563      -304.9733
   3   2.0000     -11.206680      -304.9493
   4   2.0000     -11.206657      -304.9486
   5   2.0000      -1.086465       -29.5642
   6   2.0000      -0.987706       -26.8768
   7   2.0000      -0.925670       -25.1888
   8   2.0000      -0.862016       -23.4566
   9   2.0000      -0.745440       -20.2844
  10   2.0000      -0.633928       -17.2501
  11   2.0000      -0.613013       -16.6809
  12   2.0000      -0.590973       -16.0812
  13   2.0000      -0.550612       -14.9829
  14   2.0000      -0.535683       -14.5767
  15   2.0000      -0.522951       -14.2302
  16   2.0000      -0.518185       -14.1005
  17   2.0000      -0.488420       -13.2906
  18   2.0000      -0.453694       -12.3456
  19   2.0000      -0.448351       -12.2003
  20   2.0000      -0.444938       -12.1074
  21   0.0000       0.030448         0.8285
  22   0.0000       0.036892         1.0039
  23   0.0000       0.038388         1.0446
  24   0.0000       0.039061         1.0629
  25   0.0000       0.055201         1.5021

MULLIKEN ATOMIC CHARGES
-----------------------
   0 C :   -0.950835
   1 C :   -1.057756
   2 C :   -1.057756
   3 C :   -0.532521
   4 C :    0.294485
   5 H :    0.287911
   6 H :    0.265719
   7 H :    0.265719
   8 H :    0.287382
   9 H :    0.262152
  10 H :    0.262160
  11 H :    0.287382
  12 H :    0.262160
  13 H :    0.262152
  14 H :    0.241711
  15 H :    0.241711
  16 H :    0.378225
Sum of atomic charges:    0.0000000

LOEWDIN ATOMIC CHARGES
----------------------
   0 C :    0.579513
   1 C :    0.579895
   2 C :    0.579895
   3 C :    0.272336
   4 C :   -0.053192
   5 H :   -0.170544
   6 H :   -0.175423
   7 H :   -0.175423
   8 H :   -0.171735
   9 H :   -0.162420
  10 H :   -0.165759
  11 H :   -0.171735
  12 H :   -0.165759
  13 H :   -0.162420
  14 H :   -0.149476
  15 H :   -0.149476
  16 H :   -0.138275

  Mayer bond orders larger than 0.100000
B(  0-C ,  3-C ) :   0.8648 B(  0-C ,  5-H ) :   0.9680 B(  0-C ,  6-H ) :   0.9571
B(  0-C ,  7-H ) :   0.9571 B(  1-C ,  2-C ) :   0.1476 B(  1-C ,  4-C ) :   0.7334
B(  1-C ,  8-H ) :   0.9544 B(  1-C ,  9-H ) :   0.9791 B(  1-C , 10-H ) :   0.9943
B(  2-C ,  4-C ) :   0.7334 B(  2-C , 11-H ) :   0.9544 B(  2-C , 12-H ) :   0.9943
B(  2-C , 13-H ) :   0.9791 B(  3-C ,  4-C ) :   0.8967 B(  3-C , 14-H ) :   0.9732
B(  3-C , 15-H ) :   0.9732 B(  4-C , 16-H ) :   0.7978

MP2 TOTAL ENERGY:     -197.310879451 Eh
FINAL SINGLE POINT ENERGY      -197.310879450749

DIPOLE MOMENT
-------------
                                X             Y             Z
Electronic contribution:     -1.14991       0.30669      -0.00000
Nuclear contribution   :      1.09601      -0.29588       0.00000
                        -----------------------------------------
Total Dipole Moment    :     -0.05390       0.01082      -0.00000
                        -----------------------------------------
Magnitude (a.u.)       :      0.05498
Magnitude (Debye)      :      0.13974

Rotational constants in cm-1:     0.201927     0.123279     0.099924
Rotational constants in MHz :  6053.610988  3695.803851  2995.641824

                             ****ORCA TERMINATED NORMALLY****
TOTAL RUN TIME: 0 days 0 hours 3 minutes 54 seconds 282 msec
