                         Program Version 5.0.3 -  RELEASE  -
|  1> !ri-mp2 aug-cc-pvtz aug-cc-pvtz/c tightscf
|  2> %pal nprocs 16 end
|  3>
|  4> * xyz 0 1
|  5> C      2.666741    0.979974    0.000000
|  6> C      1.486493    0.014956    0.000000
|  7> C     -1.390067   -1.170055    1.269098
|  8> C     -1.390067   -1.170055   -1.269098
|  9> S     -0.074320    0.976753    0.000000
| 10> C     -1.390067   -0.320258    0.000000
| 11> H      3.605889    0.424701    0.000000
| 12> H     -2.287687    0.301951    0.000000
| 13> H     -1.434533   -0.547568    2.161409
| 14> H     -1.434533   -0.547568   -2.161409
| 15> H      2.652471    1.620505    0.882058
| 16> H      2.652471    1.620505   -0.882058
| 17> H      1.518737   -0.621415   -0.883489
| 18> H      1.518737   -0.621415    0.883489
| 19> H     -2.253602   -1.839615    1.272426
| 20> H     -2.253602   -1.839615   -1.272426
| 21> H     -0.496721   -1.792940    1.332175
| 22> H     -0.496721   -1.792940   -1.332175
| 23> *
| 24>
| 25>                          ****END OF INPUT****

CARTESIAN COORDINATES (ANGSTROEM)
---------------------------------
  C      2.666741    0.979974    0.000000
  C      1.486493    0.014956    0.000000
  C     -1.390067   -1.170055    1.269098
  C     -1.390067   -1.170055   -1.269098
  S     -0.074320    0.976753    0.000000
  C     -1.390067   -0.320258    0.000000
  H      3.605889    0.424701    0.000000
  H     -2.287687    0.301951    0.000000
  H     -1.434533   -0.547568    2.161409
  H     -1.434533   -0.547568   -2.161409
  H      2.652471    1.620505    0.882058
  H      2.652471    1.620505   -0.882058
  H      1.518737   -0.621415   -0.883489
  H      1.518737   -0.621415    0.883489
  H     -2.253602   -1.839615    1.272426
  H     -2.253602   -1.839615   -1.272426
  H     -0.496721   -1.792940    1.332175
  H     -0.496721   -1.792940   -1.332175

 Total Charge           Charge          ....    0
 Multiplicity           Mult            ....    1
 Number of Electrons    NEL             ....   58
 Basis Dimension        Dim             ....  556

ORBITAL ENERGIES
----------------

  NO   OCC          E(Eh)            E(eV)
   0   2.0000     -91.933945     -2501.6498
   1   2.0000     -11.261675      -306.4458
   2   2.0000     -11.252259      -306.1895
   3   2.0000     -11.220700      -305.3308
   4   2.0000     -11.219297      -305.2926
   5   2.0000     -11.219280      -305.2921
   6   2.0000      -8.934234      -243.1129
   7   2.0000      -6.615457      -180.0157
   8   2.0000      -6.614491      -179.9894
   9   2.0000      -6.613631      -179.9661
  10   2.0000      -1.095105       -29.7993
  11   2.0000      -1.042764       -28.3750
  12   2.0000      -0.938562       -25.5396
  13   2.0000      -0.922228       -25.0951
  14   2.0000      -0.832969       -22.6662
  15   2.0000      -0.753275       -20.4976
  16   2.0000      -0.627755       -17.0821
  17   2.0000      -0.624880       -17.0038
  18   2.0000      -0.611051       -16.6276
  19   2.0000      -0.570900       -15.5350
  20   2.0000      -0.565409       -15.3856
  21   2.0000      -0.543528       -14.7901
  22   2.0000      -0.524502       -14.2724
  23   2.0000      -0.504538       -13.7292
  24   2.0000      -0.503079       -13.6895
  25   2.0000      -0.491215       -13.3666
  26   2.0000      -0.444576       -12.0975
  27   2.0000      -0.410121       -11.1600
  28   2.0000      -0.331355        -9.0166
  29   0.0000       0.029189         0.7943
  30   0.0000       0.033274         0.9054
  31   0.0000       0.038667         1.0522
  32   0.0000       0.039437         1.0731
  33   0.0000       0.051040         1.3889

MULLIKEN ATOMIC CHARGES
-----------------------
   0 C :   -0.907717
   1 C :   -0.332690
   2 C :   -1.016054
   3 C :   -1.016054
   4 S :   -0.354137
   5 C :    0.115973
   6 H :    0.278338
   7 H :    0.333361
   8 H :    0.321990
   9 H :    0.321990
  10 H :    0.301558
  11 H :    0.301558
  12 H :    0.250959
  13 H :    0.250959
  14 H :    0.256585
  15 H :    0.256585
  16 H :    0.318398
  17 H :    0.318398
Sum of atomic charges:   -0.0000000

LOEWDIN ATOMIC CHARGES
----------------------
   0 C :    0.491196
   1 C :   -0.083001
   2 C :    0.513070
   3 C :    0.513070
   4 S :    1.239179
   5 C :   -0.376551
   6 H :   -0.177945
   7 H :   -0.223546
   8 H :   -0.178825
   9 H :   -0.178825
  10 H :   -0.186947
  11 H :   -0.186947
  12 H :   -0.226486
  13 H :   -0.226486
  14 H :   -0.170519
  15 H :   -0.170519
  16 H :   -0.184959
  17 H :   -0.184959

  Mayer bond orders larger than 0.100000
B(  0-C ,  1-C ) :   0.8520 B(  0-C ,  6-H ) :   0.9730 B(  0-C , 10-H ) :   0.9461
B(  0-C , 11-H ) :   0.9461 B(  1-C ,  4-S ) :   0.9375 B(  1-C , 12-H ) :   0.9321
B(  1-C , 13-H ) :   0.9321 B(  2-C ,  3-C ) :   0.1078 B(  2-C ,  5-C ) :   0.8372
B(  2-C ,  8-H ) :   0.9427 B(  2-C , 14-H ) :   0.9767 B(  2-C , 16-H ) :   0.9226
B(  3-C ,  5-C ) :   0.8372 B(  3-C ,  9-H ) :   0.9427 B(  3-C , 15-H ) :   0.9767
B(  3-C , 17-H ) :   0.9226 B(  4-S ,  5-C ) :   0.8978 B(  5-C ,  7-H ) :   0.8576

MP2 TOTAL ENERGY:     -595.031944405 Eh
FINAL SINGLE POINT ENERGY      -595.031944404754

DIPOLE MOMENT
-------------
                                X             Y             Z
Electronic contribution:     -1.29065       5.20989       0.00000
Nuclear contribution   :      1.35174      -5.92201       0.00000
                        -----------------------------------------
Total Dipole Moment    :      0.06109      -0.71212       0.00000
                        -----------------------------------------
Magnitude (a.u.)       :      0.71474
Magnitude (Debye)      :      1.81672

Rotational constants in cm-1:     0.157134     0.051078     0.049736
Rotational constants in MHz :  4710.765123  1531.281551  1491.061803

                             ****ORCA TERMINATED NORMALLY****
TOTAL RUN TIME: 0 days 0 hours 4 minutes 56 seconds 753 msec
