                         Program Version 5.0.3 -  RELEASE  -
|  1> !ri-mp2 aug-cc-pvtz aug-cc-pvtz/c tightscf
|  2> %pal nprocs 16 end
|  3>
|  4> * xyz 0 1
|  5> Cl    -1.347415    1.412561    0.204092
|  6> S      2.973465    0.301056   -0.225140
|  7> N      0.624438   -1.122322    0.123077
|  8> C     -1.679642   -0.291748   -0.037658
|  9> C     -0.706921   -1.216488    0.644751
| 10> C      1.609055   -0.467672   -0.001390
| 11> C     -2.720952   -0.690146   -0.750013
| 12> H     -0.681309   -1.001003    1.716381
| 13> H     -1.057855   -2.239216    0.515322
| 14> H     -2.900921   -1.746442   -0.895230
| 15> H     -3.409606    0.008805   -1.199480
| 16> *
| 17>
| 18>                          ****END OF INPUT****

CARTESIAN COORDINATES (ANGSTROEM)
---------------------------------
  Cl    -1.347415    1.412561    0.204092
  S      2.973465    0.301056   -0.225140
  N      0.624438   -1.122322    0.123077
  C     -1.679642   -0.291748   -0.037658
  C     -0.706921   -1.216488    0.644751
  C      1.609055   -0.467672   -0.001390
  C     -2.720952   -0.690146   -0.750013
  H     -0.681309   -1.001003    1.716381
  H     -1.057855   -2.239216    0.515322
  H     -2.900921   -1.746442   -0.895230
  H     -3.409606    0.008805   -1.199480

 Total Charge           Charge          ....    0
 Multiplicity           Mult            ....    1
 Number of Electrons    NEL             ....   68
 Basis Dimension        Dim             ....  422

ORBITAL ENERGIES
----------------

  NO   OCC          E(Eh)            E(eV)
   0   2.0000    -104.854151     -2853.2265
   1   2.0000     -91.947175     -2502.0098
   2   2.0000     -15.611137      -424.8006
   3   2.0000     -11.377406      -309.5950
   4   2.0000     -11.328313      -308.2591
   5   2.0000     -11.327307      -308.2317
   6   2.0000     -11.263275      -306.4893
   7   2.0000     -10.578023      -287.8426
   8   2.0000      -8.950498      -243.5554
   9   2.0000      -8.044883      -218.9124
  10   2.0000      -8.042971      -218.8604
  11   2.0000      -8.042967      -218.8603
  12   2.0000      -6.632155      -180.4701
  13   2.0000      -6.629579      -180.4000
  14   2.0000      -6.629392      -180.3949
  15   2.0000      -1.302266       -35.4365
  16   2.0000      -1.180943       -32.1351
  17   2.0000      -1.073269       -29.2051
  18   2.0000      -1.033106       -28.1123
  19   2.0000      -0.987966       -26.8839
  20   2.0000      -0.800361       -21.7789
  21   2.0000      -0.733000       -19.9459
  22   2.0000      -0.687547       -18.7091
  23   2.0000      -0.671108       -18.2618
  24   2.0000      -0.616386       -16.7727
  25   2.0000      -0.595787       -16.2122
  26   2.0000      -0.569895       -15.5076
  27   2.0000      -0.535185       -14.5631
  28   2.0000      -0.524616       -14.2755
  29   2.0000      -0.510239       -13.8843
  30   2.0000      -0.468849       -12.7580
  31   2.0000      -0.391712       -10.6590
  32   2.0000      -0.363633        -9.8950
  33   2.0000      -0.357359        -9.7242
  34   0.0000       0.022514         0.6126
  35   0.0000       0.032668         0.8889
  36   0.0000       0.039678         1.0797
  37   0.0000       0.053316         1.4508
  38   0.0000       0.059725         1.6252

MULLIKEN ATOMIC CHARGES
-----------------------
   0 Cl:   -0.342470
   1 S :   -0.355121
   2 N :   -0.007959
   3 C :    0.419058
   4 C :    0.290982
   5 C :   -0.344483
   6 C :   -1.123286
   7 H :    0.328438
   8 H :    0.338459
   9 H :    0.322493
  10 H :    0.473889
Sum of atomic charges:   -0.0000000

LOEWDIN ATOMIC CHARGES
----------------------
   0 Cl:    0.980571
   1 S :    0.819706
   2 N :    0.213013
   3 C :   -0.757637
   4 C :    0.002803
   5 C :   -0.904271
   6 C :    0.442495
   7 H :   -0.164828
   8 H :   -0.178689
   9 H :   -0.221065
  10 H :   -0.232097

  Mayer bond orders larger than 0.100000
B(  0-Cl,  3-C ) :   0.8166 B(  1-S ,  5-C ) :   1.8015 B(  2-N ,  4-C ) :   0.4687
B(  2-N ,  5-C ) :   2.0511 B(  3-C ,  4-C ) :   0.7892 B(  3-C ,  6-C ) :   1.4922
B(  4-C ,  5-C ) :  -0.2916 B(  4-C ,  7-H ) :   0.9353 B(  4-C ,  8-H ) :   0.9107
B(  6-C ,  9-H ) :   0.9848 B(  6-C , 10-H ) :   0.7559

MP2 TOTAL ENERGY:    -1066.563706054 Eh
FINAL SINGLE POINT ENERGY     -1066.563706054440

DIPOLE MOMENT
-------------
                                X             Y             Z
Electronic contribution:      4.51249       5.83654       0.36415
Nuclear contribution   :     -5.93644      -6.70551      -0.14083
                        -----------------------------------------
Total Dipole Moment    :     -1.42395      -0.86898       0.22332
                        -----------------------------------------
Magnitude (a.u.)       :      1.68304
Magnitude (Debye)      :      4.27795

Rotational constants in cm-1:     0.114344     0.030344     0.025465
Rotational constants in MHz :  3427.943744   909.678812   763.417871

                             ****ORCA TERMINATED NORMALLY****
TOTAL RUN TIME: 0 days 0 hours 2 minutes 52 seconds 461 msec
