                         Program Version 5.0.3 -  RELEASE  -
|  1> !ri-mp2 aug-cc-pvtz aug-cc-pvtz/c tightscf
|  2> %pal nprocs 16 end
|  3>
|  4> * xyz 0 1
|  5> O     -0.000005    1.187716    0.000000
|  6> C      0.000009    0.367981    1.174300
|  7> C      0.000009   -1.040764    0.662346
|  8> C      0.000009   -1.040764   -0.662346
|  9> C      0.000009    0.367981   -1.174300
| 10> H     -0.884524    0.596428    1.780702
| 11> H      0.884421    0.596465    1.780810
| 12> H      0.884421    0.596465   -1.780810
| 13> H     -0.884524    0.596428   -1.780702
| 14> H      0.000016   -1.907063    1.307178
| 15> H      0.000016   -1.907063   -1.307178
| 16> *
| 17>
| 18>                          ****END OF INPUT****

CARTESIAN COORDINATES (ANGSTROEM)
---------------------------------
  O     -0.000005    1.187716    0.000000
  C      0.000009    0.367981    1.174300
  C      0.000009   -1.040764    0.662346
  C      0.000009   -1.040764   -0.662346
  C      0.000009    0.367981   -1.174300
  H     -0.884524    0.596428    1.780702
  H      0.884421    0.596465    1.780810
  H      0.884421    0.596465   -1.780810
  H     -0.884524    0.596428   -1.780702
  H      0.000016   -1.907063    1.307178
  H      0.000016   -1.907063   -1.307178

 Total Charge           Charge          ....    0
 Multiplicity           Mult            ....    1
 Number of Electrons    NEL             ....   38
 Basis Dimension        Dim             ....  368

ORBITAL ENERGIES
----------------

  NO   OCC          E(Eh)            E(eV)
   0   2.0000     -20.551323      -559.2299
   1   2.0000     -11.278801      -306.9118
   2   2.0000     -11.278777      -306.9111
   3   2.0000     -11.234810      -305.7147
   4   2.0000     -11.232992      -305.6653
   5   2.0000      -1.371388       -37.3174
   6   2.0000      -1.074092       -29.2275
   7   2.0000      -0.991817       -26.9887
   8   2.0000      -0.829823       -22.5806
   9   2.0000      -0.763637       -20.7796
  10   2.0000      -0.698379       -19.0039
  11   2.0000      -0.664390       -18.0790
  12   2.0000      -0.582362       -15.8469
  13   2.0000      -0.570731       -15.5304
  14   2.0000      -0.567361       -15.4387
  15   2.0000      -0.510500       -13.8914
  16   2.0000      -0.489015       -13.3068
  17   2.0000      -0.437240       -11.8979
  18   2.0000      -0.353758        -9.6263
  19   0.0000       0.028523         0.7762
  20   0.0000       0.035514         0.9664
  21   0.0000       0.042167         1.1474
  22   0.0000       0.043566         1.1855
  23   0.0000       0.053610         1.4588

MULLIKEN ATOMIC CHARGES
-----------------------
   0 O :   -0.548512
   1 C :   -0.173896
   2 C :   -0.680819
   3 C :   -0.680819
   4 C :   -0.173896
   5 H :    0.314363
   6 H :    0.314401
   7 H :    0.314401
   8 H :    0.314363
   9 H :    0.500208
  10 H :    0.500208
Sum of atomic charges:   -0.0000000

LOEWDIN ATOMIC CHARGES
----------------------
   0 O :    0.556522
   1 C :    0.010994
   2 C :    0.218230
   3 C :    0.218230
   4 C :    0.010994
   5 H :   -0.163592
   6 H :   -0.163612
   7 H :   -0.163612
   8 H :   -0.163592
   9 H :   -0.180281
  10 H :   -0.180281

  Mayer bond orders larger than 0.100000
B(  0-O ,  1-C ) :   0.8754 B(  0-O ,  4-C ) :   0.8754 B(  1-C ,  2-C ) :   0.9150
B(  1-C ,  4-C ) :   0.1997 B(  1-C ,  5-H ) :   0.9082 B(  1-C ,  6-H ) :   0.9082
B(  2-C ,  3-C ) :   1.6024 B(  2-C ,  9-H ) :   0.7086 B(  3-C ,  4-C ) :   0.9150
B(  3-C , 10-H ) :   0.7086 B(  4-C ,  7-H ) :   0.9082 B(  4-C ,  8-H ) :   0.9082

MP2 TOTAL ENERGY:     -230.773809780 Eh
FINAL SINGLE POINT ENERGY      -230.773809779821

DIPOLE MOMENT
-------------
                                X             Y             Z
Electronic contribution:      0.00020       0.73784       0.00000
Nuclear contribution   :     -0.00018      -1.43527       0.00000
                        -----------------------------------------
Total Dipole Moment    :      0.00003      -0.69743       0.00000
                        -----------------------------------------
Magnitude (a.u.)       :      0.69743
Magnitude (Debye)      :      1.77272

Rotational constants in cm-1:     0.267373     0.264496     0.139926
Rotational constants in MHz :  8015.638622  7929.381162  4194.861919

                             ****ORCA TERMINATED NORMALLY****
TOTAL RUN TIME: 0 days 0 hours 1 minutes 38 seconds 908 msec
