                         Program Version 5.0.3 -  RELEASE  -
|  1> !ri-mp2 aug-cc-pvtz aug-cc-pvtz/c tightscf
|  2> %pal nprocs 16 end
|  3>
|  4> * xyz 0 1
|  5> Cl    1.404145    1.587201    0.000000
|  6> Cl    1.404145   -1.587200    0.000000
|  7> C    -0.099467    0.708116    0.000000
|  8> C    -0.099467   -0.708116    0.000000
|  9> C    -1.288023    1.457987    0.000000
| 10> C    -1.288023   -1.457988    0.000000
| 11> C    -2.378023    0.619733    0.000000
| 12> C    -2.378023   -0.619734    0.000000
| 13> H    -1.277395    2.536568    0.000000
| 14> H    -1.277395   -2.536568    0.000000
| 15> *
| 16>
| 17>                          ****END OF INPUT****

CARTESIAN COORDINATES (ANGSTROEM)
---------------------------------
  Cl     1.404145    1.587201    0.000000
  Cl     1.404145   -1.587200    0.000000
  C     -0.099467    0.708116    0.000000
  C     -0.099467   -0.708116    0.000000
  C     -1.288023    1.457987    0.000000
  C     -1.288023   -1.457988    0.000000
  C     -2.378023    0.619733    0.000000
  C     -2.378023   -0.619734    0.000000
  H     -1.277395    2.536568    0.000000
  H     -1.277395   -2.536568    0.000000

 Total Charge           Charge          ....    0
 Multiplicity           Mult            ....    1
 Number of Electrons    NEL             ....   72
 Basis Dimension        Dim             ....  422

ORBITAL ENERGIES
----------------

  NO   OCC          E(Eh)            E(eV)
   0   2.0000    -104.858508     -2853.3451
   1   2.0000    -104.858508     -2853.3451
   2   2.0000     -11.339195      -308.5552
   3   2.0000     -11.338105      -308.5255
   4   2.0000     -11.302171      -307.5477
   5   2.0000     -11.302158      -307.5474
   6   2.0000     -11.275861      -306.8318
   7   2.0000     -11.272707      -306.7460
   8   2.0000     -10.582144      -287.9548
   9   2.0000     -10.582140      -287.9547
  10   2.0000      -8.049040      -219.0255
  11   2.0000      -8.049036      -219.0254
  12   2.0000      -8.047035      -218.9709
  13   2.0000      -8.047035      -218.9709
  14   2.0000      -8.047032      -218.9709
  15   2.0000      -8.047029      -218.9708
  16   2.0000      -1.237323       -33.6693
  17   2.0000      -1.149819       -31.2882
  18   2.0000      -1.147925       -31.2366
  19   2.0000      -1.040795       -28.3215
  20   2.0000      -0.995010       -27.0756
  21   2.0000      -0.879620       -23.9357
  22   2.0000      -0.789976       -21.4964
  23   2.0000      -0.695065       -18.9137
  24   2.0000      -0.684932       -18.6380
  25   2.0000      -0.673706       -18.3325
  26   2.0000      -0.592134       -16.1128
  27   2.0000      -0.575966       -15.6728
  28   2.0000      -0.574851       -15.6425
  29   2.0000      -0.501283       -13.6406
  30   2.0000      -0.497613       -13.5407
  31   2.0000      -0.489647       -13.3240
  32   2.0000      -0.459161       -12.4944
  33   2.0000      -0.400144       -10.8885
  34   2.0000      -0.373015       -10.1503
  35   2.0000      -0.359519        -9.7830
  36   0.0000       0.024731         0.6730
  37   0.0000       0.030507         0.8301
  38   0.0000       0.039023         1.0619
  39   0.0000       0.058255         1.5852
  40   0.0000       0.063361         1.7241

MULLIKEN ATOMIC CHARGES
-----------------------
   0 Cl:   -0.416673
   1 Cl:   -0.416673
   2 C :    0.532163
   3 C :    0.532168
   4 C :   -0.585819
   5 C :   -0.585820
   6 C :   -0.070841
   7 C :   -0.070841
   8 H :    0.541167
   9 H :    0.541168
Sum of atomic charges:   -0.0000000

LOEWDIN ATOMIC CHARGES
----------------------
   0 Cl:    0.959652
   1 Cl:    0.959653
   2 C :   -0.865055
   3 C :   -0.865055
   4 C :    0.047089
   5 C :    0.047090
   6 C :    0.073796
   7 C :    0.073796
   8 H :   -0.215483
   9 H :   -0.215484

  Mayer bond orders larger than 0.100000
B(  0-Cl,  2-C ) :   0.5197 B(  0-Cl,  3-C ) :   0.2412 B(  1-Cl,  2-C ) :   0.2412
B(  1-Cl,  3-C ) :   0.5197 B(  2-C ,  3-C ) :   1.5289 B(  2-C ,  4-C ) :   1.1751
B(  2-C ,  6-C ) :  -0.1090 B(  2-C ,  7-C ) :   0.1286 B(  3-C ,  5-C ) :   1.1751
B(  3-C ,  6-C ) :   0.1286 B(  3-C ,  7-C ) :  -0.1090 B(  4-C ,  5-C ) :   0.1356
B(  4-C ,  6-C ) :   1.1494 B(  4-C ,  8-H ) :   0.6624 B(  5-C ,  7-C ) :   1.1494
B(  5-C ,  9-H ) :   0.6624 B(  6-C ,  7-C ) :   2.4922

MP2 TOTAL ENERGY:    -1148.666704027 Eh
FINAL SINGLE POINT ENERGY     -1148.666704027185

DIPOLE MOMENT
-------------
                                X             Y             Z
Electronic contribution:      5.74777       0.00000       0.00000
Nuclear contribution   :     -6.12975      -0.00000       0.00000
                        -----------------------------------------
Total Dipole Moment    :     -0.38197      -0.00000       0.00000
                        -----------------------------------------
Magnitude (a.u.)       :      0.38197
Magnitude (Debye)      :      0.97090

Rotational constants in cm-1:     0.063871     0.052890     0.028932
Rotational constants in MHz :  1914.796806  1585.605144   867.360866

                             ****ORCA TERMINATED NORMALLY****
TOTAL RUN TIME: 0 days 0 hours 3 minutes 4 seconds 372 msec
