                         Program Version 5.0.3 -  RELEASE  -
|  1> !ri-mp2 aug-cc-pvtz aug-cc-pvtz/c tightscf
|  2> %pal nprocs 16 end
|  3>
|  4> * xyz 0 1
|  5> C     1.447868    1.099623    0.000000
|  6> C    -1.447868   -1.099623    0.000000
|  7> C     2.286737    0.027705    0.000000
|  8> C    -2.286737   -0.027705    0.000000
|  9> C     0.088213    0.687881    0.000000
| 10> C    -0.088213   -0.687881    0.000000
| 11> S     1.447868   -1.498577    0.000000
| 12> S    -1.447868    1.498577    0.000000
| 13> H     1.786562    2.124058    0.000000
| 14> H    -1.786562   -2.124058    0.000000
| 15> H     3.363551    0.035733    0.000000
| 16> H    -3.363551   -0.035733    0.000000
| 17> *
| 18>
| 19>                          ****END OF INPUT****

CARTESIAN COORDINATES (ANGSTROEM)
---------------------------------
  C      1.447868    1.099623    0.000000
  C     -1.447868   -1.099623    0.000000
  C      2.286737    0.027705    0.000000
  C     -2.286737   -0.027705    0.000000
  C      0.088213    0.687881    0.000000
  C     -0.088213   -0.687881    0.000000
  S      1.447868   -1.498577    0.000000
  S     -1.447868    1.498577    0.000000
  H      1.786562    2.124058    0.000000
  H     -1.786562   -2.124058    0.000000
  H      3.363551    0.035733    0.000000
  H     -3.363551   -0.035733    0.000000

 Total Charge           Charge          ....    0
 Multiplicity           Mult            ....    1
 Number of Electrons    NEL             ....   72
 Basis Dimension        Dim             ....  468

ORBITAL ENERGIES
----------------

  NO   OCC          E(Eh)            E(eV)
   0   2.0000     -91.990113     -2503.1782
   1   2.0000     -91.990113     -2503.1782
   2   2.0000     -11.272132      -306.7303
   3   2.0000     -11.272130      -306.7303
   4   2.0000     -11.269882      -306.6691
   5   2.0000     -11.268580      -306.6337
   6   2.0000     -11.252012      -306.1828
   7   2.0000     -11.252008      -306.1827
   8   2.0000      -8.989598      -244.6194
   9   2.0000      -8.989595      -244.6193
  10   2.0000      -6.670621      -181.5168
  11   2.0000      -6.670621      -181.5168
  12   2.0000      -6.670164      -181.5044
  13   2.0000      -6.670164      -181.5044
  14   2.0000      -6.669281      -181.4804
  15   2.0000      -6.669281      -181.4804
  16   2.0000      -1.207149       -32.8482
  17   2.0000      -1.119784       -30.4709
  18   2.0000      -1.022941       -27.8356
  19   2.0000      -0.965044       -26.2602
  20   2.0000      -0.945507       -25.7285
  21   2.0000      -0.801962       -21.8225
  22   2.0000      -0.764883       -20.8135
  23   2.0000      -0.717389       -19.5212
  24   2.0000      -0.668681       -18.1957
  25   2.0000      -0.641569       -17.4580
  26   2.0000      -0.566312       -15.4101
  27   2.0000      -0.564127       -15.3507
  28   2.0000      -0.536518       -14.5994
  29   2.0000      -0.530864       -14.4455
  30   2.0000      -0.498651       -13.5690
  31   2.0000      -0.468567       -12.7503
  32   2.0000      -0.461220       -12.5504
  33   2.0000      -0.389457       -10.5977
  34   2.0000      -0.322341        -8.7714
  35   2.0000      -0.301822        -8.2130
  36   0.0000       0.029559         0.8043
  37   0.0000       0.030515         0.8304
  38   0.0000       0.038734         1.0540
  39   0.0000       0.044088         1.1997
  40   0.0000       0.069357         1.8873

MULLIKEN ATOMIC CHARGES
-----------------------
   0 C :   -1.038161
   1 C :   -1.038161
   2 C :   -0.322560
   3 C :   -0.322560
   4 C :    0.679719
   5 C :    0.679719
   6 S :   -0.315214
   7 S :   -0.315214
   8 H :    0.441747
   9 H :    0.441747
  10 H :    0.554470
  11 H :    0.554470
Sum of atomic charges:   -0.0000000

LOEWDIN ATOMIC CHARGES
----------------------
   0 C :    0.041890
   1 C :    0.041890
   2 C :   -0.185558
   3 C :   -0.185558
   4 C :   -0.641008
   5 C :   -0.641008
   6 S :    1.250074
   7 S :    1.250074
   8 H :   -0.200527
   9 H :   -0.200527
  10 H :   -0.264871
  11 H :   -0.264871

  Mayer bond orders larger than 0.100000
B(  0-C ,  1-C ) :   0.1623 B(  0-C ,  2-C ) :   1.5398 B(  0-C ,  4-C ) :   0.7817
B(  0-C ,  7-S ) :  -0.1012 B(  0-C ,  8-H ) :   0.8502 B(  1-C ,  3-C ) :   1.5398
B(  1-C ,  5-C ) :   0.7817 B(  1-C ,  6-S ) :  -0.1012 B(  1-C ,  9-H ) :   0.8502
B(  2-C ,  4-C ) :  -0.2157 B(  2-C ,  6-S ) :   1.0878 B(  2-C , 10-H ) :   0.6964
B(  3-C ,  5-C ) :  -0.2157 B(  3-C ,  7-S ) :   1.0878 B(  3-C , 11-H ) :   0.6964
B(  4-C ,  5-C ) :   1.1923 B(  4-C ,  6-S ) :   0.1611 B(  4-C ,  7-S ) :   0.7874
B(  5-C ,  6-S ) :   0.7874 B(  5-C ,  7-S ) :   0.1611

MP2 TOTAL ENERGY:    -1025.996010343 Eh
FINAL SINGLE POINT ENERGY     -1025.996010342915

DIPOLE MOMENT
-------------
                                X             Y             Z
Electronic contribution:     -0.00000      -0.00000      -0.00000
Nuclear contribution   :      0.00000       0.00000       0.00000
                        -----------------------------------------
Total Dipole Moment    :     -0.00000      -0.00000      -0.00000
                        -----------------------------------------
Magnitude (a.u.)       :      0.00000
Magnitude (Debye)      :      0.00000

Rotational constants in cm-1:     0.111868     0.044055     0.031607
Rotational constants in MHz :  3353.724472  1320.725729   947.566025

                             ****ORCA TERMINATED NORMALLY****
TOTAL RUN TIME: 0 days 0 hours 4 minutes 26 seconds 217 msec
