                         Program Version 5.0.3 -  RELEASE  -
|  1> !ri-mp2 aug-cc-pvtz aug-cc-pvtz/c tightscf
|  2> %pal nprocs 16 end
|  3>
|  4> * xyz 0 1
|  5> S     -0.028479   -1.298792    0.113208
|  6> S     -1.706091   -0.067083   -0.155054
|  7> N      0.494117    1.411130    0.230341
|  8> N      2.316910   -0.066084   -0.430930
|  9> C      1.182581    0.157135    0.412230
| 10> C     -0.739922    1.410171   -0.021635
| 11> H      2.101161    0.113195   -1.403505
| 12> H      3.105494    0.503334   -0.149239
| 13> H      1.509307    0.087909    1.449130
| 14> H     -1.295978    2.330405   -0.166289
| 15> *
| 16>
| 17>                          ****END OF INPUT****

CARTESIAN COORDINATES (ANGSTROEM)
---------------------------------
  S     -0.028479   -1.298792    0.113208
  S     -1.706091   -0.067083   -0.155054
  N      0.494117    1.411130    0.230341
  N      2.316910   -0.066084   -0.430930
  C      1.182581    0.157135    0.412230
  C     -0.739922    1.410171   -0.021635
  H      2.101161    0.113195   -1.403505
  H      3.105494    0.503334   -0.149239
  H      1.509307    0.087909    1.449130
  H     -1.295978    2.330405   -0.166289

 Total Charge           Charge          ....    0
 Multiplicity           Mult            ....    1
 Number of Electrons    NEL             ....   62
 Basis Dimension        Dim             ....  376

ORBITAL ENERGIES
----------------

  NO   OCC          E(Eh)            E(eV)
   0   2.0000     -91.998205     -2503.3984
   1   2.0000     -91.980466     -2502.9157
   2   2.0000     -15.584161      -424.0666
   3   2.0000     -15.566136      -423.5761
   4   2.0000     -11.348525      -308.8091
   5   2.0000     -11.335809      -308.4631
   6   2.0000      -8.997523      -244.8350
   7   2.0000      -8.979145      -244.3350
   8   2.0000      -6.678400      -181.7285
   9   2.0000      -6.677463      -181.7030
  10   2.0000      -6.676235      -181.6696
  11   2.0000      -6.659970      -181.2270
  12   2.0000      -6.658739      -181.1935
  13   2.0000      -6.657571      -181.1617
  14   2.0000      -1.290277       -35.1102
  15   2.0000      -1.195789       -32.5391
  16   2.0000      -1.050075       -28.5740
  17   2.0000      -0.980369       -26.6772
  18   2.0000      -0.836284       -22.7564
  19   2.0000      -0.791673       -21.5425
  20   2.0000      -0.703702       -19.1487
  21   2.0000      -0.659750       -17.9527
  22   2.0000      -0.644426       -17.5357
  23   2.0000      -0.606905       -16.5147
  24   2.0000      -0.507256       -13.8031
  25   2.0000      -0.487820       -13.2743
  26   2.0000      -0.476206       -12.9582
  27   2.0000      -0.447698       -12.1825
  28   2.0000      -0.423413       -11.5216
  29   2.0000      -0.402458       -10.9514
  30   2.0000      -0.323746        -8.8096
  31   0.0000       0.028144         0.7658
  32   0.0000       0.034458         0.9377
  33   0.0000       0.040881         1.1124
  34   0.0000       0.054774         1.4905
  35   0.0000       0.064165         1.7460

MULLIKEN ATOMIC CHARGES
-----------------------
   0 S :   -0.221191
   1 S :   -0.085808
   2 N :   -0.529726
   3 N :   -0.610891
   4 C :    0.546647
   5 C :   -0.280702
   6 H :    0.155846
   7 H :    0.110487
   8 H :    0.365684
   9 H :    0.549653
Sum of atomic charges:   -0.0000000

LOEWDIN ATOMIC CHARGES
----------------------
   0 S :    0.676365
   1 S :    0.666708
   2 N :    0.243327
   3 N :    0.760025
   4 C :   -0.686037
   5 C :   -0.501208
   6 H :   -0.334825
   7 H :   -0.320743
   8 H :   -0.231330
   9 H :   -0.272283

  Mayer bond orders larger than 0.100000
B(  0-S ,  1-S ) :   1.0229 B(  0-S ,  4-C ) :   0.9602 B(  1-S ,  5-C ) :   0.9773
B(  2-N ,  4-C ) :   0.6718 B(  2-N ,  5-C ) :   1.7656 B(  3-N ,  4-C ) :   0.7027
B(  3-N ,  6-H ) :   0.9618 B(  3-N ,  7-H ) :   1.0182 B(  4-C ,  8-H ) :   0.8562
B(  5-C ,  9-H ) :   0.6162

MP2 TOTAL ENERGY:     -983.202618607 Eh
FINAL SINGLE POINT ENERGY      -983.202618607076

DIPOLE MOMENT
-------------
                                X             Y             Z
Electronic contribution:     -5.17930      -2.27637       0.19359
Nuclear contribution   :      5.31883       2.98870      -0.26138
                        -----------------------------------------
Total Dipole Moment    :      0.13952       0.71233      -0.06779
                        -----------------------------------------
Magnitude (a.u.)       :      0.72902
Magnitude (Debye)      :      1.85302

Rotational constants in cm-1:     0.137342     0.075267     0.051825
Rotational constants in MHz :  4117.400030  2256.437220  1553.673367

                             ****ORCA TERMINATED NORMALLY****
TOTAL RUN TIME: 0 days 0 hours 2 minutes 28 seconds 523 msec
