                         Program Version 5.0.3 -  RELEASE  -
|  1> !ri-mp2 aug-cc-pvtz aug-cc-pvtz/c tightscf
|  2> %pal nprocs 16 end
|  3>
|  4> * xyz 0 1
|  5> C      0.000000    0.000000   -0.952610
|  6> C      0.000001    1.139799    1.130184
|  7> C     -0.000001   -1.139799    1.130184
|  8> C      0.000000    1.209041   -0.263066
|  9> C      0.000000   -1.209041   -0.263066
| 10> C     -0.000008    2.530903   -0.981213
| 11> C      0.000008   -2.530903   -0.981213
| 12> N      0.000000    0.000000    1.817942
| 13> H      0.000000    0.000000   -2.037504
| 14> H      0.000003    2.053289    1.716116
| 15> H     -0.000003   -2.053289    1.716116
| 16> H      0.000077    3.361966   -0.277021
| 17> H      0.878860    2.634607   -1.620442
| 18> H     -0.878973    2.634672   -1.620300
| 19> H      0.878973   -2.634672   -1.620300
| 20> H     -0.000077   -3.361966   -0.277021
| 21> H     -0.878860   -2.634607   -1.620442
| 22> *
| 23>
| 24>                          ****END OF INPUT****

CARTESIAN COORDINATES (ANGSTROEM)
---------------------------------
  C      0.000000    0.000000   -0.952610
  C      0.000001    1.139799    1.130184
  C     -0.000001   -1.139799    1.130184
  C      0.000000    1.209041   -0.263066
  C      0.000000   -1.209041   -0.263066
  C     -0.000008    2.530903   -0.981213
  C      0.000008   -2.530903   -0.981213
  N      0.000000    0.000000    1.817942
  H      0.000000    0.000000   -2.037504
  H      0.000003    2.053289    1.716116
  H     -0.000003   -2.053289    1.716116
  H      0.000077    3.361966   -0.277021
  H      0.878860    2.634607   -1.620442
  H     -0.878973    2.634672   -1.620300
  H      0.878973   -2.634672   -1.620300
  H     -0.000077   -3.361966   -0.277021
  H     -0.878860   -2.634607   -1.620442

 Total Charge           Charge          ....    0
 Multiplicity           Mult            ....    1
 Number of Electrons    NEL             ....   58
 Basis Dimension        Dim             ....  575

ORBITAL ENERGIES
----------------

  NO   OCC          E(Eh)            E(eV)
   0   2.0000     -15.559178      -423.3867
   1   2.0000     -11.260669      -306.4184
   2   2.0000     -11.260649      -306.4178
   3   2.0000     -11.245364      -306.0019
   4   2.0000     -11.244135      -305.9685
   5   2.0000     -11.243503      -305.9513
   6   2.0000     -11.230230      -305.5901
   7   2.0000     -11.230230      -305.5901
   8   2.0000      -1.253586       -34.1118
   9   2.0000      -1.103589       -30.0302
  10   2.0000      -1.068535       -29.0763
  11   2.0000      -0.952732       -25.9252
  12   2.0000      -0.945393       -25.7254
  13   2.0000      -0.846980       -23.0475
  14   2.0000      -0.805784       -21.9265
  15   2.0000      -0.700910       -19.0727
  16   2.0000      -0.678207       -18.4549
  17   2.0000      -0.601292       -16.3620
  18   2.0000      -0.592676       -16.1275
  19   2.0000      -0.576182       -15.6787
  20   2.0000      -0.569025       -15.4840
  21   2.0000      -0.568490       -15.4694
  22   2.0000      -0.554160       -15.0795
  23   2.0000      -0.542631       -14.7657
  24   2.0000      -0.515123       -14.0172
  25   2.0000      -0.500757       -13.6263
  26   2.0000      -0.407831       -11.0977
  27   2.0000      -0.367916       -10.0115
  28   2.0000      -0.327837        -8.9209
  29   0.0000       0.025853         0.7035
  30   0.0000       0.030286         0.8241
  31   0.0000       0.037756         1.0274
  32   0.0000       0.040041         1.0896
  33   0.0000       0.046480         1.2648

MULLIKEN ATOMIC CHARGES
-----------------------
   0 C :   -1.170009
   1 C :   -0.909817
   2 C :   -0.909817
   3 C :    1.196805
   4 C :    1.196805
   5 C :   -0.840793
   6 C :   -0.840793
   7 N :   -0.522107
   8 H :    0.253282
   9 H :    0.503682
  10 H :    0.503682
  11 H :    0.244615
  12 H :    0.262455
  13 H :    0.262470
  14 H :    0.262470
  15 H :    0.244615
  16 H :    0.262455
Sum of atomic charges:    0.0000000

LOEWDIN ATOMIC CHARGES
----------------------
   0 C :    0.230412
   1 C :    0.027134
   2 C :    0.027134
   3 C :   -0.119766
   4 C :   -0.119766
   5 C :    0.576647
   6 C :    0.576647
   7 N :    0.374903
   8 H :   -0.157810
   9 H :   -0.192151
  10 H :   -0.192151
  11 H :   -0.180464
  12 H :   -0.167577
  13 H :   -0.167574
  14 H :   -0.167574
  15 H :   -0.180464
  16 H :   -0.167577

  Mayer bond orders larger than 0.100000
B(  0-C ,  1-C ) :   0.3629 B(  0-C ,  2-C ) :   0.3629 B(  0-C ,  3-C ) :   0.9503
B(  0-C ,  4-C ) :   0.9503 B(  0-C ,  8-H ) :   1.0970 B(  1-C ,  2-C ) :   0.4948
B(  1-C ,  3-C ) :   0.3564 B(  1-C ,  4-C ) :  -0.1812 B(  1-C ,  5-C ) :  -0.1454
B(  1-C ,  7-N ) :   1.0403 B(  1-C ,  9-H ) :   0.6557 B(  2-C ,  3-C ) :  -0.1812
B(  2-C ,  4-C ) :   0.3564 B(  2-C ,  6-C ) :  -0.1454 B(  2-C ,  7-N ) :   1.0403
B(  2-C , 10-H ) :   0.6557 B(  3-C ,  4-C ) :   0.1501 B(  3-C ,  5-C ) :   0.6631
B(  4-C ,  6-C ) :   0.6631 B(  5-C , 11-H ) :   0.9927 B(  5-C , 12-H ) :   1.0287
B(  5-C , 13-H ) :   1.0287 B(  6-C , 14-H ) :   1.0287 B(  6-C , 15-H ) :   0.9927
B(  6-C , 16-H ) :   1.0287

MP2 TOTAL ENERGY:     -326.237782716 Eh
FINAL SINGLE POINT ENERGY      -326.237782715557

DIPOLE MOMENT
-------------
                                X             Y             Z
Electronic contribution:     -0.00000       0.00000       4.64755
Nuclear contribution   :      0.00000      -0.00000      -5.72324
                        -----------------------------------------
Total Dipole Moment    :     -0.00000       0.00000      -1.07569
                        -----------------------------------------
Magnitude (a.u.)       :      1.07569
Magnitude (Debye)      :      2.73420

Rotational constants in cm-1:     0.123634     0.059656     0.040847
Rotational constants in MHz :  3706.460206  1788.427767  1224.554712

                             ****ORCA TERMINATED NORMALLY****
TOTAL RUN TIME: 0 days 0 hours 6 minutes 57 seconds 815 msec
