                         Program Version 5.0.3 -  RELEASE  -
|  1> !ri-mp2 aug-cc-pvtz aug-cc-pvtz/c tightscf
|  2> %pal nprocs 16 end
|  3>
|  4> * xyz 0 1
|  5> Cl     2.255385    0.055886   -0.086072
|  6> O     -1.387172   -1.150321    0.406249
|  7> N      0.508488    0.064813   -0.326125
|  8> C     -1.587319    1.218175   -0.062742
|  9> C     -0.127098    1.153328    0.423310
| 10> C     -2.077147   -0.196737   -0.403529
| 11> C     -0.016309   -1.252187    0.102890
| 12> H     -1.663879    1.854374   -0.945176
| 13> H     -2.199448    1.662233    0.722962
| 14> H      0.401358    2.076079    0.198723
| 15> H     -0.078803    0.986178    1.505841
| 16> H     -1.918611   -0.422066   -1.462420
| 17> H     -3.133523   -0.327195   -0.179940
| 18> H      0.473099   -1.609500    1.013006
| 19> H      0.163451   -1.956766   -0.716465
| 20> *
| 21>
| 22>                          ****END OF INPUT****

CARTESIAN COORDINATES (ANGSTROEM)
---------------------------------
  Cl     2.255385    0.055886   -0.086072
  O     -1.387172   -1.150321    0.406249
  N      0.508488    0.064813   -0.326125
  C     -1.587319    1.218175   -0.062742
  C     -0.127098    1.153328    0.423310
  C     -2.077147   -0.196737   -0.403529
  C     -0.016309   -1.252187    0.102890
  H     -1.663879    1.854374   -0.945176
  H     -2.199448    1.662233    0.722962
  H      0.401358    2.076079    0.198723
  H     -0.078803    0.986178    1.505841
  H     -1.918611   -0.422066   -1.462420
  H     -3.133523   -0.327195   -0.179940
  H      0.473099   -1.609500    1.013006
  H      0.163451   -1.956766   -0.716465

 Total Charge           Charge          ....    0
 Multiplicity           Mult            ....    1
 Number of Electrons    NEL             ....   64
 Basis Dimension        Dim             ....  510

ORBITAL ENERGIES
----------------

  NO   OCC          E(Eh)            E(eV)
   0   2.0000    -104.853011     -2853.1955
   1   2.0000     -20.571297      -559.7735
   2   2.0000     -15.622708      -425.1155
   3   2.0000     -11.319076      -308.0077
   4   2.0000     -11.286037      -307.1087
   5   2.0000     -11.269595      -306.6613
   6   2.0000     -11.236777      -305.7682
   7   2.0000     -10.574426      -287.7448
   8   2.0000      -8.041278      -218.8143
   9   2.0000      -8.039111      -218.7553
  10   2.0000      -8.038944      -218.7508
  11   2.0000      -1.400300       -38.1041
  12   2.0000      -1.253354       -34.1055
  13   2.0000      -1.078296       -29.3419
  14   2.0000      -1.035768       -28.1847
  15   2.0000      -0.919609       -25.0238
  16   2.0000      -0.895585       -24.3701
  17   2.0000      -0.766754       -20.8644
  18   2.0000      -0.706908       -19.2359
  19   2.0000      -0.692189       -18.8354
  20   2.0000      -0.675499       -18.3813
  21   2.0000      -0.605157       -16.4672
  22   2.0000      -0.592686       -16.1278
  23   2.0000      -0.568479       -15.4691
  24   2.0000      -0.561210       -15.2713
  25   2.0000      -0.545541       -14.8449
  26   2.0000      -0.524542       -14.2735
  27   2.0000      -0.479626       -13.0513
  28   2.0000      -0.471284       -12.8243
  29   2.0000      -0.452055       -12.3010
  30   2.0000      -0.427283       -11.6270
  31   2.0000      -0.382496       -10.4082
  32   0.0000       0.029225         0.7953
  33   0.0000       0.037040         1.0079
  34   0.0000       0.040167         1.0930
  35   0.0000       0.041518         1.1298
  36   0.0000       0.054913         1.4943

MULLIKEN ATOMIC CHARGES
-----------------------
   0 Cl:   -0.295268
   1 O :   -0.698070
   2 N :   -0.268574
   3 C :   -0.698350
   4 C :   -0.198701
   5 C :   -0.256004
   6 C :   -0.268823
   7 H :    0.264899
   8 H :    0.281416
   9 H :    0.401588
  10 H :    0.233096
  11 H :    0.271818
  12 H :    0.392560
  13 H :    0.435975
  14 H :    0.402437
Sum of atomic charges:   -0.0000000

LOEWDIN ATOMIC CHARGES
----------------------
   0 Cl:    0.807140
   1 O :    0.569262
   2 N :   -0.242051
   3 C :    0.301798
   4 C :    0.040943
   5 C :    0.052742
   6 C :   -0.215765
   7 H :   -0.150830
   8 H :   -0.152022
   9 H :   -0.181040
  10 H :   -0.152785
  11 H :   -0.153284
  12 H :   -0.159694
  13 H :   -0.195948
  14 H :   -0.168466

  Mayer bond orders larger than 0.100000
B(  0-Cl,  2-N ) :   0.9002 B(  1-O ,  3-C ) :   0.1214 B(  1-O ,  5-C ) :   0.7685
B(  1-O ,  6-C ) :   0.8683 B(  2-N ,  4-C ) :   0.7225 B(  2-N ,  6-C ) :   0.8101
B(  3-C ,  4-C ) :   0.9466 B(  3-C ,  5-C ) :   0.9728 B(  3-C ,  7-H ) :   0.9514
B(  3-C ,  8-H ) :   0.9374 B(  4-C ,  9-H ) :   0.8506 B(  4-C , 10-H ) :   1.0145
B(  5-C , 11-H ) :   0.9764 B(  5-C , 12-H ) :   0.8751 B(  6-C , 13-H ) :   0.8675
B(  6-C , 14-H ) :   0.8348

MP2 TOTAL ENERGY:     -746.335644852 Eh
FINAL SINGLE POINT ENERGY      -746.335644851782

DIPOLE MOMENT
-------------
                                X             Y             Z
Electronic contribution:     10.47303      -1.74598      -0.28731
Nuclear contribution   :    -11.07565       2.14122       0.26118
                        -----------------------------------------
Total Dipole Moment    :     -0.60261       0.39524      -0.02612
                        -----------------------------------------
Magnitude (a.u.)       :      0.72114
Magnitude (Debye)      :      1.83299

Rotational constants in cm-1:     0.155064     0.050476     0.041063
Rotational constants in MHz :  4648.696397  1513.227664  1231.040239

                             ****ORCA TERMINATED NORMALLY****
TOTAL RUN TIME: 0 days 0 hours 5 minutes 0 seconds 561 msec
