                         Program Version 5.0.3 -  RELEASE  -
|  1> !ri-mp2 aug-cc-pvtz aug-cc-pvtz/c tightscf
|  2> %pal nprocs 16 end
|  3>
|  4> * xyz 0 1
|  5> C     0.000000     0.000000    0.808471
|  6> N     0.000000     0.607849   -0.539787
|  7> N     0.000000    -0.607849   -0.539787
|  8> H     0.931674     0.000000    1.353097
|  9> H    -0.931674     0.000000    1.353097
| 10> *
| 11>
| 12>                          ****END OF INPUT****

CARTESIAN COORDINATES (ANGSTROEM)
---------------------------------
  C      0.000000    0.000000    0.808471
  N      0.000000    0.607849   -0.539787
  N      0.000000   -0.607849   -0.539787
  H      0.931674    0.000000    1.353097
  H     -0.931674    0.000000    1.353097

 Total Charge           Charge          ....    0
 Multiplicity           Mult            ....    1
 Number of Electrons    NEL             ....   22
 Basis Dimension        Dim             ....  184

ORBITAL ENERGIES
----------------

  NO   OCC          E(Eh)            E(eV)
   0   2.0000     -15.670210      -426.4081
   1   2.0000     -15.668534      -426.3625
   2   2.0000     -11.304014      -307.5979
   3   2.0000      -1.477573       -40.2068
   4   2.0000      -0.925333       -25.1796
   5   2.0000      -0.847137       -23.0518
   6   2.0000      -0.688065       -18.7232
   7   2.0000      -0.665230       -18.1018
   8   2.0000      -0.584721       -15.9111
   9   2.0000      -0.492499       -13.4016
  10   2.0000      -0.408826       -11.1247
  11   0.0000       0.029503         0.8028
  12   0.0000       0.041276         1.1232
  13   0.0000       0.065978         1.7954
  14   0.0000       0.071676         1.9504
  15   0.0000       0.093278         2.5382

MULLIKEN ATOMIC CHARGES
-----------------------
   0 C :   -0.387079
   1 N :   -0.214910
   2 N :   -0.214910
   3 H :    0.408450
   4 H :    0.408450
Sum of atomic charges:   -0.0000000

LOEWDIN ATOMIC CHARGES
----------------------
   0 C :    0.064341
   1 N :    0.193575
   2 N :    0.193575
   3 H :   -0.225745
   4 H :   -0.225745

  Mayer bond orders larger than 0.100000
B(  0-C ,  1-N ) :   0.7340 B(  0-C ,  2-N ) :   0.7340 B(  0-C ,  3-H ) :   0.8144
B(  0-C ,  4-H ) :   0.8144 B(  1-N ,  2-N ) :   1.6260

MP2 TOTAL ENERGY:     -148.458117647 Eh
FINAL SINGLE POINT ENERGY      -148.458117646891

DIPOLE MOMENT
-------------
                                X             Y             Z
Electronic contribution:      0.00000      -0.00000      -1.89983
Nuclear contribution   :      0.00000       0.00000       2.65340
                        -----------------------------------------
Total Dipole Moment    :      0.00000      -0.00000       0.75357
                        -----------------------------------------
Magnitude (a.u.)       :      0.75357
Magnitude (Debye)      :      1.91543

Rotational constants in cm-1:     1.393131     0.792077     0.564111
Rotational constants in MHz : 41765.017086 23745.866546 16911.631907

                             ****ORCA TERMINATED NORMALLY****
TOTAL RUN TIME: 0 days 0 hours 0 minutes 29 seconds 470 msec
