                         Program Version 5.0.3 -  RELEASE  -
|  1> !ri-mp2 aug-cc-pvtz aug-cc-pvtz/c tightscf
|  2> %pal nprocs 16 end
|  3> %maxcore 3800
|  4>
|  5> * xyz 0 1
|  6> C      0.000000    0.000000    0.065284
|  7> C     -0.000119    1.241984   -0.861684
|  8> C      0.000119   -1.241984   -0.861684
|  9> C      0.000000    2.618031   -0.193199
| 10> C      0.000000   -2.618031   -0.193199
| 11> C      1.255287    0.000120    0.952178
| 12> C     -1.255287   -0.000120    0.952178
| 13> H      0.872906    1.172573   -1.518050
| 14> H     -0.873342    1.172588   -1.517788
| 15> H     -0.872906   -1.172573   -1.518050
| 16> H      0.873342   -1.172588   -1.517788
| 17> H     -0.000193    3.402590   -0.951355
| 18> H      0.000193   -3.402590   -0.951355
| 19> H     -0.880980    2.772125    0.430603
| 20> H      0.881256    2.772164    0.430201
| 21> H      0.880980   -2.772125    0.430603
| 22> H     -0.881256   -2.772164    0.430201
| 23> H     -1.284762   -0.876517    1.599898
| 24> H     -2.165042   -0.000409    0.347245
| 25> H     -1.285140    0.876465    1.599626
| 26> H      1.284762    0.876517    1.599898
| 27> H      2.165042    0.000409    0.347245
| 28> H      1.285140   -0.876465    1.599626
| 29> *
| 30>
| 31>                          ****END OF INPUT****

CARTESIAN COORDINATES (ANGSTROEM)
---------------------------------
  C      0.000000    0.000000    0.065284
  C     -0.000119    1.241984   -0.861684
  C      0.000119   -1.241984   -0.861684
  C      0.000000    2.618031   -0.193199
  C      0.000000   -2.618031   -0.193199
  C      1.255287    0.000120    0.952178
  C     -1.255287   -0.000120    0.952178
  H      0.872906    1.172573   -1.518050
  H     -0.873342    1.172588   -1.517788
  H     -0.872906   -1.172573   -1.518050
  H      0.873342   -1.172588   -1.517788
  H     -0.000193    3.402590   -0.951355
  H      0.000193   -3.402590   -0.951355
  H     -0.880980    2.772125    0.430603
  H      0.881256    2.772164    0.430201
  H      0.880980   -2.772125    0.430603
  H     -0.881256   -2.772164    0.430201
  H     -1.284762   -0.876517    1.599898
  H     -2.165042   -0.000409    0.347245
  H     -1.285140    0.876465    1.599626
  H      1.284762    0.876517    1.599898
  H      2.165042    0.000409    0.347245
  H      1.285140   -0.876465    1.599626

 Total Charge           Charge          ....    0
 Multiplicity           Mult            ....    1
 Number of Electrons    NEL             ....   58
 Basis Dimension        Dim             ....  690

ORBITAL ENERGIES
----------------

  NO   OCC          E(Eh)            E(eV)
   0   2.0000     -11.228627      -305.5465
   1   2.0000     -11.212749      -305.1144
   2   2.0000     -11.212729      -305.1139
   3   2.0000     -11.207538      -304.9726
   4   2.0000     -11.207537      -304.9726
   5   2.0000     -11.204863      -304.8998
   6   2.0000     -11.204845      -304.8993
   7   2.0000      -1.109779       -30.1986
   8   2.0000      -1.012295       -27.5459
   9   2.0000      -0.973628       -26.4938
  10   2.0000      -0.927324       -25.2338
  11   2.0000      -0.883038       -24.0287
  12   2.0000      -0.816920       -22.2295
  13   2.0000      -0.718844       -19.5607
  14   2.0000      -0.631935       -17.1958
  15   2.0000      -0.627277       -17.0691
  16   2.0000      -0.601212       -16.3598
  17   2.0000      -0.588185       -16.0053
  18   2.0000      -0.549740       -14.9592
  19   2.0000      -0.547951       -14.9105
  20   2.0000      -0.533097       -14.5063
  21   2.0000      -0.523066       -14.2333
  22   2.0000      -0.517304       -14.0766
  23   2.0000      -0.491589       -13.3768
  24   2.0000      -0.487762       -13.2727
  25   2.0000      -0.473597       -12.8872
  26   2.0000      -0.445351       -12.1186
  27   2.0000      -0.434647       -11.8274
  28   2.0000      -0.430962       -11.7271
  29   0.0000       0.030449         0.8286
  30   0.0000       0.033902         0.9225
  31   0.0000       0.035970         0.9788
  32   0.0000       0.037349         1.0163
  33   0.0000       0.050508         1.3744

MULLIKEN ATOMIC CHARGES
-----------------------
   0 C :    2.391739
   1 C :   -0.868784
   2 C :   -0.868784
   3 C :   -1.070307
   4 C :   -1.070307
   5 C :   -1.335644
   6 C :   -1.335644
   7 H :    0.264543
   8 H :    0.264530
   9 H :    0.264543
  10 H :    0.264530
  11 H :    0.247226
  12 H :    0.247226
  13 H :    0.264060
  14 H :    0.263994
  15 H :    0.264060
  16 H :    0.263994
  17 H :    0.274161
  18 H :    0.226172
  19 H :    0.274179
  20 H :    0.274161
  21 H :    0.226173
  22 H :    0.274179
Sum of atomic charges:   -0.0000000

LOEWDIN ATOMIC CHARGES
----------------------
   0 C :   -0.317672
   1 C :    0.276000
   2 C :    0.276000
   3 C :    0.590669
   4 C :    0.590669
   5 C :    0.587641
   6 C :    0.587641
   7 H :   -0.144445
   8 H :   -0.144445
   9 H :   -0.144445
  10 H :   -0.144445
  11 H :   -0.167385
  12 H :   -0.167385
  13 H :   -0.175958
  14 H :   -0.175955
  15 H :   -0.175958
  16 H :   -0.175955
  17 H :   -0.169753
  18 H :   -0.147768
  19 H :   -0.169765
  20 H :   -0.169753
  21 H :   -0.147768
  22 H :   -0.169765

  Mayer bond orders larger than 0.100000
B(  0-C ,  1-C ) :   0.5555 B(  0-C ,  2-C ) :   0.5555 B(  0-C ,  5-C ) :   0.1756
B(  0-C ,  6-C ) :   0.1756 B(  0-C , 18-H ) :  -0.1355 B(  0-C , 21-H ) :  -0.1355
B(  1-C ,  3-C ) :   0.8580 B(  1-C ,  7-H ) :   1.0043 B(  1-C ,  8-H ) :   1.0043
B(  2-C ,  4-C ) :   0.8580 B(  2-C ,  9-H ) :   1.0043 B(  2-C , 10-H ) :   1.0043
B(  3-C , 11-H ) :   1.0430 B(  3-C , 13-H ) :   0.9726 B(  3-C , 14-H ) :   0.9726
B(  4-C , 12-H ) :   1.0430 B(  4-C , 15-H ) :   0.9726 B(  4-C , 16-H ) :   0.9726
B(  5-C ,  6-C ) :   0.1549 B(  5-C , 20-H ) :   1.0363 B(  5-C , 21-H ) :   1.0994
B(  5-C , 22-H ) :   1.0363 B(  6-C , 17-H ) :   1.0363 B(  6-C , 18-H ) :   1.0994
B(  6-C , 19-H ) :   1.0363

MP2 TOTAL ENERGY:     -275.764484787 Eh
FINAL SINGLE POINT ENERGY      -275.764484786914

DIPOLE MOMENT
-------------
                                X             Y             Z
Electronic contribution:     -0.00000       0.00000      -0.94297
Nuclear contribution   :     -0.00000       0.00000       0.91395
                        -----------------------------------------
Total Dipole Moment    :     -0.00000       0.00000      -0.02902
                        -----------------------------------------
Magnitude (a.u.)       :      0.02902
Magnitude (Debye)      :      0.07375

Rotational constants in cm-1:     0.136894     0.051896     0.051450
Rotational constants in MHz :  4103.978798  1555.808830  1542.435547

                             ****ORCA TERMINATED NORMALLY****
TOTAL RUN TIME: 0 days 0 hours 11 minutes 45 seconds 497 msec
