                         Program Version 5.0.3 -  RELEASE  -
|  1> !ri-mp2 aug-cc-pvtz aug-cc-pvtz/c tightscf
|  2> %pal nprocs 16 end
|  3>
|  4> * xyz 0 1
|  5> F      2.284114   -0.947156   -0.058625
|  6> F      1.675956    1.135447   -0.349163
|  7> N      1.368083   -0.002087    0.430483
|  8> N     -3.383243   -0.343586   -0.277416
|  9> C      0.067845   -0.461845   -0.080232
| 10> C     -1.014437    0.516543    0.390152
| 11> C     -2.342864    0.043335    0.020269
| 12> H     -0.078651   -1.445718    0.361181
| 13> H      0.101207   -0.548538   -1.166096
| 14> H     -0.967408    0.631463    1.474281
| 15> H     -0.852917    1.499687   -0.051863
| 16> *
| 17>
| 18>                          ****END OF INPUT****

CARTESIAN COORDINATES (ANGSTROEM)
---------------------------------
  F      2.284114   -0.947156   -0.058625
  F      1.675956    1.135447   -0.349163
  N      1.368083   -0.002087    0.430483
  N     -3.383243   -0.343586   -0.277416
  C      0.067845   -0.461845   -0.080232
  C     -1.014437    0.516543    0.390152
  C     -2.342864    0.043335    0.020269
  H     -0.078651   -1.445718    0.361181
  H      0.101207   -0.548538   -1.166096
  H     -0.967408    0.631463    1.474281
  H     -0.852917    1.499687   -0.051863

 Total Charge           Charge          ....    0
 Multiplicity           Mult            ....    1
 Number of Electrons    NEL             ....   54
 Basis Dimension        Dim             ....  414

ORBITAL ENERGIES
----------------

  NO   OCC          E(Eh)            E(eV)
   0   2.0000     -26.355732      -717.1759
   1   2.0000     -26.353971      -717.1280
   2   2.0000     -15.793881      -429.7733
   3   2.0000     -15.589548      -424.2132
   4   2.0000     -11.325044      -308.1701
   5   2.0000     -11.313823      -307.8648
   6   2.0000     -11.293370      -307.3082
   7   2.0000      -1.698632       -46.2221
   8   2.0000      -1.614399       -43.9300
   9   2.0000      -1.244874       -33.8747
  10   2.0000      -1.205198       -32.7951
  11   2.0000      -1.074212       -29.2308
  12   2.0000      -0.924069       -25.1452
  13   2.0000      -0.789527       -21.4841
  14   2.0000      -0.784997       -21.3608
  15   2.0000      -0.765106       -20.8196
  16   2.0000      -0.717009       -19.5108
  17   2.0000      -0.705470       -19.1968
  18   2.0000      -0.685647       -18.6574
  19   2.0000      -0.651299       -17.7227
  20   2.0000      -0.635075       -17.2813
  21   2.0000      -0.608473       -16.5574
  22   2.0000      -0.584459       -15.9039
  23   2.0000      -0.571978       -15.5643
  24   2.0000      -0.504506       -13.7283
  25   2.0000      -0.482430       -13.1276
  26   2.0000      -0.480851       -13.0846
  27   0.0000       0.026433         0.7193
  28   0.0000       0.036142         0.9835
  29   0.0000       0.036875         1.0034
  30   0.0000       0.054938         1.4949
  31   0.0000       0.064891         1.7658

MULLIKEN ATOMIC CHARGES
-----------------------
   0 F :   -0.351541
   1 F :   -0.346843
   2 N :    0.092781
   3 N :   -0.541209
   4 C :   -0.132615
   5 C :   -0.109578
   6 C :    0.052641
   7 H :    0.339184
   8 H :    0.342155
   9 H :    0.323968
  10 H :    0.331059
Sum of atomic charges:   -0.0000000

LOEWDIN ATOMIC CHARGES
----------------------
   0 F :    0.320912
   1 F :    0.314053
   2 N :   -0.375870
   3 N :    0.268548
   4 C :    0.087699
   5 C :    0.223692
   6 C :   -0.204673
   7 H :   -0.159761
   8 H :   -0.153429
   9 H :   -0.155252
  10 H :   -0.165917

  Mayer bond orders larger than 0.100000
B(  0-F ,  2-N ) :   0.7940 B(  1-F ,  2-N ) :   0.7659 B(  2-N ,  4-C ) :   0.7211
B(  3-N ,  6-C ) :   2.2854 B(  4-C ,  5-C ) :   0.9004 B(  4-C ,  6-C ) :   0.1051
B(  4-C ,  7-H ) :   0.8801 B(  4-C ,  8-H ) :   0.9097 B(  5-C ,  6-C ) :   0.8530
B(  5-C ,  9-H ) :   0.9032 B(  5-C , 10-H ) :   0.9031

MP2 TOTAL ENERGY:     -425.124061172 Eh
FINAL SINGLE POINT ENERGY      -425.124061171905

DIPOLE MOMENT
-------------
                                X             Y             Z
Electronic contribution:      5.88043       0.24381      -0.61794
Nuclear contribution   :     -5.46926      -0.04885       0.97628
                        -----------------------------------------
Total Dipole Moment    :      0.41117       0.19496       0.35833
                        -----------------------------------------
Magnitude (a.u.)       :      0.57920
Magnitude (Debye)      :      1.47221

Rotational constants in cm-1:     0.256580     0.039170     0.035651
Rotational constants in MHz :  7692.064733  1174.279711  1068.781903

                             ****ORCA TERMINATED NORMALLY****
TOTAL RUN TIME: 0 days 0 hours 2 minutes 22 seconds 968 msec
