                         Program Version 5.0.3 -  RELEASE  -
|  1> !ri-mp2 aug-cc-pvtz aug-cc-pvtz/c tightscf
|  2> %pal nprocs 16 end
|  3>
|  4> * xyz 0 1
|  5> S     1.022965   -1.331872    0.000004
|  6> S    -2.014356   -0.693644   -0.000004
|  7> O    -0.819041    2.032145   -0.000005
|  8> N     0.058506    0.978276    0.000000
|  9> C     1.414989    1.194251    0.000002
| 10> C    -0.395063   -0.296584    0.000000
| 11> C     2.103807    0.039075    0.000005
| 12> H     1.783115    2.205430    0.000001
| 13> H     3.171199   -0.084468    0.000008
| 14> H    -1.691668    1.561773   -0.000006
| 15> *
| 16>
| 17>                          ****END OF INPUT****

CARTESIAN COORDINATES (ANGSTROEM)
---------------------------------
  S      1.022965   -1.331872    0.000004
  S     -2.014356   -0.693644   -0.000004
  O     -0.819041    2.032145   -0.000005
  N      0.058506    0.978276    0.000000
  C      1.414989    1.194251    0.000002
  C     -0.395063   -0.296584    0.000000
  C      2.103807    0.039075    0.000005
  H      1.783115    2.205430    0.000001
  H      3.171199   -0.084468    0.000008
  H     -1.691668    1.561773   -0.000006

 Total Charge           Charge          ....    0
 Multiplicity           Mult            ....    1
 Number of Electrons    NEL             ....   68
 Basis Dimension        Dim             ....  399

ORBITAL ENERGIES
----------------

  NO   OCC          E(Eh)            E(eV)
   0   2.0000     -92.024548     -2504.1152
   1   2.0000     -91.919422     -2501.2546
   2   2.0000     -20.645312      -561.7875
   3   2.0000     -15.713120      -427.5757
   4   2.0000     -11.386129      -309.8323
   5   2.0000     -11.322179      -308.0921
   6   2.0000     -11.297244      -307.4136
   7   2.0000      -9.024276      -245.5630
   8   2.0000      -8.922144      -242.7839
   9   2.0000      -6.705081      -182.4545
  10   2.0000      -6.704394      -182.4358
  11   2.0000      -6.703501      -182.4115
  12   2.0000      -6.603681      -179.6953
  13   2.0000      -6.601617      -179.6391
  14   2.0000      -6.601159      -179.6267
  15   2.0000      -1.498813       -40.7848
  16   2.0000      -1.284980       -34.9661
  17   2.0000      -1.092705       -29.7340
  18   2.0000      -1.081898       -29.4400
  19   2.0000      -0.947170       -25.7738
  20   2.0000      -0.866798       -23.5868
  21   2.0000      -0.807663       -21.9776
  22   2.0000      -0.727764       -19.8035
  23   2.0000      -0.694403       -18.8957
  24   2.0000      -0.683981       -18.6121
  25   2.0000      -0.653837       -17.7918
  26   2.0000      -0.595041       -16.1919
  27   2.0000      -0.549336       -14.9482
  28   2.0000      -0.533166       -14.5082
  29   2.0000      -0.518460       -14.1080
  30   2.0000      -0.430538       -11.7155
  31   2.0000      -0.419708       -11.4208
  32   2.0000      -0.352142        -9.5823
  33   2.0000      -0.310545        -8.4504
  34   0.0000       0.021239         0.5779
  35   0.0000       0.032768         0.8917
  36   0.0000       0.046952         1.2776
  37   0.0000       0.066376         1.8062
  38   0.0000       0.067582         1.8390

MULLIKEN ATOMIC CHARGES
-----------------------
   0 S :   -0.083065
   1 S :   -0.540041
   2 O :   -0.570720
   3 N :    0.593340
   4 C :   -0.652368
   5 C :    0.240217
   6 C :   -0.289907
   7 H :    0.586637
   8 H :    0.462276
   9 H :    0.253631
Sum of atomic charges:    0.0000000

LOEWDIN ATOMIC CHARGES
----------------------
   0 S :    1.208486
   1 S :    0.820860
   2 O :    0.753262
   3 N :   -0.218978
   4 C :    0.004452
   5 C :   -1.308576
   6 C :   -0.177986
   7 H :   -0.170160
   8 H :   -0.263741
   9 H :   -0.647619

  Mayer bond orders larger than 0.100000
B(  0-S ,  4-C ) :   0.1190 B(  0-S ,  5-C ) :   0.9887 B(  0-S ,  6-C ) :   1.0942
B(  1-S ,  5-C ) :   1.4624 B(  1-S ,  9-H ) :   0.1580 B(  2-O ,  3-N ) :   0.6472
B(  2-O ,  9-H ) :   0.8894 B(  3-N ,  4-C ) :   0.9103 B(  3-N ,  5-C ) :   1.4480
B(  3-N ,  6-C ) :  -0.2684 B(  4-C ,  5-C ) :  -0.1171 B(  4-C ,  6-C ) :   1.4776
B(  4-C ,  7-H ) :   0.6298 B(  6-C ,  8-H ) :   0.8339

MP2 TOTAL ENERGY:    -1041.051441704 Eh
FINAL SINGLE POINT ENERGY     -1041.051441704359

DIPOLE MOMENT
-------------
                                X             Y             Z
Electronic contribution:     -1.41614      -3.02123       0.00000
Nuclear contribution   :      3.14583       3.62752       0.00000
                        -----------------------------------------
Total Dipole Moment    :      1.72969       0.60629       0.00000
                        -----------------------------------------
Magnitude (a.u.)       :      1.83287
Magnitude (Debye)      :      4.65878

Rotational constants in cm-1:     0.095119     0.062514     0.037722
Rotational constants in MHz :  2851.609149  1874.131485  1130.889506

                             ****ORCA TERMINATED NORMALLY****
TOTAL RUN TIME: 0 days 0 hours 2 minutes 52 seconds 788 msec
