                         Program Version 5.0.3 -  RELEASE  -
|  1> !ri-mp2 aug-cc-pvtz aug-cc-pvtz/c tightscf
|  2> %pal nprocs 16 end
|  3>
|  4> * xyz 0 1
|  5> H     -0.288253    2.211377    0.113712
|  6> C      0.103075    1.202002    0.097091
|  7> H      2.155830    1.583915   -0.380964
|  8> C      1.366429    0.878250   -0.158285
|  9> H      2.158926   -0.837607    0.868606
| 10> H      2.190120   -1.009750   -0.873105
| 11> C      1.601620   -0.607266   -0.046137
| 12> H      0.072016   -2.042382    0.656132
| 13> H     -0.122787   -1.505070   -1.005335
| 14> C      0.165989   -1.180038   -0.003279
| 15> H     -0.908864   -0.034062    1.507559
| 16> C     -0.750290   -0.003256    0.421562
| 17> H     -2.727516    0.841153    0.071891
| 18> H     -2.677022   -0.918993   -0.000210
| 19> H     -2.025849    0.037111   -1.334613
| 20> C     -2.124590   -0.010641   -0.248232
| 21> *
| 22>
| 23>                          ****END OF INPUT****

CARTESIAN COORDINATES (ANGSTROEM)
---------------------------------
  H     -0.288253    2.211377    0.113712
  C      0.103075    1.202002    0.097091
  H      2.155830    1.583915   -0.380964
  C      1.366429    0.878250   -0.158285
  H      2.158926   -0.837607    0.868606
  H      2.190120   -1.009750   -0.873105
  C      1.601620   -0.607266   -0.046137
  H      0.072016   -2.042382    0.656132
  H     -0.122787   -1.505070   -1.005335
  C      0.165989   -1.180038   -0.003279
  H     -0.908864   -0.034062    1.507559
  C     -0.750290   -0.003256    0.421562
  H     -2.727516    0.841153    0.071891
  H     -2.677022   -0.918993   -0.000210
  H     -2.025849    0.037111   -1.334613
  C     -2.124590   -0.010641   -0.248232

 Total Charge           Charge          ....    0
 Multiplicity           Mult            ....    1
 Number of Electrons    NEL             ....   46
 Basis Dimension        Dim             ....  506

ORBITAL ENERGIES
----------------

  NO   OCC          E(Eh)            E(eV)
   0   2.0000     -11.225971      -305.4742
   1   2.0000     -11.219971      -305.3109
   2   2.0000     -11.218843      -305.2802
   3   2.0000     -11.215874      -305.1994
   4   2.0000     -11.215604      -305.1921
   5   2.0000     -11.210621      -305.0565
   6   2.0000      -1.133523       -30.8447
   7   2.0000      -1.006918       -27.3996
   8   2.0000      -0.961259       -26.1572
   9   2.0000      -0.882993       -24.0275
  10   2.0000      -0.773247       -21.0411
  11   2.0000      -0.720271       -19.5996
  12   2.0000      -0.667285       -18.1578
  13   2.0000      -0.629746       -17.1363
  14   2.0000      -0.574065       -15.6211
  15   2.0000      -0.565108       -15.3774
  16   2.0000      -0.520527       -14.1643
  17   2.0000      -0.512762       -13.9530
  18   2.0000      -0.483914       -13.1680
  19   2.0000      -0.481276       -13.0962
  20   2.0000      -0.468228       -12.7411
  21   2.0000      -0.453521       -12.3409
  22   2.0000      -0.340406        -9.2629
  23   0.0000       0.031016         0.8440
  24   0.0000       0.035844         0.9754
  25   0.0000       0.038026         1.0347
  26   0.0000       0.040323         1.0973
  27   0.0000       0.050865         1.3841

MULLIKEN ATOMIC CHARGES
-----------------------
   0 H :    0.444126
   1 C :   -0.928147
   2 H :    0.511565
   3 C :   -0.643174
   4 H :    0.220548
   5 H :    0.288386
   6 C :   -0.369897
   7 H :    0.283510
   8 H :    0.209779
   9 C :   -0.546472
  10 H :    0.339706
  11 C :    0.276395
  12 H :    0.263908
  13 H :    0.251091
  14 H :    0.311612
  15 C :   -0.912937
Sum of atomic charges:   -0.0000000

LOEWDIN ATOMIC CHARGES
----------------------
   0 H :   -0.172366
   1 C :    0.237829
   2 H :   -0.179964
   3 C :    0.238394
   4 H :   -0.152055
   5 H :   -0.155469
   6 C :    0.276884
   7 H :   -0.143329
   8 H :   -0.151922
   9 C :    0.304971
  10 H :   -0.134398
  11 C :   -0.052308
  12 H :   -0.168926
  13 H :   -0.165096
  14 H :   -0.167455
  15 C :    0.585207

  Mayer bond orders larger than 0.100000
B(  0-H ,  1-C ) :   0.8588 B(  1-C ,  3-C ) :   1.7016 B(  1-C ,  9-C ) :   0.1201
B(  1-C , 11-C ) :   0.8940 B(  2-H ,  3-C ) :   0.7032 B(  3-C ,  6-C ) :   0.7831
B(  4-H ,  6-C ) :   0.9613 B(  5-H ,  6-C ) :   0.9443 B(  6-C ,  9-C ) :   1.0413
B(  7-H ,  9-C ) :   0.9420 B(  8-H ,  9-C ) :   0.9907 B(  9-C , 11-C ) :   0.8967
B( 10-H , 11-C ) :   0.9010 B( 11-C , 15-C ) :   0.7384 B( 12-H , 15-C ) :   0.9916
B( 13-H , 15-C ) :   0.9899 B( 14-H , 15-C ) :   0.9376

MP2 TOTAL ENERGY:     -234.118290301 Eh
FINAL SINGLE POINT ENERGY      -234.118290301187

DIPOLE MOMENT
-------------
                                X             Y             Z
Electronic contribution:      2.28163       1.68205       0.46211
Nuclear contribution   :     -2.28572      -1.76084      -0.39577
                        -----------------------------------------
Total Dipole Moment    :     -0.00409      -0.07879       0.06633
                        -----------------------------------------
Magnitude (a.u.)       :      0.10307
Magnitude (Debye)      :      0.26199

Rotational constants in cm-1:     0.223222     0.105897     0.078914
Rotational constants in MHz :  6692.015874  3174.726812  2365.785255

                             ****ORCA TERMINATED NORMALLY****
TOTAL RUN TIME: 0 days 0 hours 4 minutes 29 seconds 767 msec
