                         Program Version 5.0.3 -  RELEASE  -
|  1> !ri-mp2 aug-cc-pvtz aug-cc-pvtz/c tightscf
|  2> %pal nprocs 16 end
|  3>
|  4> * xyz 0 1
|  5> C     0.000000     0.000000    2.232657
|  6> C     0.000000     0.000000    0.930096
|  7> H    -0.923706     0.000000    2.800709
|  8> H     0.923706     0.000000    2.800709
|  9> C     0.000000     0.000000   -0.374142
| 10> C     0.000000     1.284198   -1.168462
| 11> C     0.000000    -1.284198   -1.168462
| 12> H     0.000000     2.158725   -0.521798
| 13> H     0.000000    -2.158725   -0.521798
| 14> H     0.878905     1.332755   -1.816985
| 15> H    -0.878905     1.332755   -1.816985
| 16> H    -0.878905    -1.332755   -1.816985
| 17> H     0.878905    -1.332755   -1.816985
| 18> *
| 19>
| 20>                          ****END OF INPUT****

CARTESIAN COORDINATES (ANGSTROEM)
---------------------------------
  C      0.000000    0.000000    2.232657
  C      0.000000    0.000000    0.930096
  H     -0.923706    0.000000    2.800709
  H      0.923706    0.000000    2.800709
  C      0.000000    0.000000   -0.374142
  C      0.000000    1.284198   -1.168462
  C      0.000000   -1.284198   -1.168462
  H      0.000000    2.158725   -0.521798
  H      0.000000   -2.158725   -0.521798
  H      0.878905    1.332755   -1.816985
  H     -0.878905    1.332755   -1.816985
  H     -0.878905   -1.332755   -1.816985
  H      0.878905   -1.332755   -1.816985

 Total Charge           Charge          ....    0
 Multiplicity           Mult            ....    1
 Number of Electrons    NEL             ....   38
 Basis Dimension        Dim             ....  414

ORBITAL ENERGIES
----------------

  NO   OCC          E(Eh)            E(eV)
   0   2.0000     -11.243887      -305.9617
   1   2.0000     -11.238701      -305.8206
   2   2.0000     -11.225618      -305.4646
   3   2.0000     -11.225216      -305.4537
   4   2.0000     -11.225193      -305.4530
   5   2.0000      -1.103456       -30.0266
   6   2.0000      -1.006284       -27.3824
   7   2.0000      -0.944452       -25.6998
   8   2.0000      -0.868448       -23.6317
   9   2.0000      -0.677527       -18.4364
  10   2.0000      -0.627587       -17.0775
  11   2.0000      -0.607957       -16.5434
  12   2.0000      -0.583996       -15.8913
  13   2.0000      -0.581718       -15.8294
  14   2.0000      -0.541653       -14.7391
  15   2.0000      -0.531839       -14.4721
  16   2.0000      -0.507266       -13.8034
  17   2.0000      -0.367038        -9.9876
  18   2.0000      -0.347257        -9.4493
  19   0.0000       0.030083         0.8186
  20   0.0000       0.035988         0.9793
  21   0.0000       0.039365         1.0712
  22   0.0000       0.041078         1.1178
  23   0.0000       0.055286         1.5044

MULLIKEN ATOMIC CHARGES
-----------------------
   0 C :   -1.322557
   1 C :    0.848675
   2 H :    0.319013
   3 H :    0.319013
   4 C :    0.350442
   5 C :   -1.042369
   6 C :   -1.042369
   7 H :    0.260032
   8 H :    0.260032
   9 H :    0.262522
  10 H :    0.262522
  11 H :    0.262522
  12 H :    0.262522
Sum of atomic charges:   -0.0000000

LOEWDIN ATOMIC CHARGES
----------------------
   0 C :    0.470818
   1 C :    0.123906
   2 H :   -0.246412
   3 H :   -0.246412
   4 C :   -0.176756
   5 C :    0.555213
   6 C :    0.555213
   7 H :   -0.178929
   8 H :   -0.178929
   9 H :   -0.169428
  10 H :   -0.169428
  11 H :   -0.169428
  12 H :   -0.169428

  Mayer bond orders larger than 0.100000
B(  0-C ,  1-C ) :   1.2788 B(  0-C ,  2-H ) :   1.0289 B(  0-C ,  3-H ) :   1.0289
B(  0-C ,  4-C ) :  -0.1906 B(  1-C ,  4-C ) :   1.4074 B(  4-C ,  5-C ) :   0.9582
B(  4-C ,  6-C ) :   0.9582 B(  5-C ,  6-C ) :   0.1703 B(  5-C ,  7-H ) :   0.9703
B(  5-C ,  9-H ) :   0.9834 B(  5-C , 10-H ) :   0.9834 B(  6-C ,  8-H ) :   0.9703
B(  6-C , 11-H ) :   0.9834 B(  6-C , 12-H ) :   0.9834

MP2 TOTAL ENERGY:     -194.848636580 Eh
FINAL SINGLE POINT ENERGY      -194.848636580427

DIPOLE MOMENT
-------------
                                X             Y             Z
Electronic contribution:     -0.00000      -0.00000       2.56851
Nuclear contribution   :      0.00000       0.00000      -2.83933
                        -----------------------------------------
Total Dipole Moment    :     -0.00000      -0.00000      -0.27082
                        -----------------------------------------
Magnitude (a.u.)       :      0.27082
Magnitude (Debye)      :      0.68838

Rotational constants in cm-1:     0.276321     0.121153     0.088500
Rotational constants in MHz :  8283.891808  3632.087207  2653.174987

                             ****ORCA TERMINATED NORMALLY****
TOTAL RUN TIME: 0 days 0 hours 1 minutes 58 seconds 398 msec
