                         Program Version 5.0.3 -  RELEASE  -
|  1> !ri-mp2 aug-cc-pvtz aug-cc-pvtz/c tightscf
|  2> %pal nprocs 16 end
|  3>
|  4> * xyz 0 1
|  5> C      0.038790   -2.151291    0.000000
|  6> C     -0.466392   -0.924162    0.000000
|  7> C      0.038790    1.174358    1.264341
|  8> C      0.038790    1.174358   -1.264341
|  9> C      0.328419    0.351813    0.000000
| 10> H     -0.595889   -3.027411    0.000000
| 11> H      1.108765   -2.324083    0.000000
| 12> H     -1.547581   -0.800215    0.000000
| 13> H      0.621162    2.097450    1.268423
| 14> H      0.283840    0.612320    2.165774
| 15> H     -1.017756    1.447586    1.316867
| 16> H     -1.017756    1.447586   -1.316867
| 17> H      0.621162    2.097450   -1.268423
| 18> H      0.283840    0.612320   -2.165774
| 19> H      1.389834    0.086538    0.000000
| 20> *
| 21>
| 22>                          ****END OF INPUT****

CARTESIAN COORDINATES (ANGSTROEM)
---------------------------------
  C      0.038790   -2.151291    0.000000
  C     -0.466392   -0.924162    0.000000
  C      0.038790    1.174358    1.264341
  C      0.038790    1.174358   -1.264341
  C      0.328419    0.351813    0.000000
  H     -0.595889   -3.027411    0.000000
  H      1.108765   -2.324083    0.000000
  H     -1.547581   -0.800215    0.000000
  H      0.621162    2.097450    1.268423
  H      0.283840    0.612320    2.165774
  H     -1.017756    1.447586    1.316867
  H     -1.017756    1.447586   -1.316867
  H      0.621162    2.097450   -1.268423
  H      0.283840    0.612320   -2.165774
  H      1.389834    0.086538    0.000000

 Total Charge           Charge          ....    0
 Multiplicity           Mult            ....    1
 Number of Electrons    NEL             ....   40
 Basis Dimension        Dim             ....  460

ORBITAL ENERGIES
----------------

  NO   OCC          E(Eh)            E(eV)
   0   2.0000     -11.231381      -305.6214
   1   2.0000     -11.228325      -305.5383
   2   2.0000     -11.216415      -305.2142
   3   2.0000     -11.213225      -305.1274
   4   2.0000     -11.213205      -305.1268
   5   2.0000      -1.097585       -29.8668
   6   2.0000      -1.003092       -27.2955
   7   2.0000      -0.929987       -25.3062
   8   2.0000      -0.826859       -22.5000
   9   2.0000      -0.750482       -20.4217
  10   2.0000      -0.634361       -17.2618
  11   2.0000      -0.620645       -16.8886
  12   2.0000      -0.582431       -15.8488
  13   2.0000      -0.563307       -15.3284
  14   2.0000      -0.536164       -14.5898
  15   2.0000      -0.533106       -14.5066
  16   2.0000      -0.483666       -13.1612
  17   2.0000      -0.472315       -12.8523
  18   2.0000      -0.464221       -12.6321
  19   2.0000      -0.359555        -9.7840
  20   0.0000       0.031057         0.8451
  21   0.0000       0.035771         0.9734
  22   0.0000       0.037739         1.0269
  23   0.0000       0.040607         1.1050
  24   0.0000       0.053979         1.4688

MULLIKEN ATOMIC CHARGES
-----------------------
   0 C :   -1.131186
   1 C :   -0.163527
   2 C :   -1.037733
   3 C :   -1.037733
   4 C :    0.431143
   5 H :    0.538248
   6 H :    0.197769
   7 H :    0.271783
   8 H :    0.247481
   9 H :    0.312458
  10 H :    0.279968
  11 H :    0.279968
  12 H :    0.247481
  13 H :    0.312458
  14 H :    0.251425
Sum of atomic charges:    0.0000000

LOEWDIN ATOMIC CHARGES
----------------------
   0 C :    0.531219
   1 C :    0.171633
   2 C :    0.580779
   3 C :    0.580779
   4 C :   -0.093034
   5 H :   -0.228846
   6 H :   -0.219511
   7 H :   -0.175049
   8 H :   -0.167262
   9 H :   -0.166077
  10 H :   -0.165373
  11 H :   -0.165373
  12 H :   -0.167262
  13 H :   -0.166077
  14 H :   -0.150547

  Mayer bond orders larger than 0.100000
B(  0-C ,  1-C ) :   1.3386 B(  0-C ,  5-H ) :   0.5801 B(  0-C ,  6-H ) :   1.1961
B(  1-C ,  2-C ) :   0.1013 B(  1-C ,  3-C ) :   0.1013 B(  1-C ,  4-C ) :   0.8359
B(  1-C ,  7-H ) :   1.0085 B(  2-C ,  3-C ) :   0.1359 B(  2-C ,  4-C ) :   0.7352
B(  2-C ,  8-H ) :   0.9894 B(  2-C ,  9-H ) :   0.9532 B(  2-C , 10-H ) :   0.9592
B(  3-C ,  4-C ) :   0.7352 B(  3-C , 11-H ) :   0.9592 B(  3-C , 12-H ) :   0.9894
B(  3-C , 13-H ) :   0.9532 B(  4-C , 14-H ) :   0.8990

MP2 TOTAL ENERGY:     -196.086517821 Eh
FINAL SINGLE POINT ENERGY      -196.086517820539

DIPOLE MOMENT
-------------
                                X             Y             Z
Electronic contribution:     -0.10248      -2.26018       0.00000
Nuclear contribution   :      0.13884       2.40953      -0.00000
                        -----------------------------------------
Total Dipole Moment    :      0.03636       0.14935       0.00000
                        -----------------------------------------
Magnitude (a.u.)       :      0.15371
Magnitude (Debye)      :      0.39071

Rotational constants in cm-1:     0.251245     0.118279     0.091309
Rotational constants in MHz :  7532.141939  3545.903633  2737.386713

                             ****ORCA TERMINATED NORMALLY****
TOTAL RUN TIME: 0 days 0 hours 2 minutes 44 seconds 18 msec
