                         Program Version 5.0.3 -  RELEASE  -
|  1> !ri-mp2 aug-cc-pvtz aug-cc-pvtz/c tightscf
|  2> %pal nprocs 16 end
|  3>
|  4> * xyz 0 1
|  5> H      2.562959   -0.097562    0.819589
|  6> H      2.562959   -0.097562   -0.819589
|  7> N      2.216312   -0.578879    0.000000
|  8> H      0.469894   -1.278430    0.874317
|  9> H      0.469894   -1.278430   -0.874317
| 10> C      0.770226   -0.700586    0.000000
| 11> H      0.275992    1.231576    0.878759
| 12> H      0.275992    1.231576   -0.878759
| 13> C      0.000000    0.644465    0.000000
| 14> N     -2.581961    0.274773    0.000000
| 15> C     -1.446584    0.459050    0.000000
| 16> *
| 17>
| 18>                          ****END OF INPUT****

CARTESIAN COORDINATES (ANGSTROEM)
---------------------------------
  H      2.562959   -0.097562    0.819589
  H      2.562959   -0.097562   -0.819589
  N      2.216312   -0.578879    0.000000
  H      0.469894   -1.278430    0.874317
  H      0.469894   -1.278430   -0.874317
  C      0.770226   -0.700586    0.000000
  H      0.275992    1.231576    0.878759
  H      0.275992    1.231576   -0.878759
  C      0.000000    0.644465    0.000000
  N     -2.581961    0.274773    0.000000
  C     -1.446584    0.459050    0.000000

 Total Charge           Charge          ....    0
 Multiplicity           Mult            ....    1
 Number of Electrons    NEL             ....   38
 Basis Dimension        Dim             ....  368

ORBITAL ENERGIES
----------------

  NO   OCC          E(Eh)            E(eV)
   0   2.0000     -15.569889      -423.6782
   1   2.0000     -15.564268      -423.5253
   2   2.0000     -11.284493      -307.0667
   3   2.0000     -11.283144      -307.0299
   4   2.0000     -11.274186      -306.7862
   5   2.0000      -1.225624       -33.3509
   6   2.0000      -1.205387       -32.8003
   7   2.0000      -1.056438       -28.7471
   8   2.0000      -0.887390       -24.1471
   9   2.0000      -0.708885       -19.2898
  10   2.0000      -0.705952       -19.2099
  11   2.0000      -0.631226       -17.1765
  12   2.0000      -0.627081       -17.0637
  13   2.0000      -0.574561       -15.6346
  14   2.0000      -0.553059       -15.0495
  15   2.0000      -0.530160       -14.4264
  16   2.0000      -0.472611       -12.8604
  17   2.0000      -0.461558       -12.5596
  18   2.0000      -0.410594       -11.1728
  19   0.0000       0.019871         0.5407
  20   0.0000       0.034021         0.9258
  21   0.0000       0.039320         1.0700
  22   0.0000       0.042486         1.1561
  23   0.0000       0.057191         1.5562

MULLIKEN ATOMIC CHARGES
-----------------------
   0 H :    0.115995
   1 H :    0.115995
   2 N :   -0.618057
   3 H :    0.305062
   4 H :    0.305062
   5 C :   -0.172919
   6 H :    0.291450
   7 H :    0.291450
   8 C :   -0.091753
   9 N :   -0.536544
  10 C :   -0.005739
Sum of atomic charges:   -0.0000000

LOEWDIN ATOMIC CHARGES
----------------------
   0 H :   -0.321546
   1 H :   -0.321546
   2 N :    0.840634
   3 H :   -0.150511
   4 H :   -0.150511
   5 C :    0.150781
   6 H :   -0.162837
   7 H :   -0.162837
   8 C :    0.238297
   9 N :    0.255997
  10 C :   -0.215922

  Mayer bond orders larger than 0.100000
B(  0-H ,  2-N ) :   0.9945 B(  1-H ,  2-N ) :   0.9945 B(  2-N ,  5-C ) :   0.7131
B(  3-H ,  5-C ) :   0.9347 B(  4-H ,  5-C ) :   0.9347 B(  5-C ,  8-C ) :   0.8465
B(  6-H ,  8-C ) :   0.9276 B(  7-H ,  8-C ) :   0.9276 B(  8-C , 10-C ) :   0.8403
B(  9-N , 10-C ) :   2.3182

MP2 TOTAL ENERGY:     -226.980469007 Eh
FINAL SINGLE POINT ENERGY      -226.980469007382

DIPOLE MOMENT
-------------
                                X             Y             Z
Electronic contribution:     -5.17084       0.89025      -0.00000
Nuclear contribution   :      6.73557      -0.29589       0.00000
                        -----------------------------------------
Total Dipole Moment    :      1.56473       0.59436      -0.00000
                        -----------------------------------------
Magnitude (a.u.)       :      1.67381
Magnitude (Debye)      :      4.25449

Rotational constants in cm-1:     0.834968     0.075964     0.072288
Rotational constants in MHz : 25031.714807  2277.337427  2167.129761

                             ****ORCA TERMINATED NORMALLY****
TOTAL RUN TIME: 0 days 0 hours 1 minutes 41 seconds 468 msec
