                         Program Version 5.0.3 -  RELEASE  -
|  1> !ri-mp2 aug-cc-pvtz aug-cc-pvtz/c tightscf
|  2> %pal nprocs 16 end
|  3>
|  4> * xyz 0 1
|  5> S     1.646373   -0.642200   -0.000046
|  6> N    -3.679210    0.273566    0.000060
|  7> C     2.361907    1.048758    0.000007
|  8> C     0.007828   -0.301890   -0.000011
|  9> C    -1.191000   -0.121742    0.000012
| 10> C    -2.535848    0.090366    0.000037
| 11> H     2.057644    1.581413    0.895536
| 12> H     3.439906    0.904390   -0.000013
| 13> H     2.057620    1.581480   -0.895474
| 14> *
| 15>
| 16>                          ****END OF INPUT****

CARTESIAN COORDINATES (ANGSTROEM)
---------------------------------
  S      1.646373   -0.642200   -0.000046
  N     -3.679210    0.273566    0.000060
  C      2.361907    1.048758    0.000007
  C      0.007828   -0.301890   -0.000011
  C     -1.191000   -0.121742    0.000012
  C     -2.535848    0.090366    0.000037
  H      2.057644    1.581413    0.895536
  H      3.439906    0.904390   -0.000013
  H      2.057620    1.581480   -0.895474

 Total Charge           Charge          ....    0
 Multiplicity           Mult            ....    1
 Number of Electrons    NEL             ....   50
 Basis Dimension        Dim             ....  349

ORBITAL ENERGIES
----------------

  NO   OCC          E(Eh)            E(eV)
   0   2.0000     -92.017807     -2503.9318
   1   2.0000     -15.594438      -424.3462
   2   2.0000     -11.312714      -307.8346
   3   2.0000     -11.302164      -307.5475
   4   2.0000     -11.293804      -307.3200
   5   2.0000     -11.286024      -307.1083
   6   2.0000      -9.017225      -245.3712
   7   2.0000      -6.698817      -182.2841
   8   2.0000      -6.697254      -182.2416
   9   2.0000      -6.696471      -182.2202
  10   2.0000      -1.237777       -33.6816
  11   2.0000      -1.131924       -30.8012
  12   2.0000      -1.059345       -28.8262
  13   2.0000      -0.946852       -25.7651
  14   2.0000      -0.869047       -23.6480
  15   2.0000      -0.666837       -18.1456
  16   2.0000      -0.630623       -17.1601
  17   2.0000      -0.602552       -16.3963
  18   2.0000      -0.579545       -15.7702
  19   2.0000      -0.549122       -14.9424
  20   2.0000      -0.548920       -14.9369
  21   2.0000      -0.510866       -13.9014
  22   2.0000      -0.469788       -12.7836
  23   2.0000      -0.406610       -11.0644
  24   2.0000      -0.358558        -9.7568
  25   0.0000       0.019325         0.5259
  26   0.0000       0.038067         1.0358
  27   0.0000       0.039858         1.0846
  28   0.0000       0.050025         1.3612
  29   0.0000       0.066336         1.8051

MULLIKEN ATOMIC CHARGES
-----------------------
   0 S :   -0.398904
   1 N :   -0.483347
   2 C :   -0.805061
   3 C :   -0.512095
   4 C :    1.862240
   5 C :   -0.575700
   6 H :    0.308192
   7 H :    0.296482
   8 H :    0.308192
Sum of atomic charges:   -0.0000000

LOEWDIN ATOMIC CHARGES
----------------------
   0 S :    1.141813
   1 N :    0.254167
   2 C :    0.276478
   3 C :   -0.463544
   4 C :   -0.129644
   5 C :   -0.352023
   6 H :   -0.238305
   7 H :   -0.250636
   8 H :   -0.238305

  Mayer bond orders larger than 0.100000
B(  0-S ,  2-C ) :   1.0214 B(  0-S ,  3-C ) :   1.3498 B(  0-S ,  4-C ) :  -0.6008
B(  1-N ,  3-C ) :  -0.1326 B(  1-N ,  5-C ) :   2.0411 B(  2-C ,  6-H ) :   0.8983
B(  2-C ,  7-H ) :   0.9304 B(  2-C ,  8-H ) :   0.8983 B(  3-C ,  4-C ) :   0.3215
B(  3-C ,  5-C ) :   0.6478 B(  4-C ,  5-C ) :  -0.1652

MP2 TOTAL ENERGY:     -606.203406361 Eh
FINAL SINGLE POINT ENERGY      -606.203406360748

DIPOLE MOMENT
-------------
                                X             Y             Z
Electronic contribution:     -5.06461      -3.53696      -0.00006
Nuclear contribution   :      7.23385       3.95269       0.00005
                        -----------------------------------------
Total Dipole Moment    :      2.16924       0.41573      -0.00001
                        -----------------------------------------
Magnitude (a.u.)       :      2.20872
Magnitude (Debye)      :      5.61411

Rotational constants in cm-1:     0.469131     0.036685     0.034248
Rotational constants in MHz : 14064.186618  1099.778186  1026.716261

                             ****ORCA TERMINATED NORMALLY****
TOTAL RUN TIME: 0 days 0 hours 1 minutes 33 seconds 201 msec
