                         Program Version 5.0.3 -  RELEASE  -
|  1> !ri-mp2 aug-cc-pvtz aug-cc-pvtz/c tightscf
|  2> %pal nprocs 16 end
|  3>
|  4> * xyz 0 1
|  5> F     -1.495654   -0.534690    0.000025
|  6> C      0.759246    0.134886   -0.000021
|  7> C     -0.629994    0.562044    0.000074
|  8> C      1.910455   -0.197047   -0.000106
|  9> H      2.928597   -0.497755   -0.000166
| 10> H     -0.852940    1.155263    0.888657
| 11> H     -0.853016    1.155403   -0.888397
| 12> *
| 13>
| 14>                          ****END OF INPUT****

CARTESIAN COORDINATES (ANGSTROEM)
---------------------------------
  F     -1.495654   -0.534690    0.000025
  C      0.759246    0.134886   -0.000021
  C     -0.629994    0.562044    0.000074
  C      1.910455   -0.197047   -0.000106
  H      2.928597   -0.497755   -0.000166
  H     -0.852940    1.155263    0.888657
  H     -0.853016    1.155403   -0.888397

 Total Charge           Charge          ....    0
 Multiplicity           Mult            ....    1
 Number of Electrons    NEL             ....   30
 Basis Dimension        Dim             ....  253

ORBITAL ENERGIES
----------------

  NO   OCC          E(Eh)            E(eV)
   0   2.0000     -26.290971      -715.4137
   1   2.0000     -11.346499      -308.7539
   2   2.0000     -11.249731      -306.1207
   3   2.0000     -11.244930      -305.9901
   4   2.0000      -1.597208       -43.4622
   5   2.0000      -1.073926       -29.2230
   6   2.0000      -0.971669       -26.4404
   7   2.0000      -0.758304       -20.6345
   8   2.0000      -0.715872       -19.4799
   9   2.0000      -0.708062       -19.2674
  10   2.0000      -0.693724       -18.8772
  11   2.0000      -0.580462       -15.7952
  12   2.0000      -0.564166       -15.3517
  13   2.0000      -0.418251       -11.3812
  14   2.0000      -0.406928       -11.0731
  15   0.0000       0.028259         0.7690
  16   0.0000       0.032311         0.8792
  17   0.0000       0.044763         1.2181
  18   0.0000       0.075161         2.0452
  19   0.0000       0.080253         2.1838

MULLIKEN ATOMIC CHARGES
-----------------------
   0 F :   -0.443265
   1 C :    0.693905
   2 C :   -0.097880
   3 C :   -1.367361
   4 H :    0.565316
   5 H :    0.324642
   6 H :    0.324644
Sum of atomic charges:    0.0000000

LOEWDIN ATOMIC CHARGES
----------------------
   0 F :    0.427993
   1 C :    0.004125
   2 C :   -0.149826
   3 C :    0.391417
   4 H :   -0.295659
   5 H :   -0.189026
   6 H :   -0.189025

  Mayer bond orders larger than 0.100000
B(  0-F ,  2-C ) :   0.6500 B(  1-C ,  2-C ) :   1.1512 B(  1-C ,  3-C ) :   1.1710
B(  2-C ,  5-H ) :   0.9166 B(  2-C ,  6-H ) :   0.9166 B(  3-C ,  4-H ) :   0.7140

MP2 TOTAL ENERGY:     -215.524250225 Eh
FINAL SINGLE POINT ENERGY      -215.524250225171

DIPOLE MOMENT
-------------
                                X             Y             Z
Electronic contribution:     -2.14971      -1.62852      -0.00003
Nuclear contribution   :      2.62008       2.27190       0.00007
                        -----------------------------------------
Total Dipole Moment    :      0.47037       0.64338       0.00003
                        -----------------------------------------
Magnitude (a.u.)       :      0.79699
Magnitude (Debye)      :      2.02578

Rotational constants in cm-1:     1.189279     0.153556     0.139581
Rotational constants in MHz : 35653.678011  4603.492218  4184.531375

                             ****ORCA TERMINATED NORMALLY****
TOTAL RUN TIME: 0 days 0 hours 0 minutes 40 seconds 971 msec
