                         Program Version 5.0.3 -  RELEASE  -
|  1> !ri-mp2 aug-cc-pvtz aug-cc-pvtz/c tightscf
|  2> %pal nprocs 16 end
|  3>
|  4> * xyz 0 1
|  5> N      1.200532   -1.192190    0.000009
|  6> C     -0.248247   -1.251538    0.000100
|  7> C     -1.059500    0.036614    0.000061
|  8> C     -0.288709    1.286859    0.000113
|  9> C      1.051418    1.235550   -0.000006
| 10> C      1.757680   -0.047837   -0.000095
| 11> O     -2.276005    0.018306   -0.000145
| 12> H     -0.559635   -1.846968    0.864275
| 13> H     -0.843315    2.215844    0.000201
| 14> H      1.646021    2.141077   -0.000054
| 15> H      2.845073   -0.022117   -0.000226
| 16> H     -0.559677   -1.846841   -0.864144
| 17> *
| 18>
| 19>                          ****END OF INPUT****

CARTESIAN COORDINATES (ANGSTROEM)
---------------------------------
  N      1.200532   -1.192190    0.000009
  C     -0.248247   -1.251538    0.000100
  C     -1.059500    0.036614    0.000061
  C     -0.288709    1.286859    0.000113
  C      1.051418    1.235550   -0.000006
  C      1.757680   -0.047837   -0.000095
  O     -2.276005    0.018306   -0.000145
  H     -0.559635   -1.846968    0.864275
  H     -0.843315    2.215844    0.000201
  H      1.646021    2.141077   -0.000054
  H      2.845073   -0.022117   -0.000226
  H     -0.559677   -1.846841   -0.864144

 Total Charge           Charge          ....    0
 Multiplicity           Mult            ....    1
 Number of Electrons    NEL             ....   50
 Basis Dimension        Dim             ....  437

ORBITAL ENERGIES
----------------

  NO   OCC          E(Eh)            E(eV)
   0   2.0000     -20.552761      -559.2691
   1   2.0000     -15.586556      -424.1318
   2   2.0000     -11.342563      -308.6468
   3   2.0000     -11.300073      -307.4906
   4   2.0000     -11.283168      -307.0306
   5   2.0000     -11.275512      -306.8223
   6   2.0000     -11.267772      -306.6117
   7   2.0000      -1.393154       -37.9096
   8   2.0000      -1.264764       -34.4160
   9   2.0000      -1.100634       -29.9498
  10   2.0000      -1.023690       -27.8560
  11   2.0000      -0.892326       -24.2814
  12   2.0000      -0.834729       -22.7141
  13   2.0000      -0.728084       -19.8122
  14   2.0000      -0.694283       -18.8924
  15   2.0000      -0.674992       -18.3675
  16   2.0000      -0.639447       -17.4002
  17   2.0000      -0.609417       -16.5831
  18   2.0000      -0.599212       -16.3054
  19   2.0000      -0.564085       -15.3495
  20   2.0000      -0.525464       -14.2986
  21   2.0000      -0.484203       -13.1758
  22   2.0000      -0.474695       -12.9171
  23   2.0000      -0.400065       -10.8863
  24   2.0000      -0.376400       -10.2424
  25   0.0000       0.021817         0.5937
  26   0.0000       0.034208         0.9308
  27   0.0000       0.034664         0.9432
  28   0.0000       0.037954         1.0328
  29   0.0000       0.049475         1.3463

MULLIKEN ATOMIC CHARGES
-----------------------
   0 N :   -0.491332
   1 C :   -0.229574
   2 C :    0.754527
   3 C :   -0.606012
   4 C :   -0.107338
   5 C :   -0.554586
   6 O :   -0.942333
   7 H :    0.325588
   8 H :    0.509522
   9 H :    0.410417
  10 H :    0.605574
  11 H :    0.325546
Sum of atomic charges:   -0.0000000

LOEWDIN ATOMIC CHARGES
----------------------
   0 N :    0.395113
   1 C :    0.111349
   2 C :   -0.540481
   3 C :    0.228718
   4 C :    0.224576
   5 C :    0.009000
   6 O :    0.450969
   7 H :   -0.160125
   8 H :   -0.183358
   9 H :   -0.180750
  10 H :   -0.194863
  11 H :   -0.160148

  Mayer bond orders larger than 0.100000
B(  0-N ,  1-C ) :   0.8324 B(  0-N ,  4-C ) :  -0.1855 B(  0-N ,  5-C ) :   1.6422
B(  0-N , 10-H ) :  -0.1067 B(  1-C ,  2-C ) :   0.8119 B(  1-C ,  5-C ) :   0.1319
B(  1-C ,  7-H ) :   0.8921 B(  1-C , 11-H ) :   0.8921 B(  2-C ,  3-C ) :   0.9192
B(  2-C ,  6-O ) :   1.1632 B(  3-C ,  4-C ) :   1.6127 B(  3-C ,  5-C ) :   0.1746
B(  3-C ,  8-H ) :   0.6674 B(  4-C ,  5-C ) :   0.7244 B(  4-C ,  9-H ) :   0.8197
B(  5-C , 10-H ) :   0.5049

MP2 TOTAL ENERGY:     -322.869675471 Eh
FINAL SINGLE POINT ENERGY      -322.869675471246

DIPOLE MOMENT
-------------
                                X             Y             Z
Electronic contribution:     -1.27784       0.14296       0.00009
Nuclear contribution   :      2.46816       0.62630       0.00005
                        -----------------------------------------
Total Dipole Moment    :      1.19033       0.76926       0.00014
                        -----------------------------------------
Magnitude (a.u.)       :      1.41727
Magnitude (Debye)      :      3.60240

Rotational constants in cm-1:     0.177835     0.092367     0.061459
Rotational constants in MHz :  5331.350290  2769.105818  1842.507646

                             ****ORCA TERMINATED NORMALLY****
TOTAL RUN TIME: 0 days 0 hours 3 minutes 24 seconds 920 msec
