                         Program Version 5.0.3 -  RELEASE  -
|  1> !ri-mp2 aug-cc-pvtz aug-cc-pvtz/c tightscf
|  2> %pal nprocs 16 end
|  3>
|  4> * xyz 0 1
|  5> C      2.222154   -0.206522   -0.305896
|  6> C      1.135350   -0.117984    0.450291
|  7> C     -0.025341    0.749869    0.122211
|  8> Cl    -1.546037   -0.242264   -0.108197
|  9> H      3.058152   -0.830798   -0.022178
| 10> H      2.314549    0.344401   -1.233886
| 11> H      1.060566   -0.687381    1.369728
| 12> H     -0.264925    1.439219    0.927711
| 13> H      0.121308    1.300880   -0.801666
| 14> *
| 15>
| 16>                          ****END OF INPUT****

CARTESIAN COORDINATES (ANGSTROEM)
---------------------------------
  C      2.222154   -0.206522   -0.305896
  C      1.135350   -0.117984    0.450291
  C     -0.025341    0.749869    0.122211
  Cl    -1.546037   -0.242264   -0.108197
  H      3.058152   -0.830798   -0.022178
  H      2.314549    0.344401   -1.233886
  H      1.060566   -0.687381    1.369728
  H     -0.264925    1.439219    0.927711
  H      0.121308    1.300880   -0.801666

 Total Charge           Charge          ....    0
 Multiplicity           Mult            ....    1
 Number of Electrons    NEL             ....   40
 Basis Dimension        Dim             ....  303

ORBITAL ENERGIES
----------------

  NO   OCC          E(Eh)            E(eV)
   0   2.0000    -104.822857     -2852.3750
   1   2.0000     -11.303336      -307.5794
   2   2.0000     -11.252146      -306.1864
   3   2.0000     -11.242259      -305.9174
   4   2.0000     -10.546790      -286.9928
   5   2.0000      -8.013534      -218.0594
   6   2.0000      -8.011810      -218.0124
   7   2.0000      -8.011771      -218.0114
   8   2.0000      -1.138761       -30.9873
   9   2.0000      -1.055878       -28.7319
  10   2.0000      -0.918125       -24.9835
  11   2.0000      -0.782745       -21.2996
  12   2.0000      -0.671018       -18.2593
  13   2.0000      -0.625226       -17.0133
  14   2.0000      -0.592119       -16.1124
  15   2.0000      -0.540231       -14.7004
  16   2.0000      -0.525017       -14.2864
  17   2.0000      -0.439251       -11.9526
  18   2.0000      -0.434186       -11.8148
  19   2.0000      -0.382532       -10.4092
  20   0.0000       0.029178         0.7940
  21   0.0000       0.037262         1.0140
  22   0.0000       0.038320         1.0427
  23   0.0000       0.054143         1.4733
  24   0.0000       0.058944         1.6039

MULLIKEN ATOMIC CHARGES
-----------------------
   0 C :   -1.079263
   1 C :   -0.261509
   2 C :   -0.172585
   3 Cl:   -0.331947
   4 H :    0.513502
   5 H :    0.324515
   6 H :    0.424940
   7 H :    0.279158
   8 H :    0.303189
Sum of atomic charges:    0.0000000

LOEWDIN ATOMIC CHARGES
----------------------
   0 C :    0.518671
   1 C :    0.075523
   2 C :   -0.278445
   3 Cl:    0.828203
   4 H :   -0.222113
   5 H :   -0.219150
   6 H :   -0.203559
   7 H :   -0.247394
   8 H :   -0.251736

  Mayer bond orders larger than 0.100000
B(  0-C ,  1-C ) :   1.5365 B(  0-C ,  4-H ) :   0.6750 B(  0-C ,  5-H ) :   0.9719
B(  1-C ,  2-C ) :   0.9793 B(  1-C ,  6-H ) :   0.8090 B(  2-C ,  3-Cl) :   0.8742
B(  2-C ,  7-H ) :   0.9294 B(  2-C ,  8-H ) :   0.9137

MP2 TOTAL ENERGY:     -576.753816676 Eh
FINAL SINGLE POINT ENERGY      -576.753816675893

DIPOLE MOMENT
-------------
                                X             Y             Z
Electronic contribution:     -7.54671      -1.44416      -0.28047
Nuclear contribution   :      8.34562       1.87784       0.38727
                        -----------------------------------------
Total Dipole Moment    :      0.79891       0.43368       0.10680
                        -----------------------------------------
Magnitude (a.u.)       :      0.91528
Magnitude (Debye)      :      2.32646

Rotational constants in cm-1:     0.715377     0.091811     0.088994
Rotational constants in MHz : 21446.448656  2752.431201  2667.987821

                             ****ORCA TERMINATED NORMALLY****
TOTAL RUN TIME: 0 days 0 hours 1 minutes 18 seconds 4 msec
