                         Program Version 5.0.3 -  RELEASE  -
|  1> !ri-mp2 aug-cc-pvtz aug-cc-pvtz/c tightscf
|  2> %pal nprocs 16 end
|  3>
|  4> * xyz 0 1
|  5> Cl   -3.091891   -0.553378   -0.200574
|  6> S     3.632310   -0.266570   -0.128147
|  7> O    -0.699111    2.368642   -0.205516
|  8> N     0.897212   -0.474689    0.245548
|  9> C    -0.405066   -0.025285   -0.173044
| 10> C    -1.436255   -1.039052    0.315660
| 11> C    -0.633145    1.364267    0.442426
| 12> C     2.069088   -0.345652    0.048062
| 13> H    -0.443611    0.071906   -1.258723
| 14> H    -1.234330   -2.019402   -0.103642
| 15> H    -1.437139   -1.102639    1.400744
| 16> H    -0.695064    1.370700    1.548388
| 17> *
| 18>
| 19>                          ****END OF INPUT****

CARTESIAN COORDINATES (ANGSTROEM)
---------------------------------
  Cl    -3.091891   -0.553378   -0.200574
  S      3.632310   -0.266570   -0.128147
  O     -0.699111    2.368642   -0.205516
  N      0.897212   -0.474689    0.245548
  C     -0.405066   -0.025285   -0.173044
  C     -1.436255   -1.039052    0.315660
  C     -0.633145    1.364267    0.442426
  C      2.069088   -0.345652    0.048062
  H     -0.443611    0.071906   -1.258723
  H     -1.234330   -2.019402   -0.103642
  H     -1.437139   -1.102639    1.400744
  H     -0.695064    1.370700    1.548388

 Total Charge           Charge          ....    0
 Multiplicity           Mult            ....    1
 Number of Electrons    NEL             ....   76
 Basis Dimension        Dim             ....  468

ORBITAL ENERGIES
----------------

  NO   OCC          E(Eh)            E(eV)
   0   2.0000    -104.853791     -2853.2167
   1   2.0000     -91.969940     -2502.6293
   2   2.0000     -20.592409      -560.3479
   3   2.0000     -15.628626      -425.2765
   4   2.0000     -11.398934      -310.1808
   5   2.0000     -11.364089      -309.2326
   6   2.0000     -11.343899      -308.6832
   7   2.0000     -11.331922      -308.3573
   8   2.0000     -10.577693      -287.8337
   9   2.0000      -8.973131      -244.1713
  10   2.0000      -8.044508      -218.9022
  11   2.0000      -8.042673      -218.8522
  12   2.0000      -8.042639      -218.8513
  13   2.0000      -6.654695      -181.0835
  14   2.0000      -6.652188      -181.0152
  15   2.0000      -6.651950      -181.0088
  16   2.0000      -1.431979       -38.9661
  17   2.0000      -1.320709       -35.9383
  18   2.0000      -1.174411       -31.9573
  19   2.0000      -1.091177       -29.6924
  20   2.0000      -1.033193       -28.1146
  21   2.0000      -0.920033       -25.0354
  22   2.0000      -0.853258       -23.2183
  23   2.0000      -0.778898       -21.1949
  24   2.0000      -0.703220       -19.1356
  25   2.0000      -0.687787       -18.7156
  26   2.0000      -0.650326       -17.6963
  27   2.0000      -0.625704       -17.0263
  28   2.0000      -0.616095       -16.7648
  29   2.0000      -0.583905       -15.8889
  30   2.0000      -0.560751       -15.2588
  31   2.0000      -0.552832       -15.0433
  32   2.0000      -0.544434       -14.8148
  33   2.0000      -0.471392       -12.8272
  34   2.0000      -0.464061       -12.6277
  35   2.0000      -0.452846       -12.3226
  36   2.0000      -0.387140       -10.5346
  37   2.0000      -0.375435       -10.2161
  38   0.0000       0.024378         0.6634
  39   0.0000       0.032256         0.8777
  40   0.0000       0.040118         1.0917
  41   0.0000       0.052342         1.4243
  42   0.0000       0.055486         1.5099

MULLIKEN ATOMIC CHARGES
-----------------------
   0 Cl:   -0.355128
   1 S :   -0.367305
   2 O :   -0.777366
   3 N :   -0.073561
   4 C :    0.781397
   5 C :   -0.289643
   6 C :    0.036271
   7 C :   -0.333795
   8 H :    0.340729
   9 H :    0.290666
  10 H :    0.268959
  11 H :    0.478775
Sum of atomic charges:   -0.0000000

LOEWDIN ATOMIC CHARGES
----------------------
   0 Cl:    0.931805
   1 S :    0.861185
   2 O :    0.463506
   3 N :    0.218489
   4 C :   -0.300285
   5 C :   -0.272094
   6 C :   -0.237427
   7 C :   -0.868499
   8 H :   -0.166606
   9 H :   -0.229406
  10 H :   -0.233341
  11 H :   -0.167327

  Mayer bond orders larger than 0.100000
B(  0-Cl,  5-C ) :   0.7592 B(  1-S ,  3-N ) :  -0.1150 B(  1-S ,  4-C ) :   0.1053
B(  1-S ,  7-C ) :   1.8651 B(  2-O ,  6-C ) :   1.5336 B(  3-N ,  4-C ) :   0.4533
B(  3-N ,  7-C ) :   1.9664 B(  4-C ,  5-C ) :   0.8994 B(  4-C ,  6-C ) :   0.6353
B(  4-C ,  7-C ) :  -0.2502 B(  4-C ,  8-H ) :   0.9028 B(  5-C ,  6-C ) :   0.1348
B(  5-C ,  9-H ) :   0.9283 B(  5-C , 10-H ) :   0.9478 B(  6-C , 11-H ) :   0.7511

MP2 TOTAL ENERGY:    -1141.701623708 Eh
FINAL SINGLE POINT ENERGY     -1141.701623707621

DIPOLE MOMENT
-------------
                                X             Y             Z
Electronic contribution:     -0.70523      -0.16572      -1.28446
Nuclear contribution   :      0.47273      -0.80621       1.78983
                        -----------------------------------------
Total Dipole Moment    :     -0.23250      -0.97192       0.50538
                        -----------------------------------------
Magnitude (a.u.)       :      1.11987
Magnitude (Debye)      :      2.84647

Rotational constants in cm-1:     0.103153     0.019120     0.016554
Rotational constants in MHz :  3092.459765   573.201970   496.270583

                             ****ORCA TERMINATED NORMALLY****
TOTAL RUN TIME: 0 days 0 hours 3 minutes 42 seconds 346 msec
