                         Program Version 5.0.3 -  RELEASE  -
|  1> !ri-mp2 aug-cc-pvtz aug-cc-pvtz/c tightscf
|  2> %pal nprocs 16 end
|  3>
|  4> * xyz 0 1
|  5> F    -1.107399    1.972598   -0.000008
|  6> F     3.142849   -0.010796    0.000001
|  7> N    -0.115794   -1.478474    0.000005
|  8> N    -3.450688   -0.659364    0.000001
|  9> C    -0.881069   -0.381590    0.000001
| 10> C    -0.318666    0.896498   -0.000003
| 11> C     1.807176   -0.095422    0.000001
| 12> C     1.053220    1.060726   -0.000003
| 13> C     1.201271   -1.347746    0.000005
| 14> C    -2.305482   -0.546687    0.000001
| 15> H     1.504868    2.041454   -0.000006
| 16> H     1.802744   -2.247483    0.000009
| 17> *
| 18>
| 19>                          ****END OF INPUT****

CARTESIAN COORDINATES (ANGSTROEM)
---------------------------------
  F     -1.107399    1.972598   -0.000008
  F      3.142849   -0.010796    0.000001
  N     -0.115794   -1.478474    0.000005
  N     -3.450688   -0.659364    0.000001
  C     -0.881069   -0.381590    0.000001
  C     -0.318666    0.896498   -0.000003
  C      1.807176   -0.095422    0.000001
  C      1.053220    1.060726   -0.000003
  C      1.201271   -1.347746    0.000005
  C     -2.305482   -0.546687    0.000001
  H      1.504868    2.041454   -0.000006
  H      1.802744   -2.247483    0.000009

 Total Charge           Charge          ....    0
 Multiplicity           Mult            ....    1
 Number of Electrons    NEL             ....   70
 Basis Dimension        Dim             ....  506

ORBITAL ENERGIES
----------------

  NO   OCC          E(Eh)            E(eV)
   0   2.0000     -26.360488      -717.3053
   1   2.0000     -26.359030      -717.2657
   2   2.0000     -15.632156      -425.3726
   3   2.0000     -15.591044      -424.2539
   4   2.0000     -11.392275      -309.9996
   5   2.0000     -11.386173      -309.8335
   6   2.0000     -11.348667      -308.8129
   7   2.0000     -11.319823      -308.0281
   8   2.0000     -11.306510      -307.6658
   9   2.0000     -11.290706      -307.2357
  10   2.0000      -1.680698       -45.7341
  11   2.0000      -1.677618       -45.6503
  12   2.0000      -1.327650       -36.1272
  13   2.0000      -1.236362       -33.6431
  14   2.0000      -1.151473       -31.3332
  15   2.0000      -1.101765       -29.9806
  16   2.0000      -0.958414       -26.0798
  17   2.0000      -0.933423       -25.3997
  18   2.0000      -0.821686       -22.3592
  19   2.0000      -0.811768       -22.0893
  20   2.0000      -0.804460       -21.8905
  21   2.0000      -0.748881       -20.3781
  22   2.0000      -0.743172       -20.2227
  23   2.0000      -0.738935       -20.1075
  24   2.0000      -0.713215       -19.4076
  25   2.0000      -0.672445       -18.2981
  26   2.0000      -0.645690       -17.5701
  27   2.0000      -0.620821       -16.8934
  28   2.0000      -0.603360       -16.4183
  29   2.0000      -0.574228       -15.6255
  30   2.0000      -0.505708       -13.7610
  31   2.0000      -0.490294       -13.3416
  32   2.0000      -0.483182       -13.1480
  33   2.0000      -0.434373       -11.8199
  34   2.0000      -0.381986       -10.3944
  35   0.0000       0.021329         0.5804
  36   0.0000       0.029622         0.8061
  37   0.0000       0.039966         1.0875
  38   0.0000       0.054715         1.4889
  39   0.0000       0.061594         1.6761

MULLIKEN ATOMIC CHARGES
-----------------------
   0 F :   -0.533384
   1 F :   -0.493945
   2 N :   -0.424055
   3 N :   -0.746792
   4 C :    0.894131
   5 C :    0.481027
   6 C :    0.952210
   7 C :   -1.032644
   8 C :   -0.555535
   9 C :    0.364006
  10 H :    0.493530
  11 H :    0.601451
Sum of atomic charges:    0.0000000

LOEWDIN ATOMIC CHARGES
----------------------
   0 F :    0.538418
   1 F :    0.518887
   2 N :    0.381612
   3 N :    0.279412
   4 C :   -0.378308
   5 C :   -0.513465
   6 C :   -0.500846
   7 C :    0.222631
   8 C :    0.037465
   9 C :   -0.237275
  10 H :   -0.164486
  11 H :   -0.184045

  Mayer bond orders larger than 0.100000
B(  0-F ,  5-C ) :   0.6568 B(  0-F ,  7-C ) :   0.1280 B(  1-F ,  6-C ) :   0.5695
B(  1-F ,  7-C ) :   0.1289 B(  1-F ,  8-C ) :   0.1184 B(  2-N ,  4-C ) :   0.8820
B(  2-N ,  6-C ) :  -0.1289 B(  2-N ,  7-C ) :   0.1102 B(  2-N ,  8-C ) :   1.3372
B(  3-N ,  9-C ) :   1.9991 B(  4-C ,  5-C ) :   0.8739 B(  4-C ,  7-C ) :   0.1659
B(  4-C ,  8-C ) :   0.1971 B(  4-C ,  9-C ) :   0.6043 B(  5-C ,  7-C ) :   1.4142
B(  5-C ,  8-C ) :  -0.2402 B(  5-C ,  9-C ) :   0.3372 B(  6-C ,  7-C ) :   1.2006
B(  6-C ,  8-C ) :   1.0012 B(  7-C ,  8-C ) :   0.2854 B(  7-C , 10-H ) :   0.6626
B(  8-C , 11-H ) :   0.4959

MP2 TOTAL ENERGY:     -538.129306805 Eh
FINAL SINGLE POINT ENERGY      -538.129306805148

DIPOLE MOMENT
-------------
                                X             Y             Z
Electronic contribution:      0.69220       2.51672      -0.00001
Nuclear contribution   :      1.19788      -2.02326       0.00001
                        -----------------------------------------
Total Dipole Moment    :      1.89008       0.49346      -0.00000
                        -----------------------------------------
Magnitude (a.u.)       :      1.95343
Magnitude (Debye)      :      4.96523

Rotational constants in cm-1:     0.098975     0.031943     0.024149
Rotational constants in MHz :  2967.207165   957.626093   723.973432

                             ****ORCA TERMINATED NORMALLY****
TOTAL RUN TIME: 0 days 0 hours 5 minutes 8 seconds 761 msec
