                         Program Version 5.0.3 -  RELEASE  -
|  1> !ri-mp2 aug-cc-pvtz aug-cc-pvtz/c tightscf
|  2> %pal nprocs 16 end
|  3>
|  4> * xyz 0 1
|  5> C      0.256059   -0.145790    2.557816
|  6> C      0.256059   -0.145790   -2.557816
|  7> C      0.256059    0.678253    1.272070
|  8> C      0.256059    0.678253   -1.272070
|  9> C      0.123504   -0.161251    0.000000
| 10> O     -1.093205   -0.921538    0.000000
| 11> H      0.329959    0.496804    3.435919
| 12> H     -0.654055   -0.737969    2.645405
| 13> H      1.102179   -0.835589    2.578827
| 14> H      0.329959    0.496804   -3.435919
| 15> H      1.102179   -0.835589   -2.578827
| 16> H     -0.654055   -0.737969   -2.645405
| 17> H     -0.562591    1.406988    1.294805
| 18> H      1.178723    1.261415    1.206832
| 19> H     -0.562591    1.406988   -1.294805
| 20> H      1.178723    1.261415   -1.206832
| 21> H      0.906368   -0.925655    0.000000
| 22> H     -1.835609   -0.307374    0.000000
| 23> *
| 24>
| 25>                          ****END OF INPUT****

CARTESIAN COORDINATES (ANGSTROEM)
---------------------------------
  C      0.256059   -0.145790    2.557816
  C      0.256059   -0.145790   -2.557816
  C      0.256059    0.678253    1.272070
  C      0.256059    0.678253   -1.272070
  C      0.123504   -0.161251    0.000000
  O     -1.093205   -0.921538    0.000000
  H      0.329959    0.496804    3.435919
  H     -0.654055   -0.737969    2.645405
  H      1.102179   -0.835589    2.578827
  H      0.329959    0.496804   -3.435919
  H      1.102179   -0.835589   -2.578827
  H     -0.654055   -0.737969   -2.645405
  H     -0.562591    1.406988    1.294805
  H      1.178723    1.261415    1.206832
  H     -0.562591    1.406988   -1.294805
  H      1.178723    1.261415   -1.206832
  H      0.906368   -0.925655    0.000000
  H     -1.835609   -0.307374    0.000000

 Total Charge           Charge          ....    0
 Multiplicity           Mult            ....    1
 Number of Electrons    NEL             ....   50
 Basis Dimension        Dim             ....  552

ORBITAL ENERGIES
----------------

  NO   OCC          E(Eh)            E(eV)
   0   2.0000     -20.550948      -559.2197
   1   2.0000     -11.274686      -306.7998
   2   2.0000     -11.220936      -305.3372
   3   2.0000     -11.220920      -305.3368
   4   2.0000     -11.209124      -305.0158
   5   2.0000     -11.209123      -305.0157
   6   2.0000      -1.353421       -36.8285
   7   2.0000      -1.068624       -29.0787
   8   2.0000      -1.020249       -27.7624
   9   2.0000      -0.917945       -24.9786
  10   2.0000      -0.827377       -22.5141
  11   2.0000      -0.802238       -21.8300
  12   2.0000      -0.652442       -17.7538
  13   2.0000      -0.644482       -17.5373
  14   2.0000      -0.628984       -17.1155
  15   2.0000      -0.596864       -16.2415
  16   2.0000      -0.560754       -15.2589
  17   2.0000      -0.545516       -14.8442
  18   2.0000      -0.537224       -14.6186
  19   2.0000      -0.510789       -13.8993
  20   2.0000      -0.492604       -13.4044
  21   2.0000      -0.484782       -13.1916
  22   2.0000      -0.480270       -13.0688
  23   2.0000      -0.455923       -12.4063
  24   2.0000      -0.426245       -11.5987
  25   0.0000       0.029027         0.7899
  26   0.0000       0.033653         0.9158
  27   0.0000       0.035919         0.9774
  28   0.0000       0.040388         1.0990
  29   0.0000       0.051879         1.4117

MULLIKEN ATOMIC CHARGES
-----------------------
   0 C :   -0.972681
   1 C :   -0.972681
   2 C :   -0.631733
   3 C :   -0.631733
   4 C :    0.725805
   5 O :   -0.747185
   6 H :    0.281921
   7 H :    0.294265
   8 H :    0.250798
   9 H :    0.281921
  10 H :    0.250798
  11 H :    0.294265
  12 H :    0.210813
  13 H :    0.296650
  14 H :    0.210813
  15 H :    0.296650
  16 H :    0.431434
  17 H :    0.129882
Sum of atomic charges:    0.0000000

LOEWDIN ATOMIC CHARGES
----------------------
   0 C :    0.582387
   1 C :    0.582387
   2 C :    0.264234
   3 C :    0.264234
   4 C :   -0.262651
   5 O :    0.828812
   6 H :   -0.174019
   7 H :   -0.176170
   8 H :   -0.169227
   9 H :   -0.174019
  10 H :   -0.169227
  11 H :   -0.176170
  12 H :   -0.146555
  13 H :   -0.150196
  14 H :   -0.146555
  15 H :   -0.150196
  16 H :   -0.142732
  17 H :   -0.484336

  Mayer bond orders larger than 0.100000
B(  0-C ,  2-C ) :   0.9037 B(  0-C ,  6-H ) :   0.9723 B(  0-C ,  7-H ) :   0.9400
B(  0-C ,  8-H ) :   0.9840 B(  1-C ,  3-C ) :   0.9037 B(  1-C ,  9-H ) :   0.9723
B(  1-C , 10-H ) :   0.9840 B(  1-C , 11-H ) :   0.9400 B(  2-C ,  4-C ) :   0.8321
B(  2-C ,  5-O ) :   0.1129 B(  2-C , 12-H ) :   0.9814 B(  2-C , 13-H ) :   0.9285
B(  3-C ,  4-C ) :   0.8321 B(  3-C ,  5-O ) :   0.1129 B(  3-C , 14-H ) :   0.9814
B(  3-C , 15-H ) :   0.9285 B(  4-C ,  5-O ) :   0.2720 B(  4-C , 16-H ) :   0.8615
B(  5-O , 17-H ) :   1.0371

MP2 TOTAL ENERGY:     -272.438356509 Eh
FINAL SINGLE POINT ENERGY      -272.438356508593

DIPOLE MOMENT
-------------
                                X             Y             Z
Electronic contribution:     -1.86621      -1.38725      -0.00000
Nuclear contribution   :      1.96219       2.06209      -0.00000
                        -----------------------------------------
Total Dipole Moment    :      0.09597       0.67484      -0.00000
                        -----------------------------------------
Magnitude (a.u.)       :      0.68163
Magnitude (Debye)      :      1.73255

Rotational constants in cm-1:     0.240174     0.062664     0.054644
Rotational constants in MHz :  7200.227171  1878.606778  1638.177020

                             ****ORCA TERMINATED NORMALLY****
TOTAL RUN TIME: 0 days 0 hours 5 minutes 1 seconds 472 msec
