                         Program Version 5.0.3 -  RELEASE  -
|  1> !ri-mp2 aug-cc-pvtz aug-cc-pvtz/c tightscf
|  2> %pal nprocs 16 end
|  3>
|  4> * xyz 0 1
|  5> C      1.129792   -1.107674    0.000000
|  6> C     -0.086067   -1.782624    0.000000
|  7> C     -1.216225    0.338498    0.000000
|  8> C      1.202373    0.281815    0.000000
|  9> C      0.000000    1.013650    0.000000
| 10> C     -1.265989   -1.051728    0.000000
| 11> C      2.538691    0.976753    0.000000
| 12> C      0.014913    2.519608    0.000000
| 13> O     -2.504718   -1.638916    0.000000
| 14> H      2.046577   -1.683971    0.000000
| 15> H     -0.110692   -2.865937    0.000000
| 16> H     -2.147731    0.888906    0.000000
| 17> H      2.663768    1.616923    0.876838
| 18> H      3.353135    0.253692    0.000000
| 19> H      2.663768    1.616923   -0.876838
| 20> H     -0.996299    2.922450    0.000000
| 21> H      0.534083    2.914310    0.876468
| 22> H      0.534083    2.914310   -0.876468
| 23> H     -2.407882   -2.596061    0.000000
| 24> *
| 25>
| 26>                          ****END OF INPUT****

CARTESIAN COORDINATES (ANGSTROEM)
---------------------------------
  C      1.129792   -1.107674    0.000000
  C     -0.086067   -1.782624    0.000000
  C     -1.216225    0.338498    0.000000
  C      1.202373    0.281815    0.000000
  C      0.000000    1.013650    0.000000
  C     -1.265989   -1.051728    0.000000
  C      2.538691    0.976753    0.000000
  C      0.014913    2.519608    0.000000
  O     -2.504718   -1.638916    0.000000
  H      2.046577   -1.683971    0.000000
  H     -0.110692   -2.865937    0.000000
  H     -2.147731    0.888906    0.000000
  H      2.663768    1.616923    0.876838
  H      3.353135    0.253692    0.000000
  H      2.663768    1.616923   -0.876838
  H     -0.996299    2.922450    0.000000
  H      0.534083    2.914310    0.876468
  H      0.534083    2.914310   -0.876468
  H     -2.407882   -2.596061    0.000000

 Total Charge           Charge          ....    0
 Multiplicity           Mult            ....    1
 Number of Electrons    NEL             ....   66
 Basis Dimension        Dim             ....  644

ORBITAL ENERGIES
----------------

  NO   OCC          E(Eh)            E(eV)
   0   2.0000     -20.586041      -560.1747
   1   2.0000     -11.295321      -307.3613
   2   2.0000     -11.241881      -305.9071
   3   2.0000     -11.233195      -305.6708
   4   2.0000     -11.227870      -305.5259
   5   2.0000     -11.225278      -305.4553
   6   2.0000     -11.222681      -305.3847
   7   2.0000     -11.220448      -305.3239
   8   2.0000     -11.219776      -305.3056
   9   2.0000      -1.399348       -38.0782
  10   2.0000      -1.154080       -31.4041
  11   2.0000      -1.046829       -28.4857
  12   2.0000      -1.032448       -28.0943
  13   2.0000      -0.951414       -25.8893
  14   2.0000      -0.913375       -24.8542
  15   2.0000      -0.824151       -22.4263
  16   2.0000      -0.800786       -21.7905
  17   2.0000      -0.711361       -19.3571
  18   2.0000      -0.673656       -18.3311
  19   2.0000      -0.640833       -17.4380
  20   2.0000      -0.607664       -16.5354
  21   2.0000      -0.597028       -16.2460
  22   2.0000      -0.578138       -15.7319
  23   2.0000      -0.576972       -15.7002
  24   2.0000      -0.565938       -15.4000
  25   2.0000      -0.550237       -14.9727
  26   2.0000      -0.539619       -14.6838
  27   2.0000      -0.528399       -14.3785
  28   2.0000      -0.494067       -13.4442
  29   2.0000      -0.479896       -13.0586
  30   2.0000      -0.463119       -12.6021
  31   2.0000      -0.331776        -9.0281
  32   2.0000      -0.302138        -8.2216
  33   0.0000       0.027402         0.7456
  34   0.0000       0.031081         0.8458
  35   0.0000       0.034101         0.9279
  36   0.0000       0.044993         1.2243
  37   0.0000       0.047169         1.2835

MULLIKEN ATOMIC CHARGES
-----------------------
   0 C :   -0.866722
   1 C :   -0.633435
   2 C :   -0.963383
   3 C :    0.811333
   4 C :    0.927071
   5 C :    0.998985
   6 C :   -0.981018
   7 C :   -1.028208
   8 O :   -0.806484
   9 H :    0.089130
  10 H :    0.514253
  11 H :    0.369771
  12 H :    0.249429
  13 H :    0.213907
  14 H :    0.249429
  15 H :    0.200168
  16 H :    0.251999
  17 H :    0.251999
  18 H :    0.151776
Sum of atomic charges:    0.0000000

LOEWDIN ATOMIC CHARGES
----------------------
   0 C :    0.205004
   1 C :    0.212649
   2 C :    0.229504
   3 C :   -0.101633
   4 C :   -0.102825
   5 C :   -0.374022
   6 C :    0.570098
   7 C :    0.581979
   8 O :    0.835468
   9 H :   -0.180132
  10 H :   -0.187523
  11 H :   -0.181554
  12 H :   -0.167730
  13 H :   -0.179735
  14 H :   -0.167730
  15 H :   -0.177621
  16 H :   -0.164772
  17 H :   -0.164772
  18 H :   -0.484649

  Mayer bond orders larger than 0.100000
B(  0-C ,  1-C ) :   1.0630 B(  0-C ,  2-C ) :  -0.1289 B(  0-C ,  3-C ) :   0.4758
B(  0-C ,  9-H ) :   1.3923 B(  1-C ,  2-C ) :   0.3104 B(  1-C ,  3-C ) :   0.1907
B(  1-C ,  5-C ) :   0.9653 B(  1-C ,  7-C ) :   0.1249 B(  1-C ,  8-O ) :  -0.1808
B(  1-C , 10-H ) :   0.6320 B(  2-C ,  3-C ) :   0.3617 B(  2-C ,  4-C ) :   0.4575
B(  2-C ,  5-C ) :   0.7964 B(  2-C ,  7-C ) :  -0.1577 B(  2-C ,  8-O ) :   0.1303
B(  2-C , 11-H ) :   0.8334 B(  3-C ,  4-C ) :   0.8972 B(  3-C ,  5-C ) :   0.1414
B(  3-C ,  6-C ) :   0.4113 B(  3-C ,  7-C ) :   0.1810 B(  3-C ,  9-H ) :  -0.1513
B(  3-C , 12-H ) :  -0.1007 B(  3-C , 14-H ) :  -0.1007 B(  4-C ,  6-C ) :   0.1580
B(  4-C ,  7-C ) :   0.4102 B(  5-C ,  8-O ) :   0.4601 B(  6-C , 12-H ) :   1.0382
B(  6-C , 13-H ) :   1.0533 B(  6-C , 14-H ) :   1.0382 B(  7-C , 15-H ) :   1.0606
B(  7-C , 16-H ) :   1.0341 B(  7-C , 17-H ) :   1.0341 B(  8-O , 18-H ) :   1.0686

MP2 TOTAL ENERGY:     -385.336112083 Eh
FINAL SINGLE POINT ENERGY      -385.336112083404

DIPOLE MOMENT
-------------
                                X             Y             Z
Electronic contribution:     -5.73273      -6.23287      -0.00000
Nuclear contribution   :      6.18240       6.04277       0.00000
                        -----------------------------------------
Total Dipole Moment    :      0.44967      -0.19010      -0.00000
                        -----------------------------------------
Magnitude (a.u.)       :      0.48820
Magnitude (Debye)      :      1.24091

Rotational constants in cm-1:     0.099858     0.043485     0.030635
Rotational constants in MHz :  2993.666179  1303.657450   918.401425

                             ****ORCA TERMINATED NORMALLY****
TOTAL RUN TIME: 0 days 0 hours 9 minutes 50 seconds 114 msec
