                         Program Version 5.0.3 -  RELEASE  -
|  1> !ri-mp2 aug-cc-pvtz aug-cc-pvtz/c tightscf
|  2> %pal nprocs 16 end
|  3>
|  4> * xyz 0 1
|  5> S      1.423113   -1.504035   -0.000003
|  6> S      1.033270    1.806919    0.000000
|  7> N     -0.098633   -0.682408    0.000000
|  8> N     -1.561189    0.904248    0.000002
|  9> C     -0.213029    0.685854    0.000000
| 10> C     -1.351292   -1.279776    0.000001
| 11> C     -2.265069   -0.285493    0.000003
| 12> H      2.055117   -0.283372   -0.000002
| 13> H     -1.946319    1.831522    0.000004
| 14> H     -1.478172   -2.345480    0.000001
| 15> H     -3.337664   -0.325200    0.000003
| 16> *
| 17>
| 18>                          ****END OF INPUT****

CARTESIAN COORDINATES (ANGSTROEM)
---------------------------------
  S      1.423113   -1.504035   -0.000003
  S      1.033270    1.806919    0.000000
  N     -0.098633   -0.682408    0.000000
  N     -1.561189    0.904248    0.000002
  C     -0.213029    0.685854    0.000000
  C     -1.351292   -1.279776    0.000001
  C     -2.265069   -0.285493    0.000003
  H      2.055117   -0.283372   -0.000002
  H     -1.946319    1.831522    0.000004
  H     -1.478172   -2.345480    0.000001
  H     -3.337664   -0.325200    0.000003

 Total Charge           Charge          ....    0
 Multiplicity           Mult            ....    1
 Number of Electrons    NEL             ....   68
 Basis Dimension        Dim             ....  422

ORBITAL ENERGIES
----------------

  NO   OCC          E(Eh)            E(eV)
   0   2.0000     -92.007460     -2503.6503
   1   2.0000     -91.898913     -2500.6966
   2   2.0000     -15.657426      -426.0602
   3   2.0000     -15.642825      -425.6629
   4   2.0000     -11.376460      -309.5692
   5   2.0000     -11.300138      -307.4924
   6   2.0000     -11.298232      -307.4405
   7   2.0000      -9.005179      -245.0434
   8   2.0000      -8.901876      -242.2324
   9   2.0000      -6.686537      -181.9499
  10   2.0000      -6.685056      -181.9096
  11   2.0000      -6.683748      -181.8740
  12   2.0000      -6.583534      -179.1471
  13   2.0000      -6.581336      -179.0873
  14   2.0000      -6.581046      -179.0794
  15   2.0000      -1.392694       -37.8971
  16   2.0000      -1.241689       -33.7881
  17   2.0000      -1.084609       -29.5137
  18   2.0000      -1.001190       -27.2438
  19   2.0000      -0.937361       -25.5069
  20   2.0000      -0.868534       -23.6340
  21   2.0000      -0.810416       -22.0525
  22   2.0000      -0.735223       -20.0064
  23   2.0000      -0.667274       -18.1574
  24   2.0000      -0.660517       -17.9736
  25   2.0000      -0.645096       -17.5540
  26   2.0000      -0.604196       -16.4410
  27   2.0000      -0.532552       -14.4915
  28   2.0000      -0.517152       -14.0724
  29   2.0000      -0.512263       -13.9394
  30   2.0000      -0.412486       -11.2243
  31   2.0000      -0.369957       -10.0670
  32   2.0000      -0.333172        -9.0661
  33   2.0000      -0.295548        -8.0423
  34   0.0000       0.019111         0.5200
  35   0.0000       0.030212         0.8221
  36   0.0000       0.041442         1.1277
  37   0.0000       0.049823         1.3557
  38   0.0000       0.067549         1.8381

MULLIKEN ATOMIC CHARGES
-----------------------
   0 S :   -0.272454
   1 S :   -0.637725
   2 N :    0.419869
   3 N :   -0.046752
   4 C :   -0.112406
   5 C :   -0.521758
   6 C :   -0.385677
   7 H :    0.219822
   8 H :    0.152315
   9 H :    0.627051
  10 H :    0.557716
Sum of atomic charges:    0.0000000

LOEWDIN ATOMIC CHARGES
----------------------
   0 S :    1.212332
   1 S :    0.830616
   2 N :   -0.267401
   3 N :    0.457015
   4 C :   -1.084238
   5 C :    0.037863
   6 C :    0.129275
   7 H :   -0.688697
   8 H :   -0.264398
   9 H :   -0.187092
  10 H :   -0.175276

  Mayer bond orders larger than 0.100000
B(  0-S ,  2-N ) :   0.8552 B(  0-S ,  7-H ) :   0.9281 B(  1-S ,  4-C ) :   1.4407
B(  1-S ,  7-H ) :   0.1348 B(  2-N ,  3-N ) :  -0.2076 B(  2-N ,  4-C ) :   1.1679
B(  2-N ,  5-C ) :   1.0125 B(  2-N ,  6-C ) :  -0.2191 B(  3-N ,  4-C ) :   1.1815
B(  3-N ,  5-C ) :  -0.1059 B(  3-N ,  6-C ) :   0.9640 B(  3-N ,  8-H ) :   1.1084
B(  4-C ,  6-C ) :  -0.1318 B(  5-C ,  6-C ) :   1.4923 B(  5-C ,  9-H ) :   0.6258
B(  6-C , 10-H ) :   0.7230

MP2 TOTAL ENERGY:    -1021.228079000 Eh
FINAL SINGLE POINT ENERGY     -1021.228078999595

DIPOLE MOMENT
-------------
                                X             Y             Z
Electronic contribution:      2.90676       0.15682      -0.00000
Nuclear contribution   :     -4.62980      -1.09218       0.00001
                        -----------------------------------------
Total Dipole Moment    :     -1.72304      -0.93535       0.00000
                        -----------------------------------------
Magnitude (a.u.)       :      1.96055
Magnitude (Debye)      :      4.98331

Rotational constants in cm-1:     0.073117     0.070566     0.035909
Rotational constants in MHz :  2192.006568  2115.502522  1076.537583

                             ****ORCA TERMINATED NORMALLY****
TOTAL RUN TIME: 0 days 0 hours 3 minutes 22 seconds 867 msec
