                         Program Version 5.0.3 -  RELEASE  -
|  1> !ri-mp2 aug-cc-pvtz aug-cc-pvtz/c tightscf
|  2> %pal nprocs 16 end
|  3> %maxcore 3800
|  4>
|  5> * xyz 0 1
|  6> O      1.270396   -1.072639   -0.506582
|  7> O      1.517293    1.629822    0.199626
|  8> O      2.683542   -0.799493   -0.331343
|  9> C      0.563240   -0.576995    0.629280
| 10> C      0.307919    0.934523    0.521011
| 11> C     -1.624769   -0.258153   -0.451572
| 12> C     -0.849525   -1.149198    0.553638
| 13> C     -0.801644    1.058787   -0.534497
| 14> C     -3.086772   -0.053090   -0.062299
| 15> H      1.309055    2.536080   -0.044132
| 16> H      2.700175    0.168020   -0.431915
| 17> H      1.109271   -0.857959    1.530822
| 18> H     -0.053565    1.281853    1.495981
| 19> H     -1.598532   -0.739344   -1.429450
| 20> H     -1.302471   -1.082953    1.545764
| 21> H     -0.834433   -2.200567    0.271677
| 22> H     -0.336755    1.157769   -1.515782
| 23> H     -1.419865    1.942579   -0.368709
| 24> H     -3.610629   -1.007454    0.018344
| 25> H     -3.169359    0.453398    0.902715
| 26> H     -3.613427    0.551813   -0.802280
| 27> *
| 28>
| 29>                          ****END OF INPUT****

CARTESIAN COORDINATES (ANGSTROEM)
---------------------------------
  O      1.270396   -1.072639   -0.506582
  O      1.517293    1.629822    0.199626
  O      2.683542   -0.799493   -0.331343
  C      0.563240   -0.576995    0.629280
  C      0.307919    0.934523    0.521011
  C     -1.624769   -0.258153   -0.451572
  C     -0.849525   -1.149198    0.553638
  C     -0.801644    1.058787   -0.534497
  C     -3.086772   -0.053090   -0.062299
  H      1.309055    2.536080   -0.044132
  H      2.700175    0.168020   -0.431915
  H      1.109271   -0.857959    1.530822
  H     -0.053565    1.281853    1.495981
  H     -1.598532   -0.739344   -1.429450
  H     -1.302471   -1.082953    1.545764
  H     -0.834433   -2.200567    0.271677
  H     -0.336755    1.157769   -1.515782
  H     -1.419865    1.942579   -0.368709
  H     -3.610629   -1.007454    0.018344
  H     -3.169359    0.453398    0.902715
  H     -3.613427    0.551813   -0.802280

 Total Charge           Charge          ....    0
 Multiplicity           Mult            ....    1
 Number of Electrons    NEL             ....   72
 Basis Dimension        Dim             ....  690

ORBITAL ENERGIES
----------------

  NO   OCC          E(Eh)            E(eV)
   0   2.0000     -20.608684      -560.7908
   1   2.0000     -20.601259      -560.5888
   2   2.0000     -20.579341      -559.9923
   3   2.0000     -11.291793      -307.2653
   4   2.0000     -11.282827      -307.0213
   5   2.0000     -11.235882      -305.7439
   6   2.0000     -11.227885      -305.5263
   7   2.0000     -11.227429      -305.5139
   8   2.0000     -11.220780      -305.3329
   9   2.0000      -1.457326       -39.6559
  10   2.0000      -1.378897       -37.5217
  11   2.0000      -1.219205       -33.1763
  12   2.0000      -1.115997       -30.3678
  13   2.0000      -1.004882       -27.3442
  14   2.0000      -0.970128       -26.3985
  15   2.0000      -0.902476       -24.5576
  16   2.0000      -0.791675       -21.5426
  17   2.0000      -0.781048       -21.2534
  18   2.0000      -0.725781       -19.7495
  19   2.0000      -0.698371       -19.0037
  20   2.0000      -0.659565       -17.9477
  21   2.0000      -0.653709       -17.7883
  22   2.0000      -0.624813       -17.0020
  23   2.0000      -0.619481       -16.8569
  24   2.0000      -0.575997       -15.6737
  25   2.0000      -0.568090       -15.4585
  26   2.0000      -0.554880       -15.0991
  27   2.0000      -0.542231       -14.7548
  28   2.0000      -0.535086       -14.5604
  29   2.0000      -0.520308       -14.1583
  30   2.0000      -0.482904       -13.1405
  31   2.0000      -0.468186       -12.7400
  32   2.0000      -0.463946       -12.6246
  33   2.0000      -0.461234       -12.5508
  34   2.0000      -0.444094       -12.0844
  35   2.0000      -0.428433       -11.6582
  36   0.0000       0.023982         0.6526
  37   0.0000       0.031246         0.8502
  38   0.0000       0.033177         0.9028
  39   0.0000       0.039923         1.0863
  40   0.0000       0.048625         1.3232

MULLIKEN ATOMIC CHARGES
-----------------------
   0 O :   -0.555575
   1 O :   -0.750976
   2 O :   -0.464211
   3 C :    0.222719
   4 C :    0.441053
   5 C :    0.144965
   6 C :   -0.687357
   7 C :   -0.751324
   8 C :   -0.961115
   9 H :    0.132321
  10 H :    0.298829
  11 H :    0.445490
  12 H :    0.226781
  13 H :    0.354965
  14 H :    0.202873
  15 H :    0.350128
  16 H :    0.230689
  17 H :    0.337336
  18 H :    0.228062
  19 H :    0.281100
  20 H :    0.273247
Sum of atomic charges:    0.0000000

LOEWDIN ATOMIC CHARGES
----------------------
   0 O :    0.372685
   1 O :    0.858578
   2 O :    0.599781
   3 C :   -0.272708
   4 C :   -0.213968
   5 C :    0.005528
   6 C :    0.310722
   7 C :    0.331386
   8 C :    0.591112
   9 H :   -0.461104
  10 H :   -0.660424
  11 H :   -0.140466
  12 H :   -0.127607
  13 H :   -0.134307
  14 H :   -0.143038
  15 H :   -0.136379
  16 H :   -0.144196
  17 H :   -0.146580
  18 H :   -0.160881
  19 H :   -0.164126
  20 H :   -0.164008

  Mayer bond orders larger than 0.100000
B(  0-O ,  2-O ) :   0.8610 B(  0-O ,  3-C ) :   0.4606 B(  0-O ,  4-C ) :   0.1022
B(  0-O ,  6-C ) :   0.1380 B(  1-O ,  3-C ) :   0.1012 B(  1-O ,  4-C ) :   0.2082
B(  1-O ,  7-C ) :   0.1359 B(  1-O ,  9-H ) :   1.0536 B(  2-O , 10-H ) :   0.8785
B(  3-C ,  4-C ) :   0.9363 B(  3-C ,  6-C ) :   1.0969 B(  3-C , 11-H ) :   0.8205
B(  4-C ,  7-C ) :   0.9306 B(  4-C , 12-H ) :   1.0760 B(  5-C ,  6-C ) :   0.9773
B(  5-C ,  7-C ) :   1.0424 B(  5-C ,  8-C ) :   0.6425 B(  5-C , 13-H ) :   0.8208
B(  6-C , 14-H ) :   1.0480 B(  6-C , 15-H ) :   0.8623 B(  7-C , 16-H ) :   0.9952
B(  7-C , 17-H ) :   0.8660 B(  8-C , 18-H ) :   1.0405 B(  8-C , 19-H ) :   0.9756
B(  8-C , 20-H ) :   0.9872

MP2 TOTAL ENERGY:     -460.627746832 Eh
FINAL SINGLE POINT ENERGY      -460.627746832049

DIPOLE MOMENT
-------------
                                X             Y             Z
Electronic contribution:      9.81412      -1.11349      -0.80951
Nuclear contribution   :    -10.98301       2.25038       1.18992
                        -----------------------------------------
Total Dipole Moment    :     -1.16890       1.13689       0.38041
                        -----------------------------------------
Magnitude (a.u.)       :      1.67438
Magnitude (Debye)      :      4.25594

Rotational constants in cm-1:     0.096173     0.038689     0.031425
Rotational constants in MHz :  2883.192244  1159.866105   942.085946

                             ****ORCA TERMINATED NORMALLY****
TOTAL RUN TIME: 0 days 0 hours 12 minutes 31 seconds 701 msec
