                         Program Version 5.0.3 -  RELEASE  -
|  1> !ri-mp2 aug-cc-pvtz aug-cc-pvtz/c tightscf
|  2> %pal nprocs 16 end
|  3>
|  4> * xyz 0 1
|  5> C     -0.901148    1.795527    0.122367
|  6> C      0.418569    1.454846   -0.142196
|  7> C     -1.883647    0.815844    0.200910
|  8> C     -0.208669   -0.860797   -0.256980
|  9> C      0.778487    0.118510   -0.333408
| 10> C     -1.530238   -0.516572    0.009051
| 11> C      2.984093   -0.577570    0.712281
| 12> C      2.217039   -0.266854   -0.580918
| 13> O     -2.444462   -1.534667    0.066317
| 14> H     -1.173015    2.832920    0.265293
| 15> H      1.172655    2.228454   -0.206139
| 16> H     -2.913718    1.083750    0.403866
| 17> H      0.034043   -1.904816   -0.407043
| 18> H      2.994645    0.286561    1.377704
| 19> H      4.017795   -0.850368    0.494569
| 20> H      2.521714   -1.405294    1.251253
| 21> H      2.251433   -1.139150   -1.236927
| 22> H      2.720909    0.543479   -1.111640
| 23> H     -3.317676   -1.175798    0.251885
| 24> *
| 25>
| 26>                          ****END OF INPUT****

CARTESIAN COORDINATES (ANGSTROEM)
---------------------------------
  C     -0.901148    1.795527    0.122367
  C      0.418569    1.454846   -0.142196
  C     -1.883647    0.815844    0.200910
  C     -0.208669   -0.860797   -0.256980
  C      0.778487    0.118510   -0.333408
  C     -1.530238   -0.516572    0.009051
  C      2.984093   -0.577570    0.712281
  C      2.217039   -0.266854   -0.580918
  O     -2.444462   -1.534667    0.066317
  H     -1.173015    2.832920    0.265293
  H      1.172655    2.228454   -0.206139
  H     -2.913718    1.083750    0.403866
  H      0.034043   -1.904816   -0.407043
  H      2.994645    0.286561    1.377704
  H      4.017795   -0.850368    0.494569
  H      2.521714   -1.405294    1.251253
  H      2.251433   -1.139150   -1.236927
  H      2.720909    0.543479   -1.111640
  H     -3.317676   -1.175798    0.251885

 Total Charge           Charge          ....    0
 Multiplicity           Mult            ....    1
 Number of Electrons    NEL             ....   66
 Basis Dimension        Dim             ....  644

ORBITAL ENERGIES
----------------

  NO   OCC          E(Eh)            E(eV)
   0   2.0000     -20.589259      -560.2622
   1   2.0000     -11.300928      -307.5139
   2   2.0000     -11.242831      -305.9330
   3   2.0000     -11.239237      -305.8352
   4   2.0000     -11.228070      -305.5313
   5   2.0000     -11.227869      -305.5259
   6   2.0000     -11.220972      -305.3382
   7   2.0000     -11.220176      -305.3165
   8   2.0000     -11.215938      -305.2012
   9   2.0000      -1.403139       -38.1814
  10   2.0000      -1.152620       -31.3644
  11   2.0000      -1.062615       -28.9152
  12   2.0000      -1.008206       -27.4347
  13   2.0000      -0.983150       -26.7529
  14   2.0000      -0.871841       -23.7240
  15   2.0000      -0.825020       -22.4499
  16   2.0000      -0.809857       -22.0373
  17   2.0000      -0.711058       -19.3489
  18   2.0000      -0.682817       -18.5804
  19   2.0000      -0.658329       -17.9140
  20   2.0000      -0.619376       -16.8541
  21   2.0000      -0.598378       -16.2827
  22   2.0000      -0.587834       -15.9958
  23   2.0000      -0.584428       -15.9031
  24   2.0000      -0.562443       -15.3049
  25   2.0000      -0.546942       -14.8831
  26   2.0000      -0.521506       -14.1909
  27   2.0000      -0.507811       -13.8183
  28   2.0000      -0.485765       -13.2183
  29   2.0000      -0.474654       -12.9160
  30   2.0000      -0.470071       -12.7913
  31   2.0000      -0.333334        -9.0705
  32   2.0000      -0.312646        -8.5075
  33   0.0000       0.026512         0.7214
  34   0.0000       0.031752         0.8640
  35   0.0000       0.035188         0.9575
  36   0.0000       0.043148         1.1741
  37   0.0000       0.046230         1.2580

MULLIKEN ATOMIC CHARGES
-----------------------
   0 C :   -0.537955
   1 C :   -0.957626
   2 C :   -0.392126
   3 C :   -1.070607
   4 C :    1.260594
   5 C :    0.791380
   6 C :   -0.915563
   7 C :   -0.440117
   8 O :   -0.780035
   9 H :    0.517503
  10 H :    0.230743
  11 H :    0.479603
  12 H :    0.327655
  13 H :    0.283320
  14 H :    0.291147
  15 H :    0.287123
  16 H :    0.240042
  17 H :    0.228869
  18 H :    0.156050
Sum of atomic charges:   -0.0000000

LOEWDIN ATOMIC CHARGES
----------------------
   0 C :    0.188956
   1 C :    0.210982
   2 C :    0.208554
   3 C :    0.231234
   4 C :   -0.124706
   5 C :   -0.372515
   6 C :    0.590135
   7 C :    0.260195
   8 O :    0.837839
   9 H :   -0.181371
  10 H :   -0.183104
  11 H :   -0.189169
  12 H :   -0.174594
  13 H :   -0.168807
  14 H :   -0.171254
  15 H :   -0.169065
  16 H :   -0.154158
  17 H :   -0.155636
  18 H :   -0.483516

  Mayer bond orders larger than 0.100000
B(  0-C ,  1-C ) :   1.2842 B(  0-C ,  2-C ) :   1.1431 B(  0-C ,  5-C ) :  -0.1402
B(  0-C ,  9-H ) :   0.6746 B(  1-C ,  4-C ) :   0.5526 B(  1-C ,  9-H ) :  -0.1056
B(  1-C , 10-H ) :   1.1479 B(  2-C ,  3-C ) :   0.2325 B(  2-C ,  5-C ) :   0.9877
B(  2-C ,  8-O ) :  -0.1865 B(  2-C , 11-H ) :   0.7183 B(  3-C ,  4-C ) :   0.5084
B(  3-C ,  5-C ) :   1.0838 B(  3-C ,  8-O ) :   0.1122 B(  3-C , 12-H ) :   0.9282
B(  4-C ,  7-C ) :   0.7404 B(  5-C ,  8-O ) :   0.5043 B(  6-C ,  7-C ) :   0.8471
B(  6-C , 13-H ) :   0.9518 B(  6-C , 14-H ) :   0.9430 B(  6-C , 15-H ) :   0.9462
B(  7-C , 16-H ) :   1.0006 B(  7-C , 17-H ) :   0.9985 B(  8-O , 18-H ) :   1.0597

MP2 TOTAL ENERGY:     -385.332146671 Eh
FINAL SINGLE POINT ENERGY      -385.332146671479

DIPOLE MOMENT
-------------
                                X             Y             Z
Electronic contribution:     -8.52353      -0.10211      -1.01229
Nuclear contribution   :      8.39114       0.48250       1.09971
                        -----------------------------------------
Total Dipole Moment    :     -0.13239       0.38039       0.08742
                        -----------------------------------------
Magnitude (a.u.)       :      0.41214
Magnitude (Debye)      :      1.04759

Rotational constants in cm-1:     0.098708     0.038433     0.029634
Rotational constants in MHz :  2959.205798  1152.178123   888.411332

                             ****ORCA TERMINATED NORMALLY****
TOTAL RUN TIME: 0 days 0 hours 9 minutes 53 seconds 272 msec
