                         Program Version 5.0.3 -  RELEASE  -
|  1> !ri-mp2 aug-cc-pvtz aug-cc-pvtz/c tightscf
|  2> %pal nprocs 16 end
|  3>
|  4> * xyz 0 1
|  5> O    -1.415386    1.150290     1.034869
|  6> O    -2.526884   -0.061738    -0.504591
|  7> N    -0.329637   -1.734260    -0.686231
|  8> N     2.142867   -1.152163     0.543205
|  9> N     1.836613    1.901711    -0.939641
| 10> C    -0.259663   -0.639128    -0.066281
| 11> C    -1.442454    0.263798     0.223360
| 12> C     1.089974   -0.157905     0.501868
| 13> C     1.523271    1.007131    -0.290019
| 14> H    -3.243142    0.541726    -0.256306
| 15> H    -1.276668   -1.925711    -1.010760
| 16> H     2.219932   -1.620473    -0.352294
| 17> H     1.916260   -1.862476     1.227909
| 18> H     0.906095    0.208124     1.514324
| 19> *
| 20>
| 21>                          ****END OF INPUT****

CARTESIAN COORDINATES (ANGSTROEM)
---------------------------------
  O     -1.415386    1.150290    1.034869
  O     -2.526884   -0.061738   -0.504591
  N     -0.329637   -1.734260   -0.686231
  N      2.142867   -1.152163    0.543205
  N      1.836613    1.901711   -0.939641
  C     -0.259663   -0.639128   -0.066281
  C     -1.442454    0.263798    0.223360
  C      1.089974   -0.157905    0.501868
  C      1.523271    1.007131   -0.290019
  H     -3.243142    0.541726   -0.256306
  H     -1.276668   -1.925711   -1.010760
  H      2.219932   -1.620473   -0.352294
  H      1.916260   -1.862476    1.227909
  H      0.906095    0.208124    1.514324

 Total Charge           Charge          ....    0
 Multiplicity           Mult            ....    1
 Number of Electrons    NEL             ....   66
 Basis Dimension        Dim             ....  529

ORBITAL ENERGIES
----------------

  NO   OCC          E(Eh)            E(eV)
   0   2.0000     -20.652257      -561.9765
   1   2.0000     -20.595019      -560.4189
   2   2.0000     -15.609902      -424.7670
   3   2.0000     -15.577678      -423.8902
   4   2.0000     -15.576595      -423.8607
   5   2.0000     -11.430496      -311.0396
   6   2.0000     -11.340933      -308.6025
   7   2.0000     -11.336531      -308.4827
   8   2.0000     -11.278929      -306.9153
   9   2.0000      -1.507745       -41.0278
  10   2.0000      -1.407403       -38.2974
  11   2.0000      -1.285194       -34.9719
  12   2.0000      -1.235137       -33.6098
  13   2.0000      -1.207780       -32.8654
  14   2.0000      -1.026946       -27.9446
  15   2.0000      -0.941983       -25.6327
  16   2.0000      -0.831910       -22.6374
  17   2.0000      -0.769530       -20.9400
  18   2.0000      -0.742935       -20.2163
  19   2.0000      -0.741464       -20.1763
  20   2.0000      -0.676806       -18.4168
  21   2.0000      -0.661641       -18.0042
  22   2.0000      -0.659191       -17.9375
  23   2.0000      -0.637712       -17.3530
  24   2.0000      -0.602978       -16.4079
  25   2.0000      -0.564526       -15.3615
  26   2.0000      -0.540276       -14.7017
  27   2.0000      -0.528473       -14.3805
  28   2.0000      -0.490973       -13.3600
  29   2.0000      -0.480918       -13.0864
  30   2.0000      -0.473693       -12.8898
  31   2.0000      -0.461326       -12.5533
  32   2.0000      -0.432754       -11.7758
  33   0.0000       0.018433         0.5016
  34   0.0000       0.028474         0.7748
  35   0.0000       0.037182         1.0118
  36   0.0000       0.047962         1.3051
  37   0.0000       0.052542         1.4297

MULLIKEN ATOMIC CHARGES
-----------------------
   0 O :   -0.773656
   1 O :   -0.427314
   2 N :   -0.810029
   3 N :   -0.668484
   4 N :   -0.655457
   5 C :    0.717401
   6 C :    0.674072
   7 C :    0.761650
   8 C :    0.225728
   9 H :    0.255889
  10 H :    0.131583
  11 H :    0.141777
  12 H :    0.103136
  13 H :    0.323705
Sum of atomic charges:    0.0000000

LOEWDIN ATOMIC CHARGES
----------------------
   0 O :    0.481081
   1 O :    0.841243
   2 N :    0.707339
   3 N :    0.848679
   4 N :    0.281184
   5 C :   -0.285057
   6 C :   -0.771447
   7 C :   -0.218691
   8 C :   -0.209431
   9 H :   -0.450640
  10 H :   -0.423524
  11 H :   -0.325969
  12 H :   -0.307267
  13 H :   -0.167501

  Mayer bond orders larger than 0.100000
B(  0-O ,  6-C ) :   1.4519 B(  1-O ,  6-C ) :   0.9553 B(  1-O ,  9-H ) :   0.9245
B(  2-N ,  5-C ) :   1.1390 B(  2-N , 10-H ) :   1.0386 B(  3-N ,  7-C ) :   0.4492
B(  3-N ,  8-C ) :   0.1008 B(  3-N , 11-H ) :   1.0002 B(  3-N , 12-H ) :   0.9860
B(  4-N ,  7-C ) :   0.1189 B(  4-N ,  8-C ) :   2.1395 B(  5-C ,  6-C ) :   0.6871
B(  5-C ,  7-C ) :   0.8437 B(  5-C ,  8-C ) :   0.3541 B(  7-C ,  8-C ) :   0.5776
B(  7-C , 13-H ) :   0.8881

MP2 TOTAL ENERGY:     -469.332933450 Eh
FINAL SINGLE POINT ENERGY      -469.332933449875

DIPOLE MOMENT
-------------
                                X             Y             Z
Electronic contribution:     -2.03166       3.09582      -0.64237
Nuclear contribution   :      0.46982      -4.53225       1.09700
                        -----------------------------------------
Total Dipole Moment    :     -1.56184      -1.43643       0.45463
                        -----------------------------------------
Magnitude (a.u.)       :      2.17011
Magnitude (Debye)      :      5.51598

Rotational constants in cm-1:     0.078551     0.043089     0.033854
Rotational constants in MHz :  2354.893922  1291.765211  1014.916297

                             ****ORCA TERMINATED NORMALLY****
TOTAL RUN TIME: 0 days 0 hours 5 minutes 8 seconds 661 msec
