                         Program Version 5.0.3 -  RELEASE  -
|  1> !ri-mp2 aug-cc-pvtz aug-cc-pvtz/c tightscf
|  2> %pal nprocs 16 end
|  3>
|  4> * xyz 0 1
|  5> C     -0.533337    1.799111    0.003615
|  6> C     -1.705095    1.064563   -0.002894
|  7> C      0.717403    1.184420    0.004395
|  8> C     -0.402266   -0.962277   -0.006106
|  9> C     -1.646552   -0.337109   -0.007512
| 10> C      0.770726   -0.209050   -0.000830
| 11> C      3.162146   -0.235899    0.003261
| 12> N     -2.816974   -1.091799   -0.070750
| 13> O      1.927453   -0.933333    0.000800
| 14> H     -0.586702    2.879891    0.008420
| 15> H     -2.664991    1.564249   -0.010323
| 16> H      1.613061    1.784526    0.009583
| 17> H     -0.323439   -2.041438   -0.015180
| 18> H      3.268427    0.385502    0.896029
| 19> H      3.269501    0.389402   -0.886596
| 20> H      3.936497   -0.998414    0.002060
| 21> H     -3.647664   -0.634953    0.267787
| 22> H     -2.743642   -2.042069    0.253499
| 23> *
| 24>
| 25>                          ****END OF INPUT****

CARTESIAN COORDINATES (ANGSTROEM)
---------------------------------
  C     -0.533337    1.799111    0.003615
  C     -1.705095    1.064563   -0.002894
  C      0.717403    1.184420    0.004395
  C     -0.402266   -0.962277   -0.006106
  C     -1.646552   -0.337109   -0.007512
  C      0.770726   -0.209050   -0.000830
  C      3.162146   -0.235899    0.003261
  N     -2.816974   -1.091799   -0.070750
  O      1.927453   -0.933333    0.000800
  H     -0.586702    2.879891    0.008420
  H     -2.664991    1.564249   -0.010323
  H      1.613061    1.784526    0.009583
  H     -0.323439   -2.041438   -0.015180
  H      3.268427    0.385502    0.896029
  H      3.269501    0.389402   -0.886596
  H      3.936497   -0.998414    0.002060
  H     -3.647664   -0.634953    0.267787
  H     -2.743642   -2.042069    0.253499

 Total Charge           Charge          ....    0
 Multiplicity           Mult            ....    1
 Number of Electrons    NEL             ....   66
 Basis Dimension        Dim             ....  621

ORBITAL ENERGIES
----------------

  NO   OCC          E(Eh)            E(eV)
   0   2.0000     -20.581294      -560.0455
   1   2.0000     -15.564321      -423.5267
   2   2.0000     -11.298368      -307.4442
   3   2.0000     -11.280328      -306.9533
   4   2.0000     -11.279764      -306.9380
   5   2.0000     -11.237180      -305.7792
   6   2.0000     -11.213395      -305.1320
   7   2.0000     -11.213294      -305.1293
   8   2.0000     -11.211347      -305.0763
   9   2.0000      -1.405142       -38.2359
  10   2.0000      -1.224067       -33.3086
  11   2.0000      -1.123684       -30.5770
  12   2.0000      -1.018434       -27.7130
  13   2.0000      -0.986786       -26.8518
  14   2.0000      -0.938277       -25.5318
  15   2.0000      -0.831375       -22.6229
  16   2.0000      -0.803072       -21.8527
  17   2.0000      -0.717597       -19.5268
  18   2.0000      -0.698428       -19.0052
  19   2.0000      -0.662279       -18.0215
  20   2.0000      -0.651067       -17.7164
  21   2.0000      -0.637887       -17.3578
  22   2.0000      -0.633980       -17.2515
  23   2.0000      -0.585992       -15.9456
  24   2.0000      -0.567080       -15.4310
  25   2.0000      -0.540142       -14.6980
  26   2.0000      -0.525985       -14.3128
  27   2.0000      -0.516025       -14.0417
  28   2.0000      -0.495816       -13.4918
  29   2.0000      -0.481286       -13.0965
  30   2.0000      -0.432488       -11.7686
  31   2.0000      -0.317669        -8.6442
  32   2.0000      -0.293692        -7.9918
  33   0.0000       0.027662         0.7527
  34   0.0000       0.031016         0.8440
  35   0.0000       0.034220         0.9312
  36   0.0000       0.044372         1.2074
  37   0.0000       0.047743         1.2992

MULLIKEN ATOMIC CHARGES
-----------------------
   0 C :   -0.398260
   1 C :   -0.822927
   2 C :   -0.472469
   3 C :   -1.124351
   4 C :    1.317633
   5 C :    1.047720
   6 C :   -0.871749
   7 N :   -0.773464
   8 O :   -0.727848
   9 H :    0.402279
  10 H :    0.452771
  11 H :    0.369058
  12 H :    0.427065
  13 H :    0.345033
  14 H :    0.347016
  15 H :    0.362067
  16 H :    0.063068
  17 H :    0.057358
Sum of atomic charges:   -0.0000000

LOEWDIN ATOMIC CHARGES
----------------------
   0 C :    0.178223
   1 C :    0.209572
   2 C :    0.197158
   3 C :    0.226645
   4 C :   -0.256117
   5 C :   -0.394365
   6 C :    0.338961
   7 N :    0.853204
   8 O :    0.574154
   9 H :   -0.179735
  10 H :   -0.191577
  11 H :   -0.217406
  12 H :   -0.184583
  13 H :   -0.175309
  14 H :   -0.175090
  15 H :   -0.182372
  16 H :   -0.311370
  17 H :   -0.309993

  Mayer bond orders larger than 0.100000
B(  0-C ,  1-C ) :   1.1579 B(  0-C ,  2-C ) :   0.9393 B(  0-C ,  3-C ) :  -0.1459
B(  0-C ,  4-C ) :  -0.1429 B(  0-C ,  9-H ) :   0.8639 B(  1-C ,  2-C ) :   0.3564
B(  1-C ,  3-C ) :   0.5762 B(  1-C ,  4-C ) :   0.6453 B(  1-C ,  5-C ) :  -0.1445
B(  1-C ,  7-N ) :  -0.1313 B(  1-C , 10-H ) :   0.6897 B(  2-C ,  3-C ) :   0.5050
B(  2-C ,  4-C ) :  -0.1469 B(  2-C ,  5-C ) :   0.9604 B(  2-C ,  8-O ) :  -0.3431
B(  2-C ,  9-H ) :  -0.1178 B(  2-C , 11-H ) :   0.9040 B(  3-C ,  4-C ) :   0.6309
B(  3-C ,  5-C ) :   0.4460 B(  3-C ,  7-N ) :  -0.1249 B(  3-C ,  8-O ) :   0.1420
B(  3-C , 12-H ) :   0.6931 B(  4-C ,  7-N ) :   0.5825 B(  5-C ,  8-O ) :   0.6040
B(  6-C ,  8-O ) :   0.9763 B(  6-C , 13-H ) :   0.8901 B(  6-C , 14-H ) :   0.8902
B(  6-C , 15-H ) :   0.9241 B(  7-N , 16-H ) :   1.1200 B(  7-N , 17-H ) :   1.1173

MP2 TOTAL ENERGY:     -401.355213367 Eh
FINAL SINGLE POINT ENERGY      -401.355213366759

DIPOLE MOMENT
-------------
                                X             Y             Z
Electronic contribution:     -2.16429      -1.11661      -0.15646
Nuclear contribution   :      2.14873       1.27377       0.52828
                        -----------------------------------------
Total Dipole Moment    :     -0.01556       0.15716       0.37182
                        -----------------------------------------
Magnitude (a.u.)       :      0.40397
Magnitude (Debye)      :      1.02681

Rotational constants in cm-1:     0.120808     0.037707     0.028915
Rotational constants in MHz :  3621.734718  1130.422488   866.843138

                             ****ORCA TERMINATED NORMALLY****
TOTAL RUN TIME: 0 days 0 hours 7 minutes 47 seconds 753 msec
