                         Program Version 5.0.3 -  RELEASE  -
|  1> !ri-mp2 aug-cc-pvtz aug-cc-pvtz/c tightscf
|  2> %pal nprocs 16 end
|  3>
|  4> * xyz 0 1
|  5> F      1.398463    1.484940   -0.000003
|  6> F      1.398463   -1.484940   -0.000003
|  7> O     -1.779157    0.000000    0.000004
|  8> C      0.314030    0.712057    0.000000
|  9> C      0.314030   -0.712057    0.000000
| 10> C     -0.981873    1.104503    0.000002
| 11> C     -0.981873   -1.104503    0.000002
| 12> H     -1.462488    2.064029    0.000004
| 13> H     -1.462488   -2.064029    0.000003
| 14> *
| 15>
| 16>                          ****END OF INPUT****

CARTESIAN COORDINATES (ANGSTROEM)
---------------------------------
  F      1.398463    1.484940   -0.000003
  F      1.398463   -1.484940   -0.000003
  O     -1.779157    0.000000    0.000004
  C      0.314030    0.712057    0.000000
  C      0.314030   -0.712057    0.000000
  C     -0.981873    1.104503    0.000002
  C     -0.981873   -1.104503    0.000002
  H     -1.462488    2.064029    0.000004
  H     -1.462488   -2.064029    0.000003

 Total Charge           Charge          ....    0
 Multiplicity           Mult            ....    1
 Number of Electrons    NEL             ....   52
 Basis Dimension        Dim             ....  368

ORBITAL ENERGIES
----------------

  NO   OCC          E(Eh)            E(eV)
   0   2.0000     -26.335711      -716.6311
   1   2.0000     -26.335710      -716.6311
   2   2.0000     -20.650417      -561.9264
   3   2.0000     -11.343386      -308.6692
   4   2.0000     -11.342382      -308.6419
   5   2.0000     -11.312649      -307.8328
   6   2.0000     -11.312605      -307.8316
   7   2.0000      -1.656140       -45.0659
   8   2.0000      -1.647614       -44.8339
   9   2.0000      -1.484741       -40.4019
  10   2.0000      -1.116442       -30.3799
  11   2.0000      -1.038177       -28.2502
  12   2.0000      -0.857305       -23.3285
  13   2.0000      -0.855103       -23.2685
  14   2.0000      -0.797796       -21.7091
  15   2.0000      -0.735373       -20.0105
  16   2.0000      -0.733180       -19.9509
  17   2.0000      -0.726083       -19.7577
  18   2.0000      -0.707440       -19.2504
  19   2.0000      -0.668609       -18.1938
  20   2.0000      -0.652477       -17.7548
  21   2.0000      -0.637691       -17.3525
  22   2.0000      -0.634981       -17.2787
  23   2.0000      -0.543631       -14.7929
  24   2.0000      -0.413469       -11.2511
  25   2.0000      -0.346375        -9.4253
  26   0.0000       0.028466         0.7746
  27   0.0000       0.033181         0.9029
  28   0.0000       0.057510         1.5649
  29   0.0000       0.070072         1.9068
  30   0.0000       0.074375         2.0238

MULLIKEN ATOMIC CHARGES
-----------------------
   0 F :   -0.396380
   1 F :   -0.396380
   2 O :   -0.317087
   3 C :    0.490031
   4 C :    0.490031
   5 C :   -0.632317
   6 C :   -0.632317
   7 H :    0.697210
   8 H :    0.697210
Sum of atomic charges:    0.0000000

LOEWDIN ATOMIC CHARGES
----------------------
   0 F :    0.500670
   1 F :    0.500670
   2 O :    0.538487
   3 C :   -0.549654
   4 C :   -0.549654
   5 C :   -0.029204
   6 C :   -0.029204
   7 H :   -0.191055
   8 H :   -0.191055

  Mayer bond orders larger than 0.100000
B(  0-F ,  3-C ) :   0.7038 B(  1-F ,  4-C ) :   0.7038 B(  2-O ,  5-C ) :   1.0656
B(  2-O ,  6-C ) :   1.0656 B(  3-C ,  4-C ) :   1.1537 B(  3-C ,  5-C ) :   1.4084
B(  4-C ,  6-C ) :   1.4084 B(  5-C ,  7-H ) :   0.4244 B(  6-C ,  8-H ) :   0.4244

MP2 TOTAL ENERGY:     -427.841454752 Eh
FINAL SINGLE POINT ENERGY      -427.841454751891

DIPOLE MOMENT
-------------
                                X             Y             Z
Electronic contribution:      4.66128       0.00000      -0.00001
Nuclear contribution   :     -5.36398       0.00000       0.00001
                        -----------------------------------------
Total Dipole Moment    :     -0.70270       0.00000       0.00000
                        -----------------------------------------
Magnitude (a.u.)       :      0.70270
Magnitude (Debye)      :      1.78612

Rotational constants in cm-1:     0.125938     0.109124     0.058465
Rotational constants in MHz :  3775.534807  3271.449952  1752.731641

                             ****ORCA TERMINATED NORMALLY****
TOTAL RUN TIME: 0 days 0 hours 1 minutes 51 seconds 304 msec
