                         Program Version 5.0.3 -  RELEASE  -
|  1> !ri-mp2 aug-cc-pvtz aug-cc-pvtz/c tightscf
|  2> %pal nprocs 16 end
|  3>
|  4> * xyz 0 1
|  5> C      1.596556   -1.266774   -0.239032
|  6> C      1.596587    1.262126   -0.295667
|  7> C     -0.382487    0.015965    0.749058
|  8> C     -1.297520   -0.031192   -0.471402
|  9> C      1.132440    0.013943    0.463905
| 10> O     -2.679318   -0.078760   -0.109803
| 11> H      2.685123   -1.295615   -0.309213
| 12> H      1.204663   -1.335770   -1.255520
| 13> H      1.274126   -2.157267    0.303519
| 14> H      1.204440    1.286519   -1.313980
| 15> H      2.685176    1.287631   -0.367323
| 16> H      1.275953    2.176485    0.207423
| 17> H     -0.625987    0.914555    1.327581
| 18> H     -0.629303   -0.837820    1.385322
| 19> H     -1.111212    0.820023   -1.133951
| 20> H     -1.127626   -0.938783   -1.049056
| 21> H      1.619002    0.036154    1.444159
| 22> H     -2.893279    0.709561    0.398292
| 23> *
| 24>
| 25>                          ****END OF INPUT****

CARTESIAN COORDINATES (ANGSTROEM)
---------------------------------
  C      1.596556   -1.266774   -0.239032
  C      1.596587    1.262126   -0.295667
  C     -0.382487    0.015965    0.749058
  C     -1.297520   -0.031192   -0.471402
  C      1.132440    0.013943    0.463905
  O     -2.679318   -0.078760   -0.109803
  H      2.685123   -1.295615   -0.309213
  H      1.204663   -1.335770   -1.255520
  H      1.274126   -2.157267    0.303519
  H      1.204440    1.286519   -1.313980
  H      2.685176    1.287631   -0.367323
  H      1.275953    2.176485    0.207423
  H     -0.625987    0.914555    1.327581
  H     -0.629303   -0.837820    1.385322
  H     -1.111212    0.820023   -1.133951
  H     -1.127626   -0.938783   -1.049056
  H      1.619002    0.036154    1.444159
  H     -2.893279    0.709561    0.398292

 Total Charge           Charge          ....    0
 Multiplicity           Mult            ....    1
 Number of Electrons    NEL             ....   50
 Basis Dimension        Dim             ....  552

ORBITAL ENERGIES
----------------

  NO   OCC          E(Eh)            E(eV)
   0   2.0000     -20.552951      -559.2742
   1   2.0000     -11.270180      -306.6772
   2   2.0000     -11.231570      -305.6265
   3   2.0000     -11.219707      -305.3038
   4   2.0000     -11.214502      -305.1621
   5   2.0000     -11.213320      -305.1299
   6   2.0000      -1.352070       -36.7917
   7   2.0000      -1.092325       -29.7237
   8   2.0000      -0.980880       -26.6911
   9   2.0000      -0.933055       -25.3897
  10   2.0000      -0.865090       -23.5403
  11   2.0000      -0.762707       -20.7543
  12   2.0000      -0.685893       -18.6641
  13   2.0000      -0.639969       -17.4144
  14   2.0000      -0.611756       -16.6467
  15   2.0000      -0.604380       -16.4460
  16   2.0000      -0.571221       -15.5437
  17   2.0000      -0.565694       -15.3933
  18   2.0000      -0.539139       -14.6707
  19   2.0000      -0.519581       -14.1385
  20   2.0000      -0.498241       -13.5578
  21   2.0000      -0.475105       -12.9283
  22   2.0000      -0.463124       -12.6023
  23   2.0000      -0.459451       -12.5023
  24   2.0000      -0.427869       -11.6429
  25   0.0000       0.027704         0.7539
  26   0.0000       0.034477         0.9382
  27   0.0000       0.036556         0.9947
  28   0.0000       0.039836         1.0840
  29   0.0000       0.052796         1.4366

MULLIKEN ATOMIC CHARGES
-----------------------
   0 C :   -1.050328
   1 C :   -1.041101
   2 C :   -0.514242
   3 C :   -0.124916
   4 C :    0.245230
   5 O :   -0.676294
   6 H :    0.250489
   7 H :    0.287354
   8 H :    0.264935
   9 H :    0.293368
  10 H :    0.255183
  11 H :    0.255391
  12 H :    0.257862
  13 H :    0.218158
  14 H :    0.231985
  15 H :    0.305091
  16 H :    0.372982
  17 H :    0.168853
Sum of atomic charges:   -0.0000000

LOEWDIN ATOMIC CHARGES
----------------------
   0 C :    0.583436
   1 C :    0.582656
   2 C :    0.285397
   3 C :    0.040406
   4 C :   -0.047955
   5 O :    0.809710
   6 H :   -0.164313
   7 H :   -0.170542
   8 H :   -0.160861
   9 H :   -0.171667
  10 H :   -0.164454
  11 H :   -0.162398
  12 H :   -0.149200
  13 H :   -0.145835
  14 H :   -0.158789
  15 H :   -0.168576
  16 H :   -0.137124
  17 H :   -0.499891

  Mayer bond orders larger than 0.100000
B(  0-C ,  1-C ) :   0.1578 B(  0-C ,  4-C ) :   0.7399 B(  0-C ,  6-H ) :   1.0072
B(  0-C ,  7-H ) :   0.9577 B(  0-C ,  8-H ) :   0.9804 B(  1-C ,  4-C ) :   0.7349
B(  1-C ,  9-H ) :   0.9546 B(  1-C , 10-H ) :   1.0041 B(  1-C , 11-H ) :   0.9865
B(  2-C ,  3-C ) :   0.9298 B(  2-C ,  4-C ) :   0.8920 B(  2-C , 12-H ) :   0.9490
B(  2-C , 13-H ) :   0.9526 B(  3-C ,  5-O ) :   0.6030 B(  3-C , 14-H ) :   0.9981
B(  3-C , 15-H ) :   0.9262 B(  4-C , 16-H ) :   0.8215 B(  5-O , 17-H ) :   0.9948

MP2 TOTAL ENERGY:     -272.432658913 Eh
FINAL SINGLE POINT ENERGY      -272.432658912642

DIPOLE MOMENT
-------------
                                X             Y             Z
Electronic contribution:     -5.30245      -0.24047       0.60891
Nuclear contribution   :      5.87906       0.70780      -0.38827
                        -----------------------------------------
Total Dipole Moment    :      0.57662       0.46733       0.22065
                        -----------------------------------------
Magnitude (a.u.)       :      0.77432
Magnitude (Debye)      :      1.96817

Rotational constants in cm-1:     0.199748     0.061461     0.054959
Rotational constants in MHz :  5988.285375  1842.567434  1647.631648

                             ****ORCA TERMINATED NORMALLY****
TOTAL RUN TIME: 0 days 0 hours 4 minutes 56 seconds 561 msec
