                         Program Version 5.0.3 -  RELEASE  -
|  1> !ri-mp2 aug-cc-pvtz aug-cc-pvtz/c tightscf
|  2> %pal nprocs 16 end
|  3>
|  4> * xyz 0 1
|  5> Cl    -1.455409   -1.648364    0.000000
|  6> Cl    -1.486903    1.583880    0.000000
|  7> N      1.107307    1.406825    0.000000
|  8> N      2.295689    0.818349    0.000000
|  9> C     -0.000224   -0.713003    0.000000
| 10> C      1.231764   -1.327063    0.000000
| 11> C      0.000000    0.689684    0.000000
| 12> C      2.356394   -0.507545    0.000000
| 13> H      1.317692   -2.403602    0.000000
| 14> H      3.353030   -0.928842    0.000000
| 15> *
| 16>
| 17>                          ****END OF INPUT****

CARTESIAN COORDINATES (ANGSTROEM)
---------------------------------
  Cl    -1.455409   -1.648364    0.000000
  Cl    -1.486903    1.583880    0.000000
  N      1.107307    1.406825    0.000000
  N      2.295689    0.818349    0.000000
  C     -0.000224   -0.713003    0.000000
  C      1.231764   -1.327063    0.000000
  C      0.000000    0.689684    0.000000
  C      2.356394   -0.507545    0.000000
  H      1.317692   -2.403602    0.000000
  H      3.353030   -0.928842    0.000000

 Total Charge           Charge          ....    0
 Multiplicity           Mult            ....    1
 Number of Electrons    NEL             ....   74
 Basis Dimension        Dim             ....  422

ORBITAL ENERGIES
----------------

  NO   OCC          E(Eh)            E(eV)
   0   2.0000    -104.878655     -2853.8933
   1   2.0000    -104.863348     -2853.4768
   2   2.0000     -15.637976      -425.5309
   3   2.0000     -15.636088      -425.4796
   4   2.0000     -11.368275      -309.3465
   5   2.0000     -11.355781      -309.0065
   6   2.0000     -11.307054      -307.6806
   7   2.0000     -11.296942      -307.4054
   8   2.0000     -10.602188      -288.5002
   9   2.0000     -10.587208      -288.0926
  10   2.0000      -8.069097      -219.5713
  11   2.0000      -8.067034      -219.5152
  12   2.0000      -8.066987      -219.5139
  13   2.0000      -8.054103      -219.1633
  14   2.0000      -8.052047      -219.1073
  15   2.0000      -8.051998      -219.1060
  16   2.0000      -1.383229       -37.6396
  17   2.0000      -1.220182       -33.2028
  18   2.0000      -1.181127       -32.1401
  19   2.0000      -1.109615       -30.1942
  20   2.0000      -1.076718       -29.2990
  21   2.0000      -0.918707       -24.9993
  22   2.0000      -0.894453       -24.3393
  23   2.0000      -0.749089       -20.3837
  24   2.0000      -0.726471       -19.7683
  25   2.0000      -0.666576       -18.1385
  26   2.0000      -0.630704       -17.1623
  27   2.0000      -0.617188       -16.7945
  28   2.0000      -0.608701       -16.5636
  29   2.0000      -0.532860       -14.4999
  30   2.0000      -0.522718       -14.2239
  31   2.0000      -0.508944       -13.8491
  32   2.0000      -0.498650       -13.5689
  33   2.0000      -0.465684       -12.6719
  34   2.0000      -0.431784       -11.7494
  35   2.0000      -0.414593       -11.2816
  36   2.0000      -0.386040       -10.5047
  37   0.0000       0.022728         0.6185
  38   0.0000       0.037447         1.0190
  39   0.0000       0.048659         1.3241
  40   0.0000       0.056913         1.5487
  41   0.0000       0.073286         1.9942

MULLIKEN ATOMIC CHARGES
-----------------------
   0 Cl:   -0.378110
   1 Cl:   -0.292573
   2 N :   -0.356506
   3 N :   -0.403024
   4 C :    0.987657
   5 C :   -0.706483
   6 C :    0.156878
   7 C :   -0.165335
   8 H :    0.489083
   9 H :    0.668414
Sum of atomic charges:   -0.0000000

LOEWDIN ATOMIC CHARGES
----------------------
   0 Cl:    0.997475
   1 Cl:    0.960591
   2 N :    0.100036
   3 N :    0.193087
   4 C :   -0.880213
   5 C :    0.097141
   6 C :   -1.075659
   7 C :   -0.004317
   8 H :   -0.193143
   9 H :   -0.194998

  Mayer bond orders larger than 0.100000
B(  0-Cl,  4-C ) :   0.5745 B(  0-Cl,  6-C ) :   0.1425 B(  1-Cl,  6-C ) :   0.6490
B(  2-N ,  3-N ) :   0.2042 B(  2-N ,  6-C ) :   1.2785 B(  3-N ,  7-C ) :   1.2667
B(  3-N ,  9-H ) :  -0.1187 B(  4-C ,  5-C ) :   1.1893 B(  4-C ,  6-C ) :   0.8987
B(  5-C ,  6-C ) :   0.3529 B(  5-C ,  7-C ) :   1.0812 B(  5-C ,  8-H ) :   0.8311
B(  7-C ,  9-H ) :   0.4724

MP2 TOTAL ENERGY:    -1182.019828014 Eh
FINAL SINGLE POINT ENERGY     -1182.019828013974

DIPOLE MOMENT
-------------
                                X             Y             Z
Electronic contribution:     -8.12421       1.49535      -0.00000
Nuclear contribution   :      8.30257      -3.01046       0.00000
                        -----------------------------------------
Total Dipole Moment    :      0.17836      -1.51510      -0.00000
                        -----------------------------------------
Magnitude (a.u.)       :      1.52557
Magnitude (Debye)      :      3.87768

Rotational constants in cm-1:     0.063881     0.049131     0.027772
Rotational constants in MHz :  1915.097784  1472.908479   832.573362

                             ****ORCA TERMINATED NORMALLY****
TOTAL RUN TIME: 0 days 0 hours 2 minutes 59 seconds 743 msec
