                         Program Version 5.0.3 -  RELEASE  -
|  1> !ri-mp2 aug-cc-pvtz aug-cc-pvtz/c tightscf
|  2> %pal nprocs 16 end
|  3>
|  4> * xyz 0 1
|  5> N      1.003702   -1.321515   -0.000044
|  6> C     -0.274008   -1.255389    0.000230
|  7> C     -1.057493    0.010593    0.000105
|  8> C     -0.250299    1.293437    0.000138
|  9> C      1.227716    1.089202    0.000005
| 10> C      1.758426   -0.135993   -0.000177
| 11> O     -2.271435   -0.003688   -0.000258
| 12> H     -0.853456   -2.175087    0.000425
| 13> H     -0.562854    1.887548   -0.865857
| 14> H      1.870338    1.960254    0.000050
| 15> H      2.828067   -0.291154   -0.000357
| 16> H     -0.562581    1.887450    0.866314
| 17> *
| 18>
| 19>                          ****END OF INPUT****

CARTESIAN COORDINATES (ANGSTROEM)
---------------------------------
  N      1.003702   -1.321515   -0.000044
  C     -0.274008   -1.255389    0.000230
  C     -1.057493    0.010593    0.000105
  C     -0.250299    1.293437    0.000138
  C      1.227716    1.089202    0.000005
  C      1.758426   -0.135993   -0.000177
  O     -2.271435   -0.003688   -0.000258
  H     -0.853456   -2.175087    0.000425
  H     -0.562854    1.887548   -0.865857
  H      1.870338    1.960254    0.000050
  H      2.828067   -0.291154   -0.000357
  H     -0.562581    1.887450    0.866314

 Total Charge           Charge          ....    0
 Multiplicity           Mult            ....    1
 Number of Electrons    NEL             ....   50
 Basis Dimension        Dim             ....  437

ORBITAL ENERGIES
----------------

  NO   OCC          E(Eh)            E(eV)
   0   2.0000     -20.568126      -559.6872
   1   2.0000     -15.599787      -424.4918
   2   2.0000     -11.351756      -308.8970
   3   2.0000     -11.298322      -307.4430
   4   2.0000     -11.276341      -306.8448
   5   2.0000     -11.263826      -306.5043
   6   2.0000     -11.261354      -306.4370
   7   2.0000      -1.407058       -38.2880
   8   2.0000      -1.273846       -34.6631
   9   2.0000      -1.094879       -29.7932
  10   2.0000      -1.019526       -27.7427
  11   2.0000      -0.895864       -24.3777
  12   2.0000      -0.840850       -22.8807
  13   2.0000      -0.726208       -19.7611
  14   2.0000      -0.695089       -18.9143
  15   2.0000      -0.674821       -18.3628
  16   2.0000      -0.638123       -17.3642
  17   2.0000      -0.623529       -16.9671
  18   2.0000      -0.590139       -16.0585
  19   2.0000      -0.546564       -14.8728
  20   2.0000      -0.533605       -14.5201
  21   2.0000      -0.505772       -13.7628
  22   2.0000      -0.489197       -13.3117
  23   2.0000      -0.408534       -11.1168
  24   2.0000      -0.355045        -9.6613
  25   0.0000       0.023629         0.6430
  26   0.0000       0.035752         0.9728
  27   0.0000       0.037594         1.0230
  28   0.0000       0.038596         1.0502
  29   0.0000       0.042164         1.1474

MULLIKEN ATOMIC CHARGES
-----------------------
   0 N :   -0.394802
   1 C :   -0.591230
   2 C :    0.766584
   3 C :   -0.173300
   4 C :   -0.495363
   5 C :   -0.423291
   6 O :   -0.936346
   7 H :    0.687903
   8 H :    0.311255
   9 H :    0.221561
  10 H :    0.715794
  11 H :    0.311236
Sum of atomic charges:    0.0000000

LOEWDIN ATOMIC CHARGES
----------------------
   0 N :    0.368424
   1 C :    0.048647
   2 C :   -0.513904
   3 C :    0.263220
   4 C :    0.221256
   5 C :    0.028238
   6 O :    0.462140
   7 H :   -0.196254
   8 H :   -0.148010
   9 H :   -0.179440
  10 H :   -0.206320
  11 H :   -0.147995

  Mayer bond orders larger than 0.100000
B(  0-N ,  1-C ) :   1.6423 B(  0-N ,  4-C ) :  -0.1217 B(  0-N ,  5-C ) :   0.9503
B(  1-C ,  2-C ) :   0.7787 B(  1-C ,  7-H ) :   0.2883 B(  2-C ,  3-C ) :   0.7956
B(  2-C ,  6-O ) :   1.3523 B(  3-C ,  4-C ) :   0.9029 B(  3-C ,  8-H ) :   0.9488
B(  3-C , 11-H ) :   0.9487 B(  4-C ,  5-C ) :   1.5049 B(  4-C ,  9-H ) :   1.1472
B(  5-C , 10-H ) :   0.3265

MP2 TOTAL ENERGY:     -322.864278652 Eh
FINAL SINGLE POINT ENERGY      -322.864278651567

DIPOLE MOMENT
-------------
                                X             Y             Z
Electronic contribution:     -1.82096      -2.41244      -0.00014
Nuclear contribution   :      2.65574       3.22014       0.00056
                        -----------------------------------------
Total Dipole Moment    :      0.83477       0.80770       0.00042
                        -----------------------------------------
Magnitude (a.u.)       :      1.16156
Magnitude (Debye)      :      2.95245

Rotational constants in cm-1:     0.177096     0.092898     0.061608
Rotational constants in MHz :  5309.214838  2785.011688  1846.953240

                             ****ORCA TERMINATED NORMALLY****
TOTAL RUN TIME: 0 days 0 hours 3 minutes 26 seconds 392 msec
