                         Program Version 5.0.3 -  RELEASE  -
|  1> !ri-mp2 aug-cc-pvtz aug-cc-pvtz/c tightscf
|  2> %pal nprocs 16 end
|  3>
|  4> * xyz 0 1
|  5> F     0.465018    1.425630    0.535618
|  6> F     0.389467   -0.599318    1.371080
|  7> O    -1.954835    0.979221   -0.552404
|  8> O    -1.763085   -1.212817   -0.059693
|  9> N     2.517481   -0.276918   -0.574374
| 10> C     0.176013    0.131313    0.230920
| 11> C    -1.311942    0.050048   -0.156467
| 12> C     1.107414   -0.362137   -0.884322
| 13> H    -2.687110   -1.216711   -0.352628
| 14> H     2.799763    0.676454   -0.387399
| 15> H     2.755145   -0.838551    0.232905
| 16> H     0.841761   -1.396806   -1.101889
| 17> H     0.892172    0.230650   -1.774659
| 18> *
| 19>
| 20>                          ****END OF INPUT****

CARTESIAN COORDINATES (ANGSTROEM)
---------------------------------
  F      0.465018    1.425630    0.535618
  F      0.389467   -0.599318    1.371080
  O     -1.954835    0.979221   -0.552404
  O     -1.763085   -1.212817   -0.059693
  N      2.517481   -0.276918   -0.574374
  C      0.176013    0.131313    0.230920
  C     -1.311942    0.050048   -0.156467
  C      1.107414   -0.362137   -0.884322
  H     -2.687110   -1.216711   -0.352628
  H      2.799763    0.676454   -0.387399
  H      2.755145   -0.838551    0.232905
  H      0.841761   -1.396806   -1.101889
  H      0.892172    0.230650   -1.774659

 Total Charge           Charge          ....    0
 Multiplicity           Mult            ....    1
 Number of Electrons    NEL             ....   64
 Basis Dimension        Dim             ....  483

ORBITAL ENERGIES
----------------

  NO   OCC          E(Eh)            E(eV)
   0   2.0000     -26.328149      -716.4254
   1   2.0000     -26.326086      -716.3692
   2   2.0000     -20.642884      -561.7214
   3   2.0000     -20.583990      -560.1188
   4   2.0000     -15.564959      -423.5441
   5   2.0000     -11.437388      -311.2271
   6   2.0000     -11.418370      -310.7096
   7   2.0000     -11.289947      -307.2151
   8   2.0000      -1.677898       -45.6579
   9   2.0000      -1.614960       -43.9453
  10   2.0000      -1.496654       -40.7260
  11   2.0000      -1.397341       -38.0236
  12   2.0000      -1.211276       -32.9605
  13   2.0000      -1.053587       -28.6696
  14   2.0000      -0.926242       -25.2043
  15   2.0000      -0.863919       -23.5084
  16   2.0000      -0.792759       -21.5721
  17   2.0000      -0.772510       -21.0211
  18   2.0000      -0.757233       -20.6053
  19   2.0000      -0.728439       -19.8218
  20   2.0000      -0.705912       -19.2088
  21   2.0000      -0.679410       -18.4877
  22   2.0000      -0.667161       -18.1544
  23   2.0000      -0.658405       -17.9161
  24   2.0000      -0.645048       -17.5526
  25   2.0000      -0.629246       -17.1227
  26   2.0000      -0.595523       -16.2050
  27   2.0000      -0.573501       -15.6058
  28   2.0000      -0.555845       -15.1253
  29   2.0000      -0.513129       -13.9630
  30   2.0000      -0.488589       -13.2952
  31   2.0000      -0.417906       -11.3718
  32   0.0000       0.024837         0.6759
  33   0.0000       0.033697         0.9169
  34   0.0000       0.043869         1.1937
  35   0.0000       0.046768         1.2726
  36   0.0000       0.065486         1.7820

MULLIKEN ATOMIC CHARGES
-----------------------
   0 F :   -0.483587
   1 F :   -0.481479
   2 O :   -0.743688
   3 O :   -0.410622
   4 N :   -0.598627
   5 C :    1.604542
   6 C :    0.348217
   7 C :   -0.362191
   8 H :    0.238846
   9 H :    0.119856
  10 H :    0.121109
  11 H :    0.327427
  12 H :    0.320198
Sum of atomic charges:   -0.0000000

LOEWDIN ATOMIC CHARGES
----------------------
   0 F :    0.509813
   1 F :    0.495045
   2 O :    0.457865
   3 O :    0.833241
   4 N :    0.845607
   5 C :   -1.072706
   6 C :   -0.802343
   7 C :    0.139455
   8 H :   -0.455921
   9 H :   -0.322332
  10 H :   -0.322016
  11 H :   -0.155650
  12 H :   -0.150056

  Mayer bond orders larger than 0.100000
B(  0-F ,  5-C ) :   0.5077 B(  0-F ,  6-C ) :   0.1475 B(  0-F ,  7-C ) :   0.1088
B(  1-F ,  5-C ) :   0.4960 B(  1-F ,  6-C ) :   0.1093 B(  1-F ,  7-C ) :   0.1226
B(  2-O ,  6-C ) :   1.4788 B(  3-O ,  6-C ) :   1.0217 B(  3-O ,  8-H ) :   0.9404
B(  4-N ,  7-C ) :   0.7010 B(  4-N ,  9-H ) :   0.9875 B(  4-N , 10-H ) :   0.9922
B(  5-C ,  6-C ) :   0.5467 B(  5-C ,  7-C ) :   0.8857 B(  7-C , 11-H ) :   0.9155
B(  7-C , 12-H ) :   0.9167

MP2 TOTAL ENERGY:     -521.484797463 Eh
FINAL SINGLE POINT ENERGY      -521.484797462982

DIPOLE MOMENT
-------------
                                X             Y             Z
Electronic contribution:     -3.67526       2.46638       4.81213
Nuclear contribution   :      3.56919      -3.23506      -5.07384
                        -----------------------------------------
Total Dipole Moment    :     -0.10608      -0.76867      -0.26171
                        -----------------------------------------
Magnitude (a.u.)       :      0.81890
Magnitude (Debye)      :      2.08149

Rotational constants in cm-1:     0.107170     0.050752     0.047018
Rotational constants in MHz :  3212.881922  1521.504189  1409.550641

                             ****ORCA TERMINATED NORMALLY****
TOTAL RUN TIME: 0 days 0 hours 3 minutes 49 seconds 632 msec
