                         Program Version 5.0.3 -  RELEASE  -
|  1> !ri-mp2 aug-cc-pvtz aug-cc-pvtz/c tightscf
|  2> %pal nprocs 16 end
|  3>
|  4> * xyz 0 1
|  5> N      2.167803   -0.419703   -0.124405
|  6> N     -2.312485   -0.509274   -0.000062
|  7> C     -0.068587    0.741058    0.011284
|  8> C      1.098133    0.121401    0.008582
|  9> C     -1.296379    0.036975    0.003444
| 10> H     -0.082728    1.822552    0.039789
| 11> H      2.696506   -0.716315    0.691622
| 12> *
| 13>
| 14>                          ****END OF INPUT****

CARTESIAN COORDINATES (ANGSTROEM)
---------------------------------
  N      2.167803   -0.419703   -0.124405
  N     -2.312485   -0.509274   -0.000062
  C     -0.068587    0.741058    0.011284
  C      1.098133    0.121401    0.008582
  C     -1.296379    0.036975    0.003444
  H     -0.082728    1.822552    0.039789
  H      2.696506   -0.716315    0.691622

 Total Charge           Charge          ....    0
 Multiplicity           Mult            ....    1
 Number of Electrons    NEL             ....   34
 Basis Dimension        Dim             ....  276

ORBITAL ENERGIES
----------------

  NO   OCC          E(Eh)            E(eV)
   0   2.0000     -15.631661      -425.3591
   1   2.0000     -15.573287      -423.7707
   2   2.0000     -11.373848      -309.4981
   3   2.0000     -11.293589      -307.3142
   4   2.0000     -11.285486      -307.0937
   5   2.0000      -1.300540       -35.3895
   6   2.0000      -1.225569       -33.3494
   7   2.0000      -1.091886       -29.7117
   8   2.0000      -0.844150       -22.9705
   9   2.0000      -0.774437       -21.0735
  10   2.0000      -0.703678       -19.1481
  11   2.0000      -0.605891       -16.4871
  12   2.0000      -0.564986       -15.3740
  13   2.0000      -0.523282       -14.2392
  14   2.0000      -0.513818       -13.9817
  15   2.0000      -0.472802       -12.8656
  16   2.0000      -0.376818       -10.2537
  17   0.0000       0.017306         0.4709
  18   0.0000       0.031247         0.8503
  19   0.0000       0.064162         1.7459
  20   0.0000       0.070481         1.9179
  21   0.0000       0.082568         2.2468

MULLIKEN ATOMIC CHARGES
-----------------------
   0 N :   -0.475821
   1 N :   -0.493250
   2 C :    0.053204
   3 C :    0.216911
   4 C :    0.074414
   5 H :    0.369487
   6 H :    0.255055
Sum of atomic charges:   -0.0000000

LOEWDIN ATOMIC CHARGES
----------------------
   0 N :    0.642949
   1 N :    0.241656
   2 C :    0.088612
   3 C :   -0.040528
   4 C :   -0.302159
   5 H :   -0.232685
   6 H :   -0.397845

  Mayer bond orders larger than 0.100000
B(  0-N ,  2-C ) :  -0.1239 B(  0-N ,  3-C ) :   1.6616 B(  0-N ,  6-H ) :   0.8887
B(  1-N ,  2-C ) :  -0.1568 B(  1-N ,  4-C ) :   2.4146 B(  2-C ,  3-C ) :   1.3849
B(  2-C ,  4-C ) :   0.7420 B(  2-C ,  5-H ) :   0.8433 B(  3-C ,  4-C ) :   0.2341

MP2 TOTAL ENERGY:     -224.534642239 Eh
FINAL SINGLE POINT ENERGY      -224.534642239224

DIPOLE MOMENT
-------------
                                X             Y             Z
Electronic contribution:     -0.83635      -0.40685      -0.12184
Nuclear contribution   :      2.52558       1.06398       0.70625
                        -----------------------------------------
Total Dipole Moment    :      1.68923       0.65713       0.58441
                        -----------------------------------------
Magnitude (a.u.)       :      1.90443
Magnitude (Debye)      :      4.84068

Rotational constants in cm-1:     0.969487     0.091919     0.084518
Rotational constants in MHz : 29064.490067  2755.668810  2533.790398

                             ****ORCA TERMINATED NORMALLY****
TOTAL RUN TIME: 0 days 0 hours 0 minutes 47 seconds 841 msec
