                         Program Version 5.0.3 -  RELEASE  -
|  1> !ri-mp2 aug-cc-pvtz aug-cc-pvtz/c tightscf
|  2> %pal nprocs 16 end
|  3>
|  4> * xyz 0 1
|  5> Cl    2.634618    0.089972   -0.472541
|  6> S    -2.226941   -0.407927   -0.293740
|  7> N    -0.782002   -1.097257    0.085205
|  8> N    -1.805293    1.168792   -0.048337
|  9> C     0.046472   -0.123793    0.406185
| 10> C    -0.547869    1.172036    0.326492
| 11> C     1.448200   -0.422078    0.812171
| 12> H    -0.047158    2.105902    0.539835
| 13> H     1.735384    0.120694    1.707773
| 14> H     1.584567   -1.487017    0.958257
| 15> *
| 16>
| 17>                          ****END OF INPUT****

CARTESIAN COORDINATES (ANGSTROEM)
---------------------------------
  Cl     2.634618    0.089972   -0.472541
  S     -2.226941   -0.407927   -0.293740
  N     -0.782002   -1.097257    0.085205
  N     -1.805293    1.168792   -0.048337
  C      0.046472   -0.123793    0.406185
  C     -0.547869    1.172036    0.326492
  C      1.448200   -0.422078    0.812171
  H     -0.047158    2.105902    0.539835
  H      1.735384    0.120694    1.707773
  H      1.584567   -1.487017    0.958257

 Total Charge           Charge          ....    0
 Multiplicity           Mult            ....    1
 Number of Electrons    NEL             ....   68
 Basis Dimension        Dim             ....  399

ORBITAL ENERGIES
----------------

  NO   OCC          E(Eh)            E(eV)
   0   2.0000    -104.842289     -2852.9037
   1   2.0000     -92.050302     -2504.8161
   2   2.0000     -15.625905      -425.2025
   3   2.0000     -15.625814      -425.2000
   4   2.0000     -11.323895      -308.1388
   5   2.0000     -11.315161      -307.9012
   6   2.0000     -11.304460      -307.6100
   7   2.0000     -10.566069      -287.5174
   8   2.0000      -9.045311      -246.1354
   9   2.0000      -8.032835      -218.5846
  10   2.0000      -8.031015      -218.5350
  11   2.0000      -8.030966      -218.5337
  12   2.0000      -6.726090      -183.0262
  13   2.0000      -6.724826      -182.9918
  14   2.0000      -6.724305      -182.9776
  15   2.0000      -1.351047       -36.7638
  16   2.0000      -1.206969       -32.8433
  17   2.0000      -1.146367       -31.1942
  18   2.0000      -1.046542       -28.4779
  19   2.0000      -0.940717       -25.5982
  20   2.0000      -0.844485       -22.9796
  21   2.0000      -0.794644       -21.6234
  22   2.0000      -0.704682       -19.1754
  23   2.0000      -0.643880       -17.5209
  24   2.0000      -0.631503       -17.1841
  25   2.0000      -0.610591       -16.6150
  26   2.0000      -0.560046       -15.2396
  27   2.0000      -0.540493       -14.7076
  28   2.0000      -0.502985       -13.6869
  29   2.0000      -0.476057       -12.9542
  30   2.0000      -0.454928       -12.3792
  31   2.0000      -0.451621       -12.2892
  32   2.0000      -0.435829       -11.8595
  33   2.0000      -0.370783       -10.0895
  34   0.0000       0.027074         0.7367
  35   0.0000       0.036435         0.9915
  36   0.0000       0.045870         1.2482
  37   0.0000       0.050988         1.3875
  38   0.0000       0.061861         1.6833

MULLIKEN ATOMIC CHARGES
-----------------------
   0 Cl:   -0.310486
   1 S :    0.255039
   2 N :   -0.673515
   3 N :   -0.648343
   4 C :    0.678672
   5 C :   -0.234394
   6 C :   -0.144014
   7 H :    0.534798
   8 H :    0.253576
   9 H :    0.288667
Sum of atomic charges:   -0.0000000

LOEWDIN ATOMIC CHARGES
----------------------
   0 Cl:    0.865534
   1 S :    0.938960
   2 N :   -0.042183
   3 N :   -0.057524
   4 C :   -0.589028
   5 C :   -0.158656
   6 C :   -0.264469
   7 H :   -0.198107
   8 H :   -0.244841
   9 H :   -0.249684

  Mayer bond orders larger than 0.100000
B(  0-Cl,  6-C ) :   0.8090 B(  1-S ,  2-N ) :   1.2011 B(  1-S ,  3-N ) :   1.1429
B(  2-N ,  4-C ) :   0.9624 B(  3-N ,  5-C ) :   0.9606 B(  4-C ,  5-C ) :   0.9563
B(  4-C ,  6-C ) :   0.9047 B(  5-C ,  7-H ) :   0.7262 B(  6-C ,  8-H ) :   0.9589
B(  6-C ,  9-H ) :   0.9308

MP2 TOTAL ENERGY:    -1082.635020715 Eh
FINAL SINGLE POINT ENERGY     -1082.635020715004

DIPOLE MOMENT
-------------
                                X             Y             Z
Electronic contribution:      0.59831      -0.51852      -2.92969
Nuclear contribution   :     -0.42028       0.59200       3.69241
                        -----------------------------------------
Total Dipole Moment    :      0.17803       0.07348       0.76273
                        -----------------------------------------
Magnitude (a.u.)       :      0.78667
Magnitude (Debye)      :      1.99955

Rotational constants in cm-1:     0.181056     0.032434     0.030053
Rotational constants in MHz :  5427.929380   972.348674   900.980859

                             ****ORCA TERMINATED NORMALLY****
TOTAL RUN TIME: 0 days 0 hours 2 minutes 46 seconds 84 msec
