                         Program Version 5.0.3 -  RELEASE  -
|  1> !ri-mp2 aug-cc-pvtz aug-cc-pvtz/c tightscf
|  2> %pal nprocs 16 end
|  3>
|  4> * xyz 0 1
|  5> C      0.121338   -1.552985    0.000000
|  6> C     -1.266480   -1.587989    0.000000
|  7> C     -1.384777    0.677563    0.000000
|  8> C      0.784658   -0.329802    0.000000
|  9> C      0.000000    0.833406    0.000000
| 10> C      2.286145   -0.262994    0.000000
| 11> C      0.610891    2.207110    0.000000
| 12> N     -2.022279   -0.492366    0.000000
| 13> H      0.683596   -2.478145    0.000000
| 14> H     -1.790838   -2.537250    0.000000
| 15> H     -2.015999    1.561189    0.000000
| 16> H      2.660028    0.271394    0.876276
| 17> H      2.724758   -1.259274    0.000000
| 18> H      2.660028    0.271394   -0.876276
| 19> H      1.242218    2.367833   -0.877127
| 20> H     -0.160709    2.975727    0.000000
| 21> H      1.242218    2.367833    0.877127
| 22> *
| 23>
| 24>                          ****END OF INPUT****

CARTESIAN COORDINATES (ANGSTROEM)
---------------------------------
  C      0.121338   -1.552985    0.000000
  C     -1.266480   -1.587989    0.000000
  C     -1.384777    0.677563    0.000000
  C      0.784658   -0.329802    0.000000
  C      0.000000    0.833406    0.000000
  C      2.286145   -0.262994    0.000000
  C      0.610891    2.207110    0.000000
  N     -2.022279   -0.492366    0.000000
  H      0.683596   -2.478145    0.000000
  H     -1.790838   -2.537250    0.000000
  H     -2.015999    1.561189    0.000000
  H      2.660028    0.271394    0.876276
  H      2.724758   -1.259274    0.000000
  H      2.660028    0.271394   -0.876276
  H      1.242218    2.367833   -0.877127
  H     -0.160709    2.975727    0.000000
  H      1.242218    2.367833    0.877127

 Total Charge           Charge          ....    0
 Multiplicity           Mult            ....    1
 Number of Electrons    NEL             ....   58
 Basis Dimension        Dim             ....  575

ORBITAL ENERGIES
----------------

  NO   OCC          E(Eh)            E(eV)
   0   2.0000     -15.555654      -423.2909
   1   2.0000     -11.264649      -306.5267
   2   2.0000     -11.263445      -306.4939
   3   2.0000     -11.258823      -306.3681
   4   2.0000     -11.240356      -305.8656
   5   2.0000     -11.234952      -305.7186
   6   2.0000     -11.231434      -305.6228
   7   2.0000     -11.230429      -305.5955
   8   2.0000      -1.253405       -34.1069
   9   2.0000      -1.115351       -30.3502
  10   2.0000      -1.049121       -28.5480
  11   2.0000      -0.976174       -26.5630
  12   2.0000      -0.940670       -25.5969
  13   2.0000      -0.837647       -22.7935
  14   2.0000      -0.811194       -22.0737
  15   2.0000      -0.685053       -18.6412
  16   2.0000      -0.679728       -18.4963
  17   2.0000      -0.628520       -17.1029
  18   2.0000      -0.604669       -16.4539
  19   2.0000      -0.577425       -15.7125
  20   2.0000      -0.562372       -15.3029
  21   2.0000      -0.559607       -15.2277
  22   2.0000      -0.553433       -15.0597
  23   2.0000      -0.539729       -14.6868
  24   2.0000      -0.521101       -14.1799
  25   2.0000      -0.498228       -13.5575
  26   2.0000      -0.409146       -11.1334
  27   2.0000      -0.363485        -9.8909
  28   2.0000      -0.333747        -9.0817
  29   0.0000       0.025682         0.6988
  30   0.0000       0.031231         0.8498
  31   0.0000       0.035844         0.9754
  32   0.0000       0.042915         1.1678
  33   0.0000       0.047046         1.2802

MULLIKEN ATOMIC CHARGES
-----------------------
   0 C :   -0.716462
   1 C :   -0.506840
   2 C :   -1.013683
   3 C :    0.871371
   4 C :    1.049357
   5 C :   -0.997740
   6 C :   -0.866569
   7 N :   -0.622904
   8 H :    0.082374
   9 H :    0.701377
  10 H :    0.572842
  11 H :    0.260250
  12 H :    0.215583
  13 H :    0.260250
  14 H :    0.255499
  15 H :    0.199798
  16 H :    0.255499
Sum of atomic charges:    0.0000000

LOEWDIN ATOMIC CHARGES
----------------------
   0 C :    0.215874
   1 C :    0.008422
   2 C :    0.027567
   3 C :   -0.105131
   4 C :   -0.098640
   5 C :    0.589519
   6 C :    0.573273
   7 N :    0.369706
   8 H :   -0.186462
   9 H :   -0.193801
  10 H :   -0.190134
  11 H :   -0.162594
  12 H :   -0.175247
  13 H :   -0.162594
  14 H :   -0.165784
  15 H :   -0.178190
  16 H :   -0.165784

  Mayer bond orders larger than 0.100000
B(  0-C ,  1-C ) :   0.9643 B(  0-C ,  3-C ) :   0.8341 B(  0-C ,  8-H ) :   1.3604
B(  1-C ,  2-C ) :   0.1950 B(  1-C ,  7-N ) :   1.2588 B(  1-C ,  9-H ) :   0.3441
B(  2-C ,  3-C ) :   0.2634 B(  2-C ,  4-C ) :   0.2980 B(  2-C ,  6-C ) :  -0.2227
B(  2-C ,  7-N ) :   0.8107 B(  2-C , 10-H ) :   0.4994 B(  3-C ,  4-C ) :   1.0960
B(  3-C ,  5-C ) :   0.5387 B(  3-C ,  8-H ) :  -0.1552 B(  4-C ,  6-C ) :   0.6184
B(  5-C , 11-H ) :   1.0274 B(  5-C , 12-H ) :   1.0561 B(  5-C , 13-H ) :   1.0274
B(  6-C , 14-H ) :   1.0227 B(  6-C , 15-H ) :   1.0534 B(  6-C , 16-H ) :   1.0227

MP2 TOTAL ENERGY:     -326.239304305 Eh
FINAL SINGLE POINT ENERGY      -326.239304304730

DIPOLE MOMENT
-------------
                                X             Y             Z
Electronic contribution:     -6.18736      -3.39096      -0.00000
Nuclear contribution   :      7.35306       3.59632       0.00000
                        -----------------------------------------
Total Dipole Moment    :      1.16570       0.20536      -0.00000
                        -----------------------------------------
Magnitude (a.u.)       :      1.18365
Magnitude (Debye)      :      3.00861

Rotational constants in cm-1:     0.107787     0.073114     0.044273
Rotational constants in MHz :  3231.373351  2191.912093  1327.273014

                             ****ORCA TERMINATED NORMALLY****
TOTAL RUN TIME: 0 days 0 hours 7 minutes 32 seconds 717 msec
