                         Program Version 5.0.3 -  RELEASE  -
|  1> !ri-mp2 aug-cc-pvtz aug-cc-pvtz/c tightscf
|  2> %pal nprocs 16 end
|  3>
|  4> * xyz 0 1
|  5> O     -1.742727   -1.171659   -0.000001
|  6> O     -1.798817    1.053904    0.000000
|  7> O      2.791456    0.110796    0.000000
|  8> C     -1.139153   -0.134860    0.000000
|  9> C      0.298037   -0.026971    0.000000
| 10> C      1.499219    0.000183    0.000000
| 11> H     -1.166265    1.783255    0.000000
| 12> H      3.218346   -0.757686    0.000000
| 13> *
| 14>
| 15>                          ****END OF INPUT****

CARTESIAN COORDINATES (ANGSTROEM)
---------------------------------
  O     -1.742727   -1.171659   -0.000001
  O     -1.798817    1.053904    0.000000
  O      2.791456    0.110796    0.000000
  C     -1.139153   -0.134860    0.000000
  C      0.298037   -0.026971    0.000000
  C      1.499219    0.000183    0.000000
  H     -1.166265    1.783255    0.000000
  H      3.218346   -0.757686    0.000000

 Total Charge           Charge          ....    0
 Multiplicity           Mult            ....    1
 Number of Electrons    NEL             ....   44
 Basis Dimension        Dim             ....  322

ORBITAL ENERGIES
----------------

  NO   OCC          E(Eh)            E(eV)
   0   2.0000     -20.676023      -562.6232
   1   2.0000     -20.620897      -561.1231
   2   2.0000     -20.554886      -559.3269
   3   2.0000     -11.414437      -310.6026
   4   2.0000     -11.348352      -308.8044
   5   2.0000     -11.260089      -306.4026
   6   2.0000      -1.492626       -40.6164
   7   2.0000      -1.468349       -39.9558
   8   2.0000      -1.373921       -37.3863
   9   2.0000      -1.078153       -29.3380
  10   2.0000      -0.910994       -24.7894
  11   2.0000      -0.849459       -23.1150
  12   2.0000      -0.803558       -21.8659
  13   2.0000      -0.707733       -19.2584
  14   2.0000      -0.669373       -18.2146
  15   2.0000      -0.664336       -18.0775
  16   2.0000      -0.636324       -17.3153
  17   2.0000      -0.609461       -16.5843
  18   2.0000      -0.495487       -13.4829
  19   2.0000      -0.481349       -13.0982
  20   2.0000      -0.428620       -11.6633
  21   2.0000      -0.411481       -11.1970
  22   0.0000       0.013913         0.3786
  23   0.0000       0.031813         0.8657
  24   0.0000       0.068080         1.8525
  25   0.0000       0.068778         1.8715
  26   0.0000       0.076938         2.0936

MULLIKEN ATOMIC CHARGES
-----------------------
   0 O :   -0.567812
   1 O :   -0.345338
   2 O :   -0.405833
   3 C :   -0.055444
   4 C :    1.123763
   5 C :   -0.220973
   6 H :    0.219183
   7 H :    0.252455
Sum of atomic charges:    0.0000000

LOEWDIN ATOMIC CHARGES
----------------------
   0 O :    0.417851
   1 O :    0.813440
   2 O :    0.787757
   3 C :   -0.909040
   4 C :   -0.008930
   5 C :   -0.162958
   6 H :   -0.495027
   7 H :   -0.443092

  Mayer bond orders larger than 0.100000
B(  0-O ,  3-C ) :   1.7666 B(  0-O ,  4-C ) :  -0.1801 B(  1-O ,  3-C ) :   1.0396
B(  1-O ,  6-H ) :   0.9451 B(  2-O ,  5-C ) :   0.9809 B(  2-O ,  7-H ) :   0.9418
B(  3-C ,  4-C ) :   0.4467 B(  4-C ,  5-C ) :   1.9300

MP2 TOTAL ENERGY:     -340.586737848 Eh
FINAL SINGLE POINT ENERGY      -340.586737847616

DIPOLE MOMENT
-------------
                                X             Y             Z
Electronic contribution:      0.00312      -0.44281       0.00000
Nuclear contribution   :      1.95938       0.98481       0.00000
                        -----------------------------------------
Total Dipole Moment    :      1.96250       0.54200       0.00000
                        -----------------------------------------
Magnitude (a.u.)       :      2.03597
Magnitude (Debye)      :      5.17502

Rotational constants in cm-1:     0.384482     0.060093     0.051970
Rotational constants in MHz : 11526.481050  1801.550443  1558.034812

                             ****ORCA TERMINATED NORMALLY****
TOTAL RUN TIME: 0 days 0 hours 1 minutes 16 seconds 353 msec
