                         Program Version 5.0.3 -  RELEASE  -
|  1> !ri-mp2 aug-cc-pvtz aug-cc-pvtz/c tightscf
|  2> %pal nprocs 16 end
|  3>
|  4> * xyz 0 1
|  5> C      1.606387   -0.480067    0.000000
|  6> H      2.540581    0.090664    0.000000
|  7> S     -2.130950    1.425864    0.000000
|  8> H     -3.258675    0.692401    0.000000
|  9> C     -0.938661    0.019058    0.000000
| 10> C      0.482787    0.577197    0.000000
| 11> C      1.606387   -1.344668    1.264784
| 12> C      1.606387   -1.344668   -1.264784
| 13> H     -1.123532   -0.585866    0.884604
| 14> H     -1.123532   -0.585866   -0.884604
| 15> H      0.607472    1.219754   -0.875670
| 16> H      0.607472    1.219754    0.875670
| 17> H      2.487666   -1.987485   -1.291990
| 18> H      2.487666   -1.987485    1.291990
| 19> H      0.730680   -1.994906    1.310682
| 20> H      0.730680   -1.994906   -1.310682
| 21> H      1.614497   -0.730494    2.167099
| 22> H      1.614497   -0.730494   -2.167099
| 23> *
| 24>
| 25>                          ****END OF INPUT****

CARTESIAN COORDINATES (ANGSTROEM)
---------------------------------
  C      1.606387   -0.480067    0.000000
  H      2.540581    0.090664    0.000000
  S     -2.130950    1.425864    0.000000
  H     -3.258675    0.692401    0.000000
  C     -0.938661    0.019058    0.000000
  C      0.482787    0.577197    0.000000
  C      1.606387   -1.344668    1.264784
  C      1.606387   -1.344668   -1.264784
  H     -1.123532   -0.585866    0.884604
  H     -1.123532   -0.585866   -0.884604
  H      0.607472    1.219754   -0.875670
  H      0.607472    1.219754    0.875670
  H      2.487666   -1.987485   -1.291990
  H      2.487666   -1.987485    1.291990
  H      0.730680   -1.994906    1.310682
  H      0.730680   -1.994906   -1.310682
  H      1.614497   -0.730494    2.167099
  H      1.614497   -0.730494   -2.167099

 Total Charge           Charge          ....    0
 Multiplicity           Mult            ....    1
 Number of Electrons    NEL             ....   58
 Basis Dimension        Dim             ....  556

ORBITAL ENERGIES
----------------

  NO   OCC          E(Eh)            E(eV)
   0   2.0000     -91.948045     -2502.0335
   1   2.0000     -11.258371      -306.3559
   2   2.0000     -11.233159      -305.6698
   3   2.0000     -11.228093      -305.5319
   4   2.0000     -11.215355      -305.1853
   5   2.0000     -11.215334      -305.1848
   6   2.0000      -8.948836      -243.5102
   7   2.0000      -6.630167      -180.4160
   8   2.0000      -6.629168      -180.3888
   9   2.0000      -6.628163      -180.3615
  10   2.0000      -1.105057       -30.0701
  11   2.0000      -1.036175       -28.1958
  12   2.0000      -0.934717       -25.4349
  13   2.0000      -0.932131       -25.3646
  14   2.0000      -0.839304       -22.8386
  15   2.0000      -0.757082       -20.6012
  16   2.0000      -0.639993       -17.4151
  17   2.0000      -0.636025       -17.3071
  18   2.0000      -0.606939       -16.5156
  19   2.0000      -0.569336       -15.4924
  20   2.0000      -0.560390       -15.2490
  21   2.0000      -0.534646       -14.5484
  22   2.0000      -0.526771       -14.3342
  23   2.0000      -0.506166       -13.7735
  24   2.0000      -0.472350       -12.8533
  25   2.0000      -0.467032       -12.7086
  26   2.0000      -0.454988       -12.3809
  27   2.0000      -0.439337       -11.9550
  28   2.0000      -0.353028        -9.6064
  29   0.0000       0.028421         0.7734
  30   0.0000       0.033003         0.8980
  31   0.0000       0.037570         1.0223
  32   0.0000       0.038621         1.0509
  33   0.0000       0.052531         1.4294

MULLIKEN ATOMIC CHARGES
-----------------------
   0 C :    0.257312
   1 H :    0.388676
   2 S :   -0.377255
   3 H :    0.043463
   4 C :   -0.375519
   5 C :   -0.509518
   6 C :   -1.061435
   7 C :   -1.061435
   8 H :    0.249607
   9 H :    0.249607
  10 H :    0.291044
  11 H :    0.291044
  12 H :    0.257553
  13 H :    0.257553
  14 H :    0.287949
  15 H :    0.287949
  16 H :    0.261701
  17 H :    0.261701
Sum of atomic charges:    0.0000000

LOEWDIN ATOMIC CHARGES
----------------------
   0 C :   -0.049508
   1 H :   -0.136555
   2 S :    1.273720
   3 H :   -0.587218
   4 C :   -0.096058
   5 C :    0.194033
   6 C :    0.583645
   7 C :    0.583645
   8 H :   -0.225100
   9 H :   -0.225100
  10 H :   -0.161647
  11 H :   -0.161647
  12 H :   -0.164021
  13 H :   -0.164021
  14 H :   -0.171241
  15 H :   -0.171241
  16 H :   -0.160843
  17 H :   -0.160843

  Mayer bond orders larger than 0.100000
B(  0-C ,  1-H ) :   0.8011 B(  0-C ,  5-C ) :   0.8808 B(  0-C ,  6-C ) :   0.7348
B(  0-C ,  7-C ) :   0.7348 B(  2-S ,  3-H ) :   1.1298 B(  2-S ,  4-C ) :   0.9460
B(  4-C ,  5-C ) :   0.9979 B(  4-C ,  8-H ) :   0.9465 B(  4-C ,  9-H ) :   0.9465
B(  5-C , 10-H ) :   0.9279 B(  5-C , 11-H ) :   0.9279 B(  6-C ,  7-C ) :   0.1643
B(  6-C , 13-H ) :   1.0022 B(  6-C , 14-H ) :   0.9543 B(  6-C , 16-H ) :   0.9847
B(  7-C , 12-H ) :   1.0022 B(  7-C , 15-H ) :   0.9543 B(  7-C , 17-H ) :   0.9847

MP2 TOTAL ENERGY:     -595.030548331 Eh
FINAL SINGLE POINT ENERGY      -595.030548330745

DIPOLE MOMENT
-------------
                                X             Y             Z
Electronic contribution:     -8.01029       7.09010      -0.00000
Nuclear contribution   :      8.34251      -7.75475       0.00000
                        -----------------------------------------
Total Dipole Moment    :      0.33222      -0.66465      -0.00000
                        -----------------------------------------
Magnitude (a.u.)       :      0.74305
Magnitude (Debye)      :      1.88869

Rotational constants in cm-1:     0.198184     0.039501     0.036856
Rotational constants in MHz :  5941.405815  1184.215812  1104.904156

                             ****ORCA TERMINATED NORMALLY****
TOTAL RUN TIME: 0 days 0 hours 5 minutes 33 seconds 38 msec
