                         Program Version 5.0.3 -  RELEASE  -
|  1> !ri-mp2 aug-cc-pvtz aug-cc-pvtz/c tightscf
|  2> %pal nprocs 16 end
|  3>
|  4> * xyz 0 1
|  5> O      1.940466    0.100077   -0.356377
|  6> H      2.421588   -0.726471   -0.237956
|  7> N      0.023471   -1.215094    0.138296
|  8> C     -1.181592   -0.930797   -0.131038
|  9> H     -1.898279   -1.715924   -0.357940
| 10> C      0.758775    0.029689    0.415101
| 11> H      1.011317    0.022646    1.482130
| 12> C     -1.554766    0.529531   -0.103113
| 13> H     -2.214713    0.732484    0.745109
| 14> H     -2.099834    0.828700   -0.999730
| 15> C     -0.174244    1.197650    0.045596
| 16> H     -0.160808    1.988315    0.792056
| 17> H      0.163676    1.618849   -0.900003
| 18> *
| 19>
| 20>                          ****END OF INPUT****

CARTESIAN COORDINATES (ANGSTROEM)
---------------------------------
  O      1.940466    0.100077   -0.356377
  H      2.421588   -0.726471   -0.237956
  N      0.023471   -1.215094    0.138296
  C     -1.181592   -0.930797   -0.131038
  H     -1.898279   -1.715924   -0.357940
  C      0.758775    0.029689    0.415101
  H      1.011317    0.022646    1.482130
  C     -1.554766    0.529531   -0.103113
  H     -2.214713    0.732484    0.745109
  H     -2.099834    0.828700   -0.999730
  C     -0.174244    1.197650    0.045596
  H     -0.160808    1.988315    0.792056
  H      0.163676    1.618849   -0.900003

 Total Charge           Charge          ....    0
 Multiplicity           Mult            ....    1
 Number of Electrons    NEL             ....   46
 Basis Dimension        Dim             ....  437

ORBITAL ENERGIES
----------------

  NO   OCC          E(Eh)            E(eV)
   0   2.0000     -20.557670      -559.4026
   1   2.0000     -15.557086      -423.3298
   2   2.0000     -11.308062      -307.7080
   3   2.0000     -11.280658      -306.9623
   4   2.0000     -11.241483      -305.8963
   5   2.0000     -11.228018      -305.5299
   6   2.0000      -1.371169       -37.3114
   7   2.0000      -1.244616       -33.8677
   8   2.0000      -1.040320       -28.3085
   9   2.0000      -0.966159       -26.2905
  10   2.0000      -0.816819       -22.2268
  11   2.0000      -0.770846       -20.9758
  12   2.0000      -0.699951       -19.0466
  13   2.0000      -0.673500       -18.3269
  14   2.0000      -0.641965       -17.4687
  15   2.0000      -0.599473       -16.3125
  16   2.0000      -0.556862       -15.1530
  17   2.0000      -0.521090       -14.1796
  18   2.0000      -0.513124       -13.9628
  19   2.0000      -0.506741       -13.7891
  20   2.0000      -0.459573       -12.5056
  21   2.0000      -0.418375       -11.3846
  22   2.0000      -0.410917       -11.1816
  23   0.0000       0.027784         0.7560
  24   0.0000       0.036442         0.9916
  25   0.0000       0.039679         1.0797
  26   0.0000       0.041478         1.1287
  27   0.0000       0.053843         1.4652

MULLIKEN ATOMIC CHARGES
-----------------------
   0 O :   -0.628660
   1 H :    0.151990
   2 N :   -0.528442
   3 C :   -0.685839
   4 H :    0.562312
   5 C :    0.540448
   6 H :    0.308345
   7 C :   -0.273851
   8 H :    0.260037
   9 H :    0.302068
  10 C :   -0.545727
  11 H :    0.305186
  12 H :    0.232134
Sum of atomic charges:    0.0000000

LOEWDIN ATOMIC CHARGES
----------------------
   0 O :    0.815387
   1 H :   -0.491417
   2 N :    0.405501
   3 C :    0.043070
   4 H :   -0.177040
   5 C :   -0.429269
   6 H :   -0.150726
   7 C :    0.292960
   8 H :   -0.152175
   9 H :   -0.153201
  10 C :    0.306967
  11 H :   -0.150821
  12 H :   -0.159236

  Mayer bond orders larger than 0.100000
B(  0-O ,  1-H ) :   1.0174 B(  0-O ,  5-C ) :   0.5316 B(  0-O , 10-C ) :   0.1121
B(  2-N ,  3-C ) :   1.6661 B(  2-N ,  5-C ) :   0.6060 B(  3-C ,  4-H ) :   0.5692
B(  3-C ,  5-C ) :  -0.1106 B(  3-C ,  7-C ) :   0.6239 B(  3-C , 10-C ) :   0.1501
B(  5-C ,  6-H ) :   0.9717 B(  5-C , 10-C ) :   0.9828 B(  7-C ,  8-H ) :   0.9397
B(  7-C ,  9-H ) :   0.9202 B(  7-C , 10-C ) :   0.9794 B( 10-C , 11-H ) :   0.9254
B( 10-C , 12-H ) :   0.9695

MP2 TOTAL ENERGY:     -286.066080917 Eh
FINAL SINGLE POINT ENERGY      -286.066080917141

DIPOLE MOMENT
-------------
                                X             Y             Z
Electronic contribution:      1.98502      -2.51349      -0.25327
Nuclear contribution   :     -2.78781       2.78447       0.52670
                        -----------------------------------------
Total Dipole Moment    :     -0.80279       0.27098       0.27343
                        -----------------------------------------
Magnitude (a.u.)       :      0.89032
Magnitude (Debye)      :      2.26301

Rotational constants in cm-1:     0.230334     0.117514     0.085824
Rotational constants in MHz :  6905.225436  3522.985584  2572.938349

                             ****ORCA TERMINATED NORMALLY****
TOTAL RUN TIME: 0 days 0 hours 2 minutes 56 seconds 148 msec
