                         Program Version 5.0.3 -  RELEASE  -
|  1> !ri-mp2 aug-cc-pvtz aug-cc-pvtz/c tightscf
|  2> %pal nprocs 16 end
|  3>
|  4> * xyz 0 1
|  5> C      2.334677    0.206360        0.000000
|  6> C     -0.822717   -1.740768        0.000000
|  7> C      0.532576   -1.450511        0.000000
|  8> C     -1.767452   -0.721730        0.000000
|  9> C      0.000000    0.919953        0.000000
| 10> C      0.939278   -0.111681        0.000000
| 11> C     -1.355148    0.609356        0.000000
| 12> N      3.459374    0.456490        0.000000
| 13> O     -2.231417    1.653229        0.000000
| 14> H     -1.151422   -2.770634        0.000000
| 15> H      1.270287   -2.238560        0.000000
| 16> H     -2.824291   -0.959587        0.000000
| 17> H      0.311031    1.954012        0.000000
| 18> H     -3.137157    1.327635        0.000000
| 19> *
| 20>
| 21>                          ****END OF INPUT****

CARTESIAN COORDINATES (ANGSTROEM)
---------------------------------
  C      2.334677    0.206360    0.000000
  C     -0.822717   -1.740768    0.000000
  C      0.532576   -1.450511    0.000000
  C     -1.767452   -0.721730    0.000000
  C      0.000000    0.919953    0.000000
  C      0.939278   -0.111681    0.000000
  C     -1.355148    0.609356    0.000000
  N      3.459374    0.456490    0.000000
  O     -2.231417    1.653229    0.000000
  H     -1.151422   -2.770634    0.000000
  H      1.270287   -2.238560    0.000000
  H     -2.824291   -0.959587    0.000000
  H      0.311031    1.954012    0.000000
  H     -3.137157    1.327635    0.000000

 Total Charge           Charge          ....    0
 Multiplicity           Mult            ....    1
 Number of Electrons    NEL             ....   62
 Basis Dimension        Dim             ....  529

ORBITAL ENERGIES
----------------

  NO   OCC          E(Eh)            E(eV)
   0   2.0000     -20.613533      -560.9227
   1   2.0000     -15.574264      -423.7973
   2   2.0000     -11.331042      -308.3333
   3   2.0000     -11.296553      -307.3948
   4   2.0000     -11.277253      -306.8697
   5   2.0000     -11.268628      -306.6349
   6   2.0000     -11.265060      -306.5379
   7   2.0000     -11.264674      -306.5274
   8   2.0000     -11.263072      -306.4838
   9   2.0000      -1.430249       -38.9190
  10   2.0000      -1.228608       -33.4321
  11   2.0000      -1.182597       -32.1801
  12   2.0000      -1.066655       -29.0251
  13   2.0000      -1.041914       -28.3519
  14   2.0000      -0.904600       -24.6154
  15   2.0000      -0.859241       -23.3811
  16   2.0000      -0.795503       -21.6467
  17   2.0000      -0.716502       -19.4970
  18   2.0000      -0.697047       -18.9676
  19   2.0000      -0.673291       -18.3212
  20   2.0000      -0.631708       -17.1897
  21   2.0000      -0.617234       -16.7958
  22   2.0000      -0.600485       -16.3400
  23   2.0000      -0.569954       -15.5092
  24   2.0000      -0.552494       -15.0341
  25   2.0000      -0.542305       -14.7569
  26   2.0000      -0.531397       -14.4600
  27   2.0000      -0.476433       -12.9644
  28   2.0000      -0.471504       -12.8303
  29   2.0000      -0.367003        -9.9867
  30   2.0000      -0.343773        -9.3545
  31   0.0000       0.016795         0.4570
  32   0.0000       0.028562         0.7772
  33   0.0000       0.037656         1.0247
  34   0.0000       0.046966         1.2780
  35   0.0000       0.053907         1.4669

MULLIKEN ATOMIC CHARGES
-----------------------
   0 C :    0.307862
   1 C :   -0.484501
   2 C :   -1.101678
   3 C :   -0.385482
   4 C :   -0.936458
   5 C :    1.735422
   6 C :    0.704861
   7 N :   -0.858314
   8 O :   -0.715652
   9 H :    0.520448
  10 H :    0.201823
  11 H :    0.469298
  12 H :    0.374340
  13 H :    0.168032
Sum of atomic charges:   -0.0000000

LOEWDIN ATOMIC CHARGES
----------------------
   0 C :   -0.235488
   1 C :    0.203899
   2 C :    0.204267
   3 C :    0.227368
   4 C :    0.225019
   5 C :   -0.204657
   6 C :   -0.363200
   7 N :    0.272820
   8 O :    0.845276
   9 H :   -0.176780
  10 H :   -0.177066
  11 H :   -0.178958
  12 H :   -0.169023
  13 H :   -0.473479

  Mayer bond orders larger than 0.100000
B(  0-C ,  2-C ) :   0.3990 B(  0-C ,  3-C ) :   0.1240 B(  0-C ,  4-C ) :   0.1515
B(  0-C ,  5-C ) :   0.5193 B(  0-C ,  7-N ) :   1.7366 B(  1-C ,  2-C ) :   1.3016
B(  1-C ,  3-C ) :   1.0913 B(  1-C ,  6-C ) :  -0.1126 B(  1-C ,  9-H ) :   0.7068
B(  2-C ,  5-C ) :   0.2933 B(  2-C ,  7-N ) :   0.1116 B(  2-C , 10-H ) :   1.2484
B(  3-C ,  4-C ) :   0.2789 B(  3-C ,  5-C ) :  -0.1181 B(  3-C ,  6-C ) :   1.0315
B(  3-C ,  8-O ) :  -0.1453 B(  3-C , 11-H ) :   0.7158 B(  4-C ,  5-C ) :   0.3287
B(  4-C ,  6-C ) :   1.0251 B(  4-C , 12-H ) :   0.8982 B(  5-C , 10-H ) :  -0.1529
B(  6-C ,  8-O ) :   0.6248 B(  8-O , 13-H ) :   1.0319

MP2 TOTAL ENERGY:     -398.966622998 Eh
FINAL SINGLE POINT ENERGY      -398.966622998011

DIPOLE MOMENT
-------------
                                X             Y             Z
Electronic contribution:      3.17621       1.78030      -0.00000
Nuclear contribution   :     -5.42153      -2.59853       0.00000
                        -----------------------------------------
Total Dipole Moment    :     -2.24532      -0.81823      -0.00000
                        -----------------------------------------
Magnitude (a.u.)       :      2.38976
Magnitude (Debye)      :      6.07429

Rotational constants in cm-1:     0.114139     0.040457     0.029870
Rotational constants in MHz :  3421.799015  1212.867869   895.466747

                             ****ORCA TERMINATED NORMALLY****
TOTAL RUN TIME: 0 days 0 hours 5 minutes 42 seconds 38 msec
