                         Program Version 5.0.3 -  RELEASE  -
|  1> !ri-mp2 aug-cc-pvtz aug-cc-pvtz/c tightscf
|  2> %pal nprocs 16 end
|  3>
|  4> * xyz 0 1
|  5> S     -1.704462   -0.551936   -0.348464
|  6> S      2.023603   -0.133580   -0.423222
|  7> N      0.632814    0.094551    0.642941
|  8> N     -0.297676   -0.998966    0.631752
|  9> C     -0.067494    1.302057    0.352543
| 10> C     -1.293811    1.155566   -0.146389
| 11> H      2.855091   -0.564541    0.544789
| 12> H     -0.635754   -1.053433    1.588426
| 13> H      0.457833    2.229855    0.510423
| 14> H     -1.961569    1.941553   -0.456436
| 15> *
| 16>
| 17>                          ****END OF INPUT****

CARTESIAN COORDINATES (ANGSTROEM)
---------------------------------
  S     -1.704462   -0.551936   -0.348464
  S      2.023603   -0.133580   -0.423222
  N      0.632814    0.094551    0.642941
  N     -0.297676   -0.998966    0.631752
  C     -0.067494    1.302057    0.352543
  C     -1.293811    1.155566   -0.146389
  H      2.855091   -0.564541    0.544789
  H     -0.635754   -1.053433    1.588426
  H      0.457833    2.229855    0.510423
  H     -1.961569    1.941553   -0.456436

 Total Charge           Charge          ....    0
 Multiplicity           Mult            ....    1
 Number of Electrons    NEL             ....   62
 Basis Dimension        Dim             ....  376

ORBITAL ENERGIES
----------------

  NO   OCC          E(Eh)            E(eV)
   0   2.0000     -91.993564     -2503.2722
   1   2.0000     -91.991179     -2503.2072
   2   2.0000     -15.640626      -425.6031
   3   2.0000     -15.624735      -425.1707
   4   2.0000     -11.283704      -307.0452
   5   2.0000     -11.270881      -306.6963
   6   2.0000      -8.991092      -244.6601
   7   2.0000      -8.988974      -244.6024
   8   2.0000      -6.672104      -181.5572
   9   2.0000      -6.671164      -181.5316
  10   2.0000      -6.669992      -181.4997
  11   2.0000      -6.669869      -181.4964
  12   2.0000      -6.668961      -181.4717
  13   2.0000      -6.667872      -181.4420
  14   2.0000      -1.335140       -36.3310
  15   2.0000      -1.110964       -30.2309
  16   2.0000      -1.077392       -29.3173
  17   2.0000      -0.955788       -26.0083
  18   2.0000      -0.850978       -23.1563
  19   2.0000      -0.786326       -21.3970
  20   2.0000      -0.702936       -19.1279
  21   2.0000      -0.672967       -18.3124
  22   2.0000      -0.612865       -16.6769
  23   2.0000      -0.580733       -15.8025
  24   2.0000      -0.543322       -14.7845
  25   2.0000      -0.496100       -13.4996
  26   2.0000      -0.488933       -13.3045
  27   2.0000      -0.439364       -11.9557
  28   2.0000      -0.417393       -11.3578
  29   2.0000      -0.376143       -10.2354
  30   2.0000      -0.308885        -8.4052
  31   0.0000       0.028303         0.7702
  32   0.0000       0.034878         0.9491
  33   0.0000       0.041971         1.1421
  34   0.0000       0.048020         1.3067
  35   0.0000       0.069274         1.8850

MULLIKEN ATOMIC CHARGES
-----------------------
   0 S :   -0.015892
   1 S :   -0.112985
   2 N :    0.009593
   3 N :   -0.364881
   4 C :   -0.404308
   5 C :   -0.348094
   6 H :    0.150513
   7 H :    0.104584
   8 H :    0.523488
   9 H :    0.457982
Sum of atomic charges:    0.0000000

LOEWDIN ATOMIC CHARGES
----------------------
   0 S :    1.040709
   1 S :    1.174117
   2 N :   -0.344499
   3 N :    0.026460
   4 C :   -0.172562
   5 C :   -0.219434
   6 H :   -0.582815
   7 H :   -0.444101
   8 H :   -0.209416
   9 H :   -0.268459

  Mayer bond orders larger than 0.100000
B(  0-S ,  3-N ) :   0.9395 B(  0-S ,  5-C ) :   0.9707 B(  1-S ,  2-N ) :   0.8760
B(  1-S ,  6-H ) :   1.0244 B(  2-N ,  3-N ) :   0.6902 B(  2-N ,  4-C ) :   0.8566
B(  2-N ,  5-C ) :  -0.1422 B(  3-N ,  7-H ) :   0.9575 B(  4-C ,  5-C ) :   1.5809
B(  4-C ,  8-H ) :   0.7052 B(  5-C ,  9-H ) :   0.8047

MP2 TOTAL ENERGY:     -983.116205915 Eh
FINAL SINGLE POINT ENERGY      -983.116205914827

DIPOLE MOMENT
-------------
                                X             Y             Z
Electronic contribution:     -0.72681      -1.85888      -1.66460
Nuclear contribution   :      0.68565       2.48917       2.14932
                        -----------------------------------------
Total Dipole Moment    :     -0.04116       0.63029       0.48473
                        -----------------------------------------
Magnitude (a.u.)       :      0.79619
Magnitude (Debye)      :      2.02375

Rotational constants in cm-1:     0.173792     0.058091     0.050282
Rotational constants in MHz :  5210.159931  1741.531848  1507.409896

                             ****ORCA TERMINATED NORMALLY****
TOTAL RUN TIME: 0 days 0 hours 2 minutes 20 seconds 924 msec
