                         Program Version 5.0.3 -  RELEASE  -
|  1> !ri-mp2 aug-cc-pvtz aug-cc-pvtz/c tightscf
|  2> %pal nprocs 16 end
|  3>
|  4> * xyz 0 1
|  5> O    -1.801585   -0.353946   -1.263177
|  6> S    -1.102837   -0.138972    0.000074
|  7> O    -1.800137   -0.353814    1.264151
|  8> C     0.470647   -1.077138   -0.000655
|  9> C     1.551977   -0.034521   -0.000177
| 10> C     2.979502   -0.481812    0.000109
| 11> C    -0.322179    1.520248   -0.000351
| 12> C     1.145332    1.235846   -0.000038
| 13> H     0.476225   -1.706442   -0.890781
| 14> H     0.476388   -1.707450    0.888755
| 15> H     3.659750    0.368607    0.000410
| 16> H     3.197004   -1.095951   -0.877283
| 17> H     3.196558   -1.096217    0.877425
| 18> H    -0.672041    2.042715   -0.890512
| 19> H    -0.672325    2.043260    0.889375
| 20> H     1.845935    2.061374    0.000310
| 21> *
| 22>
| 23>                          ****END OF INPUT****

CARTESIAN COORDINATES (ANGSTROEM)
---------------------------------
  O     -1.801585   -0.353946   -1.263177
  S     -1.102837   -0.138972    0.000074
  O     -1.800137   -0.353814    1.264151
  C      0.470647   -1.077138   -0.000655
  C      1.551977   -0.034521   -0.000177
  C      2.979502   -0.481812    0.000109
  C     -0.322179    1.520248   -0.000351
  C      1.145332    1.235846   -0.000038
  H      0.476225   -1.706442   -0.890781
  H      0.476388   -1.707450    0.888755
  H      3.659750    0.368607    0.000410
  H      3.197004   -1.095951   -0.877283
  H      3.196558   -1.096217    0.877425
  H     -0.672041    2.042715   -0.890512
  H     -0.672325    2.043260    0.889375
  H      1.845935    2.061374    0.000310

 Total Charge           Charge          ....    0
 Multiplicity           Mult            ....    1
 Number of Electrons    NEL             ....   70
 Basis Dimension        Dim             ....  556

ORBITAL ENERGIES
----------------

  NO   OCC          E(Eh)            E(eV)
   0   2.0000     -92.176841     -2508.2594
   1   2.0000     -20.542668      -558.9944
   2   2.0000     -20.542646      -558.9938
   3   2.0000     -11.283321      -307.0348
   4   2.0000     -11.282740      -307.0190
   5   2.0000     -11.277855      -306.8860
   6   2.0000     -11.262763      -306.4754
   7   2.0000     -11.250836      -306.1508
   8   2.0000      -9.146960      -248.9014
   9   2.0000      -6.831449      -185.8932
  10   2.0000      -6.830854      -185.8770
  11   2.0000      -6.830810      -185.8758
  12   2.0000      -1.439322       -39.1659
  13   2.0000      -1.328865       -36.1603
  14   2.0000      -1.168362       -31.7928
  15   2.0000      -1.046235       -28.4695
  16   2.0000      -1.007946       -27.4276
  17   2.0000      -0.932861       -25.3844
  18   2.0000      -0.816118       -22.2077
  19   2.0000      -0.766394       -20.8547
  20   2.0000      -0.688366       -18.7314
  21   2.0000      -0.669639       -18.2218
  22   2.0000      -0.639018       -17.3886
  23   2.0000      -0.632081       -17.1998
  24   2.0000      -0.625685       -17.0257
  25   2.0000      -0.609415       -16.5830
  26   2.0000      -0.604057       -16.4372
  27   2.0000      -0.579765       -15.7762
  28   2.0000      -0.549700       -14.9581
  29   2.0000      -0.541498       -14.7349
  30   2.0000      -0.488891       -13.3034
  31   2.0000      -0.484236       -13.1767
  32   2.0000      -0.466216       -12.6864
  33   2.0000      -0.424044       -11.5388
  34   2.0000      -0.380912       -10.3651
  35   0.0000       0.020577         0.5599
  36   0.0000       0.027672         0.7530
  37   0.0000       0.036133         0.9832
  38   0.0000       0.038324         1.0428
  39   0.0000       0.049497         1.3469

MULLIKEN ATOMIC CHARGES
-----------------------
   0 O :   -1.009678
   1 S :    2.019390
   2 O :   -1.009714
   3 C :   -0.597438
   4 C :    0.860323
   5 C :   -0.994787
   6 C :   -0.361767
   7 C :   -1.069620
   8 H :    0.263428
   9 H :    0.263496
  10 H :    0.257930
  11 H :    0.278659
  12 H :    0.278671
  13 H :    0.291979
  14 H :    0.291972
  15 H :    0.237157
Sum of atomic charges:    0.0000000

LOEWDIN ATOMIC CHARGES
----------------------
   0 O :    0.011476
   1 S :    0.320712
   2 O :    0.011506
   3 C :    0.221109
   4 C :   -0.148781
   5 C :    0.585286
   6 C :    0.211165
   7 C :    0.205209
   8 H :   -0.181959
   9 H :   -0.181970
  10 H :   -0.172519
  11 H :   -0.162702
  12 H :   -0.162703
  13 H :   -0.191263
  14 H :   -0.191269
  15 H :   -0.173295

  Mayer bond orders larger than 0.100000
B(  0-O ,  1-S ) :   1.1139 B(  0-O ,  6-C ) :   0.1029 B(  1-S ,  2-O ) :   1.1142
B(  1-S ,  3-C ) :   0.8967 B(  1-S ,  6-C ) :   0.8687 B(  1-S ,  7-C ) :   0.1600
B(  2-O ,  6-C ) :   0.1026 B(  3-C ,  4-C ) :   0.9016 B(  3-C ,  8-H ) :   0.9441
B(  3-C ,  9-H ) :   0.9441 B(  4-C ,  5-C ) :   0.6571 B(  4-C ,  6-C ) :  -0.1257
B(  4-C ,  7-C ) :   1.1497 B(  5-C , 10-H ) :   1.0191 B(  5-C , 11-H ) :   1.0083
B(  5-C , 12-H ) :   1.0083 B(  6-C ,  7-C ) :   0.9189 B(  6-C , 13-H ) :   0.9218
B(  6-C , 14-H ) :   0.9219 B(  7-C , 15-H ) :   1.1586

MP2 TOTAL ENERGY:     -742.855725119 Eh
FINAL SINGLE POINT ENERGY      -742.855725118717

DIPOLE MOMENT
-------------
                                X             Y             Z
Electronic contribution:     -9.13986      -0.35282       0.00121
Nuclear contribution   :     11.42289       0.89816      -0.00228
                        -----------------------------------------
Total Dipole Moment    :      2.28303       0.54534      -0.00107
                        -----------------------------------------
Magnitude (a.u.)       :      2.34726
Magnitude (Debye)      :      5.96625

Rotational constants in cm-1:     0.116837     0.043016     0.039712
Rotational constants in MHz :  3502.695217  1289.572437  1190.531426

                             ****ORCA TERMINATED NORMALLY****
TOTAL RUN TIME: 0 days 0 hours 6 minutes 32 seconds 409 msec
