                         Program Version 5.0.3 -  RELEASE  -
|  1> !ri-mp2 aug-cc-pvtz aug-cc-pvtz/c tightscf
|  2> %pal nprocs 16 end
|  3>
|  4> * xyz 0 1
|  5> C      0.332422   -0.120738    2.576193
|  6> C      0.332422   -0.120738   -2.576193
|  7> C     -1.326599   -0.799534    0.000000
|  8> C      0.332422    0.658899    1.260993
|  9> C      0.332422    0.658899   -1.260993
| 10> C      0.076207   -0.183223    0.000000
| 11> H      1.064695   -0.930894    2.552760
| 12> H      0.589136    0.530437    3.413029
| 13> H     -0.640971   -0.560347    2.794714
| 14> H      0.589136    0.530437   -3.413029
| 15> H     -0.640971   -0.560347   -2.794714
| 16> H      1.064695   -0.930894   -2.552760
| 17> H     -2.090417   -0.016871    0.000000
| 18> H     -1.492605   -1.425260    0.876651
| 19> H     -1.492605   -1.425260   -0.876651
| 20> H      1.299473    1.157680    1.150999
| 21> H     -0.414951    1.458132    1.311128
| 22> H     -0.414951    1.458132   -1.311128
| 23> H      1.299473    1.157680   -1.150999
| 24> H      0.805074   -1.004008    0.000000
| 25> *
| 26>
| 27>                          ****END OF INPUT****

CARTESIAN COORDINATES (ANGSTROEM)
---------------------------------
  C      0.332422   -0.120738    2.576193
  C      0.332422   -0.120738   -2.576193
  C     -1.326599   -0.799534    0.000000
  C      0.332422    0.658899    1.260993
  C      0.332422    0.658899   -1.260993
  C      0.076207   -0.183223    0.000000
  H      1.064695   -0.930894    2.552760
  H      0.589136    0.530437    3.413029
  H     -0.640971   -0.560347    2.794714
  H      0.589136    0.530437   -3.413029
  H     -0.640971   -0.560347   -2.794714
  H      1.064695   -0.930894   -2.552760
  H     -2.090417   -0.016871    0.000000
  H     -1.492605   -1.425260    0.876651
  H     -1.492605   -1.425260   -0.876651
  H      1.299473    1.157680    1.150999
  H     -0.414951    1.458132    1.311128
  H     -0.414951    1.458132   -1.311128
  H      1.299473    1.157680   -1.150999
  H      0.805074   -1.004008    0.000000

 Total Charge           Charge          ....    0
 Multiplicity           Mult            ....    1
 Number of Electrons    NEL             ....   50
 Basis Dimension        Dim             ....  598

ORBITAL ENERGIES
----------------

  NO   OCC          E(Eh)            E(eV)
   0   2.0000     -11.219724      -305.3042
   1   2.0000     -11.213135      -305.1249
   2   2.0000     -11.213098      -305.1239
   3   2.0000     -11.208142      -304.9890
   4   2.0000     -11.208141      -304.9890
   5   2.0000     -11.205850      -304.9267
   6   2.0000      -1.094100       -29.7720
   7   2.0000      -1.012876       -27.5618
   8   2.0000      -0.961799       -26.1719
   9   2.0000      -0.887802       -24.1583
  10   2.0000      -0.818840       -22.2818
  11   2.0000      -0.757249       -20.6058
  12   2.0000      -0.635602       -17.2956
  13   2.0000      -0.618693       -16.8355
  14   2.0000      -0.590774       -16.0758
  15   2.0000      -0.572534       -15.5794
  16   2.0000      -0.548814       -14.9340
  17   2.0000      -0.537904       -14.6371
  18   2.0000      -0.522354       -14.2140
  19   2.0000      -0.506783       -13.7903
  20   2.0000      -0.490856       -13.3569
  21   2.0000      -0.475119       -12.9286
  22   2.0000      -0.452278       -12.3071
  23   2.0000      -0.444431       -12.0936
  24   2.0000      -0.438112       -11.9216
  25   0.0000       0.031014         0.8439
  26   0.0000       0.034388         0.9357
  27   0.0000       0.036545         0.9944
  28   0.0000       0.038556         1.0492
  29   0.0000       0.052314         1.4235

MULLIKEN ATOMIC CHARGES
-----------------------
   0 C :   -1.017471
   1 C :   -1.017471
   2 C :   -1.087800
   3 C :   -0.611012
   4 C :   -0.611012
   5 C :    0.525515
   6 H :    0.243742
   7 H :    0.261205
   8 H :    0.302792
   9 H :    0.261205
  10 H :    0.302792
  11 H :    0.243742
  12 H :    0.231639
  13 H :    0.284775
  14 H :    0.284775
  15 H :    0.284640
  16 H :    0.231915
  17 H :    0.231915
  18 H :    0.284640
  19 H :    0.369473
Sum of atomic charges:    0.0000000

LOEWDIN ATOMIC CHARGES
----------------------
   0 C :    0.584869
   1 C :    0.584869
   2 C :    0.590553
   3 C :    0.268609
   4 C :    0.268609
   5 C :   -0.035470
   6 H :   -0.165578
   7 H :   -0.171141
   8 H :   -0.182235
   9 H :   -0.171141
  10 H :   -0.182235
  11 H :   -0.165578
  12 H :   -0.153832
  13 H :   -0.176201
  14 H :   -0.176201
  15 H :   -0.152084
  16 H :   -0.140628
  17 H :   -0.140628
  18 H :   -0.152084
  19 H :   -0.132476

  Mayer bond orders larger than 0.100000
B(  0-C ,  3-C ) :   0.9000 B(  0-C ,  6-H ) :   0.9931 B(  0-C ,  7-H ) :   1.0132
B(  0-C ,  8-H ) :   0.9323 B(  1-C ,  4-C ) :   0.9000 B(  1-C ,  9-H ) :   1.0132
B(  1-C , 10-H ) :   0.9323 B(  1-C , 11-H ) :   0.9931 B(  2-C ,  3-C ) :   0.1476
B(  2-C ,  4-C ) :   0.1476 B(  2-C ,  5-C ) :   0.5996 B(  2-C , 12-H ) :   1.0203
B(  2-C , 13-H ) :   0.9638 B(  2-C , 14-H ) :   0.9638 B(  3-C ,  5-C ) :   0.8047
B(  3-C , 15-H ) :   0.9335 B(  3-C , 16-H ) :   0.9792 B(  4-C ,  5-C ) :   0.8047
B(  4-C , 17-H ) :   0.9792 B(  4-C , 18-H ) :   0.9335 B(  5-C , 19-H ) :   0.8241

MP2 TOTAL ENERGY:     -236.536258323 Eh
FINAL SINGLE POINT ENERGY      -236.536258322501

DIPOLE MOMENT
-------------
                                X             Y             Z
Electronic contribution:      0.54968       0.62551      -0.00000
Nuclear contribution   :     -0.51844      -0.61171       0.00000
                        -----------------------------------------
Total Dipole Moment    :      0.03124       0.01379      -0.00000
                        -----------------------------------------
Magnitude (a.u.)       :      0.03415
Magnitude (Debye)      :      0.08680

Rotational constants in cm-1:     0.217428     0.061444     0.052923
Rotational constants in MHz :  6518.319294  1842.041642  1586.591451

                             ****ORCA TERMINATED NORMALLY****
TOTAL RUN TIME: 0 days 0 hours 6 minutes 45 seconds 228 msec
