                         Program Version 5.0.3 -  RELEASE  -
|  1> !ri-mp2 aug-cc-pvtz aug-cc-pvtz/c tightscf
|  2> %pal nprocs 16 end
|  3>
|  4> * xyz 0 1
|  5> C     -1.019949    1.869903    0.005061
|  6> C     -2.035560    0.925894   -0.000762
|  7> C      0.315136    1.486331    0.004036
|  8> C     -0.402977   -0.840723   -0.007286
|  9> C     -1.742943   -0.445332   -0.006521
| 10> C      0.587891    0.126743   -0.001813
| 11> N     -2.757551   -1.389060   -0.067066
| 12> N      1.997431   -0.318897    0.000986
| 13> O      2.865495    0.541162   -0.001230
| 14> O      2.215470   -1.522514    0.006001
| 15> H     -1.272850    2.921047    0.010796
| 16> H     -3.069081    1.248201   -0.005007
| 17> H      1.119865    2.202562    0.008669
| 18> H     -0.125177   -1.883684   -0.015106
| 19> H     -3.666794   -1.094774    0.247033
| 20> H     -2.522433   -2.323737    0.221720
| 21> *
| 22>
| 23>                          ****END OF INPUT****

CARTESIAN COORDINATES (ANGSTROEM)
---------------------------------
  C     -1.019949    1.869903    0.005061
  C     -2.035560    0.925894   -0.000762
  C      0.315136    1.486331    0.004036
  C     -0.402977   -0.840723   -0.007286
  C     -1.742943   -0.445332   -0.006521
  C      0.587891    0.126743   -0.001813
  N     -2.757551   -1.389060   -0.067066
  N      1.997431   -0.318897    0.000986
  O      2.865495    0.541162   -0.001230
  O      2.215470   -1.522514    0.006001
  H     -1.272850    2.921047    0.010796
  H     -3.069081    1.248201   -0.005007
  H      1.119865    2.202562    0.008669
  H     -0.125177   -1.883684   -0.015106
  H     -3.666794   -1.094774    0.247033
  H     -2.522433   -2.323737    0.221720

 Total Charge           Charge          ....    0
 Multiplicity           Mult            ....    1
 Number of Electrons    NEL             ....   72
 Basis Dimension        Dim             ....  598

ORBITAL ENERGIES
----------------

  NO   OCC          E(Eh)            E(eV)
   0   2.0000     -20.600050      -560.5559
   1   2.0000     -20.599440      -560.5393
   2   2.0000     -15.851010      -431.3279
   3   2.0000     -15.587162      -424.1482
   4   2.0000     -11.310379      -307.7711
   5   2.0000     -11.308817      -307.7286
   6   2.0000     -11.263172      -306.4865
   7   2.0000     -11.260269      -306.4075
   8   2.0000     -11.258237      -306.3522
   9   2.0000     -11.256308      -306.2997
  10   2.0000      -1.604162       -43.6515
  11   2.0000      -1.397021       -38.0149
  12   2.0000      -1.253610       -34.1125
  13   2.0000      -1.177277       -32.0353
  14   2.0000      -1.081876       -29.4393
  15   2.0000      -1.027052       -27.9475
  16   2.0000      -0.958215       -26.0744
  17   2.0000      -0.858413       -23.3586
  18   2.0000      -0.829031       -22.5591
  19   2.0000      -0.778088       -21.1729
  20   2.0000      -0.733422       -19.9574
  21   2.0000      -0.716691       -19.5021
  22   2.0000      -0.710868       -19.3437
  23   2.0000      -0.698844       -19.0165
  24   2.0000      -0.674184       -18.3455
  25   2.0000      -0.628750       -17.1092
  26   2.0000      -0.623327       -16.9616
  27   2.0000      -0.565542       -15.3892
  28   2.0000      -0.554484       -15.0883
  29   2.0000      -0.537074       -14.6145
  30   2.0000      -0.492566       -13.4034
  31   2.0000      -0.491272       -13.3682
  32   2.0000      -0.479694       -13.0531
  33   2.0000      -0.452114       -12.3026
  34   2.0000      -0.374646       -10.1946
  35   2.0000      -0.322304        -8.7703
  36   0.0000       0.018259         0.4969
  37   0.0000       0.028070         0.7638
  38   0.0000       0.035682         0.9709
  39   0.0000       0.039146         1.0652
  40   0.0000       0.048092         1.3087

MULLIKEN ATOMIC CHARGES
-----------------------
   0 C :   -0.406280
   1 C :   -0.735358
   2 C :   -0.574174
   3 C :   -0.669252
   4 C :    1.125868
   5 C :    0.518784
   6 N :   -0.747976
   7 N :    0.749046
   8 O :   -0.679931
   9 O :   -0.683799
  10 H :    0.421569
  11 H :    0.429259
  12 H :    0.557026
  13 H :    0.573371
  14 H :    0.055505
  15 H :    0.066340
Sum of atomic charges:   -0.0000000

LOEWDIN ATOMIC CHARGES
----------------------
   0 C :    0.205237
   1 C :    0.236370
   2 C :    0.204988
   3 C :    0.231660
   4 C :   -0.229461
   5 C :   -0.223971
   6 N :    0.857565
   7 N :   -0.703864
   8 O :    0.392597
   9 O :    0.390986
  10 H :   -0.176986
  11 H :   -0.175681
  12 H :   -0.202740
  13 H :   -0.199730
  14 H :   -0.304379
  15 H :   -0.302593

  Mayer bond orders larger than 0.100000
B(  0-C ,  1-C ) :   1.1687 B(  0-C ,  2-C ) :   1.1953 B(  0-C ,  5-C ) :  -0.2028
B(  0-C , 10-H ) :   0.8619 B(  1-C ,  2-C ) :   0.3273 B(  1-C ,  3-C ) :   0.4651
B(  1-C ,  4-C ) :   0.7514 B(  1-C ,  6-N ) :  -0.1720 B(  1-C , 11-H ) :   0.7854
B(  2-C ,  3-C ) :   0.2889 B(  2-C ,  5-C ) :   0.7869 B(  2-C ,  7-N ) :  -0.1692
B(  2-C ,  8-O ) :  -0.1049 B(  2-C , 12-H ) :   0.6182 B(  3-C ,  4-C ) :   0.7609
B(  3-C ,  5-C ) :   0.6665 B(  3-C ,  6-N ) :  -0.1572 B(  3-C ,  7-N ) :  -0.2555
B(  3-C ,  9-O ) :  -0.1324 B(  3-C , 13-H ) :   0.4683 B(  4-C ,  6-N ) :   0.6556
B(  5-C ,  7-N ) :   1.3167 B(  5-C ,  8-O ) :   0.3284 B(  5-C ,  9-O ) :   0.3310
B(  6-N , 14-H ) :   1.1373 B(  6-N , 15-H ) :   1.1155 B(  7-N ,  8-O ) :   1.0229
B(  7-N ,  9-O ) :   1.0621 B(  8-O ,  9-O ) :   0.1136

MP2 TOTAL ENERGY:     -491.254871808 Eh
FINAL SINGLE POINT ENERGY      -491.254871807886

DIPOLE MOMENT
-------------
                                X             Y             Z
Electronic contribution:      6.95625      -0.76784      -0.11542
Nuclear contribution   :     -9.26188       1.02216       0.45795
                        -----------------------------------------
Total Dipole Moment    :     -2.30562       0.25433       0.34253
                        -----------------------------------------
Magnitude (a.u.)       :      2.34476
Magnitude (Debye)      :      5.95992

Rotational constants in cm-1:     0.090880     0.033034     0.024239
Rotational constants in MHz :  2724.517637   990.324372   726.669246

                             ****ORCA TERMINATED NORMALLY****
TOTAL RUN TIME: 0 days 0 hours 9 minutes 14 seconds 563 msec
