                         Program Version 5.0.3 -  RELEASE  -
|  1> !ri-mp2 aug-cc-pvtz aug-cc-pvtz/c tightscf
|  2> %pal nprocs 16 end
|  3>
|  4> * xyz 0 1
|  5> S    -1.131399   -1.070775   -0.000017
|  6> N     1.538046   -1.000510   -0.000058
|  7> N     0.653008    1.084197    0.000038
|  8> N     2.510851   -0.057395   -0.000035
|  9> C     0.445498   -0.256528   -0.000012
| 10> C     1.967699    1.170963    0.000021
| 11> C    -2.199076    0.233648    0.000030
| 12> C    -3.054062    1.079168    0.000059
| 13> H     3.478056   -0.332882   -0.000061
| 14> H     2.546140    2.079525    0.000047
| 15> H    -3.795499    1.838204    0.000079
| 16> *
| 17>
| 18>                          ****END OF INPUT****

CARTESIAN COORDINATES (ANGSTROEM)
---------------------------------
  S     -1.131399   -1.070775   -0.000017
  N      1.538046   -1.000510   -0.000058
  N      0.653008    1.084197    0.000038
  N      2.510851   -0.057395   -0.000035
  C      0.445498   -0.256528   -0.000012
  C      1.967699    1.170963    0.000021
  C     -2.199076    0.233648    0.000030
  C     -3.054062    1.079168    0.000059
  H      3.478056   -0.332882   -0.000061
  H      2.546140    2.079525    0.000047
  H     -3.795499    1.838204    0.000079

 Total Charge           Charge          ....    0
 Multiplicity           Mult            ....    1
 Number of Electrons    NEL             ....   64
 Basis Dimension        Dim             ....  441

ORBITAL ENERGIES
----------------

  NO   OCC          E(Eh)            E(eV)
   0   2.0000     -92.003806     -2503.5508
   1   2.0000     -15.668528      -426.3623
   2   2.0000     -15.608210      -424.7210
   3   2.0000     -15.574069      -423.7920
   4   2.0000     -11.336429      -308.4799
   5   2.0000     -11.335163      -308.4455
   6   2.0000     -11.257348      -306.3280
   7   2.0000     -11.237452      -305.7866
   8   2.0000      -9.002930      -244.9822
   9   2.0000      -6.684457      -181.8933
  10   2.0000      -6.683161      -181.8580
  11   2.0000      -6.682180      -181.8314
  12   2.0000      -1.432685       -38.9853
  13   2.0000      -1.218600       -33.1598
  14   2.0000      -1.147570       -31.2270
  15   2.0000      -1.075933       -29.2776
  16   2.0000      -0.984487       -26.7893
  17   2.0000      -0.882393       -24.0111
  18   2.0000      -0.818256       -22.2659
  19   2.0000      -0.785484       -21.3741
  20   2.0000      -0.721580       -19.6352
  21   2.0000      -0.656999       -17.8779
  22   2.0000      -0.654582       -17.8121
  23   2.0000      -0.625066       -17.0089
  24   2.0000      -0.536936       -14.6108
  25   2.0000      -0.512626       -13.9493
  26   2.0000      -0.496293       -13.5048
  27   2.0000      -0.465363       -12.6632
  28   2.0000      -0.431612       -11.7448
  29   2.0000      -0.404766       -11.0142
  30   2.0000      -0.400147       -10.8885
  31   2.0000      -0.326562        -8.8862
  32   0.0000       0.018761         0.5105
  33   0.0000       0.033705         0.9172
  34   0.0000       0.037842         1.0297
  35   0.0000       0.065580         1.7845
  36   0.0000       0.067498         1.8367

MULLIKEN ATOMIC CHARGES
-----------------------
   0 S :   -0.246531
   1 N :   -0.693121
   2 N :   -0.284211
   3 N :    0.158487
   4 C :    0.672422
   5 C :   -0.539761
   6 C :    0.956460
   7 C :   -1.381362
   8 H :    0.162219
   9 H :    0.640102
  10 H :    0.555297
Sum of atomic charges:    0.0000000

LOEWDIN ATOMIC CHARGES
----------------------
   0 S :    1.144387
   1 N :    0.232871
   2 N :    0.313050
   3 N :    0.322031
   4 C :   -0.949417
   5 C :   -0.077561
   6 C :   -0.535651
   7 C :    0.284019
   8 H :   -0.258744
   9 H :   -0.167289
  10 H :   -0.307695

  Mayer bond orders larger than 0.100000
B(  0-S ,  4-C ) :   0.8320 B(  0-S ,  6-C ) :   0.9664 B(  1-N ,  3-N ) :   0.5218
B(  1-N ,  4-C ) :   1.2979 B(  1-N ,  5-C ) :   0.1032 B(  2-N ,  4-C ) :   0.8930
B(  2-N ,  5-C ) :   1.3804 B(  3-N ,  5-C ) :   1.3177 B(  3-N ,  8-H ) :   1.0636
B(  4-C ,  5-C ) :  -0.3353 B(  5-C ,  9-H ) :   0.5206 B(  6-C ,  7-C ) :   1.0135
B(  7-C , 10-H ) :   0.7528

MP2 TOTAL ENERGY:     -715.524481025 Eh
FINAL SINGLE POINT ENERGY      -715.524481025000

DIPOLE MOMENT
-------------
                                X             Y             Z
Electronic contribution:     -0.86431      -2.75816      -0.00006
Nuclear contribution   :      2.20054       3.47487       0.00006
                        -----------------------------------------
Total Dipole Moment    :      1.33623       0.71671      -0.00000
                        -----------------------------------------
Magnitude (a.u.)       :      1.51630
Magnitude (Debye)      :      3.85414

Rotational constants in cm-1:     0.157633     0.040072     0.031950
Rotational constants in MHz :  4725.705923  1201.317228   957.828542

                             ****ORCA TERMINATED NORMALLY****
TOTAL RUN TIME: 0 days 0 hours 3 minutes 22 seconds 911 msec
