                         Program Version 5.0.3 -  RELEASE  -
|  1> !ri-mp2 aug-cc-pvtz aug-cc-pvtz/c tightscf
|  2> %pal nprocs 16 end
|  3>
|  4> * xyz 0 1
|  5> C      0.906853    0.321148   -0.017128
|  6> C      1.943934   -0.786999   -0.005884
|  7> C     -0.933612   -0.544883    1.418768
|  8> C     -0.861053   -1.193432   -1.015538
|  9> C     -1.437212    1.161991   -0.352359
| 10> C     -0.585568   -0.063766   -0.006852
| 11> O      1.259489    1.479477   -0.029986
| 12> H      2.897115   -0.377609    0.318312
| 13> H      1.660429   -1.625395    0.628697
| 14> H      2.062196   -1.175511   -1.020006
| 15> H     -0.366445   -1.430877    1.704810
| 16> H     -0.740904    0.236991    2.154158
| 17> H     -1.993325   -0.800366    1.469308
| 18> H     -0.315821   -2.105697   -0.774352
| 19> H     -0.592539   -0.894537   -2.030268
| 20> H     -1.924863   -1.435703   -1.013178
| 21> H     -1.207435    1.532654   -1.351356
| 22> H     -1.258629    1.976552    0.346678
| 23> H     -2.495732    0.899320   -0.318958
| 24> *
| 25>
| 26>                          ****END OF INPUT****

CARTESIAN COORDINATES (ANGSTROEM)
---------------------------------
  C      0.906853    0.321148   -0.017128
  C      1.943934   -0.786999   -0.005884
  C     -0.933612   -0.544883    1.418768
  C     -0.861053   -1.193432   -1.015538
  C     -1.437212    1.161991   -0.352359
  C     -0.585568   -0.063766   -0.006852
  O      1.259489    1.479477   -0.029986
  H      2.897115   -0.377609    0.318312
  H      1.660429   -1.625395    0.628697
  H      2.062196   -1.175511   -1.020006
  H     -0.366445   -1.430877    1.704810
  H     -0.740904    0.236991    2.154158
  H     -1.993325   -0.800366    1.469308
  H     -0.315821   -2.105697   -0.774352
  H     -0.592539   -0.894537   -2.030268
  H     -1.924863   -1.435703   -1.013178
  H     -1.207435    1.532654   -1.351356
  H     -1.258629    1.976552    0.346678
  H     -2.495732    0.899320   -0.318958

 Total Charge           Charge          ....    0
 Multiplicity           Mult            ....    1
 Number of Electrons    NEL             ....   56
 Basis Dimension        Dim             ....  598

ORBITAL ENERGIES
----------------

  NO   OCC          E(Eh)            E(eV)
   0   2.0000     -20.541130      -558.9526
   1   2.0000     -11.325055      -308.1704
   2   2.0000     -11.250199      -306.1335
   3   2.0000     -11.231263      -305.6182
   4   2.0000     -11.226903      -305.4996
   5   2.0000     -11.226656      -305.4928
   6   2.0000     -11.210438      -305.0515
   7   2.0000      -1.384742       -37.6807
   8   2.0000      -1.110177       -30.2095
   9   2.0000      -1.002996       -27.2929
  10   2.0000      -0.946170       -25.7466
  11   2.0000      -0.934387       -25.4260
  12   2.0000      -0.835108       -22.7244
  13   2.0000      -0.704980       -19.1835
  14   2.0000      -0.664093       -18.0709
  15   2.0000      -0.631552       -17.1854
  16   2.0000      -0.618695       -16.8356
  17   2.0000      -0.597342       -16.2545
  18   2.0000      -0.591676       -16.1003
  19   2.0000      -0.564857       -15.3705
  20   2.0000      -0.545591       -14.8463
  21   2.0000      -0.544070       -14.8049
  22   2.0000      -0.523436       -14.2434
  23   2.0000      -0.513410       -13.9706
  24   2.0000      -0.497302       -13.5323
  25   2.0000      -0.473676       -12.8894
  26   2.0000      -0.467288       -12.7155
  27   2.0000      -0.398596       -10.8463
  28   0.0000       0.026776         0.7286
  29   0.0000       0.033094         0.9005
  30   0.0000       0.035960         0.9785
  31   0.0000       0.039743         1.0815
  32   0.0000       0.052872         1.4387

MULLIKEN ATOMIC CHARGES
-----------------------
   0 C :    0.791903
   1 C :   -0.812822
   2 C :   -1.173056
   3 C :   -1.142278
   4 C :   -1.283020
   5 C :    1.356969
   6 O :   -1.075807
   7 H :    0.301938
   8 H :    0.316917
   9 H :    0.274266
  10 H :    0.306893
  11 H :    0.286422
  12 H :    0.234639
  13 H :    0.298837
  14 H :    0.308447
  15 H :    0.228191
  16 H :    0.260202
  17 H :    0.295687
  18 H :    0.225674
Sum of atomic charges:    0.0000000

LOEWDIN ATOMIC CHARGES
----------------------
   0 C :   -0.492901
   1 C :    0.592589
   2 C :    0.589117
   3 C :    0.579353
   4 C :    0.564269
   5 C :   -0.356165
   6 O :    0.490951
   7 H :   -0.177192
   8 H :   -0.184127
   9 H :   -0.165843
  10 H :   -0.169891
  11 H :   -0.151812
  12 H :   -0.154887
  13 H :   -0.170305
  14 H :   -0.151445
  15 H :   -0.155526
  16 H :   -0.157241
  17 H :   -0.167441
  18 H :   -0.161502

  Mayer bond orders larger than 0.100000
B(  0-C ,  1-C ) :   0.7832 B(  0-C ,  5-C ) :   1.0193 B(  0-C ,  6-O ) :   0.8601
B(  1-C ,  7-H ) :   0.9619 B(  1-C ,  8-H ) :   0.9349 B(  1-C ,  9-H ) :   0.9593
B(  2-C ,  3-C ) :   0.1159 B(  2-C ,  4-C ) :   0.1025 B(  2-C ,  5-C ) :   0.6487
B(  2-C , 10-H ) :   0.9529 B(  2-C , 11-H ) :   0.9846 B(  2-C , 12-H ) :   1.0267
B(  3-C ,  5-C ) :   0.5624 B(  3-C , 13-H ) :   0.9897 B(  3-C , 14-H ) :   0.9834
B(  3-C , 15-H ) :   1.0416 B(  4-C ,  5-C ) :   0.3010 B(  4-C ,  6-O ) :   0.1284
B(  4-C , 16-H ) :   1.0429 B(  4-C , 17-H ) :   1.0114 B(  4-C , 18-H ) :   1.0634

MP2 TOTAL ENERGY:     -310.470352043 Eh
FINAL SINGLE POINT ENERGY      -310.470352043061

DIPOLE MOMENT
-------------
                                X             Y             Z
Electronic contribution:      4.04701       4.23969      -0.09619
Nuclear contribution   :     -4.46903      -5.43585       0.11904
                        -----------------------------------------
Total Dipole Moment    :     -0.42202      -1.19616       0.02285
                        -----------------------------------------
Magnitude (a.u.)       :      1.26863
Magnitude (Debye)      :      3.22460

Rotational constants in cm-1:     0.106446     0.076452     0.063773
Rotational constants in MHz :  3191.182861  2291.984649  1911.876330

                             ****ORCA TERMINATED NORMALLY****
TOTAL RUN TIME: 0 days 0 hours 8 minutes 34 seconds 448 msec
