                         Program Version 5.0.3 -  RELEASE  -
|  1> !ri-mp2 aug-cc-pvtz aug-cc-pvtz/c tightscf
|  2> %pal nprocs 16 end
|  3>
|  4> * xyz 0 1
|  5> C     -0.218611   -2.656740    0.856457
|  6> C      0.218611    2.656740    0.856457
|  7> C      0.001222    2.061425   -0.542357
|  8> C     -0.001222   -2.061425   -0.542357
|  9> C      0.001222   -0.601199   -0.556308
| 10> C     -0.001222    0.601199   -0.556308
| 11> H     -0.212880   -3.746339    0.811070
| 12> H      0.212880    3.746339    0.811070
| 13> H      1.174145    2.335610    1.270132
| 14> H     -0.567645    2.337886    1.540172
| 15> H      0.567645   -2.337886    1.540172
| 16> H     -1.174145   -2.335610    1.270132
| 17> H      0.780734    2.424674   -1.217851
| 18> H     -0.945635    2.426023   -0.950275
| 19> H      0.945635   -2.426023   -0.950275
| 20> H     -0.780734   -2.424674   -1.217851
| 21> *
| 22>
| 23>                          ****END OF INPUT****

CARTESIAN COORDINATES (ANGSTROEM)
---------------------------------
  C     -0.218611   -2.656740    0.856457
  C      0.218611    2.656740    0.856457
  C      0.001222    2.061425   -0.542357
  C     -0.001222   -2.061425   -0.542357
  C      0.001222   -0.601199   -0.556308
  C     -0.001222    0.601199   -0.556308
  H     -0.212880   -3.746339    0.811070
  H      0.212880    3.746339    0.811070
  H      1.174145    2.335610    1.270132
  H     -0.567645    2.337886    1.540172
  H      0.567645   -2.337886    1.540172
  H     -1.174145   -2.335610    1.270132
  H      0.780734    2.424674   -1.217851
  H     -0.945635    2.426023   -0.950275
  H      0.945635   -2.426023   -0.950275
  H     -0.780734   -2.424674   -1.217851

 Total Charge           Charge          ....    0
 Multiplicity           Mult            ....    1
 Number of Electrons    NEL             ....   46
 Basis Dimension        Dim             ....  506

ORBITAL ENERGIES
----------------

  NO   OCC          E(Eh)            E(eV)
   0   2.0000     -11.244513      -305.9787
   1   2.0000     -11.244512      -305.9787
   2   2.0000     -11.219177      -305.2893
   3   2.0000     -11.219177      -305.2893
   4   2.0000     -11.212884      -305.1181
   5   2.0000     -11.209062      -305.0141
   6   2.0000      -1.081529       -29.4299
   7   2.0000      -1.050790       -28.5935
   8   2.0000      -0.971615       -26.4390
   9   2.0000      -0.879838       -23.9416
  10   2.0000      -0.847693       -23.0669
  11   2.0000      -0.662490       -18.0273
  12   2.0000      -0.627313       -17.0700
  13   2.0000      -0.624260       -16.9870
  14   2.0000      -0.615084       -16.7373
  15   2.0000      -0.545959       -14.8563
  16   2.0000      -0.542637       -14.7659
  17   2.0000      -0.517410       -14.0794
  18   2.0000      -0.514627       -14.0037
  19   2.0000      -0.511082       -13.9073
  20   2.0000      -0.502447       -13.6723
  21   2.0000      -0.360521        -9.8103
  22   2.0000      -0.359098        -9.7716
  23   0.0000       0.030792         0.8379
  24   0.0000       0.031565         0.8589
  25   0.0000       0.040191         1.0937
  26   0.0000       0.040546         1.1033
  27   0.0000       0.051021         1.3884

MULLIKEN ATOMIC CHARGES
-----------------------
   0 C :   -0.953974
   1 C :   -0.953974
   2 C :   -0.514553
   3 C :   -0.514553
   4 C :    0.124546
   5 C :    0.124546
   6 H :    0.283278
   7 H :    0.283278
   8 H :    0.289320
   9 H :    0.289925
  10 H :    0.289925
  11 H :    0.289320
  12 H :    0.250562
  13 H :    0.230895
  14 H :    0.230895
  15 H :    0.250562
Sum of atomic charges:   -0.0000000

LOEWDIN ATOMIC CHARGES
----------------------
   0 C :    0.572769
   1 C :    0.572769
   2 C :    0.187069
   3 C :    0.187069
   4 C :    0.093932
   5 C :    0.093932
   6 H :   -0.174176
   7 H :   -0.174176
   8 H :   -0.172791
   9 H :   -0.172743
  10 H :   -0.172743
  11 H :   -0.172791
  12 H :   -0.167047
  13 H :   -0.167014
  14 H :   -0.167014
  15 H :   -0.167047

  Mayer bond orders larger than 0.100000
B(  0-C ,  3-C ) :   0.9506 B(  0-C ,  6-H ) :   0.9774 B(  0-C , 10-H ) :   0.9280
B(  0-C , 11-H ) :   0.9281 B(  1-C ,  2-C ) :   0.9506 B(  1-C ,  7-H ) :   0.9774
B(  1-C ,  8-H ) :   0.9281 B(  1-C ,  9-H ) :   0.9280 B(  2-C ,  3-C ) :   0.1077
B(  2-C ,  4-C ) :  -0.1692 B(  2-C ,  5-C ) :   1.1963 B(  2-C , 12-H ) :   0.9551
B(  2-C , 13-H ) :   0.9566 B(  3-C ,  4-C ) :   1.1963 B(  3-C ,  5-C ) :  -0.1692
B(  3-C , 14-H ) :   0.9566 B(  3-C , 15-H ) :   0.9551 B(  4-C ,  5-C ) :   2.2021

MP2 TOTAL ENERGY:     -234.079038011 Eh
FINAL SINGLE POINT ENERGY      -234.079038010592

DIPOLE MOMENT
-------------
                                X             Y             Z
Electronic contribution:     -0.00000      -0.00000      -3.00501
Nuclear contribution   :      0.00000      -0.00000       3.05671
                        -----------------------------------------
Total Dipole Moment    :     -0.00000      -0.00000       0.05169
                        -----------------------------------------
Magnitude (a.u.)       :      0.05169
Magnitude (Debye)      :      0.13139

Rotational constants in cm-1:     0.318102     0.046562     0.041994
Rotational constants in MHz :  9536.444621  1395.900519  1258.940981

                             ****ORCA TERMINATED NORMALLY****
TOTAL RUN TIME: 0 days 0 hours 3 minutes 35 seconds 384 msec
