                         Program Version 5.0.3 -  RELEASE  -
|  1> !ri-mp2 aug-cc-pvtz aug-cc-pvtz/c tightscf
|  2> %pal nprocs 16 end
|  3>
|  4> * xyz 0 1
|  5> C     -2.171508   -0.232104   -0.260028
|  6> H     -2.449028    0.531540   -0.977091
|  7> H     -2.897472   -1.011714   -0.074136
|  8> C     -0.999134   -0.216949    0.359116
|  9> H     -0.751263   -1.006444    1.058838
| 10> C      0.047693    0.833307    0.160729
| 11> H     -0.219239    1.524237   -0.645289
| 12> H      0.146644    1.464630    1.055798
| 13> C      1.439026    0.311691   -0.117058
| 14> H      2.190418    1.104526   -0.313882
| 15> O      1.760435   -0.847806   -0.120099
| 16> *
| 17>
| 18>                          ****END OF INPUT****

CARTESIAN COORDINATES (ANGSTROEM)
---------------------------------
  C     -2.171508   -0.232104   -0.260028
  H     -2.449028    0.531540   -0.977091
  H     -2.897472   -1.011714   -0.074136
  C     -0.999134   -0.216949    0.359116
  H     -0.751263   -1.006444    1.058838
  C      0.047693    0.833307    0.160729
  H     -0.219239    1.524237   -0.645289
  H      0.146644    1.464630    1.055798
  C      1.439026    0.311691   -0.117058
  H      2.190418    1.104526   -0.313882
  O      1.760435   -0.847806   -0.120099

 Total Charge           Charge          ....    0
 Multiplicity           Mult            ....    1
 Number of Electrons    NEL             ....   38
 Basis Dimension        Dim             ....  368

ORBITAL ENERGIES
----------------

  NO   OCC          E(Eh)            E(eV)
   0   2.0000     -20.562915      -559.5454
   1   2.0000     -11.338395      -308.5334
   2   2.0000     -11.254368      -306.2469
   3   2.0000     -11.243203      -305.9431
   4   2.0000     -11.229717      -305.5761
   5   2.0000      -1.401552       -38.1382
   6   2.0000      -1.092811       -29.7369
   7   2.0000      -0.988460       -26.8974
   8   2.0000      -0.823908       -22.4197
   9   2.0000      -0.756925       -20.5970
  10   2.0000      -0.681882       -18.5549
  11   2.0000      -0.659661       -17.9503
  12   2.0000      -0.626352       -17.0439
  13   2.0000      -0.595008       -16.1910
  14   2.0000      -0.573814       -15.6143
  15   2.0000      -0.509211       -13.8563
  16   2.0000      -0.505513       -13.7557
  17   2.0000      -0.430995       -11.7280
  18   2.0000      -0.373080       -10.1520
  19   0.0000       0.026545         0.7223
  20   0.0000       0.033981         0.9247
  21   0.0000       0.038998         1.0612
  22   0.0000       0.046195         1.2570
  23   0.0000       0.054318         1.4781

MULLIKEN ATOMIC CHARGES
-----------------------
   0 C :   -1.092749
   1 H :    0.306806
   2 H :    0.490383
   3 C :   -0.163056
   4 H :    0.330644
   5 C :   -0.129546
   6 H :    0.252987
   7 H :    0.298151
   8 C :   -0.114583
   9 H :    0.503399
  10 O :   -0.682435
Sum of atomic charges:    0.0000000

LOEWDIN ATOMIC CHARGES
----------------------
   0 C :    0.526464
   1 H :   -0.220889
   2 H :   -0.225315
   3 C :    0.165245
   4 H :   -0.189377
   5 C :    0.223564
   6 H :   -0.169931
   7 H :   -0.158041
   8 C :   -0.214759
   9 H :   -0.177659
  10 O :    0.440699

  Mayer bond orders larger than 0.100000
B(  0-C ,  1-H ) :   0.9962 B(  0-C ,  2-H ) :   0.7069 B(  0-C ,  3-C ) :   1.4551
B(  3-C ,  4-H ) :   0.8848 B(  3-C ,  5-C ) :   0.8636 B(  5-C ,  6-H ) :   0.9664
B(  5-C ,  7-H ) :   0.9031 B(  5-C ,  8-C ) :   0.9073 B(  8-C ,  9-H ) :   0.6806
B(  8-C , 10-O ) :   1.6276

MP2 TOTAL ENERGY:     -230.775566964 Eh
FINAL SINGLE POINT ENERGY      -230.775566964005

DIPOLE MOMENT
-------------
                                X             Y             Z
Electronic contribution:      3.58933      -1.52458      -0.03397
Nuclear contribution   :     -4.02413       2.64061       0.10421
                        -----------------------------------------
Total Dipole Moment    :     -0.43480       1.11603       0.07024
                        -----------------------------------------
Magnitude (a.u.)       :      1.19979
Magnitude (Debye)      :      3.04964

Rotational constants in cm-1:     0.457612     0.099298     0.087278
Rotational constants in MHz : 13718.865390  2976.893852  2616.537323

                             ****ORCA TERMINATED NORMALLY****
TOTAL RUN TIME: 0 days 0 hours 1 minutes 36 seconds 284 msec
