                         Program Version 5.0.3 -  RELEASE  -
|  1> !ri-mp2 aug-cc-pvtz aug-cc-pvtz/c tightscf
|  2> %pal nprocs 16 end
|  3> %maxcore 3800
|  4>
|  5> * xyz 0 1
|  6> C      4.015672    0.099100    0.289449
|  7> C     -3.659890   -0.381305    0.397793
|  8> C     -1.312953    1.589945   -0.274353
|  9> C      2.736727   -0.537959   -0.251184
| 10> C     -2.319478   -0.745039   -0.241002
| 11> C      1.463534    0.175911    0.206921
| 12> C      0.184875   -0.466156   -0.335149
| 13> C     -1.132203    0.137622    0.180181
| 14> H      4.109221    1.136544   -0.038345
| 15> H      4.025788    0.097510    1.381427
| 16> H      4.903264   -0.436410   -0.050520
| 17> H     -3.592023   -0.395135    1.487967
| 18> H     -4.434015   -1.093105    0.107456
| 19> H     -4.003439    0.609778    0.100382
| 20> H     -0.491110    2.223149    0.059161
| 21> H     -1.356401    1.648509   -1.365506
| 22> H     -2.232244    2.024627    0.117681
| 23> H      2.769370   -0.548538   -1.344870
| 24> H      2.692400   -1.586189    0.059526
| 25> H     -2.414267   -0.714025   -1.331790
| 26> H     -2.082615   -1.782577    0.011079
| 27> H      1.429172    0.178672    1.301980
| 28> H      1.519308    1.224408   -0.097653
| 29> H      0.198956   -1.530706   -0.080311
| 30> H      0.192317   -0.418766   -1.430343
| 31> H     -1.091387    0.129538    1.276747
| 32> *
| 33>
| 34>                          ****END OF INPUT****

CARTESIAN COORDINATES (ANGSTROEM)
---------------------------------
  C      4.015672    0.099100    0.289449
  C     -3.659890   -0.381305    0.397793
  C     -1.312953    1.589945   -0.274353
  C      2.736727   -0.537959   -0.251184
  C     -2.319478   -0.745039   -0.241002
  C      1.463534    0.175911    0.206921
  C      0.184875   -0.466156   -0.335149
  C     -1.132203    0.137622    0.180181
  H      4.109221    1.136544   -0.038345
  H      4.025788    0.097510    1.381427
  H      4.903264   -0.436410   -0.050520
  H     -3.592023   -0.395135    1.487967
  H     -4.434015   -1.093105    0.107456
  H     -4.003439    0.609778    0.100382
  H     -0.491110    2.223149    0.059161
  H     -1.356401    1.648509   -1.365506
  H     -2.232244    2.024627    0.117681
  H      2.769370   -0.548538   -1.344870
  H      2.692400   -1.586189    0.059526
  H     -2.414267   -0.714025   -1.331790
  H     -2.082615   -1.782577    0.011079
  H      1.429172    0.178672    1.301980
  H      1.519308    1.224408   -0.097653
  H      0.198956   -1.530706   -0.080311
  H      0.192317   -0.418766   -1.430343
  H     -1.091387    0.129538    1.276747

 Total Charge           Charge          ....    0
 Multiplicity           Mult            ....    1
 Number of Electrons    NEL             ....   66
 Basis Dimension        Dim             ....  782

ORBITAL ENERGIES
----------------

  NO   OCC          E(Eh)            E(eV)
   0   2.0000     -11.219619      -305.3013
   1   2.0000     -11.214212      -305.1542
   2   2.0000     -11.212891      -305.1183
   3   2.0000     -11.211552      -305.0818
   4   2.0000     -11.210511      -305.0535
   5   2.0000     -11.208387      -304.9957
   6   2.0000     -11.207964      -304.9842
   7   2.0000     -11.205610      -304.9201
   8   2.0000      -1.098773       -29.8991
   9   2.0000      -1.055445       -28.7201
  10   2.0000      -0.993578       -27.0366
  11   2.0000      -0.952496       -25.9187
  12   2.0000      -0.889276       -24.1984
  13   2.0000      -0.835032       -22.7224
  14   2.0000      -0.786226       -21.3943
  15   2.0000      -0.757960       -20.6251
  16   2.0000      -0.646205       -17.5841
  17   2.0000      -0.622608       -16.9420
  18   2.0000      -0.607898       -16.5417
  19   2.0000      -0.588642       -16.0178
  20   2.0000      -0.572722       -15.5846
  21   2.0000      -0.561145       -15.2695
  22   2.0000      -0.542005       -14.7487
  23   2.0000      -0.527737       -14.3604
  24   2.0000      -0.513278       -13.9670
  25   2.0000      -0.505023       -13.7424
  26   2.0000      -0.491692       -13.3796
  27   2.0000      -0.481353       -13.0983
  28   2.0000      -0.469054       -12.7636
  29   2.0000      -0.460413       -12.5285
  30   2.0000      -0.451663       -12.2904
  31   2.0000      -0.442366       -12.0374
  32   2.0000      -0.427544       -11.6341
  33   0.0000       0.030151         0.8204
  34   0.0000       0.031747         0.8639
  35   0.0000       0.034673         0.9435
  36   0.0000       0.036414         0.9909
  37   0.0000       0.045627         1.2416

MULLIKEN ATOMIC CHARGES
-----------------------
   0 C :   -1.009845
   1 C :   -1.034313
   2 C :   -1.142156
   3 C :   -0.517981
   4 C :   -0.668391
   5 C :   -0.321211
   6 C :   -0.505544
   7 C :    0.569202
   8 H :    0.261548
   9 H :    0.253495
  10 H :    0.278939
  11 H :    0.239668
  12 H :    0.262736
  13 H :    0.298928
  14 H :    0.312867
  15 H :    0.217493
  16 H :    0.256905
  17 H :    0.225864
  18 H :    0.225749
  19 H :    0.224518
  20 H :    0.261612
  21 H :    0.207181
  22 H :    0.252847
  23 H :    0.297519
  24 H :    0.232947
  25 H :    0.319424
Sum of atomic charges:   -0.0000000

LOEWDIN ATOMIC CHARGES
----------------------
   0 C :    0.578944
   1 C :    0.585176
   2 C :    0.594833
   3 C :    0.260236
   4 C :    0.271115
   5 C :    0.275788
   6 C :    0.288156
   7 C :   -0.025207
   8 H :   -0.171645
   9 H :   -0.171604
  10 H :   -0.174365
  11 H :   -0.165526
  12 H :   -0.171120
  13 H :   -0.182168
  14 H :   -0.174897
  15 H :   -0.153255
  16 H :   -0.176030
  17 H :   -0.146234
  18 H :   -0.148482
  19 H :   -0.140130
  20 H :   -0.151662
  21 H :   -0.136555
  22 H :   -0.155124
  23 H :   -0.145949
  24 H :   -0.132974
  25 H :   -0.131320

  Mayer bond orders larger than 0.100000
B(  0-C ,  3-C ) :   0.9190 B(  0-C ,  8-H ) :   0.9720 B(  0-C ,  9-H ) :   0.9816
B(  0-C , 10-H ) :   0.9903 B(  1-C ,  4-C ) :   0.9090 B(  1-C , 11-H ) :   1.0005
B(  1-C , 12-H ) :   1.0185 B(  1-C , 13-H ) :   0.9393 B(  2-C ,  4-C ) :   0.1761
B(  2-C ,  6-C ) :   0.1838 B(  2-C ,  7-C ) :   0.5015 B(  2-C , 14-H ) :   0.9404
B(  2-C , 15-H ) :   1.0469 B(  2-C , 16-H ) :   1.0092 B(  3-C ,  5-C ) :   0.8928
B(  3-C , 17-H ) :   0.9696 B(  3-C , 18-H ) :   0.9892 B(  4-C ,  7-C ) :   0.8040
B(  4-C , 19-H ) :   0.9987 B(  4-C , 20-H ) :   0.9620 B(  5-C ,  6-C ) :   0.9820
B(  5-C , 21-H ) :   0.9728 B(  5-C , 22-H ) :   0.9524 B(  6-C ,  7-C ) :   0.8864
B(  6-C , 21-H ) :   0.1098 B(  6-C , 23-H ) :   0.9012 B(  6-C , 24-H ) :   0.9644
B(  7-C , 25-H ) :   0.8621

MP2 TOTAL ENERGY:     -314.986415569 Eh
FINAL SINGLE POINT ENERGY      -314.986415569254

DIPOLE MOMENT
-------------
                                X             Y             Z
Electronic contribution:     -0.15221      -0.86332      -0.16876
Nuclear contribution   :      0.15440       0.83258       0.17803
                        -----------------------------------------
Total Dipole Moment    :      0.00219      -0.03074       0.00927
                        -----------------------------------------
Magnitude (a.u.)       :      0.03218
Magnitude (Debye)      :      0.08181

Rotational constants in cm-1:     0.179402     0.022822     0.021411
Rotational constants in MHz :  5378.351231   684.176547   641.874287

                             ****ORCA TERMINATED NORMALLY****
TOTAL RUN TIME: 0 days 0 hours 14 minutes 57 seconds 365 msec
