                         Program Version 5.0.3 -  RELEASE  -
|  1> !ri-mp2 aug-cc-pvtz aug-cc-pvtz/c tightscf
|  2> %pal nprocs 16 end
|  3>
|  4> * xyz 0 1
|  5> S     -2.060348   -0.589692   -0.009626
|  6> S     -0.161916    1.601569    0.011242
|  7> N      3.126547   -0.356597    0.009543
|  8> C     -0.350403   -0.148815   -0.003521
|  9> C      0.655072   -1.051986   -0.012853
| 10> C      2.016548   -0.678636    0.001914
| 11> H      0.437308   -2.110497   -0.041709
| 12> H     -1.873141   -1.910659    0.164177
| 13> H      1.178921    1.603923   -0.128368
| 14> *
| 15>
| 16>                          ****END OF INPUT****

CARTESIAN COORDINATES (ANGSTROEM)
---------------------------------
  S     -2.060348   -0.589692   -0.009626
  S     -0.161916    1.601569    0.011242
  N      3.126547   -0.356597    0.009543
  C     -0.350403   -0.148815   -0.003521
  C      0.655072   -1.051986   -0.012853
  C      2.016548   -0.678636    0.001914
  H      0.437308   -2.110497   -0.041709
  H     -1.873141   -1.910659    0.164177
  H      1.178921    1.603923   -0.128368

 Total Charge           Charge          ....    0
 Multiplicity           Mult            ....    1
 Number of Electrons    NEL             ....   60
 Basis Dimension        Dim             ....  353

ORBITAL ENERGIES
----------------

  NO   OCC          E(Eh)            E(eV)
   0   2.0000     -92.011436     -2503.7585
   1   2.0000     -92.005714     -2503.6028
   2   2.0000     -15.579270      -423.9335
   3   2.0000     -11.363153      -309.2071
   4   2.0000     -11.286968      -307.1340
   5   2.0000     -11.285454      -307.0928
   6   2.0000      -9.012375      -245.2392
   7   2.0000      -9.006904      -245.0903
   8   2.0000      -6.693638      -182.1432
   9   2.0000      -6.692512      -182.1125
  10   2.0000      -6.691482      -182.0845
  11   2.0000      -6.688168      -181.9943
  12   2.0000      -6.687072      -181.9645
  13   2.0000      -6.686082      -181.9375
  14   2.0000      -1.232510       -33.5383
  15   2.0000      -1.163637       -31.6642
  16   2.0000      -1.022242       -27.8166
  17   2.0000      -1.008185       -27.4341
  18   2.0000      -0.822369       -22.3778
  19   2.0000      -0.718709       -19.5571
  20   2.0000      -0.686556       -18.6821
  21   2.0000      -0.575324       -15.6554
  22   2.0000      -0.567416       -15.4402
  23   2.0000      -0.553686       -15.0666
  24   2.0000      -0.523135       -14.2352
  25   2.0000      -0.516388       -14.0516
  26   2.0000      -0.486707       -13.2440
  27   2.0000      -0.474583       -12.9141
  28   2.0000      -0.405213       -11.0264
  29   2.0000      -0.348987        -9.4964
  30   0.0000       0.021572         0.5870
  31   0.0000       0.040567         1.1039
  32   0.0000       0.042382         1.1533
  33   0.0000       0.053631         1.4594
  34   0.0000       0.071511         1.9459

MULLIKEN ATOMIC CHARGES
-----------------------
   0 S :   -0.288851
   1 S :   -0.299189
   2 N :   -0.661148
   3 C :    0.444831
   4 C :   -0.261304
   5 C :    0.380697
   6 H :    0.390367
   7 H :    0.136628
   8 H :    0.157969
Sum of atomic charges:   -0.0000000

LOEWDIN ATOMIC CHARGES
----------------------
   0 S :    1.254508
   1 S :    1.275945
   2 N :    0.262896
   3 C :   -1.045124
   4 C :   -0.045323
   5 C :   -0.333847
   6 H :   -0.245339
   7 H :   -0.554429
   8 H :   -0.569286

  Mayer bond orders larger than 0.100000
B(  0-S ,  3-C ) :   0.9759 B(  0-S ,  7-H ) :   1.0498 B(  1-S ,  3-C ) :   1.0213
B(  1-S ,  8-H ) :   1.0046 B(  2-N ,  5-C ) :   2.2530 B(  3-C ,  4-C ) :   1.4073
B(  4-C ,  5-C ) :   1.0599 B(  4-C ,  6-H ) :   0.8482

MP2 TOTAL ENERGY:     -965.943512408 Eh
FINAL SINGLE POINT ENERGY      -965.943512408140

DIPOLE MOMENT
-------------
                                X             Y             Z
Electronic contribution:     -1.16148       1.80475       0.00098
Nuclear contribution   :     -0.16346      -2.35645      -0.00567
                        -----------------------------------------
Total Dipole Moment    :     -1.32495      -0.55170      -0.00468
                        -----------------------------------------
Magnitude (a.u.)       :      1.43523
Magnitude (Debye)      :      3.64806

Rotational constants in cm-1:     0.134941     0.050380     0.036693
Rotational constants in MHz :  4045.442686  1510.350140  1100.016949

                             ****ORCA TERMINATED NORMALLY****
TOTAL RUN TIME: 0 days 0 hours 1 minutes 58 seconds 501 msec
