                         Program Version 5.0.3 -  RELEASE  -
|  1> !ri-mp2 aug-cc-pvtz aug-cc-pvtz/c tightscf
|  2> %pal nprocs 16 end
|  3>
|  4> * xyz 0 1
|  5> C      1.869828   -0.647799        0.000000
|  6> C      1.019117   -1.742447        0.000000
|  7> C      1.374486    0.652998        0.000000
|  8> C     -0.877502   -0.243979        0.000000
|  9> C     -0.358346   -1.536330        0.000000
| 10> C      0.000000    0.831402        0.000000
| 11> O     -1.160637   -2.640733        0.000000
| 12> Cl    -0.660272    2.455830        0.000000
| 13> H      2.939624   -0.806173        0.000000
| 14> H      1.400483   -2.753177        0.000000
| 15> H      2.036335    1.505248        0.000000
| 16> H     -1.945745   -0.074236        0.000000
| 17> H     -2.086473   -2.377981        0.000000
| 18> *
| 19>
| 20>                          ****END OF INPUT****

CARTESIAN COORDINATES (ANGSTROEM)
---------------------------------
  C      1.869828   -0.647799    0.000000
  C      1.019117   -1.742447    0.000000
  C      1.374486    0.652998    0.000000
  C     -0.877502   -0.243979    0.000000
  C     -0.358346   -1.536330    0.000000
  C      0.000000    0.831402    0.000000
  O     -1.160637   -2.640733    0.000000
  Cl    -0.660272    2.455830    0.000000
  H      2.939624   -0.806173    0.000000
  H      1.400483   -2.753177    0.000000
  H      2.036335    1.505248    0.000000
  H     -1.945745   -0.074236    0.000000
  H     -2.086473   -2.377981    0.000000

 Total Charge           Charge          ....    0
 Multiplicity           Mult            ....    1
 Number of Electrons    NEL             ....   66
 Basis Dimension        Dim             ....  487

ORBITAL ENERGIES
----------------

  NO   OCC          E(Eh)            E(eV)
   0   2.0000    -104.845170     -2852.9821
   1   2.0000     -20.603510      -560.6500
   2   2.0000     -11.320028      -308.0336
   3   2.0000     -11.313588      -307.8584
   4   2.0000     -11.255586      -306.2801
   5   2.0000     -11.249905      -306.1255
   6   2.0000     -11.242847      -305.9334
   7   2.0000     -11.239504      -305.8425
   8   2.0000     -10.568777      -287.5911
   9   2.0000      -8.035652      -218.6612
  10   2.0000      -8.033780      -218.6103
  11   2.0000      -8.033776      -218.6101
  12   2.0000      -1.419048       -38.6143
  13   2.0000      -1.191718       -32.4283
  14   2.0000      -1.118898       -30.4468
  15   2.0000      -1.029431       -28.0122
  16   2.0000      -1.003586       -27.3090
  17   2.0000      -0.863189       -23.4886
  18   2.0000      -0.824803       -22.4440
  19   2.0000      -0.746045       -20.3009
  20   2.0000      -0.701596       -19.0914
  21   2.0000      -0.668362       -18.1871
  22   2.0000      -0.620935       -16.8965
  23   2.0000      -0.605970       -16.4893
  24   2.0000      -0.594792       -16.1851
  25   2.0000      -0.586962       -15.9720
  26   2.0000      -0.540972       -14.7206
  27   2.0000      -0.534605       -14.5473
  28   2.0000      -0.511021       -13.9056
  29   2.0000      -0.462267       -12.5789
  30   2.0000      -0.459057       -12.4916
  31   2.0000      -0.351189        -9.5563
  32   2.0000      -0.328285        -8.9331
  33   0.0000       0.026487         0.7208
  34   0.0000       0.031078         0.8457
  35   0.0000       0.038950         1.0599
  36   0.0000       0.050767         1.3814
  37   0.0000       0.053355         1.4519

MULLIKEN ATOMIC CHARGES
-----------------------
   0 C :   -0.157709
   1 C :   -0.740750
   2 C :   -0.849710
   3 C :   -0.939944
   4 C :    0.969165
   5 C :    0.635444
   6 O :   -0.701894
   7 Cl:   -0.484791
   8 H :    0.513171
   9 H :    0.559707
  10 H :    0.499882
  11 H :    0.525067
  12 H :    0.172362
Sum of atomic charges:   -0.0000000

LOEWDIN ATOMIC CHARGES
----------------------
   0 C :    0.179715
   1 C :    0.211453
   2 C :    0.101030
   3 C :    0.118378
   4 C :   -0.385836
   5 C :   -0.772190
   6 O :    0.842092
   7 Cl:    0.960581
   8 H :   -0.179052
   9 H :   -0.183354
  10 H :   -0.209331
  11 H :   -0.206279
  12 H :   -0.477207

  Mayer bond orders larger than 0.100000
B(  0-C ,  1-C ) :   1.0450 B(  0-C ,  2-C ) :   1.1383 B(  0-C ,  3-C ) :  -0.1053
B(  0-C ,  4-C ) :  -0.1596 B(  0-C ,  8-H ) :   0.7485 B(  1-C ,  2-C ) :   0.2838
B(  1-C ,  3-C ) :   0.4538 B(  1-C ,  4-C ) :   0.8267 B(  1-C ,  5-C ) :  -0.1011
B(  1-C ,  9-H ) :   0.5559 B(  2-C ,  3-C ) :   0.4090 B(  2-C ,  5-C ) :   1.0503
B(  2-C ,  8-H ) :  -0.1004 B(  2-C , 10-H ) :   0.7827 B(  3-C ,  4-C ) :   0.8078
B(  3-C ,  5-C ) :   1.0443 B(  3-C ,  6-O ) :  -0.1517 B(  3-C , 11-H ) :   0.5797
B(  4-C ,  6-O ) :   0.8051 B(  5-C ,  7-Cl) :   0.7221 B(  6-O , 12-H ) :   1.0291

MP2 TOTAL ENERGY:     -766.000457847 Eh
FINAL SINGLE POINT ENERGY      -766.000457847050

DIPOLE MOMENT
-------------
                                X             Y             Z
Electronic contribution:     -3.23770       7.43626      -0.00000
Nuclear contribution   :      3.15339      -7.77262       0.00000
                        -----------------------------------------
Total Dipole Moment    :     -0.08431      -0.33636      -0.00000
                        -----------------------------------------
Magnitude (a.u.)       :      0.34676
Magnitude (Debye)      :      0.88141

Rotational constants in cm-1:     0.115320     0.039485     0.029414
Rotational constants in MHz :  3457.209224  1183.731618   881.805653

                             ****ORCA TERMINATED NORMALLY****
TOTAL RUN TIME: 0 days 0 hours 4 minutes 54 seconds 50 msec
