                         Program Version 5.0.3 -  RELEASE  -
|  1> !ri-mp2 aug-cc-pvtz aug-cc-pvtz/c tightscf
|  2> %pal nprocs 16 end
|  3>
|  4> * xyz 0 1
|  5> O     -2.132717   -1.095340    0.252518
|  6> O      0.610471    1.752049   -0.467087
|  7> N      1.491407   -0.901688   -0.337217
|  8> N      2.510476   -0.318967    0.031214
|  9> N      3.520422    0.108687    0.290218
| 10> C      0.232239   -0.500781    0.281776
| 11> C     -1.595681    1.278882    0.363472
| 12> C     -0.861691   -1.447344   -0.252856
| 13> C     -0.161431    0.954486    0.005105
| 14> C     -2.543735    0.195754   -0.169896
| 15> H      0.271704   -0.619788    1.372356
| 16> H     -1.844528    2.263920   -0.029043
| 17> H     -1.679931    1.309068    1.453493
| 18> H     -0.657202   -2.466746    0.065853
| 19> H     -0.850944   -1.418392   -1.349027
| 20> H     -3.551721    0.340673    0.213185
| 21> H     -2.583755    0.235389   -1.265368
| 22> *
| 23>
| 24>                          ****END OF INPUT****

CARTESIAN COORDINATES (ANGSTROEM)
---------------------------------
  O     -2.132717   -1.095340    0.252518
  O      0.610471    1.752049   -0.467087
  N      1.491407   -0.901688   -0.337217
  N      2.510476   -0.318967    0.031214
  N      3.520422    0.108687    0.290218
  C      0.232239   -0.500781    0.281776
  C     -1.595681    1.278882    0.363472
  C     -0.861691   -1.447344   -0.252856
  C     -0.161431    0.954486    0.005105
  C     -2.543735    0.195754   -0.169896
  H      0.271704   -0.619788    1.372356
  H     -1.844528    2.263920   -0.029043
  H     -1.679931    1.309068    1.453493
  H     -0.657202   -2.466746    0.065853
  H     -0.850944   -1.418392   -1.349027
  H     -3.551721    0.340673    0.213185
  H     -2.583755    0.235389   -1.265368

 Total Charge           Charge          ....    0
 Multiplicity           Mult            ....    1
 Number of Electrons    NEL             ....   74
 Basis Dimension        Dim             ....  621

ORBITAL ENERGIES
----------------

  NO   OCC          E(Eh)            E(eV)
   0   2.0000     -20.583966      -560.1182
   1   2.0000     -20.568177      -559.6886
   2   2.0000     -15.785231      -429.5380
   3   2.0000     -15.669256      -426.3821
   4   2.0000     -15.608923      -424.7404
   5   2.0000     -11.348460      -308.8073
   6   2.0000     -11.304555      -307.6126
   7   2.0000     -11.303696      -307.5892
   8   2.0000     -11.302943      -307.5687
   9   2.0000     -11.255489      -306.2774
  10   2.0000      -1.510151       -41.0933
  11   2.0000      -1.414327       -38.4858
  12   2.0000      -1.403314       -38.1861
  13   2.0000      -1.299011       -35.3479
  14   2.0000      -1.086104       -29.5544
  15   2.0000      -1.067443       -29.0466
  16   2.0000      -0.918482       -24.9932
  17   2.0000      -0.877689       -23.8831
  18   2.0000      -0.799090       -21.7443
  19   2.0000      -0.747520       -20.3411
  20   2.0000      -0.716541       -19.4981
  21   2.0000      -0.712662       -19.3925
  22   2.0000      -0.690723       -18.7955
  23   2.0000      -0.679022       -18.4771
  24   2.0000      -0.665311       -18.1040
  25   2.0000      -0.650960       -17.7135
  26   2.0000      -0.643191       -17.5021
  27   2.0000      -0.613082       -16.6828
  28   2.0000      -0.595305       -16.1991
  29   2.0000      -0.567960       -15.4550
  30   2.0000      -0.537207       -14.6181
  31   2.0000      -0.520612       -14.1666
  32   2.0000      -0.493392       -13.4259
  33   2.0000      -0.461809       -12.5664
  34   2.0000      -0.445434       -12.1209
  35   2.0000      -0.425591       -11.5809
  36   2.0000      -0.379925       -10.3383
  37   0.0000       0.025136         0.6840
  38   0.0000       0.032329         0.8797
  39   0.0000       0.035528         0.9668
  40   0.0000       0.044405         1.2083
  41   0.0000       0.050922         1.3857

MULLIKEN ATOMIC CHARGES
-----------------------
   0 O :   -0.767370
   1 O :   -0.939009
   2 N :   -0.963990
   3 N :    1.418288
   4 N :   -0.966726
   5 C :    0.440811
   6 C :   -0.384862
   7 C :   -0.258620
   8 C :    0.512897
   9 C :   -0.331106
  10 H :    0.292212
  11 H :    0.334969
  12 H :    0.247875
  13 H :    0.372982
  14 H :    0.343761
  15 H :    0.375791
  16 H :    0.272097
Sum of atomic charges:    0.0000000

LOEWDIN ATOMIC CHARGES
----------------------
   0 O :    0.577975
   1 O :    0.481751
   2 N :    0.229862
   3 N :   -0.227705
   4 N :    0.305449
   5 C :   -0.213930
   6 C :    0.305424
   7 C :    0.031417
   8 C :   -0.497975
   9 C :    0.050145
  10 H :   -0.143573
  11 H :   -0.153145
  12 H :   -0.145102
  13 H :   -0.151520
  14 H :   -0.148004
  15 H :   -0.153134
  16 H :   -0.147935

  Mayer bond orders larger than 0.100000
B(  0-O ,  7-C ) :   0.8312 B(  0-O ,  9-C ) :   0.8662 B(  1-O ,  8-C ) :   1.0929
B(  2-N ,  3-N ) :   0.7711 B(  2-N ,  4-N ) :   0.6839 B(  2-N ,  5-C ) :   0.5347
B(  2-N ,  7-C ) :   0.1247 B(  2-N ,  8-C ) :   0.1468 B(  3-N ,  4-N ) :   0.8744
B(  4-N ,  5-C ) :   0.1299 B(  5-C ,  7-C ) :   0.9039 B(  5-C ,  8-C ) :   0.8917
B(  5-C , 10-H ) :   0.9180 B(  6-C ,  8-C ) :   0.8353 B(  6-C ,  9-C ) :   0.9885
B(  6-C , 11-H ) :   0.8676 B(  6-C , 12-H ) :   0.9614 B(  7-C ,  8-C ) :   0.1445
B(  7-C , 13-H ) :   0.9070 B(  7-C , 14-H ) :   0.9253 B(  9-C , 15-H ) :   0.9048
B(  9-C , 16-H ) :   0.9704

MP2 TOTAL ENERGY:     -508.495618639 Eh
FINAL SINGLE POINT ENERGY      -508.495618639471

DIPOLE MOMENT
-------------
                                X             Y             Z
Electronic contribution:      9.52214       0.15802       0.00564
Nuclear contribution   :    -10.71033      -0.34668       0.45099
                        -----------------------------------------
Total Dipole Moment    :     -1.18819      -0.18866       0.45663
                        -----------------------------------------
Magnitude (a.u.)       :      1.28682
Magnitude (Debye)      :      3.27082

Rotational constants in cm-1:     0.096599     0.031534     0.025077
Rotational constants in MHz :  2895.968433   945.360650   751.782261

                             ****ORCA TERMINATED NORMALLY****
TOTAL RUN TIME: 0 days 0 hours 10 minutes 15 seconds 318 msec
