                         Program Version 5.0.3 -  RELEASE  -
|  1> !ri-mp2 aug-cc-pvtz aug-cc-pvtz/c tightscf
|  2> %pal nprocs 16 end
|  3>
|  4> * xyz 0 1
|  5> F      0.000000    2.343179   -1.982060
|  6> F      0.000000   -2.343179   -1.982060
|  7> O      0.000003   -1.083137    2.779892
|  8> O     -0.000003    1.083137    2.779892
|  9> N      0.000000    0.000000    2.217668
| 10> C      0.000000    0.000000    0.737023
| 11> C      0.000000    1.183547   -1.305000
| 12> C      0.000000   -1.183547   -1.305000
| 13> C      0.000000   -1.219150    0.077114
| 14> C      0.000000    1.219150    0.077114
| 15> C      0.000000    0.000000   -2.024499
| 16> H      0.000000   -2.150455    0.619296
| 17> H      0.000000    2.150455    0.619296
| 18> H      0.000000    0.000000   -3.103967
| 19> *
| 20>
| 21>                          ****END OF INPUT****

CARTESIAN COORDINATES (ANGSTROEM)
---------------------------------
  F      0.000000    2.343179   -1.982060
  F      0.000000   -2.343179   -1.982060
  O      0.000003   -1.083137    2.779892
  O     -0.000003    1.083137    2.779892
  N      0.000000    0.000000    2.217668
  C      0.000000    0.000000    0.737023
  C      0.000000    1.183547   -1.305000
  C      0.000000   -1.183547   -1.305000
  C      0.000000   -1.219150    0.077114
  C      0.000000    1.219150    0.077114
  C      0.000000    0.000000   -2.024499
  H      0.000000   -2.150455    0.619296
  H      0.000000    2.150455    0.619296
  H      0.000000    0.000000   -3.103967

 Total Charge           Charge          ....    0
 Multiplicity           Mult            ....    1
 Number of Electrons    NEL             ....   80
 Basis Dimension        Dim             ....  575

ORBITAL ENERGIES
----------------

  NO   OCC          E(Eh)            E(eV)
   0   2.0000     -26.345808      -716.9059
   1   2.0000     -26.345808      -716.9059
   2   2.0000     -20.620832      -561.1214
   3   2.0000     -20.620780      -561.1199
   4   2.0000     -15.873079      -431.9284
   5   2.0000     -11.376801      -309.5785
   6   2.0000     -11.376795      -309.5783
   7   2.0000     -11.343362      -308.6686
   8   2.0000     -11.291554      -307.2588
   9   2.0000     -11.290283      -307.2242
  10   2.0000     -11.290250      -307.2233
  11   2.0000      -1.664188       -45.2848
  12   2.0000      -1.663594       -45.2687
  13   2.0000      -1.626759       -44.2664
  14   2.0000      -1.420203       -38.6457
  15   2.0000      -1.229148       -33.4468
  16   2.0000      -1.118931       -30.4477
  17   2.0000      -1.075853       -29.2754
  18   2.0000      -0.996219       -27.1085
  19   2.0000      -0.902648       -24.5623
  20   2.0000      -0.872502       -23.7420
  21   2.0000      -0.817362       -22.2415
  22   2.0000      -0.782970       -21.3057
  23   2.0000      -0.754033       -20.5183
  24   2.0000      -0.743035       -20.2190
  25   2.0000      -0.741282       -20.1713
  26   2.0000      -0.734025       -19.9738
  27   2.0000      -0.731565       -19.9069
  28   2.0000      -0.725467       -19.7410
  29   2.0000      -0.717429       -19.5222
  30   2.0000      -0.687985       -18.7210
  31   2.0000      -0.625418       -17.0185
  32   2.0000      -0.596490       -16.2313
  33   2.0000      -0.595451       -16.2030
  34   2.0000      -0.553449       -15.0601
  35   2.0000      -0.515098       -14.0165
  36   2.0000      -0.512985       -13.9590
  37   2.0000      -0.471496       -12.8301
  38   2.0000      -0.402192       -10.9442
  39   2.0000      -0.383065       -10.4237
  40   0.0000       0.017440         0.4746
  41   0.0000       0.024926         0.6783
  42   0.0000       0.035909         0.9771
  43   0.0000       0.036915         1.0045
  44   0.0000       0.069932         1.9030

MULLIKEN ATOMIC CHARGES
-----------------------
   0 F :   -0.460362
   1 F :   -0.460362
   2 O :   -0.672635
   3 O :   -0.672635
   4 N :    0.774039
   5 C :    0.747191
   6 C :    0.713273
   7 C :    0.713273
   8 C :   -0.611300
   9 C :   -0.611299
  10 C :   -0.963465
  11 H :    0.534330
  12 H :    0.534330
  13 H :    0.435621
Sum of atomic charges:    0.0000000

LOEWDIN ATOMIC CHARGES
----------------------
   0 F :    0.515668
   1 F :    0.515668
   2 O :    0.401551
   3 O :    0.401551
   4 N :   -0.700279
   5 C :   -0.228039
   6 C :   -0.501379
   7 C :   -0.501379
   8 C :    0.213964
   9 C :    0.213964
  10 C :    0.223033
  11 H :   -0.192126
  12 H :   -0.192126
  13 H :   -0.170072

  Mayer bond orders larger than 0.100000
B(  0-F ,  6-C ) :   0.4375 B(  0-F ,  9-C ) :   0.1025 B(  0-F , 10-C ) :   0.1438
B(  1-F ,  7-C ) :   0.4375 B(  1-F ,  8-C ) :   0.1025 B(  1-F , 10-C ) :   0.1438
B(  2-O ,  3-O ) :   0.1202 B(  2-O ,  4-N ) :   1.0618 B(  2-O ,  5-C ) :   0.2536
B(  3-O ,  4-N ) :   1.0618 B(  3-O ,  5-C ) :   0.2536 B(  4-N ,  5-C ) :   1.2981
B(  4-N ,  8-C ) :  -0.2358 B(  4-N ,  9-C ) :  -0.2359 B(  5-C ,  6-C ) :  -0.2179
B(  5-C ,  7-C ) :  -0.2179 B(  5-C ,  8-C ) :   0.7172 B(  5-C ,  9-C ) :   0.7172
B(  5-C , 10-C ) :  -0.1769 B(  6-C ,  7-C ) :  -0.1094 B(  6-C ,  9-C ) :   1.1355
B(  6-C , 10-C ) :   1.3251 B(  7-C ,  8-C ) :   1.1355 B(  7-C , 10-C ) :   1.3251
B(  8-C ,  9-C ) :   0.2386 B(  8-C , 10-C ) :   0.3121 B(  8-C , 11-H ) :   0.5769
B(  9-C , 10-C ) :   0.3121 B(  9-C , 12-H ) :   0.5769 B( 10-C , 13-H ) :   0.7028

MP2 TOTAL ENERGY:     -634.252655187 Eh
FINAL SINGLE POINT ENERGY      -634.252655186903

DIPOLE MOMENT
-------------
                                X             Y             Z
Electronic contribution:      0.00000       0.00000      -3.25917
Nuclear contribution   :      0.00000       0.00000       2.03066
                        -----------------------------------------
Total Dipole Moment    :      0.00000       0.00000      -1.22850
                        -----------------------------------------
Magnitude (a.u.)       :      1.22850
Magnitude (Debye)      :      3.12261

Rotational constants in cm-1:     0.051896     0.029436     0.018782
Rotational constants in MHz :  1555.812083   882.461962   563.080670

                             ****ORCA TERMINATED NORMALLY****
TOTAL RUN TIME: 0 days 0 hours 7 minutes 46 seconds 403 msec
