                         Program Version 5.0.3 -  RELEASE  -
|  1> !ri-mp2 aug-cc-pvtz aug-cc-pvtz/c tightscf
|  2> %pal nprocs 16 end
|  3>
|  4> * xyz 0 1
|  5> H      1.698238    1.800485   -0.192826
|  6> C      0.918237    1.060294   -0.079962
|  7> H     -0.642305    2.415460    0.088334
|  8> C     -0.370105    1.369715    0.059818
|  9> H     -2.282342    0.596748   -0.513812
| 10> H     -1.850400    0.242473    1.140159
| 11> C     -1.442186    0.317252    0.126593
| 12> H     -0.784776   -1.061303   -1.405706
| 13> H     -1.516006   -1.859353   -0.019166
| 14> C     -0.868229   -1.033211   -0.317152
| 15> H      0.970892   -2.166720   -0.038422
| 16> H      0.456412   -1.234431    1.379263
| 17> C      0.514350   -1.233647    0.285501
| 18> O      1.429736   -0.201972   -0.110826
| 19> *
| 20>
| 21>                          ****END OF INPUT****

CARTESIAN COORDINATES (ANGSTROEM)
---------------------------------
  H      1.698238    1.800485   -0.192826
  C      0.918237    1.060294   -0.079962
  H     -0.642305    2.415460    0.088334
  C     -0.370105    1.369715    0.059818
  H     -2.282342    0.596748   -0.513812
  H     -1.850400    0.242473    1.140159
  C     -1.442186    0.317252    0.126593
  H     -0.784776   -1.061303   -1.405706
  H     -1.516006   -1.859353   -0.019166
  C     -0.868229   -1.033211   -0.317152
  H      0.970892   -2.166720   -0.038422
  H      0.456412   -1.234431    1.379263
  C      0.514350   -1.233647    0.285501
  O      1.429736   -0.201972   -0.110826

 Total Charge           Charge          ....    0
 Multiplicity           Mult            ....    1
 Number of Electrons    NEL             ....   46
 Basis Dimension        Dim             ....  460

ORBITAL ENERGIES
----------------

  NO   OCC          E(Eh)            E(eV)
   0   2.0000     -20.574302      -559.8552
   1   2.0000     -11.280712      -306.9638
   2   2.0000     -11.280278      -306.9520
   3   2.0000     -11.228933      -305.5548
   4   2.0000     -11.226987      -305.5018
   5   2.0000     -11.213062      -305.1229
   6   2.0000      -1.397885       -38.0384
   7   2.0000      -1.083211       -29.4757
   8   2.0000      -1.033132       -28.1129
   9   2.0000      -0.895384       -24.3646
  10   2.0000      -0.858241       -23.3539
  11   2.0000      -0.728982       -19.8366
  12   2.0000      -0.699291       -19.0287
  13   2.0000      -0.636615       -17.3232
  14   2.0000      -0.627766       -17.0824
  15   2.0000      -0.596219       -16.2240
  16   2.0000      -0.571067       -15.5395
  17   2.0000      -0.557628       -15.1738
  18   2.0000      -0.535573       -14.5737
  19   2.0000      -0.479893       -13.0586
  20   2.0000      -0.466154       -12.6847
  21   2.0000      -0.456935       -12.4338
  22   2.0000      -0.328936        -8.9508
  23   0.0000       0.029313         0.7976
  24   0.0000       0.036020         0.9802
  25   0.0000       0.038835         1.0567
  26   0.0000       0.040431         1.1002
  27   0.0000       0.051940         1.4134

MULLIKEN ATOMIC CHARGES
-----------------------
   0 H :    0.832098
   1 C :   -0.408678
   2 H :    0.189916
   3 C :   -0.610843
   4 H :    0.283858
   5 H :    0.244675
   6 C :   -0.220419
   7 H :    0.250491
   8 H :    0.295223
   9 C :   -0.517492
  10 H :    0.347652
  11 H :    0.276631
  12 C :   -0.272758
  13 O :   -0.690357
Sum of atomic charges:    0.0000000

LOEWDIN ATOMIC CHARGES
----------------------
   0 H :   -0.198084
   1 C :   -0.053965
   2 H :   -0.204001
   3 C :    0.206432
   4 H :   -0.154624
   5 H :   -0.152250
   6 C :    0.247528
   7 H :   -0.144093
   8 H :   -0.143848
   9 C :    0.279443
  10 H :   -0.157219
  11 H :   -0.145946
  12 C :    0.062701
  13 O :    0.557926

  Mayer bond orders larger than 0.100000
B(  0-H ,  1-C ) :   0.2144 B(  0-H , 13-O ) :  -0.1814 B(  1-C ,  3-C ) :   1.5090
B(  1-C , 13-O ) :   1.1247 B(  2-H ,  3-C ) :   1.2231 B(  3-C ,  6-C ) :   0.7089
B(  4-H ,  6-C ) :   0.9809 B(  5-H ,  6-C ) :   0.9746 B(  6-C ,  9-C ) :   0.9183
B(  7-H ,  9-C ) :   0.9562 B(  8-H ,  9-C ) :   0.9231 B(  9-C , 12-C ) :   0.9238
B( 10-H , 12-C ) :   0.9135 B( 11-H , 12-C ) :   0.9674 B( 12-C , 13-O ) :   0.6873

MP2 TOTAL ENERGY:     -270.013033627 Eh
FINAL SINGLE POINT ENERGY      -270.013033626572

DIPOLE MOMENT
-------------
                                X             Y             Z
Electronic contribution:      3.50439       1.10304      -0.33076
Nuclear contribution   :     -4.03390      -1.30414       0.44786
                        -----------------------------------------
Total Dipole Moment    :     -0.52951      -0.20110       0.11710
                        -----------------------------------------
Magnitude (a.u.)       :      0.57839
Magnitude (Debye)      :      1.47014

Rotational constants in cm-1:     0.172727     0.159151     0.090114
Rotational constants in MHz :  5178.223186  4771.227573  2701.542975

                             ****ORCA TERMINATED NORMALLY****
TOTAL RUN TIME: 0 days 0 hours 3 minutes 2 seconds 671 msec
