                         Program Version 5.0.3 -  RELEASE  -
|  1> !ri-mp2 aug-cc-pvtz aug-cc-pvtz/c tightscf
|  2> %pal nprocs 16 end
|  3>
|  4> * xyz 0 1
|  5> C      0.296563   -2.092194    0.000000
|  6> H      1.369761   -1.964827    0.000000
|  7> H     -0.086440   -3.102651    0.000000
|  8> C     -0.524953   -1.056203    0.000000
|  9> H     -1.601322   -1.166159    0.000000
| 10> C     -0.061543    0.365426    0.000000
| 11> F      1.278529    0.488309    0.000000
| 12> F     -0.524953    1.029816    1.084366
| 13> F     -0.524953    1.029816   -1.084366
| 14> *
| 15>
| 16>                          ****END OF INPUT****

CARTESIAN COORDINATES (ANGSTROEM)
---------------------------------
  C      0.296563   -2.092194    0.000000
  H      1.369761   -1.964827    0.000000
  H     -0.086440   -3.102651    0.000000
  C     -0.524953   -1.056203    0.000000
  H     -1.601322   -1.166159    0.000000
  C     -0.061543    0.365426    0.000000
  F      1.278529    0.488309    0.000000
  F     -0.524953    1.029816    1.084366
  F     -0.524953    1.029816   -1.084366

 Total Charge           Charge          ....    0
 Multiplicity           Mult            ....    1
 Number of Electrons    NEL             ....   48
 Basis Dimension        Dim             ....  345

ORBITAL ENERGIES
----------------

  NO   OCC          E(Eh)            E(eV)
   0   2.0000     -26.339348      -716.7301
   1   2.0000     -26.334097      -716.5872
   2   2.0000     -26.334076      -716.5866
   3   2.0000     -11.510720      -313.2226
   4   2.0000     -11.271036      -306.7005
   5   2.0000     -11.268289      -306.6257
   6   2.0000      -1.722200       -46.8634
   7   2.0000      -1.631219       -44.3877
   8   2.0000      -1.625849       -44.2416
   9   2.0000      -1.109801       -30.1992
  10   2.0000      -0.971844       -26.4452
  11   2.0000      -0.864117       -23.5138
  12   2.0000      -0.818247       -22.2656
  13   2.0000      -0.815082       -22.1795
  14   2.0000      -0.760409       -20.6918
  15   2.0000      -0.707711       -19.2578
  16   2.0000      -0.705179       -19.1889
  17   2.0000      -0.667559       -18.1652
  18   2.0000      -0.658275       -17.9126
  19   2.0000      -0.645153       -17.5555
  20   2.0000      -0.645070       -17.5533
  21   2.0000      -0.610381       -16.6093
  22   2.0000      -0.543883       -14.7998
  23   2.0000      -0.420273       -11.4362
  24   0.0000       0.026181         0.7124
  25   0.0000       0.038155         1.0383
  26   0.0000       0.046019         1.2523
  27   0.0000       0.075616         2.0576
  28   0.0000       0.076594         2.0842

MULLIKEN ATOMIC CHARGES
-----------------------
   0 C :   -1.054442
   1 H :    0.391279
   2 H :    0.496370
   3 C :   -0.527837
   4 H :    0.415986
   5 C :    1.437775
   6 F :   -0.377157
   7 F :   -0.390987
   8 F :   -0.390987
Sum of atomic charges:    0.0000000

LOEWDIN ATOMIC CHARGES
----------------------
   0 C :    0.530365
   1 H :   -0.220037
   2 H :   -0.211566
   3 C :    0.153746
   4 H :   -0.199649
   5 C :   -1.507873
   6 F :    0.499105
   7 F :    0.477954
   8 F :    0.477954

  Mayer bond orders larger than 0.100000
B(  0-C ,  1-H ) :   0.8529 B(  0-C ,  2-H ) :   0.7275 B(  0-C ,  3-C ) :   1.4945
B(  3-C ,  4-H ) :   0.7764 B(  3-C ,  5-C ) :   0.9231 B(  5-C ,  6-F ) :   0.7765
B(  5-C ,  7-F ) :   0.7379 B(  5-C ,  8-F ) :   0.7379

MP2 TOTAL ENERGY:     -415.072734462 Eh
FINAL SINGLE POINT ENERGY      -415.072734462412

DIPOLE MOMENT
-------------
                                X             Y             Z
Electronic contribution:      0.37087       7.11463      -0.00000
Nuclear contribution   :     -0.51036      -8.21217       0.00000
                        -----------------------------------------
Total Dipole Moment    :     -0.13949      -1.09753      -0.00000
                        -----------------------------------------
Magnitude (a.u.)       :      1.10636
Magnitude (Debye)      :      2.81215

Rotational constants in cm-1:     0.179885     0.097645     0.095241
Rotational constants in MHz :  5392.814567  2927.327983  2855.247561

                             ****ORCA TERMINATED NORMALLY****
TOTAL RUN TIME: 0 days 0 hours 1 minutes 19 seconds 575 msec
