                         Program Version 5.0.3 -  RELEASE  -
|  1> !ri-mp2 aug-cc-pvtz aug-cc-pvtz/c tightscf
|  2> %pal nprocs 16 end
|  3>
|  4> * xyz 0 1
|  5> Cl     0.811282    1.486375   -0.113059
|  6> Cl     0.811397   -1.486324   -0.112983
|  7> C     -0.023639    0.000009    0.490782
|  8> C     -1.414266   -0.000051    0.121661
|  9> C     -2.577535   -0.000087   -0.162983
| 10> H      0.115063    0.000040    1.565162
| 11> H     -3.607963   -0.000119   -0.419211
| 12> *
| 13>
| 14>                          ****END OF INPUT****

CARTESIAN COORDINATES (ANGSTROEM)
---------------------------------
  Cl     0.811282    1.486375   -0.113059
  Cl     0.811397   -1.486324   -0.112983
  C     -0.023639    0.000009    0.490782
  C     -1.414266   -0.000051    0.121661
  C     -2.577535   -0.000087   -0.162983
  H      0.115063    0.000040    1.565162
  H     -3.607963   -0.000119   -0.419211

 Total Charge           Charge          ....    0
 Multiplicity           Mult            ....    1
 Number of Electrons    NEL             ....   54
 Basis Dimension        Dim             ....  284

ORBITAL ENERGIES
----------------

  NO   OCC          E(Eh)            E(eV)
   0   2.0000    -104.856226     -2853.2830
   1   2.0000    -104.856225     -2853.2830
   2   2.0000     -11.402019      -310.2647
   3   2.0000     -11.266247      -306.5702
   4   2.0000     -11.261376      -306.4376
   5   2.0000     -10.579950      -287.8951
   6   2.0000     -10.579943      -287.8949
   7   2.0000      -8.046699      -218.9618
   8   2.0000      -8.046697      -218.9618
   9   2.0000      -8.044671      -218.9066
  10   2.0000      -8.044671      -218.9066
  11   2.0000      -8.044615      -218.9051
  12   2.0000      -8.044614      -218.9051
  13   2.0000      -1.205880       -32.8137
  14   2.0000      -1.098132       -29.8817
  15   2.0000      -1.061093       -28.8738
  16   2.0000      -0.932279       -25.3686
  17   2.0000      -0.758602       -20.6426
  18   2.0000      -0.704648       -19.1744
  19   2.0000      -0.633746       -17.2451
  20   2.0000      -0.602171       -16.3859
  21   2.0000      -0.488251       -13.2860
  22   2.0000      -0.482706       -13.1351
  23   2.0000      -0.460556       -12.5324
  24   2.0000      -0.452239       -12.3060
  25   2.0000      -0.421654       -11.4738
  26   2.0000      -0.418070       -11.3763
  27   0.0000       0.027722         0.7544
  28   0.0000       0.034259         0.9322
  29   0.0000       0.065038         1.7698
  30   0.0000       0.068350         1.8599
  31   0.0000       0.077561         2.1106

MULLIKEN ATOMIC CHARGES
-----------------------
   0 Cl:   -0.246480
   1 Cl:   -0.246481
   2 C :    0.192568
   3 C :    0.973639
   4 C :   -1.512261
   5 H :    0.284875
   6 H :    0.554141
Sum of atomic charges:    0.0000000

LOEWDIN ATOMIC CHARGES
----------------------
   0 Cl:    0.846852
   1 Cl:    0.846850
   2 C :   -1.236382
   3 C :   -0.215880
   4 C :    0.390688
   5 H :   -0.346325
   6 H :   -0.285803

  Mayer bond orders larger than 0.100000
B(  0-Cl,  2-C ) :   0.9078 B(  1-Cl,  2-C ) :   0.9078 B(  2-C ,  3-C ) :   1.0895
B(  2-C ,  4-C ) :  -0.1585 B(  2-C ,  5-H ) :   0.9199 B(  3-C ,  4-C ) :   0.8917
B(  4-C ,  6-H ) :   0.7242

MP2 TOTAL ENERGY:    -1034.625005582 Eh
FINAL SINGLE POINT ENERGY     -1034.625005582469

DIPOLE MOMENT
-------------
                                X             Y             Z
Electronic contribution:      4.72468       0.00013      -0.99229
Nuclear contribution   :     -5.41207      -0.00014       1.36767
                        -----------------------------------------
Total Dipole Moment    :     -0.68740      -0.00001       0.37537
                        -----------------------------------------
Magnitude (a.u.)       :      0.78321
Magnitude (Debye)      :      1.99076

Rotational constants in cm-1:     0.103075     0.099015     0.052680
Rotational constants in MHz :  3090.099394  2968.382434  1579.299970

                             ****ORCA TERMINATED NORMALLY****
TOTAL RUN TIME: 0 days 0 hours 0 minutes 56 seconds 755 msec
