                         Program Version 5.0.3 -  RELEASE  -
|  1> !ri-mp2 aug-cc-pvtz aug-cc-pvtz/c tightscf
|  2> %pal nprocs 16 end
|  3>
|  4> * xyz 0 1
|  5> C      1.207137   -1.555590        0.000000
|  6> C      1.220086   -0.167956        0.000000
|  7> C     -0.016035   -2.214360        0.000000
|  8> C     -1.179306   -0.248424        0.000000
|  9> C      0.000000    0.488855        0.000000
| 10> N     -1.187738   -1.578485        0.000000
| 11> Cl    -0.068149    2.235327        0.000000
| 12> H      2.132085   -2.115420        0.000000
| 13> H      2.145085    0.390219        0.000000
| 14> H     -0.058137   -3.297055        0.000000
| 15> H     -2.137626    0.255941        0.000000
| 16> *
| 17>
| 18>                          ****END OF INPUT****

CARTESIAN COORDINATES (ANGSTROEM)
---------------------------------
  C      1.207137   -1.555590    0.000000
  C      1.220086   -0.167956    0.000000
  C     -0.016035   -2.214360    0.000000
  C     -1.179306   -0.248424    0.000000
  C      0.000000    0.488855    0.000000
  N     -1.187738   -1.578485    0.000000
  Cl    -0.068149    2.235327    0.000000
  H      2.132085   -2.115420    0.000000
  H      2.145085    0.390219    0.000000
  H     -0.058137   -3.297055    0.000000
  H     -2.137626    0.255941    0.000000

 Total Charge           Charge          ....    0
 Multiplicity           Mult            ....    1
 Number of Electrons    NEL             ....   58
 Basis Dimension        Dim             ....  418

ORBITAL ENERGIES
----------------

  NO   OCC          E(Eh)            E(eV)
   0   2.0000    -104.852150     -2853.1721
   1   2.0000     -15.581235      -423.9870
   2   2.0000     -11.312166      -307.8197
   3   2.0000     -11.291181      -307.2487
   4   2.0000     -11.286337      -307.1168
   5   2.0000     -11.275566      -306.8237
   6   2.0000     -11.257325      -306.3274
   7   2.0000     -10.575702      -287.7795
   8   2.0000      -8.042607      -218.8505
   9   2.0000      -8.040702      -218.7986
  10   2.0000      -8.040673      -218.7978
  11   2.0000      -1.279654       -34.8212
  12   2.0000      -1.167236       -31.7621
  13   2.0000      -1.089237       -29.6396
  14   2.0000      -1.022290       -27.8179
  15   2.0000      -0.882692       -24.0193
  16   2.0000      -0.855116       -23.2689
  17   2.0000      -0.731110       -19.8945
  18   2.0000      -0.690559       -18.7911
  19   2.0000      -0.651535       -17.7292
  20   2.0000      -0.602778       -16.4024
  21   2.0000      -0.596296       -16.2260
  22   2.0000      -0.574671       -15.6376
  23   2.0000      -0.539959       -14.6930
  24   2.0000      -0.495642       -13.4871
  25   2.0000      -0.472501       -12.8574
  26   2.0000      -0.429708       -11.6929
  27   2.0000      -0.395556       -10.7636
  28   2.0000      -0.350981        -9.5507
  29   0.0000       0.025458         0.6927
  30   0.0000       0.035745         0.9727
  31   0.0000       0.038922         1.0591
  32   0.0000       0.049509         1.3472
  33   0.0000       0.071119         1.9352

MULLIKEN ATOMIC CHARGES
-----------------------
   0 C :   -0.120818
   1 C :   -0.790994
   2 C :   -0.590148
   3 C :   -0.803388
   4 C :    0.949471
   5 N :   -0.362665
   6 Cl:   -0.427569
   7 H :    0.362368
   8 H :    0.515993
   9 H :    0.638321
  10 H :    0.629428
Sum of atomic charges:   -0.0000000

LOEWDIN ATOMIC CHARGES
----------------------
   0 C :    0.191905
   1 C :    0.106267
   2 C :    0.008984
   3 C :   -0.078359
   4 C :   -0.769905
   5 N :    0.363576
   6 Cl:    0.958390
   7 H :   -0.186902
   8 H :   -0.191424
   9 H :   -0.192604
  10 H :   -0.209929

  Mayer bond orders larger than 0.100000
B(  0-C ,  1-C ) :   1.2524 B(  0-C ,  2-C ) :   0.9374 B(  0-C ,  3-C ) :  -0.1804
B(  0-C ,  5-N ) :  -0.1167 B(  0-C ,  7-H ) :   0.9479 B(  1-C ,  2-C ) :   0.2238
B(  1-C ,  3-C ) :   0.3245 B(  1-C ,  4-C ) :   1.1494 B(  1-C ,  8-H ) :   0.7697
B(  2-C ,  3-C ) :   0.2931 B(  2-C ,  5-N ) :   1.2626 B(  2-C ,  9-H ) :   0.4471
B(  3-C ,  4-C ) :   0.8068 B(  3-C ,  5-N ) :   1.1962 B(  3-C , 10-H ) :   0.4973
B(  4-C ,  6-Cl) :   0.6579

MP2 TOTAL ENERGY:     -706.899603048 Eh
FINAL SINGLE POINT ENERGY      -706.899603048176

DIPOLE MOMENT
-------------
                                X             Y             Z
Electronic contribution:     -1.27365       7.37026       0.00000
Nuclear contribution   :      2.08359      -7.64922       0.00000
                        -----------------------------------------
Total Dipole Moment    :      0.80994      -0.27896       0.00000
                        -----------------------------------------
Magnitude (a.u.)       :      0.85663
Magnitude (Debye)      :      2.17738

Rotational constants in cm-1:     0.196636     0.052818     0.041635
Rotational constants in MHz :  5895.012203  1583.441782  1248.173573

                             ****ORCA TERMINATED NORMALLY****
TOTAL RUN TIME: 0 days 0 hours 2 minutes 57 seconds 742 msec
