                         Program Version 5.0.3 -  RELEASE  -
|  1> !ri-mp2 aug-cc-pvtz aug-cc-pvtz/c tightscf
|  2> %pal nprocs 16 end
|  3>
|  4> * xyz 0 1
|  5> S     0.000000    0.000000    2.365328
|  6> S     0.000000    0.000000   -2.307684
|  7> N     0.000000    1.264006   -1.291328
|  8> N     0.000000   -1.264006   -1.291328
|  9> C     0.000000    0.729665   -0.053183
| 10> C     0.000000   -0.729665   -0.053183
| 11> C     0.000000    1.267958    1.226307
| 12> C     0.000000   -1.267958    1.226307
| 13> H     0.000000    2.296156    1.539395
| 14> H     0.000000   -2.296156    1.539395
| 15> *
| 16>
| 17>                          ****END OF INPUT****

CARTESIAN COORDINATES (ANGSTROEM)
---------------------------------
  S      0.000000    0.000000    2.365328
  S      0.000000    0.000000   -2.307684
  N      0.000000    1.264006   -1.291328
  N      0.000000   -1.264006   -1.291328
  C      0.000000    0.729665   -0.053183
  C      0.000000   -0.729665   -0.053183
  C      0.000000    1.267958    1.226307
  C      0.000000   -1.267958    1.226307
  H      0.000000    2.296156    1.539395
  H      0.000000   -2.296156    1.539395

 Total Charge           Charge          ....    0
 Multiplicity           Mult            ....    1
 Number of Electrons    NEL             ....   72
 Basis Dimension        Dim             ....  422

ORBITAL ENERGIES
----------------

  NO   OCC          E(Eh)            E(eV)
   0   2.0000     -92.077414     -2505.5538
   1   2.0000     -92.029454     -2504.2488
   2   2.0000     -15.614887      -424.9027
   3   2.0000     -15.614847      -424.9016
   4   2.0000     -11.294310      -307.3338
   5   2.0000     -11.293413      -307.3094
   6   2.0000     -11.279633      -306.9344
   7   2.0000     -11.279603      -306.9336
   8   2.0000      -9.069497      -246.7935
   9   2.0000      -9.027480      -245.6502
  10   2.0000      -6.749889      -183.6738
  11   2.0000      -6.749074      -183.6516
  12   2.0000      -6.748840      -183.6453
  13   2.0000      -6.708169      -182.5386
  14   2.0000      -6.707852      -182.5299
  15   2.0000      -6.707519      -182.5209
  16   2.0000      -1.343705       -36.5641
  17   2.0000      -1.191680       -32.4273
  18   2.0000      -1.179864       -32.1057
  19   2.0000      -1.008872       -27.4528
  20   2.0000      -0.988385       -26.8953
  21   2.0000      -0.852378       -23.1944
  22   2.0000      -0.796002       -21.6603
  23   2.0000      -0.772211       -21.0129
  24   2.0000      -0.671925       -18.2840
  25   2.0000      -0.640092       -17.4178
  26   2.0000      -0.620428       -16.8827
  27   2.0000      -0.573353       -15.6017
  28   2.0000      -0.561167       -15.2701
  29   2.0000      -0.511699       -13.9241
  30   2.0000      -0.493635       -13.4325
  31   2.0000      -0.481647       -13.1063
  32   2.0000      -0.472514       -12.8578
  33   2.0000      -0.454954       -12.3799
  34   2.0000      -0.350740        -9.5441
  35   2.0000      -0.299932        -8.1616
  36   0.0000      -0.003068        -0.0835
  37   0.0000       0.030648         0.8340
  38   0.0000       0.033447         0.9101
  39   0.0000       0.054062         1.4711
  40   0.0000       0.066829         1.8185

MULLIKEN ATOMIC CHARGES
-----------------------
   0 S :    0.017563
   1 S :    0.387900
   2 N :   -0.818973
   3 N :   -0.818973
   4 C :    0.809131
   5 C :    0.809131
   6 C :   -0.641404
   7 C :   -0.641405
   8 H :    0.448515
   9 H :    0.448515
Sum of atomic charges:    0.0000000

LOEWDIN ATOMIC CHARGES
----------------------
   0 S :    1.271909
   1 S :    0.983392
   2 N :   -0.043220
   3 N :   -0.043220
   4 C :   -0.653157
   5 C :   -0.653157
   6 C :   -0.159916
   7 C :   -0.159916
   8 H :   -0.271357
   9 H :   -0.271357

  Mayer bond orders larger than 0.100000
B(  0-S ,  6-C ) :   1.3511 B(  0-S ,  7-C ) :   1.3511 B(  1-S ,  2-N ) :   1.3291
B(  1-S ,  3-N ) :   1.3291 B(  2-N ,  3-N ) :   0.1290 B(  2-N ,  4-C ) :   0.5526
B(  2-N ,  6-C ) :  -0.1091 B(  3-N ,  5-C ) :   0.5526 B(  3-N ,  7-C ) :  -0.1091
B(  4-C ,  5-C ) :   1.1202 B(  4-C ,  6-C ) :   0.9683 B(  5-C ,  7-C ) :   0.9683
B(  6-C ,  7-C ) :   0.1323 B(  6-C ,  8-H ) :   0.8314 B(  7-C ,  9-H ) :   0.8314

MP2 TOTAL ENERGY:    -1058.053714687 Eh
FINAL SINGLE POINT ENERGY     -1058.053714686638

DIPOLE MOMENT
-------------
                                X             Y             Z
Electronic contribution:      0.00000       0.00000      -2.36303
Nuclear contribution   :      0.00000       0.00000       2.91171
                        -----------------------------------------
Total Dipole Moment    :      0.00000       0.00000       0.54868
                        -----------------------------------------
Magnitude (a.u.)       :      0.54868
Magnitude (Debye)      :      1.39463

Rotational constants in cm-1:     0.157847     0.038512     0.030959
Rotational constants in MHz :  4732.129718  1154.571577   928.122933

                             ****ORCA TERMINATED NORMALLY****
TOTAL RUN TIME: 0 days 0 hours 3 minutes 41 seconds 86 msec
