                         Program Version 5.0.3 -  RELEASE  -
|  1> !ri-mp2 aug-cc-pvtz aug-cc-pvtz/c tightscf
|  2> %pal nprocs 16 end
|  3>
|  4> * xyz 0 1
|  5> C     0.000000     0.000000    0.077636
|  6> C     0.000000     2.555166    0.122397
|  7> C     0.000000    -2.555166    0.122397
|  8> C     0.000000     1.291000   -0.726245
|  9> C     0.000000    -1.291000   -0.726245
| 10> O     0.000000     0.000000    1.288225
| 11> H     0.000000     3.442073   -0.511364
| 12> H    -0.876892     2.593353    0.767222
| 13> H     0.876892     2.593353    0.767222
| 14> H    -0.876892    -2.593353    0.767222
| 15> H     0.876892    -2.593353    0.767222
| 16> H     0.000000    -3.442073   -0.511364
| 17> H    -0.868213     1.265230   -1.392902
| 18> H     0.868213     1.265230   -1.392902
| 19> H     0.868213    -1.265230   -1.392902
| 20> H    -0.868213    -1.265230   -1.392902
| 21> *
| 22>
| 23>                          ****END OF INPUT****

CARTESIAN COORDINATES (ANGSTROEM)
---------------------------------
  C      0.000000    0.000000    0.077636
  C      0.000000    2.555166    0.122397
  C      0.000000   -2.555166    0.122397
  C      0.000000    1.291000   -0.726245
  C      0.000000   -1.291000   -0.726245
  O      0.000000    0.000000    1.288225
  H      0.000000    3.442073   -0.511364
  H     -0.876892    2.593353    0.767222
  H      0.876892    2.593353    0.767222
  H     -0.876892   -2.593353    0.767222
  H      0.876892   -2.593353    0.767222
  H      0.000000   -3.442073   -0.511364
  H     -0.868213    1.265230   -1.392902
  H      0.868213    1.265230   -1.392902
  H      0.868213   -1.265230   -1.392902
  H     -0.868213   -1.265230   -1.392902

 Total Charge           Charge          ....    0
 Multiplicity           Mult            ....    1
 Number of Electrons    NEL             ....   48
 Basis Dimension        Dim             ....  506

ORBITAL ENERGIES
----------------

  NO   OCC          E(Eh)            E(eV)
   0   2.0000     -20.542605      -558.9927
   1   2.0000     -11.325070      -308.1708
   2   2.0000     -11.237889      -305.7985
   3   2.0000     -11.237868      -305.7979
   4   2.0000     -11.215803      -305.1975
   5   2.0000     -11.215803      -305.1975
   6   2.0000      -1.385519       -37.7019
   7   2.0000      -1.069040       -29.0901
   8   2.0000      -1.035982       -28.1905
   9   2.0000      -0.916436       -24.9375
  10   2.0000      -0.844718       -22.9859
  11   2.0000      -0.726368       -19.7655
  12   2.0000      -0.665444       -18.1076
  13   2.0000      -0.646165       -17.5831
  14   2.0000      -0.615705       -16.7542
  15   2.0000      -0.606076       -16.4922
  16   2.0000      -0.561852       -15.2888
  17   2.0000      -0.523793       -14.2531
  18   2.0000      -0.523527       -14.2459
  19   2.0000      -0.510516       -13.8918
  20   2.0000      -0.506937       -13.7945
  21   2.0000      -0.490564       -13.3489
  22   2.0000      -0.483523       -13.1573
  23   2.0000      -0.405386       -11.0311
  24   0.0000       0.026319         0.7162
  25   0.0000       0.032194         0.8760
  26   0.0000       0.038034         1.0350
  27   0.0000       0.041284         1.1234
  28   0.0000       0.052225         1.4211

MULLIKEN ATOMIC CHARGES
-----------------------
   0 C :    0.687330
   1 C :   -0.908990
   2 C :   -0.908990
   3 C :   -0.406413
   4 C :   -0.406413
   5 O :   -0.843673
   6 H :    0.284015
   7 H :    0.279353
   8 H :    0.279353
   9 H :    0.279353
  10 H :    0.279353
  11 H :    0.284015
  12 H :    0.275426
  13 H :    0.275426
  14 H :    0.275426
  15 H :    0.275426
Sum of atomic charges:   -0.0000000

LOEWDIN ATOMIC CHARGES
----------------------
   0 C :   -0.496798
   1 C :    0.570137
   2 C :    0.570137
   3 C :    0.258568
   4 C :    0.258568
   5 O :    0.488589
   6 H :   -0.174247
   7 H :   -0.172044
   8 H :   -0.172044
   9 H :   -0.172044
  10 H :   -0.172044
  11 H :   -0.174247
  12 H :   -0.153133
  13 H :   -0.153133
  14 H :   -0.153133
  15 H :   -0.153133

  Mayer bond orders larger than 0.100000
B(  0-C ,  3-C ) :   0.8179 B(  0-C ,  4-C ) :   0.8179 B(  0-C ,  5-O ) :   1.2529
B(  1-C ,  3-C ) :   0.9013 B(  1-C ,  6-H ) :   0.9745 B(  1-C ,  7-H ) :   0.9500
B(  1-C ,  8-H ) :   0.9500 B(  2-C ,  4-C ) :   0.9013 B(  2-C ,  9-H ) :   0.9500
B(  2-C , 10-H ) :   0.9500 B(  2-C , 11-H ) :   0.9745 B(  3-C , 12-H ) :   0.9499
B(  3-C , 13-H ) :   0.9499 B(  4-C , 14-H ) :   0.9499 B(  4-C , 15-H ) :   0.9499

MP2 TOTAL ENERGY:     -271.240678516 Eh
FINAL SINGLE POINT ENERGY      -271.240678515990

DIPOLE MOMENT
-------------
                                X             Y             Z
Electronic contribution:     -0.00000      -0.00000       2.45095
Nuclear contribution   :      0.00000      -0.00000      -3.66846
                        -----------------------------------------
Total Dipole Moment    :     -0.00000      -0.00000      -1.21751
                        -----------------------------------------
Magnitude (a.u.)       :      1.21751
Magnitude (Debye)      :      3.09467

Rotational constants in cm-1:     0.299027     0.064720     0.055350
Rotational constants in MHz :  8964.595379  1940.258696  1659.343732

                             ****ORCA TERMINATED NORMALLY****
TOTAL RUN TIME: 0 days 0 hours 4 minutes 25 seconds 938 msec
