                         Program Version 5.0.3 -  RELEASE  -
|  1> !ri-mp2 aug-cc-pvtz aug-cc-pvtz/c tightscf
|  2> %pal nprocs 16 end
|  3>
|  4> * xyz 0 1
|  5> C      0.000000    1.958176   -0.987741
|  6> H      0.566649    1.430602   -1.755450
|  7> H     -0.650438    2.672727   -1.493685
|  8> H      0.707866    2.520346   -0.377078
|  9> C     -0.827026    0.996208   -0.123763
| 10> H     -1.529824    0.461466   -0.769662
| 11> H     -1.433305    1.572550    0.576719
| 12> C      0.000000   -1.958176   -0.987741
| 13> H     -0.566649   -1.430602   -1.755450
| 14> H      0.650438   -2.672727   -1.493685
| 15> H     -0.707866   -2.520346   -0.377078
| 16> C      0.827026   -0.996208   -0.123763
| 17> H      1.529824   -0.461466   -0.769662
| 18> H      1.433305   -1.572550    0.576719
| 19> C      0.000000    0.000000    0.656119
| 20> C      0.000000    0.000000    1.987937
| 21> H     -0.592649    0.706057    2.556012
| 22> H      0.592649   -0.706057    2.556012
| 23> *
| 24>
| 25>                          ****END OF INPUT****

CARTESIAN COORDINATES (ANGSTROEM)
---------------------------------
  C      0.000000    1.958176   -0.987741
  H      0.566649    1.430602   -1.755450
  H     -0.650438    2.672727   -1.493685
  H      0.707866    2.520346   -0.377078
  C     -0.827026    0.996208   -0.123763
  H     -1.529824    0.461466   -0.769662
  H     -1.433305    1.572550    0.576719
  C      0.000000   -1.958176   -0.987741
  H     -0.566649   -1.430602   -1.755450
  H      0.650438   -2.672727   -1.493685
  H     -0.707866   -2.520346   -0.377078
  C      0.827026   -0.996208   -0.123763
  H      1.529824   -0.461466   -0.769662
  H      1.433305   -1.572550    0.576719
  C      0.000000    0.000000    0.656119
  C      0.000000    0.000000    1.987937
  H     -0.592649    0.706057    2.556012
  H      0.592649   -0.706057    2.556012

 Total Charge           Charge          ....    0
 Multiplicity           Mult            ....    1
 Number of Electrons    NEL             ....   48
 Basis Dimension        Dim             ....  552

ORBITAL ENERGIES
----------------

  NO   OCC          E(Eh)            E(eV)
   0   2.0000     -11.232441      -305.6503
   1   2.0000     -11.222735      -305.3861
   2   2.0000     -11.222701      -305.3852
   3   2.0000     -11.214418      -305.1598
   4   2.0000     -11.214418      -305.1598
   5   2.0000     -11.206956      -304.9568
   6   2.0000      -1.103533       -30.0287
   7   2.0000      -1.015816       -27.6417
   8   2.0000      -0.978679       -26.6312
   9   2.0000      -0.854365       -23.2484
  10   2.0000      -0.853015       -23.2117
  11   2.0000      -0.710934       -19.3455
  12   2.0000      -0.636378       -17.3167
  13   2.0000      -0.634691       -17.2708
  14   2.0000      -0.580563       -15.7979
  15   2.0000      -0.574738       -15.6394
  16   2.0000      -0.570452       -15.5228
  17   2.0000      -0.520524       -14.1642
  18   2.0000      -0.519216       -14.1286
  19   2.0000      -0.502300       -13.6683
  20   2.0000      -0.490983       -13.3603
  21   2.0000      -0.472846       -12.8668
  22   2.0000      -0.453736       -12.3468
  23   2.0000      -0.345906        -9.4126
  24   0.0000       0.030663         0.8344
  25   0.0000       0.034567         0.9406
  26   0.0000       0.035875         0.9762
  27   0.0000       0.039827         1.0838
  28   0.0000       0.051781         1.4090

MULLIKEN ATOMIC CHARGES
-----------------------
   0 C :   -0.962129
   1 H :    0.301837
   2 H :    0.258359
   3 H :    0.290520
   4 C :   -0.476416
   5 H :    0.190892
   6 H :    0.209893
   7 C :   -0.962129
   8 H :    0.301837
   9 H :    0.258359
  10 H :    0.290520
  11 C :   -0.476416
  12 H :    0.190892
  13 H :    0.209893
  14 C :    0.760102
  15 C :   -1.108507
  16 H :    0.361247
  17 H :    0.361247
Sum of atomic charges:    0.0000000

LOEWDIN ATOMIC CHARGES
----------------------
   0 C :    0.587653
   1 H :   -0.179106
   2 H :   -0.170085
   3 H :   -0.164594
   4 C :    0.251993
   5 H :   -0.157563
   6 H :   -0.164642
   7 C :    0.587653
   8 H :   -0.179106
   9 H :   -0.170085
  10 H :   -0.164594
  11 C :    0.251993
  12 H :   -0.157563
  13 H :   -0.164642
  14 C :   -0.119472
  15 C :    0.550133
  16 H :   -0.218987
  17 H :   -0.218987

  Mayer bond orders larger than 0.100000
B(  0-C ,  1-H ) :   0.9212 B(  0-C ,  2-H ) :   0.9907 B(  0-C ,  3-H ) :   0.9469
B(  0-C ,  4-C ) :   0.9167 B(  4-C ,  5-H ) :   1.0405 B(  4-C ,  6-H ) :   0.9723
B(  4-C , 14-C ) :   0.9024 B(  7-C ,  8-H ) :   0.9212 B(  7-C ,  9-H ) :   0.9907
B(  7-C , 10-H ) :   0.9469 B(  7-C , 11-C ) :   0.9167 B( 11-C , 12-H ) :   1.0405
B( 11-C , 13-H ) :   0.9723 B( 11-C , 14-C ) :   0.9024 B( 14-C , 15-C ) :   1.2231
B( 15-C , 16-H ) :   0.8962 B( 15-C , 17-H ) :   0.8962

MP2 TOTAL ENERGY:     -235.313792218 Eh
FINAL SINGLE POINT ENERGY      -235.313792217823

DIPOLE MOMENT
-------------
                                X             Y             Z
Electronic contribution:      0.00000       0.00000       2.47866
Nuclear contribution   :     -0.00000      -0.00000      -2.70595
                        -----------------------------------------
Total Dipole Moment    :      0.00000       0.00000      -0.22730
                        -----------------------------------------
Magnitude (a.u.)       :      0.22730
Magnitude (Debye)      :      0.57774

Rotational constants in cm-1:     0.133636     0.092516     0.064622
Rotational constants in MHz :  4006.299206  2773.566217  1937.320365

                             ****ORCA TERMINATED NORMALLY****
TOTAL RUN TIME: 0 days 0 hours 6 minutes 26 seconds 531 msec
