                         Program Version 5.0.3 -  RELEASE  -
|  1> !ri-mp2 aug-cc-pvtz aug-cc-pvtz/c tightscf
|  2> %pal nprocs 16 end
|  3>
|  4> * xyz 0 1
|  5> O      0.832747    1.359187    0.006513
|  6> O      2.144989   -0.432647   -0.013277
|  7> N     -2.578092    0.122693   -0.135032
|  8> C      0.917327    0.160721    0.006423
|  9> C     -0.225737   -0.768608    0.030257
| 10> C     -1.459445   -0.297235    0.010407
| 11> H      2.070121   -1.393038   -0.029288
| 12> H     -3.142970    0.393415    0.664093
| 13> H     -0.095256   -1.840812    0.082007
| 14> *
| 15>
| 16>                          ****END OF INPUT****

CARTESIAN COORDINATES (ANGSTROEM)
---------------------------------
  O      0.832747    1.359187    0.006513
  O      2.144989   -0.432647   -0.013277
  N     -2.578092    0.122693   -0.135032
  C      0.917327    0.160721    0.006423
  C     -0.225737   -0.768608    0.030257
  C     -1.459445   -0.297235    0.010407
  H      2.070121   -1.393038   -0.029288
  H     -3.142970    0.393415    0.664093
  H     -0.095256   -1.840812    0.082007

 Total Charge           Charge          ....    0
 Multiplicity           Mult            ....    1
 Number of Electrons    NEL             ....   44
 Basis Dimension        Dim             ....  345

ORBITAL ENERGIES
----------------

  NO   OCC          E(Eh)            E(eV)
   0   2.0000     -20.615445      -560.9748
   1   2.0000     -20.540301      -558.9300
   2   2.0000     -15.622049      -425.0976
   3   2.0000     -11.397219      -310.1341
   4   2.0000     -11.364912      -309.2550
   5   2.0000     -11.266906      -306.5881
   6   2.0000      -1.459500       -39.7150
   7   2.0000      -1.363930       -37.1144
   8   2.0000      -1.291292       -35.1378
   9   2.0000      -1.079498       -29.3746
  10   2.0000      -0.864448       -23.5228
  11   2.0000      -0.811192       -22.0737
  12   2.0000      -0.765082       -20.8189
  13   2.0000      -0.705253       -19.1909
  14   2.0000      -0.638432       -17.3726
  15   2.0000      -0.635678       -17.2977
  16   2.0000      -0.595369       -16.2008
  17   2.0000      -0.584600       -15.9078
  18   2.0000      -0.517051       -14.0697
  19   2.0000      -0.488484       -13.2923
  20   2.0000      -0.457232       -12.4419
  21   2.0000      -0.383207       -10.4276
  22   0.0000       0.017144         0.4665
  23   0.0000       0.028318         0.7706
  24   0.0000       0.045978         1.2511
  25   0.0000       0.072850         1.9823
  26   0.0000       0.079983         2.1765

MULLIKEN ATOMIC CHARGES
-----------------------
   0 O :   -0.665704
   1 O :   -0.374420
   2 N :   -0.566767
   3 C :    0.442013
   4 C :   -0.430655
   5 C :    0.815643
   6 H :    0.207644
   7 H :    0.256762
   8 H :    0.315484
Sum of atomic charges:   -0.0000000

LOEWDIN ATOMIC CHARGES
----------------------
   0 O :    0.421282
   1 O :    0.822396
   2 N :    0.653807
   3 C :   -0.875322
   4 C :    0.147715
   5 C :   -0.036537
   6 H :   -0.500646
   7 H :   -0.395071
   8 H :   -0.237624

  Mayer bond orders larger than 0.100000
B(  0-O ,  3-C ) :   1.6841 B(  0-O ,  4-C ) :  -0.1103 B(  1-O ,  3-C ) :   0.9505
B(  1-O ,  6-H ) :   0.9622 B(  2-N ,  5-C ) :   1.5712 B(  2-N ,  7-H ) :   0.8988
B(  3-C ,  4-C ) :   0.8419 B(  4-C ,  5-C ) :   1.5480 B(  4-C ,  8-H ) :   0.9323

MP2 TOTAL ENERGY:     -320.757194076 Eh
FINAL SINGLE POINT ENERGY      -320.757194075581

DIPOLE MOMENT
-------------
                                X             Y             Z
Electronic contribution:      0.18645       1.03623      -0.12746
Nuclear contribution   :     -1.10388      -2.74451       0.69549
                        -----------------------------------------
Total Dipole Moment    :     -0.91743      -1.70828       0.56803
                        -----------------------------------------
Magnitude (a.u.)       :      2.02054
Magnitude (Debye)      :      5.13579

Rotational constants in cm-1:     0.356557     0.073557     0.061287
Rotational constants in MHz : 10689.321519  2205.184892  1837.324965

                             ****ORCA TERMINATED NORMALLY****
TOTAL RUN TIME: 0 days 0 hours 1 minutes 24 seconds 728 msec
