                         Program Version 5.0.3 -  RELEASE  -
|  1> !ri-mp2 aug-cc-pvtz aug-cc-pvtz/c tightscf
|  2> %pal nprocs 16 end
|  3>
|  4> * xyz 0 1
|  5> C     -0.625254    0.796229   -0.069321
|  6> C      0.748082    1.424367   -0.171862
|  7> C      1.831447    0.472172    0.325884
|  8> C      0.493068   -1.432208    0.084495
|  9> N     -0.642039   -0.552571   -0.197890
| 10> O     -1.673211    1.417918    0.082626
| 11> O      1.681886   -0.808195   -0.288855
| 12> O     -1.868778   -1.171591    0.063455
| 13> H      0.927139    1.687106   -1.216193
| 14> H      0.732774    2.348662    0.404513
| 15> H      2.826636    0.822192    0.062253
| 16> H      1.780973    0.363978    1.416043
| 17> H      0.486076   -1.691814    1.152629
| 18> H      0.385931   -2.336757   -0.510335
| 19> H     -2.448486   -0.393788    0.203331
| 20> *
| 21>
| 22>                          ****END OF INPUT****

CARTESIAN COORDINATES (ANGSTROEM)
---------------------------------
  C     -0.625254    0.796229   -0.069321
  C      0.748082    1.424367   -0.171862
  C      1.831447    0.472172    0.325884
  C      0.493068   -1.432208    0.084495
  N     -0.642039   -0.552571   -0.197890
  O     -1.673211    1.417918    0.082626
  O      1.681886   -0.808195   -0.288855
  O     -1.868778   -1.171591    0.063455
  H      0.927139    1.687106   -1.216193
  H      0.732774    2.348662    0.404513
  H      2.826636    0.822192    0.062253
  H      1.780973    0.363978    1.416043
  H      0.486076   -1.691814    1.152629
  H      0.385931   -2.336757   -0.510335
  H     -2.448486   -0.393788    0.203331

 Total Charge           Charge          ....    0
 Multiplicity           Mult            ....    1
 Number of Electrons    NEL             ....   62
 Basis Dimension        Dim             ....  529

ORBITAL ENERGIES
----------------

  NO   OCC          E(Eh)            E(eV)
   0   2.0000     -20.613036      -560.9092
   1   2.0000     -20.593656      -560.3819
   2   2.0000     -20.540241      -558.9284
   3   2.0000     -15.649248      -425.8377
   4   2.0000     -11.368597      -309.3553
   5   2.0000     -11.342032      -308.6324
   6   2.0000     -11.309505      -307.7473
   7   2.0000     -11.260302      -306.4084
   8   2.0000      -1.467745       -39.9394
   9   2.0000      -1.416540       -38.5460
  10   2.0000      -1.374835       -37.4112
  11   2.0000      -1.175312       -31.9819
  12   2.0000      -1.079814       -29.3832
  13   2.0000      -0.949735       -25.8436
  14   2.0000      -0.904333       -24.6082
  15   2.0000      -0.792851       -21.5746
  16   2.0000      -0.727535       -19.7972
  17   2.0000      -0.722107       -19.6495
  18   2.0000      -0.688363       -18.7313
  19   2.0000      -0.679257       -18.4835
  20   2.0000      -0.644126       -17.5276
  21   2.0000      -0.627018       -17.0620
  22   2.0000      -0.611308       -16.6345
  23   2.0000      -0.601343       -16.3634
  24   2.0000      -0.568204       -15.4616
  25   2.0000      -0.550686       -14.9849
  26   2.0000      -0.516656       -14.0589
  27   2.0000      -0.506752       -13.7894
  28   2.0000      -0.467432       -12.7195
  29   2.0000      -0.447132       -12.1671
  30   2.0000      -0.385301       -10.4846
  31   0.0000       0.024744         0.6733
  32   0.0000       0.034980         0.9518
  33   0.0000       0.037070         1.0087
  34   0.0000       0.042970         1.1693
  35   0.0000       0.053200         1.4477

MULLIKEN ATOMIC CHARGES
-----------------------
   0 C :    0.219147
   1 C :   -0.180628
   2 C :   -0.311547
   3 C :   -0.187774
   4 N :    0.344886
   5 O :   -0.879736
   6 O :   -0.687256
   7 O :   -0.648375
   8 H :    0.265418
   9 H :    0.294395
  10 H :    0.383159
  11 H :    0.270139
  12 H :    0.369398
  13 H :    0.455901
  14 H :    0.292873
Sum of atomic charges:   -0.0000000

LOEWDIN ATOMIC CHARGES
----------------------
   0 C :   -0.652837
   1 C :    0.310311
   2 C :    0.060928
   3 C :   -0.073878
   4 N :    0.027516
   5 O :    0.467511
   6 O :    0.580187
   7 O :    0.759709
   8 H :   -0.142112
   9 H :   -0.151730
  10 H :   -0.151647
  11 H :   -0.147711
  12 H :   -0.144928
  13 H :   -0.153892
  14 H :   -0.587428

  Mayer bond orders larger than 0.100000
B(  0-C ,  1-C ) :   0.4062 B(  0-C ,  2-C ) :   0.1168 B(  0-C ,  4-N ) :   1.1095
B(  0-C ,  5-O ) :   1.3068 B(  1-C ,  2-C ) :   0.9840 B(  1-C ,  8-H ) :   0.9501
B(  1-C ,  9-H ) :   0.9130 B(  2-C ,  6-O ) :   0.8318 B(  2-C , 10-H ) :   0.8972
B(  2-C , 11-H ) :   0.9601 B(  3-C ,  4-N ) :   0.7391 B(  3-C ,  6-O ) :   0.8666
B(  3-C , 12-H ) :   0.9026 B(  3-C , 13-H ) :   0.8311 B(  4-N ,  5-O ) :  -0.1158
B(  4-N ,  7-O ) :   0.6941 B(  7-O , 14-H ) :   0.9295

MP2 TOTAL ENERGY:     -436.285168030 Eh
FINAL SINGLE POINT ENERGY      -436.285168029998

DIPOLE MOMENT
-------------
                                X             Y             Z
Electronic contribution:     -3.44041      -0.78214      -1.10524
Nuclear contribution   :      4.63156       0.78302       1.50028
                        -----------------------------------------
Total Dipole Moment    :      1.19116       0.00087       0.39504
                        -----------------------------------------
Magnitude (a.u.)       :      1.25495
Magnitude (Debye)      :      3.18984

Rotational constants in cm-1:     0.108984     0.071818     0.045415
Rotational constants in MHz :  3267.249833  2153.035746  1361.508286

                             ****ORCA TERMINATED NORMALLY****
TOTAL RUN TIME: 0 days 0 hours 5 minutes 44 seconds 496 msec
