                         Program Version 5.0.3 -  RELEASE  -
|  1> !ri-mp2 aug-cc-pvtz aug-cc-pvtz/c tightscf
|  2> %pal nprocs 16 end
|  3>
|  4> * xyz 0 1
|  5> S      1.327006   -0.375637    0.105858
|  6> S     -0.627900   -1.176631   -0.128471
|  7> C      0.766846    1.280061   -0.119461
|  8> C     -1.496295    0.415715    0.204467
|  9> C     -0.535996    1.534602   -0.083959
| 10> H      1.537200    2.027810   -0.243628
| 11> H     -1.848317    0.454829    1.239330
| 12> H     -2.365633    0.428755   -0.452364
| 13> H     -0.916283    2.542633   -0.187804
| 14> *
| 15>
| 16>                          ****END OF INPUT****

CARTESIAN COORDINATES (ANGSTROEM)
---------------------------------
  S      1.327006   -0.375637    0.105858
  S     -0.627900   -1.176631   -0.128471
  C      0.766846    1.280061   -0.119461
  C     -1.496295    0.415715    0.204467
  C     -0.535996    1.534602   -0.083959
  H      1.537200    2.027810   -0.243628
  H     -1.848317    0.454829    1.239330
  H     -2.365633    0.428755   -0.452364
  H     -0.916283    2.542633   -0.187804

 Total Charge           Charge          ....    0
 Multiplicity           Mult            ....    1
 Number of Electrons    NEL             ....   54
 Basis Dimension        Dim             ....  330

ORBITAL ENERGIES
----------------

  NO   OCC          E(Eh)            E(eV)
   0   2.0000     -91.986055     -2503.0678
   1   2.0000     -91.979428     -2502.8875
   2   2.0000     -11.282142      -307.0027
   3   2.0000     -11.277412      -306.8740
   4   2.0000     -11.253529      -306.2241
   5   2.0000      -8.984544      -244.4819
   6   2.0000      -8.977669      -244.2948
   7   2.0000      -6.665499      -181.3775
   8   2.0000      -6.664570      -181.3522
   9   2.0000      -6.663262      -181.3166
  10   2.0000      -6.658573      -181.1890
  11   2.0000      -6.657581      -181.1620
  12   2.0000      -6.656296      -181.1270
  13   2.0000      -1.144905       -31.1545
  14   2.0000      -1.001415       -27.2499
  15   2.0000      -0.988952       -26.9108
  16   2.0000      -0.811896       -22.0928
  17   2.0000      -0.754797       -20.5391
  18   2.0000      -0.676552       -18.4099
  19   2.0000      -0.621470       -16.9110
  20   2.0000      -0.571092       -15.5402
  21   2.0000      -0.511651       -13.9227
  22   2.0000      -0.484765       -13.1911
  23   2.0000      -0.465785       -12.6747
  24   2.0000      -0.448763       -12.2115
  25   2.0000      -0.382526       -10.4091
  26   2.0000      -0.304055        -8.2737
  27   0.0000       0.026844         0.7305
  28   0.0000       0.035303         0.9606
  29   0.0000       0.043569         1.1856
  30   0.0000       0.046104         1.2545
  31   0.0000       0.065814         1.7909

MULLIKEN ATOMIC CHARGES
-----------------------
   0 S :   -0.182630
   1 S :   -0.186163
   2 C :   -0.394204
   3 C :   -0.268432
   4 C :   -0.380510
   5 H :    0.474959
   6 H :    0.268218
   7 H :    0.307878
   8 H :    0.360883
Sum of atomic charges:   -0.0000000

LOEWDIN ATOMIC CHARGES
----------------------
   0 S :    0.696418
   1 S :    0.710330
   2 C :   -0.322866
   3 C :   -0.160836
   4 C :    0.022053
   5 H :   -0.271118
   6 H :   -0.229617
   7 H :   -0.243661
   8 H :   -0.200704

  Mayer bond orders larger than 0.100000
B(  0-S ,  1-S ) :   1.0210 B(  0-S ,  2-C ) :   0.9963 B(  1-S ,  3-C ) :   0.9771
B(  2-C ,  4-C ) :   1.6556 B(  2-C ,  5-H ) :   0.7816 B(  3-C ,  4-C ) :   0.9562
B(  3-C ,  6-H ) :   0.9080 B(  3-C ,  7-H ) :   0.9391 B(  4-C ,  8-H ) :   0.9039

MP2 TOTAL ENERGY:     -911.886358974 Eh
FINAL SINGLE POINT ENERGY      -911.886358973689

DIPOLE MOMENT
-------------
                                X             Y             Z
Electronic contribution:      3.04703      -4.43862      -0.26839
Nuclear contribution   :     -3.51853       5.35569       0.34676
                        -----------------------------------------
Total Dipole Moment    :     -0.47150       0.91707       0.07838
                        -----------------------------------------
Magnitude (a.u.)       :      1.03415
Magnitude (Debye)      :      2.62861

Rotational constants in cm-1:     0.149152     0.137775     0.073797
Rotational constants in MHz :  4471.458045  4130.380995  2212.392873

                             ****ORCA TERMINATED NORMALLY****
TOTAL RUN TIME: 0 days 0 hours 1 minutes 42 seconds 432 msec
