                         Program Version 5.0.3 -  RELEASE  -
|  1> !ri-mp2 aug-cc-pvtz aug-cc-pvtz/c tightscf
|  2> %pal nprocs 16 end
|  3>
|  4> * xyz 0 1
|  5> C     -1.264788    1.284808    0.000000
|  6> H     -1.283550    1.930106    0.881130
|  7> H     -1.283550    1.930106   -0.881130
|  8> H     -2.179327    0.690156    0.000000
|  9> C      1.255285    1.225783    0.000000
| 10> H      2.138334    0.585269    0.000000
| 11> H      1.305127    1.868005   -0.882100
| 12> H      1.305127    1.868005    0.882100
| 13> C     -0.026045    0.399811    0.000000
| 14> C     -0.026045   -0.751630    1.036255
| 15> C     -0.026045   -0.751630   -1.036255
| 16> H      0.817961   -0.777877    1.729654
| 17> H      0.817961   -0.777877   -1.729654
| 18> H     -0.958286   -0.870369    1.595908
| 19> H     -0.958286   -0.870369   -1.595908
| 20> O      0.100540   -1.752252    0.000000
| 21> *
| 22>
| 23>                          ****END OF INPUT****

CARTESIAN COORDINATES (ANGSTROEM)
---------------------------------
  C     -1.264788    1.284808    0.000000
  H     -1.283550    1.930106    0.881130
  H     -1.283550    1.930106   -0.881130
  H     -2.179327    0.690156    0.000000
  C      1.255285    1.225783    0.000000
  H      2.138334    0.585269    0.000000
  H      1.305127    1.868005   -0.882100
  H      1.305127    1.868005    0.882100
  C     -0.026045    0.399811    0.000000
  C     -0.026045   -0.751630    1.036255
  C     -0.026045   -0.751630   -1.036255
  H      0.817961   -0.777877    1.729654
  H      0.817961   -0.777877   -1.729654
  H     -0.958286   -0.870369    1.595908
  H     -0.958286   -0.870369   -1.595908
  O      0.100540   -1.752252    0.000000

 Total Charge           Charge          ....    0
 Multiplicity           Mult            ....    1
 Number of Electrons    NEL             ....   48
 Basis Dimension        Dim             ....  506

ORBITAL ENERGIES
----------------

  NO   OCC          E(Eh)            E(eV)
   0   2.0000     -20.544782      -559.0519
   1   2.0000     -11.272109      -306.7297
   2   2.0000     -11.272107      -306.7296
   3   2.0000     -11.241737      -305.9032
   4   2.0000     -11.221095      -305.3415
   5   2.0000     -11.220429      -305.3234
   6   2.0000      -1.370963       -37.3058
   7   2.0000      -1.082699       -29.4617
   8   2.0000      -0.942935       -25.6586
   9   2.0000      -0.932091       -25.3635
  10   2.0000      -0.897759       -24.4293
  11   2.0000      -0.733955       -19.9719
  12   2.0000      -0.670463       -18.2442
  13   2.0000      -0.644387       -17.5347
  14   2.0000      -0.626977       -17.0609
  15   2.0000      -0.574806       -15.6413
  16   2.0000      -0.573568       -15.6076
  17   2.0000      -0.553740       -15.0680
  18   2.0000      -0.547423       -14.8961
  19   2.0000      -0.530168       -14.4266
  20   2.0000      -0.487737       -13.2720
  21   2.0000      -0.439029       -11.9466
  22   2.0000      -0.438507       -11.9324
  23   2.0000      -0.410837       -11.1794
  24   0.0000       0.027750         0.7551
  25   0.0000       0.036467         0.9923
  26   0.0000       0.036703         0.9987
  27   0.0000       0.040209         1.0942
  28   0.0000       0.053957         1.4682

MULLIKEN ATOMIC CHARGES
-----------------------
   0 C :   -0.986294
   1 H :    0.263057
   2 H :    0.263057
   3 H :    0.305048
   4 C :   -0.989464
   5 H :    0.310358
   6 H :    0.257441
   7 H :    0.257441
   8 C :    0.622368
   9 C :   -0.374503
  10 C :   -0.374503
  11 H :    0.320274
  12 H :    0.320274
  13 H :    0.304621
  14 H :    0.304621
  15 O :   -0.803793
Sum of atomic charges:   -0.0000000

LOEWDIN ATOMIC CHARGES
----------------------
   0 C :    0.587032
   1 H :   -0.158315
   2 H :   -0.158315
   3 H :   -0.166220
   4 C :    0.584387
   5 H :   -0.162490
   6 H :   -0.158028
   7 H :   -0.158028
   8 C :   -0.323938
   9 C :    0.088277
  10 C :    0.088277
  11 H :   -0.150951
  12 H :   -0.150951
  13 H :   -0.150732
  14 H :   -0.150732
  15 O :    0.540728

  Mayer bond orders larger than 0.100000
B(  0-C ,  1-H ) :   0.9960 B(  0-C ,  2-H ) :   0.9960 B(  0-C ,  3-H ) :   0.9963
B(  0-C ,  8-C ) :   0.5715 B(  4-C ,  5-H ) :   1.0057 B(  4-C ,  6-H ) :   0.9945
B(  4-C ,  7-H ) :   0.9945 B(  4-C ,  8-C ) :   0.5690 B(  8-C ,  9-C ) :   0.9341
B(  8-C , 10-C ) :   0.9341 B(  8-C , 15-O ) :   0.1513 B(  9-C , 10-C ) :   0.2322
B(  9-C , 11-H ) :   0.9108 B(  9-C , 13-H ) :   0.9339 B(  9-C , 15-O ) :   0.7063
B( 10-C , 12-H ) :   0.9108 B( 10-C , 14-H ) :   0.9339 B( 10-C , 15-O ) :   0.7063

MP2 TOTAL ENERGY:     -271.199071921 Eh
FINAL SINGLE POINT ENERGY      -271.199071921420

DIPOLE MOMENT
-------------
                                X             Y             Z
Electronic contribution:      0.19657      -4.91714       0.00000
Nuclear contribution   :     -0.28981       5.80603       0.00000
                        -----------------------------------------
Total Dipole Moment    :     -0.09324       0.88889       0.00000
                        -----------------------------------------
Magnitude (a.u.)       :      0.89376
Magnitude (Debye)      :      2.27176

Rotational constants in cm-1:     0.172748     0.105009     0.094743
Rotational constants in MHz :  5178.849049  3148.093904  2840.326001

                             ****ORCA TERMINATED NORMALLY****
TOTAL RUN TIME: 0 days 0 hours 4 minutes 38 seconds 602 msec
