                         Program Version 5.0.3 -  RELEASE  -
|  1> !ri-mp2 aug-cc-pvtz aug-cc-pvtz/c tightscf
|  2> %pal nprocs 16 end
|  3>
|  4> * xyz 0 1
|  5> C      0.392949    0.006753   -0.314271
|  6> C      1.845922   -0.344618   -0.447971
|  7> C      2.755670    0.526135    0.427735
|  8> C     -2.464073    0.895132   -0.087612
|  9> C     -2.023839   -0.525165    0.253168
| 10> C     -0.559417   -0.825207    0.095654
| 11> H      0.134394    1.030172   -0.571721
| 12> H      2.150834   -0.225520   -1.493272
| 13> H      1.992029   -1.398584   -0.200685
| 14> H      2.631761    1.584844    0.191968
| 15> H      2.523122    0.393155    1.485148
| 16> H      3.806004    0.272696    0.276534
| 17> H     -1.961620    1.631077    0.541868
| 18> H     -2.247135    1.142851   -1.127808
| 19> H     -3.538045    1.008319    0.062785
| 20> H     -2.588225   -1.237015   -0.359875
| 21> H     -2.312564   -0.756467    1.284752
| 22> H     -0.273824   -1.843703    0.350091
| 23> *
| 24>
| 25>                          ****END OF INPUT****

CARTESIAN COORDINATES (ANGSTROEM)
---------------------------------
  C      0.392949    0.006753   -0.314271
  C      1.845922   -0.344618   -0.447971
  C      2.755670    0.526135    0.427735
  C     -2.464073    0.895132   -0.087612
  C     -2.023839   -0.525165    0.253168
  C     -0.559417   -0.825207    0.095654
  H      0.134394    1.030172   -0.571721
  H      2.150834   -0.225520   -1.493272
  H      1.992029   -1.398584   -0.200685
  H      2.631761    1.584844    0.191968
  H      2.523122    0.393155    1.485148
  H      3.806004    0.272696    0.276534
  H     -1.961620    1.631077    0.541868
  H     -2.247135    1.142851   -1.127808
  H     -3.538045    1.008319    0.062785
  H     -2.588225   -1.237015   -0.359875
  H     -2.312564   -0.756467    1.284752
  H     -0.273824   -1.843703    0.350091

 Total Charge           Charge          ....    0
 Multiplicity           Mult            ....    1
 Number of Electrons    NEL             ....   48
 Basis Dimension        Dim             ....  552

ORBITAL ENERGIES
----------------

  NO   OCC          E(Eh)            E(eV)
   0   2.0000     -11.223162      -305.3978
   1   2.0000     -11.220833      -305.3344
   2   2.0000     -11.219706      -305.3037
   3   2.0000     -11.216481      -305.2160
   4   2.0000     -11.211284      -305.0746
   5   2.0000     -11.211014      -305.0672
   6   2.0000      -1.091074       -29.6896
   7   2.0000      -1.037333       -28.2273
   8   2.0000      -0.964297       -26.2398
   9   2.0000      -0.876716       -23.8567
  10   2.0000      -0.819421       -22.2976
  11   2.0000      -0.729635       -19.8544
  12   2.0000      -0.629965       -17.1422
  13   2.0000      -0.611348       -16.6356
  14   2.0000      -0.607818       -16.5396
  15   2.0000      -0.583801       -15.8860
  16   2.0000      -0.547486       -14.8978
  17   2.0000      -0.523609       -14.2481
  18   2.0000      -0.504957       -13.7406
  19   2.0000      -0.493833       -13.4379
  20   2.0000      -0.490232       -13.3399
  21   2.0000      -0.475425       -12.9370
  22   2.0000      -0.460605       -12.5337
  23   2.0000      -0.341781        -9.3003
  24   0.0000       0.030783         0.8377
  25   0.0000       0.033734         0.9179
  26   0.0000       0.036474         0.9925
  27   0.0000       0.039780         1.0825
  28   0.0000       0.049323         1.3422

MULLIKEN ATOMIC CHARGES
-----------------------
   0 C :   -0.131137
   1 C :   -0.304130
   2 C :   -0.946800
   3 C :   -0.907991
   4 C :   -0.158443
   5 C :   -0.434989
   6 H :    0.065451
   7 H :    0.281092
   8 H :    0.224622
   9 H :    0.272339
  10 H :    0.303269
  11 H :    0.285409
  12 H :    0.272207
  13 H :    0.279229
  14 H :    0.258999
  15 H :    0.267077
  16 H :    0.262631
  17 H :    0.111165
Sum of atomic charges:    0.0000000

LOEWDIN ATOMIC CHARGES
----------------------
   0 C :    0.210213
   1 C :    0.232322
   2 C :    0.576075
   3 C :    0.560738
   4 C :    0.236390
   5 C :    0.230656
   6 H :   -0.190662
   7 H :   -0.154819
   8 H :   -0.165664
   9 H :   -0.174742
  10 H :   -0.172407
  11 H :   -0.175398
  12 H :   -0.171497
  13 H :   -0.171603
  14 H :   -0.172439
  15 H :   -0.157539
  16 H :   -0.157633
  17 H :   -0.181991

  Mayer bond orders larger than 0.100000
B(  0-C ,  1-C ) :   0.7816 B(  0-C ,  5-C ) :   1.1953 B(  0-C ,  6-H ) :   1.2918
B(  1-C ,  2-C ) :   0.9202 B(  1-C ,  7-H ) :   0.9576 B(  1-C ,  8-H ) :   0.9649
B(  2-C ,  9-H ) :   0.9445 B(  2-C , 10-H ) :   0.9285 B(  2-C , 11-H ) :   0.9675
B(  3-C ,  4-C ) :   0.8611 B(  3-C , 12-H ) :   0.9520 B(  3-C , 13-H ) :   0.9534
B(  3-C , 14-H ) :   0.9989 B(  4-C ,  5-C ) :   0.6040 B(  4-C , 15-H ) :   0.9828
B(  4-C , 16-H ) :   0.9922 B(  5-C , 15-H ) :  -0.1029 B(  5-C , 16-H ) :  -0.1220
B(  5-C , 17-H ) :   1.2444

MP2 TOTAL ENERGY:     -235.311983541 Eh
FINAL SINGLE POINT ENERGY      -235.311983541305

DIPOLE MOMENT
-------------
                                X             Y             Z
Electronic contribution:     -0.37476      -1.73760      -0.46557
Nuclear contribution   :      0.33926       1.71574       0.47106
                        -----------------------------------------
Total Dipole Moment    :     -0.03551      -0.02186       0.00549
                        -----------------------------------------
Magnitude (a.u.)       :      0.04205
Magnitude (Debye)      :      0.10689

Rotational constants in cm-1:     0.293296     0.048782     0.045240
Rotational constants in MHz :  8792.781929  1462.459208  1356.251743

                             ****ORCA TERMINATED NORMALLY****
TOTAL RUN TIME: 0 days 0 hours 4 minutes 38 seconds 810 msec
