                         Program Version 5.0.3 -  RELEASE  -
|  1> !ri-mp2 aug-cc-pvtz aug-cc-pvtz/c tightscf
|  2> %pal nprocs 16 end
|  3>
|  4> * xyz 0 1
|  5> O     -1.681498   -0.743311    0.000016
|  6> N     -0.355469   -1.123275    0.000007
|  7> N      2.897391    0.029139   -0.000024
|  8> C      0.323220    0.004011   -0.000002
|  9> C     -0.528654    1.144183    0.000000
| 10> C     -1.764853    0.597636    0.000012
| 11> C      1.747751   -0.010163   -0.000014
| 12> H     -0.247836    2.180702   -0.000006
| 13> H     -2.758422    1.010746    0.000018
| 14> *
| 15>
| 16>                          ****END OF INPUT****

CARTESIAN COORDINATES (ANGSTROEM)
---------------------------------
  O     -1.681498   -0.743311    0.000016
  N     -0.355469   -1.123275    0.000007
  N      2.897391    0.029139   -0.000024
  C      0.323220    0.004011   -0.000002
  C     -0.528654    1.144183    0.000000
  C     -1.764853    0.597636    0.000012
  C      1.747751   -0.010163   -0.000014
  H     -0.247836    2.180702   -0.000006
  H     -2.758422    1.010746    0.000018

 Total Charge           Charge          ....    0
 Multiplicity           Mult            ....    1
 Number of Electrons    NEL             ....   48
 Basis Dimension        Dim             ....  368

ORBITAL ENERGIES
----------------

  NO   OCC          E(Eh)            E(eV)
   0   2.0000     -20.689969      -563.0027
   1   2.0000     -15.673121      -426.4873
   2   2.0000     -15.602545      -424.5668
   3   2.0000     -11.350612      -308.8659
   4   2.0000     -11.346129      -308.7439
   5   2.0000     -11.301444      -307.5279
   6   2.0000     -11.279899      -306.9417
   7   2.0000      -1.540831       -41.9282
   8   2.0000      -1.255801       -34.1721
   9   2.0000      -1.207823       -32.8665
  10   2.0000      -1.116079       -30.3701
  11   2.0000      -0.928838       -25.2750
  12   2.0000      -0.874148       -23.7868
  13   2.0000      -0.791769       -21.5451
  14   2.0000      -0.699178       -19.0256
  15   2.0000      -0.691874       -18.8268
  16   2.0000      -0.648817       -17.6552
  17   2.0000      -0.611443       -16.6382
  18   2.0000      -0.583868       -15.8879
  19   2.0000      -0.542232       -14.7549
  20   2.0000      -0.529596       -14.4110
  21   2.0000      -0.493702       -13.4343
  22   2.0000      -0.439780       -11.9670
  23   2.0000      -0.404631       -11.0106
  24   0.0000       0.018643         0.5073
  25   0.0000       0.032632         0.8880
  26   0.0000       0.056844         1.5468
  27   0.0000       0.060989         1.6596
  28   0.0000       0.073701         2.0055

MULLIKEN ATOMIC CHARGES
-----------------------
   0 O :   -0.352463
   1 N :   -0.491741
   2 N :   -0.607736
   3 C :    1.195068
   4 C :   -0.603034
   5 C :   -0.502454
   6 C :    0.175452
   7 H :    0.468739
   8 H :    0.718168
Sum of atomic charges:    0.0000000

LOEWDIN ATOMIC CHARGES
----------------------
   0 O :    0.416644
   1 N :    0.190165
   2 N :    0.279802
   3 C :   -0.462096
   4 C :    0.197560
   5 C :   -0.033311
   6 C :   -0.230447
   7 H :   -0.184604
   8 H :   -0.173713

  Mayer bond orders larger than 0.100000
B(  0-O ,  1-N ) :   0.6822 B(  0-O ,  4-C ) :  -0.1118 B(  0-O ,  5-C ) :   1.1131
B(  1-N ,  3-C ) :   1.0929 B(  1-N ,  5-C ) :   0.1018 B(  2-N ,  3-C ) :  -0.1953
B(  2-N ,  6-C ) :   2.2929 B(  3-C ,  4-C ) :   0.8351 B(  3-C ,  6-C ) :   0.6232
B(  4-C ,  5-C ) :   1.3564 B(  4-C ,  6-C ) :   0.1609 B(  4-C ,  7-H ) :   0.8779
B(  5-C ,  8-H ) :   0.4410

MP2 TOTAL ENERGY:     -337.684029871 Eh
FINAL SINGLE POINT ENERGY      -337.684029870912

DIPOLE MOMENT
-------------
                                X             Y             Z
Electronic contribution:      1.34008      -1.78147      -0.00000
Nuclear contribution   :     -2.89192       3.04089       0.00001
                        -----------------------------------------
Total Dipole Moment    :     -1.55184       1.25942       0.00001
                        -----------------------------------------
Magnitude (a.u.)       :      1.99858
Magnitude (Debye)      :      5.08000

Rotational constants in cm-1:     0.322941     0.067162     0.055599
Rotational constants in MHz :  9681.540181  2013.477576  1666.826375

                             ****ORCA TERMINATED NORMALLY****
TOTAL RUN TIME: 0 days 0 hours 2 minutes 2 seconds 711 msec
