                         Program Version 5.0.3 -  RELEASE  -
|  1> !ri-mp2 aug-cc-pvtz aug-cc-pvtz/c tightscf
|  2> %pal nprocs 16 end
|  3>
|  4> * xyz 0 1
|  5> C      1.643090   -0.157443    0.153934
|  6> C     -0.880250   -0.166831    0.029956
|  7> C      0.347276   -0.704458    0.723932
|  8> O      1.723698    0.647413   -0.732257
|  9> O     -1.466392   -0.723024   -0.859094
| 10> O     -1.245723    1.033301    0.528366
| 11> H      2.550479   -0.574965    0.632776
| 12> H      0.367812   -1.791023    0.624453
| 13> H      0.330267   -0.468364    1.790806
| 14> H     -2.001918    1.345224    0.008912
| 15> *
| 16>
| 17>                          ****END OF INPUT****

CARTESIAN COORDINATES (ANGSTROEM)
---------------------------------
  C      1.643090   -0.157443    0.153934
  C     -0.880250   -0.166831    0.029956
  C      0.347276   -0.704458    0.723932
  O      1.723698    0.647413   -0.732257
  O     -1.466392   -0.723024   -0.859094
  O     -1.245723    1.033301    0.528366
  H      2.550479   -0.574965    0.632776
  H      0.367812   -1.791023    0.624453
  H      0.330267   -0.468364    1.790806
  H     -2.001918    1.345224    0.008912

 Total Charge           Charge          ....    0
 Multiplicity           Mult            ....    1
 Number of Electrons    NEL             ....   46
 Basis Dimension        Dim             ....  368

ORBITAL ENERGIES
----------------

  NO   OCC          E(Eh)            E(eV)
   0   2.0000     -20.622956      -561.1792
   1   2.0000     -20.580434      -560.0221
   2   2.0000     -20.561908      -559.5180
   3   2.0000     -11.401714      -310.2564
   4   2.0000     -11.359246      -309.1008
   5   2.0000     -11.276988      -306.8625
   6   2.0000      -1.476968       -40.1904
   7   2.0000      -1.420304       -38.6484
   8   2.0000      -1.375226       -37.4218
   9   2.0000      -1.075620       -29.2691
  10   2.0000      -0.882832       -24.0231
  11   2.0000      -0.801396       -21.8071
  12   2.0000      -0.718618       -19.5546
  13   2.0000      -0.709609       -19.3095
  14   2.0000      -0.694328       -18.8936
  15   2.0000      -0.653266       -17.7763
  16   2.0000      -0.623821       -16.9750
  17   2.0000      -0.612943       -16.6790
  18   2.0000      -0.587568       -15.9885
  19   2.0000      -0.530105       -14.4249
  20   2.0000      -0.494998       -13.4696
  21   2.0000      -0.471487       -12.8298
  22   2.0000      -0.442709       -12.0467
  23   0.0000       0.023113         0.6289
  24   0.0000       0.033737         0.9180
  25   0.0000       0.042481         1.1560
  26   0.0000       0.044005         1.1974
  27   0.0000       0.078541         2.1372

MULLIKEN ATOMIC CHARGES
-----------------------
   0 C :   -0.113529
   1 C :    0.614358
   2 C :   -0.024567
   3 O :   -0.661663
   4 O :   -0.743321
   5 O :   -0.426713
   6 H :    0.503471
   7 H :    0.312581
   8 H :    0.304420
   9 H :    0.234962
Sum of atomic charges:    0.0000000

LOEWDIN ATOMIC CHARGES
----------------------
   0 C :   -0.207287
   1 C :   -0.816167
   2 C :    0.257846
   3 O :    0.454036
   4 O :    0.453635
   5 O :    0.833563
   6 H :   -0.174796
   7 H :   -0.169532
   8 H :   -0.167282
   9 H :   -0.464016

  Mayer bond orders larger than 0.100000
B(  0-C ,  2-C ) :   0.8543 B(  0-C ,  3-O ) :   1.6602 B(  0-C ,  6-H ) :   0.6676
B(  1-C ,  2-C ) :   0.6882 B(  1-C ,  4-O ) :   1.4754 B(  1-C ,  5-O ) :   0.9902
B(  2-C ,  7-H ) :   0.9322 B(  2-C ,  8-H ) :   0.9178 B(  5-O ,  9-H ) :   0.9332

MP2 TOTAL ENERGY:     -341.859940717 Eh
FINAL SINGLE POINT ENERGY      -341.859940716692

DIPOLE MOMENT
-------------
                                X             Y             Z
Electronic contribution:     -1.04253       1.07718      -1.63250
Nuclear contribution   :      1.20770      -1.44607       2.98251
                        -----------------------------------------
Total Dipole Moment    :      0.16518      -0.36889       1.35001
                        -----------------------------------------
Magnitude (a.u.)       :      1.40922
Magnitude (Debye)      :      3.58195

Rotational constants in cm-1:     0.212186     0.086130     0.081922
Rotational constants in MHz :  6361.165618  2582.112589  2455.948991

                             ****ORCA TERMINATED NORMALLY****
TOTAL RUN TIME: 0 days 0 hours 1 minutes 40 seconds 287 msec
