                         Program Version 5.0.3 -  RELEASE  -
|  1> !ri-mp2 aug-cc-pvtz aug-cc-pvtz/c tightscf
|  2> %pal nprocs 16 end
|  3>
|  4> * xyz 0 1
|  5> C     -1.385093   -0.119037   -0.191443
|  6> C      1.198586    1.436061    0.377759
|  7> C      2.456843   -0.677449   -0.193579
|  8> C     -0.014446   -0.553958   -0.640655
|  9> C      1.127999   -0.090146    0.287288
| 10> O     -2.127693    0.617199   -0.789592
| 11> O     -1.722647   -0.661713    1.007831
| 12> H      0.267397    1.867338    0.747324
| 13> H      1.400121    1.875664   -0.601872
| 14> H      1.997897    1.744882    1.052719
| 15> H      2.699166   -0.326079   -1.199339
| 16> H      3.273423   -0.380691    0.466040
| 17> H      2.426108   -1.767952   -0.218522
| 18> H     -0.012100   -1.645227   -0.691635
| 19> H      0.133247   -0.165542   -1.647605
| 20> H      0.921724   -0.484958    1.284881
| 21> H     -2.607598   -0.334141    1.225892
| 22> *
| 23>
| 24>                          ****END OF INPUT****

CARTESIAN COORDINATES (ANGSTROEM)
---------------------------------
  C     -1.385093   -0.119037   -0.191443
  C      1.198586    1.436061    0.377759
  C      2.456843   -0.677449   -0.193579
  C     -0.014446   -0.553958   -0.640655
  C      1.127999   -0.090146    0.287288
  O     -2.127693    0.617199   -0.789592
  O     -1.722647   -0.661713    1.007831
  H      0.267397    1.867338    0.747324
  H      1.400121    1.875664   -0.601872
  H      1.997897    1.744882    1.052719
  H      2.699166   -0.326079   -1.199339
  H      3.273423   -0.380691    0.466040
  H      2.426108   -1.767952   -0.218522
  H     -0.012100   -1.645227   -0.691635
  H      0.133247   -0.165542   -1.647605
  H      0.921724   -0.484958    1.284881
  H     -2.607598   -0.334141    1.225892

 Total Charge           Charge          ....    0
 Multiplicity           Mult            ....    1
 Number of Electrons    NEL             ....   56
 Basis Dimension        Dim             ....  552

ORBITAL ENERGIES
----------------

  NO   OCC          E(Eh)            E(eV)
   0   2.0000     -20.611076      -560.8559
   1   2.0000     -20.548877      -559.1634
   2   2.0000     -11.384133      -309.7780
   3   2.0000     -11.243874      -305.9614
   4   2.0000     -11.243293      -305.9455
   5   2.0000     -11.221555      -305.3540
   6   2.0000     -11.218324      -305.2661
   7   2.0000      -1.462859       -39.8064
   8   2.0000      -1.359973       -37.0068
   9   2.0000      -1.105958       -30.0946
  10   2.0000      -0.989633       -26.9293
  11   2.0000      -0.939600       -25.5678
  12   2.0000      -0.829384       -22.5687
  13   2.0000      -0.786937       -21.4136
  14   2.0000      -0.703085       -19.1319
  15   2.0000      -0.680038       -18.5048
  16   2.0000      -0.651699       -17.7336
  17   2.0000      -0.630618       -17.1600
  18   2.0000      -0.597581       -16.2610
  19   2.0000      -0.585801       -15.9405
  20   2.0000      -0.555558       -15.1175
  21   2.0000      -0.548543       -14.9266
  22   2.0000      -0.538512       -14.6537
  23   2.0000      -0.496314       -13.5054
  24   2.0000      -0.491039       -13.3618
  25   2.0000      -0.477728       -12.9996
  26   2.0000      -0.469846       -12.7852
  27   2.0000      -0.442893       -12.0517
  28   0.0000       0.027396         0.7455
  29   0.0000       0.034095         0.9278
  30   0.0000       0.036658         0.9975
  31   0.0000       0.040449         1.1007
  32   0.0000       0.052108         1.4179

MULLIKEN ATOMIC CHARGES
-----------------------
   0 C :    0.600835
   1 C :   -1.021833
   2 C :   -1.105641
   3 C :   -0.117768
   4 C :    0.312473
   5 O :   -0.915298
   6 O :   -0.489712
   7 H :    0.238354
   8 H :    0.275189
   9 H :    0.270906
  10 H :    0.261492
  11 H :    0.257715
  12 H :    0.265400
  13 H :    0.329185
  14 H :    0.255291
  15 H :    0.356539
  16 H :    0.226873
Sum of atomic charges:    0.0000000

LOEWDIN ATOMIC CHARGES
----------------------
   0 C :   -0.790902
   1 C :    0.589225
   2 C :    0.588073
   3 C :    0.275609
   4 C :   -0.059744
   5 O :    0.452786
   6 O :    0.835331
   7 H :   -0.166611
   8 H :   -0.156950
   9 H :   -0.162441
  10 H :   -0.159687
  11 H :   -0.163238
  12 H :   -0.164018
  13 H :   -0.148190
  14 H :   -0.154753
  15 H :   -0.141615
  16 H :   -0.472872

  Mayer bond orders larger than 0.100000
B(  0-C ,  3-C ) :   0.5225 B(  0-C ,  4-C ) :   0.1218 B(  0-C ,  5-O ) :   1.2350
B(  0-C ,  6-O ) :   0.9548 B(  1-C ,  2-C ) :   0.1327 B(  1-C ,  3-C ) :   0.1163
B(  1-C ,  4-C ) :   0.7028 B(  1-C ,  7-H ) :   0.9694 B(  1-C ,  8-H ) :   0.9631
B(  1-C ,  9-H ) :   0.9755 B(  2-C ,  4-C ) :   0.6985 B(  2-C , 10-H ) :   0.9747
B(  2-C , 11-H ) :   1.0001 B(  2-C , 12-H ) :   0.9840 B(  3-C ,  4-C ) :   0.8440
B(  3-C , 13-H ) :   0.9382 B(  3-C , 14-H ) :   0.9557 B(  4-C , 15-H ) :   0.8404
B(  6-O , 16-H ) :   0.9487

MP2 TOTAL ENERGY:     -346.399968877 Eh
FINAL SINGLE POINT ENERGY      -346.399968877278

DIPOLE MOMENT
-------------
                                X             Y             Z
Electronic contribution:    -10.14432      -0.82077       0.01413
Nuclear contribution   :     10.74930       0.39398       0.43386
                        -----------------------------------------
Total Dipole Moment    :      0.60499      -0.42680       0.44798
                        -----------------------------------------
Magnitude (a.u.)       :      0.86536
Magnitude (Debye)      :      2.19958

Rotational constants in cm-1:     0.154879     0.051200     0.048262
Rotational constants in MHz :  4643.141480  1534.933697  1446.859416

                             ****ORCA TERMINATED NORMALLY****
TOTAL RUN TIME: 0 days 0 hours 5 minutes 55 seconds 575 msec
