                         Program Version 5.0.3 -  RELEASE  -
|  1> !ri-mp2 aug-cc-pvtz aug-cc-pvtz/c tightscf
|  2> %pal nprocs 16 end
|  3> %maxcore 3800
|  4>
|  5> * xyz 0 1
|  6> C      2.517544   -1.436630   -0.005275
|  7> C      1.212170   -0.683611    0.014104
|  8> C     -0.002777   -1.367699    0.003328
|  9> C     -1.215431   -0.678269   -0.013052
| 10> C     -2.523027   -1.427228    0.013340
| 11> C     -1.202251    0.712541   -0.023179
| 12> C      0.003078    1.420199   -0.008027
| 13> C      1.204894    0.707957    0.012682
| 14> N      0.006024    2.814868   -0.071872
| 15> H      2.865912   -1.586339   -1.030476
| 16> H      2.415107   -2.420997    0.451010
| 17> H      3.299264   -0.894762    0.527510
| 18> H     -0.005117   -2.450862    0.008225
| 19> H     -3.318321   -0.859422   -0.469576
| 20> H     -2.839478   -1.624369    1.040910
| 21> H     -2.438852   -2.390051   -0.490594
| 22> H     -2.138287    1.258871   -0.046205
| 23> H      2.143579    1.250287    0.019305
| 24> H      0.839819    3.263374    0.270906
| 25> H     -0.830989    3.266634    0.258566
| 26> *
| 27>
| 28>                          ****END OF INPUT****

CARTESIAN COORDINATES (ANGSTROEM)
---------------------------------
  C      2.517544   -1.436630   -0.005275
  C      1.212170   -0.683611    0.014104
  C     -0.002777   -1.367699    0.003328
  C     -1.215431   -0.678269   -0.013052
  C     -2.523027   -1.427228    0.013340
  C     -1.202251    0.712541   -0.023179
  C      0.003078    1.420199   -0.008027
  C      1.204894    0.707957    0.012682
  N      0.006024    2.814868   -0.071872
  H      2.865912   -1.586339   -1.030476
  H      2.415107   -2.420997    0.451010
  H      3.299264   -0.894762    0.527510
  H     -0.005117   -2.450862    0.008225
  H     -3.318321   -0.859422   -0.469576
  H     -2.839478   -1.624369    1.040910
  H     -2.438852   -2.390051   -0.490594
  H     -2.138287    1.258871   -0.046205
  H      2.143579    1.250287    0.019305
  H      0.839819    3.263374    0.270906
  H     -0.830989    3.266634    0.258566

 Total Charge           Charge          ....    0
 Multiplicity           Mult            ....    1
 Number of Electrons    NEL             ....   66
 Basis Dimension        Dim             ....  667

ORBITAL ENERGIES
----------------

  NO   OCC          E(Eh)            E(eV)
   0   2.0000     -15.561352      -423.4459
   1   2.0000     -11.273250      -306.7607
   2   2.0000     -11.237531      -305.7888
   3   2.0000     -11.237517      -305.7884
   4   2.0000     -11.218335      -305.2664
   5   2.0000     -11.218286      -305.2651
   6   2.0000     -11.209666      -305.0305
   7   2.0000     -11.209502      -305.0261
   8   2.0000     -11.204462      -304.8889
   9   2.0000      -1.220604       -33.2143
  10   2.0000      -1.133084       -30.8328
  11   2.0000      -1.051626       -28.6162
  12   2.0000      -0.998303       -27.1652
  13   2.0000      -0.931729       -25.3536
  14   2.0000      -0.924985       -25.1701
  15   2.0000      -0.801015       -21.7967
  16   2.0000      -0.785761       -21.3816
  17   2.0000      -0.687860       -18.7176
  18   2.0000      -0.676017       -18.3954
  19   2.0000      -0.644906       -17.5488
  20   2.0000      -0.611878       -16.6500
  21   2.0000      -0.578195       -15.7335
  22   2.0000      -0.569192       -15.4885
  23   2.0000      -0.563846       -15.3430
  24   2.0000      -0.554249       -15.0819
  25   2.0000      -0.546119       -14.8606
  26   2.0000      -0.519187       -14.1278
  27   2.0000      -0.517917       -14.0932
  28   2.0000      -0.490029       -13.3344
  29   2.0000      -0.473935       -12.8964
  30   2.0000      -0.429134       -11.6773
  31   2.0000      -0.317921        -8.6511
  32   2.0000      -0.287991        -7.8366
  33   0.0000       0.027010         0.7350
  34   0.0000       0.031969         0.8699
  35   0.0000       0.033232         0.9043
  36   0.0000       0.044365         1.2072
  37   0.0000       0.044953         1.2232

MULLIKEN ATOMIC CHARGES
-----------------------
   0 C :   -0.947263
   1 C :    1.053643
   2 C :   -1.227434
   3 C :    1.096844
   4 C :   -0.947843
   5 C :   -0.781723
   6 C :    1.070284
   7 C :   -0.834325
   8 N :   -0.789945
   9 H :    0.308154
  10 H :    0.271864
  11 H :    0.258638
  12 H :    0.056909
  13 H :    0.261342
  14 H :    0.308416
  15 H :    0.273225
  16 H :    0.210364
  17 H :    0.241150
  18 H :    0.064605
  19 H :    0.053095
Sum of atomic charges:   -0.0000000

LOEWDIN ATOMIC CHARGES
----------------------
   0 C :    0.581515
   1 C :   -0.131170
   2 C :    0.222359
   3 C :   -0.130876
   4 C :    0.581562
   5 C :    0.232659
   6 C :   -0.240394
   7 C :    0.232320
   8 N :    0.852589
   9 H :   -0.162280
  10 H :   -0.176314
  11 H :   -0.175444
  12 H :   -0.184249
  13 H :   -0.176350
  14 H :   -0.162628
  15 H :   -0.175092
  16 H :   -0.182438
  17 H :   -0.181828
  18 H :   -0.312040
  19 H :   -0.311899

  Mayer bond orders larger than 0.100000
B(  0-C ,  1-C ) :   0.5602 B(  0-C ,  9-H ) :   0.9617 B(  0-C , 10-H ) :   1.0047
B(  0-C , 11-H ) :   1.0149 B(  1-C ,  2-C ) :   0.6087 B(  1-C ,  3-C ) :   0.3517
B(  1-C ,  5-C ) :  -0.1063 B(  1-C ,  6-C ) :   0.1710 B(  1-C ,  7-C ) :   0.5822
B(  1-C , 12-H ) :  -0.1180 B(  1-C , 17-H ) :  -0.1046 B(  2-C ,  3-C ) :   0.5566
B(  2-C ,  5-C ) :   0.1234 B(  2-C ,  7-C ) :   0.1367 B(  2-C , 12-H ) :   1.4265
B(  3-C ,  4-C ) :   0.5596 B(  3-C ,  5-C ) :   0.5666 B(  3-C ,  6-C ) :   0.1672
B(  3-C ,  7-C ) :  -0.1024 B(  3-C , 12-H ) :  -0.1242 B(  3-C , 16-H ) :  -0.1178
B(  4-C , 13-H ) :   1.0079 B(  4-C , 14-H ) :   0.9605 B(  4-C , 15-H ) :   1.0064
B(  5-C ,  6-C ) :   0.7239 B(  5-C ,  7-C ) :   0.1668 B(  5-C , 16-H ) :   1.1544
B(  6-C ,  7-C ) :   0.7640 B(  6-C ,  8-N ) :   0.5256 B(  7-C ,  8-N ) :  -0.1099
B(  7-C , 17-H ) :   1.0913 B(  8-N , 18-H ) :   1.1047 B(  8-N , 19-H ) :   1.1209

MP2 TOTAL ENERGY:     -365.474518653 Eh
FINAL SINGLE POINT ENERGY      -365.474518652940

DIPOLE MOMENT
-------------
                                X             Y             Z
Electronic contribution:      0.00514       3.51342      -0.17693
Nuclear contribution   :     -0.00750      -3.24359       0.55148
                        -----------------------------------------
Total Dipole Moment    :     -0.00236       0.26983       0.37456
                        -----------------------------------------
Magnitude (a.u.)       :      0.46163
Magnitude (Debye)      :      1.17338

Rotational constants in cm-1:     0.059655     0.058715     0.029941
Rotational constants in MHz :  1788.421145  1760.235491   897.613224

                             ****ORCA TERMINATED NORMALLY****
TOTAL RUN TIME: 0 days 0 hours 11 minutes 40 seconds 367 msec
