                         Program Version 5.0.3 -  RELEASE  -
|  1> !ri-mp2 aug-cc-pvtz aug-cc-pvtz/c tightscf
|  2> %pal nprocs 16 end
|  3>
|  4> * xyz 0 1
|  5> C     -3.048752   -0.233601    0.036674
|  6> C     -1.747093   -0.694147   -0.606769
|  7> S     -0.333206    0.184684    0.124046
|  8> O     -0.241241   -0.192676    1.531689
|  9> O     -0.432759    1.596855   -0.241566
| 10> C      1.104634   -0.526657   -0.766862
| 11> C      2.358790    0.197724   -0.407998
| 12> C      3.357139   -0.350923    0.271282
| 13> H     -3.045989   -0.433495    1.106557
| 14> H     -3.203625    0.832669   -0.117926
| 15> H     -3.884192   -0.770832   -0.411908
| 16> H     -1.719025   -0.479926   -1.674605
| 17> H     -1.562290   -1.755515   -0.442909
| 18> H      1.142724   -1.579964   -0.494282
| 19> H      0.862845   -0.421743   -1.825556
| 20> H      2.417087    1.230864   -0.727347
| 21> H      3.318293   -1.376763    0.615663
| 22> H      4.249152    0.211954    0.508629
| 23> *
| 24>
| 25>                          ****END OF INPUT****

CARTESIAN COORDINATES (ANGSTROEM)
---------------------------------
  C     -3.048752   -0.233601    0.036674
  C     -1.747093   -0.694147   -0.606769
  S     -0.333206    0.184684    0.124046
  O     -0.241241   -0.192676    1.531689
  O     -0.432759    1.596855   -0.241566
  C      1.104634   -0.526657   -0.766862
  C      2.358790    0.197724   -0.407998
  C      3.357139   -0.350923    0.271282
  H     -3.045989   -0.433495    1.106557
  H     -3.203625    0.832669   -0.117926
  H     -3.884192   -0.770832   -0.411908
  H     -1.719025   -0.479926   -1.674605
  H     -1.562290   -1.755515   -0.442909
  H      1.142724   -1.579964   -0.494282
  H      0.862845   -0.421743   -1.825556
  H      2.417087    1.230864   -0.727347
  H      3.318293   -1.376763    0.615663
  H      4.249152    0.211954    0.508629

 Total Charge           Charge          ....    0
 Multiplicity           Mult            ....    1
 Number of Electrons    NEL             ....   72
 Basis Dimension        Dim             ....  602

ORBITAL ENERGIES
----------------

  NO   OCC          E(Eh)            E(eV)
   0   2.0000     -92.172340     -2508.1369
   1   2.0000     -20.538252      -558.8742
   2   2.0000     -20.537611      -558.8568
   3   2.0000     -11.285400      -307.0914
   4   2.0000     -11.281920      -306.9967
   5   2.0000     -11.253756      -306.2303
   6   2.0000     -11.242482      -305.9235
   7   2.0000     -11.239884      -305.8528
   8   2.0000      -9.142612      -248.7831
   9   2.0000      -6.826975      -185.7714
  10   2.0000      -6.826542      -185.7597
  11   2.0000      -6.826501      -185.7585
  12   2.0000      -1.435403       -39.0593
  13   2.0000      -1.324446       -36.0400
  14   2.0000      -1.108776       -30.1713
  15   2.0000      -1.079022       -29.3617
  16   2.0000      -0.994582       -27.0640
  17   2.0000      -0.907746       -24.7010
  18   2.0000      -0.809558       -22.0292
  19   2.0000      -0.778283       -21.1782
  20   2.0000      -0.691873       -18.8268
  21   2.0000      -0.680028       -18.5045
  22   2.0000      -0.663249       -18.0479
  23   2.0000      -0.644821       -17.5465
  24   2.0000      -0.623546       -16.9675
  25   2.0000      -0.611148       -16.6302
  26   2.0000      -0.580291       -15.7905
  27   2.0000      -0.560454       -15.2507
  28   2.0000      -0.551258       -15.0005
  29   2.0000      -0.530058       -14.4236
  30   2.0000      -0.520085       -14.1522
  31   2.0000      -0.488693       -13.2980
  32   2.0000      -0.485563       -13.2129
  33   2.0000      -0.461325       -12.5533
  34   2.0000      -0.434909       -11.8345
  35   2.0000      -0.378366       -10.2959
  36   0.0000       0.022687         0.6174
  37   0.0000       0.031021         0.8441
  38   0.0000       0.035729         0.9722
  39   0.0000       0.037983         1.0336
  40   0.0000       0.049300         1.3415

MULLIKEN ATOMIC CHARGES
-----------------------
   0 C :   -0.927116
   1 C :   -0.640940
   2 S :    2.310393
   3 O :   -1.070768
   4 O :   -1.076520
   5 C :   -0.353894
   6 C :   -0.313239
   7 C :   -1.038737
   8 H :    0.314263
   9 H :    0.309130
  10 H :    0.287919
  11 H :    0.303216
  12 H :    0.296653
  13 H :    0.206512
  14 H :    0.314562
  15 H :    0.278717
  16 H :    0.281080
  17 H :    0.518769
Sum of atomic charges:    0.0000000

LOEWDIN ATOMIC CHARGES
----------------------
   0 C :    0.550782
   1 C :    0.181241
   2 S :    0.283706
   3 O :    0.028246
   4 O :    0.026442
   5 C :    0.169643
   6 C :    0.136004
   7 C :    0.536393
   8 H :   -0.176780
   9 H :   -0.175799
  10 H :   -0.171659
  11 H :   -0.189522
  12 H :   -0.186986
  13 H :   -0.197169
  14 H :   -0.191765
  15 H :   -0.192979
  16 H :   -0.212743
  17 H :   -0.217055

  Mayer bond orders larger than 0.100000
B(  0-C ,  1-C ) :   0.8993 B(  0-C ,  8-H ) :   0.9179 B(  0-C ,  9-H ) :   0.9201
B(  0-C , 10-H ) :   0.9626 B(  1-C ,  2-S ) :   0.8519 B(  1-C , 11-H ) :   0.8889
B(  1-C , 12-H ) :   0.8917 B(  2-S ,  3-O ) :   1.1295 B(  2-S ,  4-O ) :   1.1420
B(  2-S ,  5-C ) :   0.8666 B(  4-O ,  5-C ) :   0.1399 B(  5-C ,  6-C ) :   0.9201
B(  5-C , 13-H ) :   0.9518 B(  5-C , 14-H ) :   0.8659 B(  6-C ,  7-C ) :   1.4156
B(  6-C , 15-H ) :   1.0268 B(  7-C , 16-H ) :   1.0600 B(  7-C , 17-H ) :   0.6433

MP2 TOTAL ENERGY:     -744.042215928 Eh
FINAL SINGLE POINT ENERGY      -744.042215928273

DIPOLE MOMENT
-------------
                                X             Y             Z
Electronic contribution:      1.39433       3.17388       2.13796
Nuclear contribution   :     -1.43628      -4.56100      -3.47359
                        -----------------------------------------
Total Dipole Moment    :     -0.04196      -1.38712      -1.33562
                        -----------------------------------------
Magnitude (a.u.)       :      1.92607
Magnitude (Debye)      :      4.89569

Rotational constants in cm-1:     0.132202     0.032916     0.032678
Rotational constants in MHz :  3963.303826   986.782125   979.648020

                             ****ORCA TERMINATED NORMALLY****
TOTAL RUN TIME: 0 days 0 hours 7 minutes 22 seconds 7 msec
