                         Program Version 5.0.3 -  RELEASE  -
|  1> !ri-mp2 aug-cc-pvtz aug-cc-pvtz/c tightscf
|  2> %pal nprocs 16 end
|  3>
|  4> * xyz 0 1
|  5> S      0.262272   -1.270575    0.351509
|  6> S      1.911534   -0.165680   -0.415891
|  7> O     -2.958453   -0.023467   -0.342226
|  8> N     -1.819104    0.125111   -0.669138
|  9> C     -0.854816    0.161427    0.535168
| 10> C     -0.048735    1.415196    0.494290
| 11> C      1.197951    1.369932    0.028995
| 12> H     -1.455073    0.027442    1.436830
| 13> H     -0.518659    2.347856    0.774850
| 14> H      1.827781    2.237414   -0.110510
| 15> *
| 16>
| 17>                          ****END OF INPUT****

CARTESIAN COORDINATES (ANGSTROEM)
---------------------------------
  S      0.262272   -1.270575    0.351509
  S      1.911534   -0.165680   -0.415891
  O     -2.958453   -0.023467   -0.342226
  N     -1.819104    0.125111   -0.669138
  C     -0.854816    0.161427    0.535168
  C     -0.048735    1.415196    0.494290
  C      1.197951    1.369932    0.028995
  H     -1.455073    0.027442    1.436830
  H     -0.518659    2.347856    0.774850
  H      1.827781    2.237414   -0.110510

 Total Charge           Charge          ....    0
 Multiplicity           Mult            ....    1
 Number of Electrons    NEL             ....   68
 Basis Dimension        Dim             ....  399

ORBITAL ENERGIES
----------------

  NO   OCC          E(Eh)            E(eV)
   0   2.0000     -92.006937     -2503.6360
   1   2.0000     -92.003273     -2503.5363
   2   2.0000     -20.646243      -561.8128
   3   2.0000     -15.716189      -427.6592
   4   2.0000     -11.329976      -308.3043
   5   2.0000     -11.302732      -307.5630
   6   2.0000     -11.268858      -306.6412
   7   2.0000      -9.005476      -245.0515
   8   2.0000      -9.001658      -244.9476
   9   2.0000      -6.686382      -181.9457
  10   2.0000      -6.685428      -181.9197
  11   2.0000      -6.684098      -181.8835
  12   2.0000      -6.682437      -181.8384
  13   2.0000      -6.681504      -181.8130
  14   2.0000      -6.680206      -181.7776
  15   2.0000      -1.539315       -41.8869
  16   2.0000      -1.179117       -32.0854
  17   2.0000      -1.064168       -28.9575
  18   2.0000      -1.012006       -27.5381
  19   2.0000      -0.929163       -25.2838
  20   2.0000      -0.823630       -22.4121
  21   2.0000      -0.782504       -21.2930
  22   2.0000      -0.709221       -19.2989
  23   2.0000      -0.699847       -19.0438
  24   2.0000      -0.672802       -18.3079
  25   2.0000      -0.618202       -16.8221
  26   2.0000      -0.579265       -15.7626
  27   2.0000      -0.531798       -14.4710
  28   2.0000      -0.513735       -13.9795
  29   2.0000      -0.494192       -13.4477
  30   2.0000      -0.469545       -12.7770
  31   2.0000      -0.415621       -11.3096
  32   2.0000      -0.403743       -10.9864
  33   2.0000      -0.324092        -8.8190
  34   0.0000       0.025379         0.6906
  35   0.0000       0.033663         0.9160
  36   0.0000       0.042996         1.1700
  37   0.0000       0.056910         1.5486
  38   0.0000       0.059412         1.6167

MULLIKEN ATOMIC CHARGES
-----------------------
   0 S :   -0.206643
   1 S :   -0.159176
   2 O :   -0.409953
   3 N :   -0.075859
   4 C :    0.437363
   5 C :   -0.444077
   6 C :   -0.291724
   7 H :    0.334223
   8 H :    0.342553
   9 H :    0.473294
Sum of atomic charges:   -0.0000000

LOEWDIN ATOMIC CHARGES
----------------------
   0 S :    0.755849
   1 S :    0.739730
   2 O :    0.262459
   3 N :   -0.081240
   4 C :   -0.639440
   5 C :    0.006322
   6 C :   -0.319445
   7 H :   -0.261791
   8 H :   -0.200599
   9 H :   -0.261846

  Mayer bond orders larger than 0.100000
B(  0-S ,  1-S ) :   1.0230 B(  0-S ,  3-N ) :   0.1027 B(  0-S ,  4-C ) :   0.9166
B(  1-S ,  6-C ) :   0.9791 B(  2-O ,  3-N ) :   1.4686 B(  3-N ,  4-C ) :   0.6838
B(  4-C ,  5-C ) :   0.9225 B(  4-C ,  7-H ) :   0.9025 B(  5-C ,  6-C ) :   1.6603
B(  5-C ,  8-H ) :   0.9274 B(  6-C ,  9-H ) :   0.7923

MP2 TOTAL ENERGY:    -1040.994541277 Eh
FINAL SINGLE POINT ENERGY     -1040.994541276973

DIPOLE MOMENT
-------------
                                X             Y             Z
Electronic contribution:      0.83151      -3.64934      -1.42717
Nuclear contribution   :     -0.25923       4.46597       2.00777
                        -----------------------------------------
Total Dipole Moment    :      0.57228       0.81662       0.58060
                        -----------------------------------------
Magnitude (a.u.)       :      1.15390
Magnitude (Debye)      :      2.93297

Rotational constants in cm-1:     0.123173     0.046280     0.037644
Rotational constants in MHz :  3692.639098  1387.444626  1128.535136

                             ****ORCA TERMINATED NORMALLY****
TOTAL RUN TIME: 0 days 0 hours 3 minutes 0 seconds 121 msec
