                         Program Version 5.0.3 -  RELEASE  -
|  1> !ri-mp2 aug-cc-pvtz aug-cc-pvtz/c tightscf
|  2> %pal nprocs 16 end
|  3>
|  4> * xyz 0 1
|  5> O      2.465982    0.020631   -0.000235
|  6> N     -2.444823   -0.094872   -0.000289
|  7> C      0.032526   -0.028629    0.000643
|  8> C      1.301270   -0.000338   -0.000035
|  9> C     -1.244363    0.008532    0.000055
| 10> H     -3.150699    0.621669   -0.000074
| 11> *
| 12>
| 13>                          ****END OF INPUT****

CARTESIAN COORDINATES (ANGSTROEM)
---------------------------------
  O      2.465982    0.020631   -0.000235
  N     -2.444823   -0.094872   -0.000289
  C      0.032526   -0.028629    0.000643
  C      1.301270   -0.000338   -0.000035
  C     -1.244363    0.008532    0.000055
  H     -3.150699    0.621669   -0.000074

 Total Charge           Charge          ....    0
 Multiplicity           Mult            ....    1
 Number of Electrons    NEL             ....   34
 Basis Dimension        Dim             ....  253

ORBITAL ENERGIES
----------------

  NO   OCC          E(Eh)            E(eV)
   0   2.0000     -20.628809      -561.3384
   1   2.0000     -15.607999      -424.7152
   2   2.0000     -11.405416      -310.3571
   3   2.0000     -11.386331      -309.8378
   4   2.0000     -11.238120      -305.8048
   5   2.0000      -1.474208       -40.1152
   6   2.0000      -1.282369       -34.8950
   7   2.0000      -1.086716       -29.5710
   8   2.0000      -0.921177       -25.0665
   9   2.0000      -0.798635       -21.7320
  10   2.0000      -0.733623       -19.9629
  11   2.0000      -0.643572       -17.5125
  12   2.0000      -0.636665       -17.3245
  13   2.0000      -0.573575       -15.6078
  14   2.0000      -0.562400       -15.3037
  15   2.0000      -0.385234       -10.4827
  16   2.0000      -0.368125       -10.0172
  17   0.0000       0.021806         0.5934
  18   0.0000       0.056423         1.5353
  19   0.0000       0.060591         1.6488
  20   0.0000       0.066343         1.8053
  21   0.0000       0.067715         1.8426

MULLIKEN ATOMIC CHARGES
-----------------------
   0 O :   -0.469040
   1 N :   -0.495606
   2 C :    1.373848
   3 C :   -0.532183
   4 C :   -0.116166
   5 H :    0.239147
Sum of atomic charges:   -0.0000000

LOEWDIN ATOMIC CHARGES
----------------------
   0 O :    0.390100
   1 N :    0.620084
   2 C :   -0.056137
   3 C :   -0.385057
   4 C :   -0.159945
   5 H :   -0.409045

  Mayer bond orders larger than 0.100000
B(  0-O ,  2-C ) :  -0.1995 B(  0-O ,  3-C ) :   1.7434 B(  1-N ,  4-C ) :   1.3762
B(  1-N ,  5-H ) :   0.9340 B(  2-C ,  3-C ) :   0.1241 B(  2-C ,  4-C ) :   0.8142
B(  3-C ,  4-C ) :   0.2199

MP2 TOTAL ENERGY:     -244.395105343 Eh
FINAL SINGLE POINT ENERGY      -244.395105343129

DIPOLE MOMENT
-------------
                                X             Y             Z
Electronic contribution:      1.92248      -0.05680      -0.00014
Nuclear contribution   :     -2.97732       0.59185      -0.00008
                        -----------------------------------------
Total Dipole Moment    :     -1.05484       0.53504      -0.00022
                        -----------------------------------------
Magnitude (a.u.)       :      1.18277
Magnitude (Debye)      :      3.00637

Rotational constants in cm-1:    33.021321     0.073345     0.073182
Rotational constants in MHz : 989954.284571  2198.815614  2193.942721

                             ****ORCA TERMINATED NORMALLY****
TOTAL RUN TIME: 0 days 0 hours 0 minutes 48 seconds 199 msec
