                         Program Version 5.0.3 -  RELEASE  -
|  1> !ri-mp2 aug-cc-pvtz aug-cc-pvtz/c tightscf
|  2> %pal nprocs 16 end
|  3>
|  4> * xyz 0 1
|  5> N     -1.199731   -1.156343        0.000000
|  6> C     -1.178706    0.173175        0.000000
|  7> C      0.000000    0.918177        0.000000
|  8> C      1.213975    0.242243        0.000000
|  9> C      1.190617   -1.143321        0.000000
| 10> C     -0.034471   -1.802433        0.000000
| 11> O      0.013506    2.282556        0.000000
| 12> H     -2.141010    0.679327        0.000000
| 13> H      2.140074    0.800041        0.000000
| 14> H      2.112543   -1.708300        0.000000
| 15> H     -0.081634   -2.884350        0.000000
| 16> H     -0.888395    2.620187        0.000000
| 17> *
| 18>
| 19>                          ****END OF INPUT****

CARTESIAN COORDINATES (ANGSTROEM)
---------------------------------
  N     -1.199731   -1.156343    0.000000
  C     -1.178706    0.173175    0.000000
  C      0.000000    0.918177    0.000000
  C      1.213975    0.242243    0.000000
  C      1.190617   -1.143321    0.000000
  C     -0.034471   -1.802433    0.000000
  O      0.013506    2.282556    0.000000
  H     -2.141010    0.679327    0.000000
  H      2.140074    0.800041    0.000000
  H      2.112543   -1.708300    0.000000
  H     -0.081634   -2.884350    0.000000
  H     -0.888395    2.620187    0.000000

 Total Charge           Charge          ....    0
 Multiplicity           Mult            ....    1
 Number of Electrons    NEL             ....   50
 Basis Dimension        Dim             ....  437

ORBITAL ENERGIES
----------------

  NO   OCC          E(Eh)            E(eV)
   0   2.0000     -20.602310      -560.6174
   1   2.0000     -15.573243      -423.7695
   2   2.0000     -11.311072      -307.7899
   3   2.0000     -11.274110      -306.7841
   4   2.0000     -11.267454      -306.6030
   5   2.0000     -11.253597      -306.2259
   6   2.0000     -11.247790      -306.0679
   7   2.0000      -1.417841       -38.5814
   8   2.0000      -1.262511       -34.3547
   9   2.0000      -1.089598       -29.6495
  10   2.0000      -1.029401       -28.0114
  11   2.0000      -0.879852       -23.9420
  12   2.0000      -0.856859       -23.3163
  13   2.0000      -0.753952       -20.5161
  14   2.0000      -0.712739       -19.3946
  15   2.0000      -0.677322       -18.4309
  16   2.0000      -0.616979       -16.7889
  17   2.0000      -0.607295       -16.5253
  18   2.0000      -0.591847       -16.1050
  19   2.0000      -0.577680       -15.7195
  20   2.0000      -0.540872       -14.7179
  21   2.0000      -0.525556       -14.3011
  22   2.0000      -0.422787       -11.5046
  23   2.0000      -0.383088       -10.4243
  24   2.0000      -0.330895        -9.0041
  25   0.0000       0.026435         0.7193
  26   0.0000       0.030463         0.8289
  27   0.0000       0.038171         1.0387
  28   0.0000       0.050633         1.3778
  29   0.0000       0.053093         1.4447

MULLIKEN ATOMIC CHARGES
-----------------------
   0 N :   -0.389805
   1 C :   -0.650290
   2 C :    1.013393
   3 C :   -0.818386
   4 C :   -0.232463
   5 C :   -0.620831
   6 O :   -0.730269
   7 H :    0.674757
   8 H :    0.604046
   9 H :    0.311099
  10 H :    0.651215
  11 H :    0.187533
Sum of atomic charges:    0.0000000

LOEWDIN ATOMIC CHARGES
----------------------
   0 N :    0.359726
   1 C :    0.020081
   2 C :   -0.379919
   3 C :    0.210004
   4 C :    0.189218
   5 C :    0.001332
   6 O :    0.832972
   7 H :   -0.193367
   8 H :   -0.173723
   9 H :   -0.186608
  10 H :   -0.200338
  11 H :   -0.479378

  Mayer bond orders larger than 0.100000
B(  0-N ,  1-C ) :   1.2030 B(  0-N ,  2-C ) :  -0.1183 B(  0-N ,  3-C ) :   0.1516
B(  0-N ,  4-C ) :  -0.1676 B(  0-N ,  5-C ) :   1.3098 B(  1-C ,  2-C ) :   0.8875
B(  1-C ,  3-C ) :   0.3722 B(  1-C ,  4-C ) :  -0.1092 B(  1-C ,  5-C ) :   0.1490
B(  1-C ,  7-H ) :   0.3418 B(  2-C ,  3-C ) :   1.0358 B(  2-C ,  4-C ) :  -0.1360
B(  2-C ,  5-C ) :  -0.1363 B(  2-C ,  6-O ) :   0.7438 B(  3-C ,  4-C ) :   1.3110
B(  3-C ,  5-C ) :   0.2955 B(  3-C ,  8-H ) :   0.5343 B(  4-C ,  5-C ) :   0.9834
B(  4-C ,  9-H ) :   0.9938 B(  5-C , 10-H ) :   0.4103 B(  6-O , 11-H ) :   1.0176

MP2 TOTAL ENERGY:     -322.908724245 Eh
FINAL SINGLE POINT ENERGY      -322.908724244928

DIPOLE MOMENT
-------------
                                X             Y             Z
Electronic contribution:     -0.85507       0.81997       0.00000
Nuclear contribution   :      1.12046      -0.45806       0.00000
                        -----------------------------------------
Total Dipole Moment    :      0.26539       0.36191       0.00000
                        -----------------------------------------
Magnitude (a.u.)       :      0.44879
Magnitude (Debye)      :      1.14074

Rotational constants in cm-1:     0.195751     0.089978     0.061643
Rotational constants in MHz :  5868.475855  2697.465034  1848.017471

                             ****ORCA TERMINATED NORMALLY****
TOTAL RUN TIME: 0 days 0 hours 3 minutes 2 seconds 251 msec
