                         Program Version 5.0.3 -  RELEASE  -
|  1> !ri-mp2 aug-cc-pvtz aug-cc-pvtz/c tightscf
|  2> %pal nprocs 16 end
|  3>
|  4> * xyz 0 1
|  5> C      0.753389   -0.242774   -0.066189
|  6> C      1.950166    0.504928    0.480694
|  7> C     -1.111331    1.335203   -0.553983
|  8> C     -1.623252   -0.926800    0.469523
|  9> C     -0.624754    0.227078    0.399162
| 10> O      0.883709   -1.161368   -0.844108
| 11> H      1.795440    1.584352    0.445517
| 12> H      2.847365    0.235724   -0.070490
| 13> H      2.082848    0.238822    1.532800
| 14> H     -1.240580    0.938427   -1.561561
| 15> H     -2.071930    1.724975   -0.215890
| 16> H     -0.412270    2.170887   -0.605134
| 17> H     -1.294846   -1.694619    1.170584
| 18> H     -1.735386   -1.397170   -0.506315
| 19> H     -2.599221   -0.564364    0.794752
| 20> H     -0.506399    0.668094    1.393352
| 21> *
| 22>
| 23>                          ****END OF INPUT****

CARTESIAN COORDINATES (ANGSTROEM)
---------------------------------
  C      0.753389   -0.242774   -0.066189
  C      1.950166    0.504928    0.480694
  C     -1.111331    1.335203   -0.553983
  C     -1.623252   -0.926800    0.469523
  C     -0.624754    0.227078    0.399162
  O      0.883709   -1.161368   -0.844108
  H      1.795440    1.584352    0.445517
  H      2.847365    0.235724   -0.070490
  H      2.082848    0.238822    1.532800
  H     -1.240580    0.938427   -1.561561
  H     -2.071930    1.724975   -0.215890
  H     -0.412270    2.170887   -0.605134
  H     -1.294846   -1.694619    1.170584
  H     -1.735386   -1.397170   -0.506315
  H     -2.599221   -0.564364    0.794752
  H     -0.506399    0.668094    1.393352

 Total Charge           Charge          ....    0
 Multiplicity           Mult            ....    1
 Number of Electrons    NEL             ....   48
 Basis Dimension        Dim             ....  506

ORBITAL ENERGIES
----------------

  NO   OCC          E(Eh)            E(eV)
   0   2.0000     -20.541999      -558.9762
   1   2.0000     -11.325984      -308.1957
   2   2.0000     -11.242978      -305.9370
   3   2.0000     -11.233243      -305.6721
   4   2.0000     -11.228451      -305.5417
   5   2.0000     -11.215553      -305.1907
   6   2.0000      -1.384892       -37.6848
   7   2.0000      -1.088227       -29.6121
   8   2.0000      -1.004317       -27.3288
   9   2.0000      -0.939161       -25.5559
  10   2.0000      -0.851083       -23.1592
  11   2.0000      -0.723867       -19.6974
  12   2.0000      -0.665192       -18.1008
  13   2.0000      -0.633872       -17.2485
  14   2.0000      -0.613129       -16.6841
  15   2.0000      -0.596058       -16.2196
  16   2.0000      -0.572879       -15.5888
  17   2.0000      -0.554562       -15.0904
  18   2.0000      -0.545304       -14.8385
  19   2.0000      -0.519208       -14.1284
  20   2.0000      -0.503109       -13.6903
  21   2.0000      -0.486019       -13.2252
  22   2.0000      -0.474438       -12.9101
  23   2.0000      -0.402425       -10.9505
  24   0.0000       0.026062         0.7092
  25   0.0000       0.033853         0.9212
  26   0.0000       0.036365         0.9895
  27   0.0000       0.042074         1.1449
  28   0.0000       0.054361         1.4792

MULLIKEN ATOMIC CHARGES
-----------------------
   0 C :    0.655346
   1 C :   -0.836525
   2 C :   -1.062794
   3 C :   -1.051272
   4 C :    0.316350
   5 O :   -0.929898
   6 H :    0.320312
   7 H :    0.303671
   8 H :    0.301590
   9 H :    0.270161
  10 H :    0.265942
  11 H :    0.297787
  12 H :    0.254212
  13 H :    0.304083
  14 H :    0.249928
  15 H :    0.341107
Sum of atomic charges:   -0.0000000

LOEWDIN ATOMIC CHARGES
----------------------
   0 C :   -0.516543
   1 C :    0.593693
   2 C :    0.589518
   3 C :    0.576529
   4 C :   -0.061939
   5 O :    0.479836
   6 H :   -0.177322
   7 H :   -0.178781
   8 H :   -0.167185
   9 H :   -0.158658
  10 H :   -0.162390
  11 H :   -0.169250
  12 H :   -0.162440
  13 H :   -0.170441
  14 H :   -0.166724
  15 H :   -0.147905

  Mayer bond orders larger than 0.100000
B(  0-C ,  1-C ) :   0.8418 B(  0-C ,  2-C ) :   0.1765 B(  0-C ,  4-C ) :   0.8384
B(  0-C ,  5-O ) :   1.0564 B(  1-C ,  6-H ) :   0.9217 B(  1-C ,  7-H ) :   0.9627
B(  1-C ,  8-H ) :   0.9321 B(  2-C ,  3-C ) :   0.1458 B(  2-C ,  4-C ) :   0.7287
B(  2-C ,  9-H ) :   0.9651 B(  2-C , 10-H ) :   0.9790 B(  2-C , 11-H ) :   0.9334
B(  3-C ,  4-C ) :   0.7188 B(  3-C , 12-H ) :   0.9865 B(  3-C , 13-H ) :   0.9495
B(  3-C , 14-H ) :   1.0011 B(  4-C , 15-H ) :   0.8572

MP2 TOTAL ENERGY:     -271.241800530 Eh
FINAL SINGLE POINT ENERGY      -271.241800529539

DIPOLE MOMENT
-------------
                                X             Y             Z
Electronic contribution:      3.06881      -3.08859      -1.68254
Nuclear contribution   :     -3.26648       4.06793       2.47448
                        -----------------------------------------
Total Dipole Moment    :     -0.19766       0.97934       0.79194
                        -----------------------------------------
Magnitude (a.u.)       :      1.27489
Magnitude (Debye)      :      3.24052

Rotational constants in cm-1:     0.158665     0.092712     0.075134
Rotational constants in MHz :  4756.667632  2779.429156  2252.475532

                             ****ORCA TERMINATED NORMALLY****
TOTAL RUN TIME: 0 days 0 hours 4 minutes 44 seconds 733 msec
