                         Program Version 5.0.3 -  RELEASE  -
|  1> !ri-mp2 aug-cc-pvtz aug-cc-pvtz/c tightscf
|  2> %pal nprocs 16 end
|  3>
|  4> * xyz 0 1
|  5> N     -0.530767   -0.509584   -0.000040
|  6> N     -1.711032   -0.172686    0.000014
|  7> N     -2.824957    0.016559    0.000057
|  8> C      0.434644    0.619527    0.000002
|  9> C      1.797538    0.114494   -0.000012
| 10> C      2.931476   -0.269581   -0.000026
| 11> H      0.275495    1.245353    0.883766
| 12> H      0.275500    1.245412   -0.883722
| 13> H      3.934346   -0.617438   -0.000035
| 14> *
| 15>
| 16>                          ****END OF INPUT****

CARTESIAN COORDINATES (ANGSTROEM)
---------------------------------
  N     -0.530767   -0.509584   -0.000040
  N     -1.711032   -0.172686    0.000014
  N     -2.824957    0.016559    0.000057
  C      0.434644    0.619527    0.000002
  C      1.797538    0.114494   -0.000012
  C      2.931476   -0.269581   -0.000026
  H      0.275495    1.245353    0.883766
  H      0.275500    1.245412   -0.883722
  H      3.934346   -0.617438   -0.000035

 Total Charge           Charge          ....    0
 Multiplicity           Mult            ....    1
 Number of Electrons    NEL             ....   42
 Basis Dimension        Dim             ....  345

ORBITAL ENERGIES
----------------

  NO   OCC          E(Eh)            E(eV)
   0   2.0000     -15.790443      -429.6798
   1   2.0000     -15.674472      -426.5241
   2   2.0000     -15.617360      -424.9700
   3   2.0000     -11.317985      -307.9780
   4   2.0000     -11.247167      -306.0510
   5   2.0000     -11.238147      -305.8055
   6   2.0000      -1.515683       -41.2438
   7   2.0000      -1.304834       -35.5063
   8   2.0000      -1.083437       -29.4818
   9   2.0000      -0.988269       -26.8922
  10   2.0000      -0.768628       -20.9154
  11   2.0000      -0.744832       -20.2679
  12   2.0000      -0.721874       -19.6432
  13   2.0000      -0.708628       -19.2828
  14   2.0000      -0.679357       -18.4862
  15   2.0000      -0.632095       -17.2002
  16   2.0000      -0.627761       -17.0822
  17   2.0000      -0.457071       -12.4375
  18   2.0000      -0.410536       -11.1713
  19   2.0000      -0.408568       -11.1177
  20   2.0000      -0.383132       -10.4256
  21   0.0000       0.028621         0.7788
  22   0.0000       0.032500         0.8844
  23   0.0000       0.043195         1.1754
  24   0.0000       0.065492         1.7821
  25   0.0000       0.072864         1.9827

MULLIKEN ATOMIC CHARGES
-----------------------
   0 N :   -0.772089
   1 N :    1.220299
   2 N :   -0.812598
   3 C :   -0.074201
   4 C :    0.947004
   5 C :   -1.680975
   6 H :    0.311985
   7 H :    0.311981
   8 H :    0.548596
Sum of atomic charges:   -0.0000000

LOEWDIN ATOMIC CHARGES
----------------------
   0 N :    0.207181
   1 N :   -0.248865
   2 N :    0.284090
   3 C :    0.009436
   4 C :    0.001446
   5 C :    0.397358
   6 H :   -0.177046
   7 H :   -0.177045
   8 H :   -0.296555

  Mayer bond orders larger than 0.100000
B(  0-N ,  1-N ) :   0.8824 B(  0-N ,  2-N ) :   0.5865 B(  0-N ,  3-C ) :   1.0258
B(  0-N ,  4-C ) :  -0.1846 B(  1-N ,  2-N ) :   1.3400 B(  3-C ,  4-C ) :   1.0154
B(  3-C ,  5-C ) :  -0.1086 B(  3-C ,  6-H ) :   0.9025 B(  3-C ,  7-H ) :   0.9025
B(  4-C ,  5-C ) :   0.6722 B(  5-C ,  8-H ) :   0.7377

MP2 TOTAL ENERGY:     -279.725306360 Eh
FINAL SINGLE POINT ENERGY      -279.725306360268

DIPOLE MOMENT
-------------
                                X             Y             Z
Electronic contribution:     -3.94801      -1.21953       0.00001
Nuclear contribution   :      4.33476       1.81872       0.00001
                        -----------------------------------------
Total Dipole Moment    :      0.38675       0.59919       0.00002
                        -----------------------------------------
Magnitude (a.u.)       :      0.71317
Magnitude (Debye)      :      1.81272

Rotational constants in cm-1:     1.144180     0.052990     0.051128
Rotational constants in MHz : 34301.655002  1588.607824  1532.792283

                             ****ORCA TERMINATED NORMALLY****
TOTAL RUN TIME: 0 days 0 hours 1 minutes 41 seconds 940 msec
