                         Program Version 5.0.3 -  RELEASE  -
|  1> !ri-mp2 aug-cc-pvtz aug-cc-pvtz/c tightscf
|  2> %pal nprocs 16 end
|  3>
|  4> * xyz 0 1
|  5> O     1.731880    0.108377   -0.831919
|  6> O    -0.233133   -1.544013   -0.196714
|  7> O    -2.691735   -0.847458    0.265518
|  8> N    -1.675720    0.124252    0.257316
|  9> N     0.522172    0.666970   -0.284536
| 10> C    -0.460475   -0.351147   -0.115603
| 11> C    -2.198971    1.462610    0.154511
| 12> C     2.699348    0.095191    0.044841
| 13> C     3.640521    0.058237    0.782977
| 14> H    -2.181394   -1.673843    0.154736
| 15> H     0.256709    1.383325   -0.950263
| 16> H    -2.597488    1.677053   -0.841848
| 17> H    -2.998686    1.573387    0.884085
| 18> H    -1.411630    2.169530    0.406162
| 19> H     4.468689    0.007404    1.442234
| 20> *
| 21>
| 22>                          ****END OF INPUT****

CARTESIAN COORDINATES (ANGSTROEM)
---------------------------------
  O      1.731880    0.108377   -0.831919
  O     -0.233133   -1.544013   -0.196714
  O     -2.691735   -0.847458    0.265518
  N     -1.675720    0.124252    0.257316
  N      0.522172    0.666970   -0.284536
  C     -0.460475   -0.351147   -0.115603
  C     -2.198971    1.462610    0.154511
  C      2.699348    0.095191    0.044841
  C      3.640521    0.058237    0.782977
  H     -2.181394   -1.673843    0.154736
  H      0.256709    1.383325   -0.950263
  H     -2.597488    1.677053   -0.841848
  H     -2.998686    1.573387    0.884085
  H     -1.411630    2.169530    0.406162
  H      4.468689    0.007404    1.442234

 Total Charge           Charge          ....    0
 Multiplicity           Mult            ....    1
 Number of Electrons    NEL             ....   68
 Basis Dimension        Dim             ....  552

ORBITAL ENERGIES
----------------

  NO   OCC          E(Eh)            E(eV)
   0   2.0000     -20.674193      -562.5734
   1   2.0000     -20.619474      -561.0844
   2   2.0000     -20.551943      -559.2468
   3   2.0000     -15.681521      -426.7159
   4   2.0000     -15.662090      -426.1871
   5   2.0000     -11.412430      -310.5480
   6   2.0000     -11.297693      -307.4259
   7   2.0000     -11.295123      -307.3559
   8   2.0000     -11.228208      -305.5351
   9   2.0000      -1.505610       -40.9697
  10   2.0000      -1.468392       -39.9570
  11   2.0000      -1.392647       -37.8959
  12   2.0000      -1.235557       -33.6212
  13   2.0000      -1.159676       -31.5564
  14   2.0000      -1.021705       -27.8020
  15   2.0000      -0.989783       -26.9334
  16   2.0000      -0.841431       -22.8965
  17   2.0000      -0.804538       -21.8926
  18   2.0000      -0.778449       -21.1827
  19   2.0000      -0.726677       -19.7739
  20   2.0000      -0.706347       -19.2207
  21   2.0000      -0.696578       -18.9549
  22   2.0000      -0.683847       -18.6084
  23   2.0000      -0.645403       -17.5623
  24   2.0000      -0.618047       -16.8179
  25   2.0000      -0.604042       -16.4368
  26   2.0000      -0.587691       -15.9919
  27   2.0000      -0.581620       -15.8267
  28   2.0000      -0.559062       -15.2129
  29   2.0000      -0.493736       -13.4352
  30   2.0000      -0.466611       -12.6971
  31   2.0000      -0.401899       -10.9362
  32   2.0000      -0.392756       -10.6874
  33   2.0000      -0.381833       -10.3902
  34   0.0000       0.020076         0.5463
  35   0.0000       0.033616         0.9147
  36   0.0000       0.036041         0.9807
  37   0.0000       0.040761         1.1092
  38   0.0000       0.050056         1.3621

MULLIKEN ATOMIC CHARGES
-----------------------
   0 O :   -0.220829
   1 O :   -0.667046
   2 O :   -0.623210
   3 N :    0.436615
   4 N :    0.062846
   5 C :    0.246269
   6 C :   -0.874627
   7 C :    0.933227
   8 C :   -1.285200
   9 H :    0.277696
  10 H :    0.107008
  11 H :    0.348771
  12 H :    0.360432
  13 H :    0.403763
  14 H :    0.494284
Sum of atomic charges:   -0.0000000

LOEWDIN ATOMIC CHARGES
----------------------
   0 O :    0.426118
   1 O :    0.473876
   2 O :    0.765012
   3 N :    0.000099
   4 N :    0.372838
   5 C :   -0.804780
   6 C :    0.481315
   7 C :   -0.303068
   8 C :    0.325452
   9 H :   -0.588058
  10 H :   -0.328436
  11 H :   -0.154174
  12 H :   -0.163175
  13 H :   -0.184003
  14 H :   -0.319014

  Mayer bond orders larger than 0.100000
B(  0-O ,  4-N ) :   0.8508 B(  0-O ,  7-C ) :   0.9786 B(  0-O ,  8-C ) :  -0.2034
B(  1-O ,  3-N ) :  -0.1104 B(  1-O ,  5-C ) :   1.5651 B(  2-O ,  3-N ) :   0.7182
B(  2-O ,  9-H ) :   0.9152 B(  3-N ,  5-C ) :   1.1227 B(  3-N ,  6-C ) :   0.7895
B(  4-N ,  5-C ) :   0.9451 B(  4-N , 10-H ) :   1.0296 B(  6-C , 11-H ) :   0.9039
B(  6-C , 12-H ) :   0.9124 B(  6-C , 13-H ) :   0.8505 B(  7-C ,  8-C ) :   1.5946
B(  8-C , 14-H ) :   0.7544

MP2 TOTAL ENERGY:     -490.198029869 Eh
FINAL SINGLE POINT ENERGY      -490.198029868715

DIPOLE MOMENT
-------------
                                X             Y             Z
Electronic contribution:      3.86387      -3.47800      -1.20184
Nuclear contribution   :     -4.40677       5.01156       1.06299
                        -----------------------------------------
Total Dipole Moment    :     -0.54289       1.53356      -0.13885
                        -----------------------------------------
Magnitude (a.u.)       :      1.63274
Magnitude (Debye)      :      4.15009

Rotational constants in cm-1:     0.134387     0.028791     0.025688
Rotational constants in MHz :  4028.819304   863.136601   770.111493

                             ****ORCA TERMINATED NORMALLY****
TOTAL RUN TIME: 0 days 0 hours 5 minutes 44 seconds 910 msec
