                         Program Version 5.0.3 -  RELEASE  -
|  1> !ri-mp2 aug-cc-pvtz aug-cc-pvtz/c tightscf
|  2> %pal nprocs 16 end
|  3>
|  4> * xyz 0 1
|  5> S      1.295602   -0.412017    0.082747
|  6> S     -0.664803   -1.162627   -0.093069
|  7> N     -0.479291    1.584298   -0.083568
|  8> C      0.738128    1.267662   -0.100668
|  9> C     -1.435059    0.543003    0.155054
| 10> H      1.524832    2.007293   -0.203172
| 11> H     -2.263985    0.603202   -0.546612
| 12> H     -1.817015    0.629721    1.173604
| 13> *
| 14>
| 15>                          ****END OF INPUT****

CARTESIAN COORDINATES (ANGSTROEM)
---------------------------------
  S      1.295602   -0.412017    0.082747
  S     -0.664803   -1.162627   -0.093069
  N     -0.479291    1.584298   -0.083568
  C      0.738128    1.267662   -0.100668
  C     -1.435059    0.543003    0.155054
  H      1.524832    2.007293   -0.203172
  H     -2.263985    0.603202   -0.546612
  H     -1.817015    0.629721    1.173604

 Total Charge           Charge          ....    0
 Multiplicity           Mult            ....    1
 Number of Electrons    NEL             ....   54
 Basis Dimension        Dim             ....  307

ORBITAL ENERGIES
----------------

  NO   OCC          E(Eh)            E(eV)
   0   2.0000     -92.000208     -2503.4529
   1   2.0000     -91.986109     -2503.0693
   2   2.0000     -15.588467      -424.1837
   3   2.0000     -11.333569      -308.4021
   4   2.0000     -11.313923      -307.8675
   5   2.0000      -8.999267      -244.8825
   6   2.0000      -8.984626      -244.4841
   7   2.0000      -6.680110      -181.7750
   8   2.0000      -6.679193      -181.7501
   9   2.0000      -6.677939      -181.7159
  10   2.0000      -6.665523      -181.3781
  11   2.0000      -6.664421      -181.3481
  12   2.0000      -6.663154      -181.3136
  13   2.0000      -1.279963       -34.8296
  14   2.0000      -1.050660       -28.5899
  15   2.0000      -1.020380       -27.7660
  16   2.0000      -0.841983       -22.9115
  17   2.0000      -0.789020       -21.4703
  18   2.0000      -0.656289       -17.8585
  19   2.0000      -0.645349       -17.5608
  20   2.0000      -0.621955       -16.9243
  21   2.0000      -0.500601       -13.6221
  22   2.0000      -0.486468       -13.2375
  23   2.0000      -0.477342       -12.9891
  24   2.0000      -0.431817       -11.7503
  25   2.0000      -0.416385       -11.3304
  26   2.0000      -0.324734        -8.8365
  27   0.0000       0.029890         0.8133
  28   0.0000       0.036312         0.9881
  29   0.0000       0.045330         1.2335
  30   0.0000       0.059413         1.6167
  31   0.0000       0.063427         1.7259

MULLIKEN ATOMIC CHARGES
-----------------------
   0 S :   -0.067855
   1 S :   -0.165874
   2 N :   -0.465093
   3 C :   -0.232799
   4 C :   -0.232167
   5 H :    0.547599
   6 H :    0.322489
   7 H :    0.293699
Sum of atomic charges:   -0.0000000

LOEWDIN ATOMIC CHARGES
----------------------
   0 S :    0.669041
   1 S :    0.654995
   2 N :    0.219185
   3 C :   -0.493444
   4 C :   -0.285559
   5 H :   -0.271615
   6 H :   -0.252058
   7 H :   -0.240544

  Mayer bond orders larger than 0.100000
B(  0-S ,  1-S ) :   1.0277 B(  0-S ,  3-C ) :   0.9838 B(  1-S ,  4-C ) :   0.9754
B(  2-N ,  3-C ) :   1.7424 B(  2-N ,  4-C ) :   0.8043 B(  3-C ,  5-H ) :   0.6138
B(  4-C ,  6-H ) :   0.8854 B(  4-C ,  7-H ) :   0.8907

MP2 TOTAL ENERGY:     -927.931659760 Eh
FINAL SINGLE POINT ENERGY      -927.931659759742

DIPOLE MOMENT
-------------
                                X             Y             Z
Electronic contribution:      2.45866      -2.90633      -0.28932
Nuclear contribution   :     -2.48634       3.18029       0.40851
                        -----------------------------------------
Total Dipole Moment    :     -0.02768       0.27395       0.11919
                        -----------------------------------------
Magnitude (a.u.)       :      0.30004
Magnitude (Debye)      :      0.76264

Rotational constants in cm-1:     0.147725     0.145195     0.074998
Rotational constants in MHz :  4428.683835  4352.839523  2248.378524

                             ****ORCA TERMINATED NORMALLY****
TOTAL RUN TIME: 0 days 0 hours 1 minutes 27 seconds 684 msec
