                         Program Version 5.0.3 -  RELEASE  -
|  1> !ri-mp2 aug-cc-pvtz aug-cc-pvtz/c tightscf
|  2> %pal nprocs 16 end
|  3>
|  4> * xyz 0 1
|  5> S     -0.665329   -1.105340   -0.182687
|  6> S      1.328505   -0.380755    0.146421
|  7> N     -1.448431    0.367384    0.222713
|  8> C      0.727116    1.257202   -0.172811
|  9> C     -0.585503    1.466416   -0.095672
| 10> H     -1.727963    0.395573    1.201544
| 11> H      1.454698    2.032027   -0.360302
| 12> H     -1.048226    2.436538   -0.209095
| 13> *
| 14>
| 15>                          ****END OF INPUT****

CARTESIAN COORDINATES (ANGSTROEM)
---------------------------------
  S     -0.665329   -1.105340   -0.182687
  S      1.328505   -0.380755    0.146421
  N     -1.448431    0.367384    0.222713
  C      0.727116    1.257202   -0.172811
  C     -0.585503    1.466416   -0.095672
  H     -1.727963    0.395573    1.201544
  H      1.454698    2.032027   -0.360302
  H     -1.048226    2.436538   -0.209095

 Total Charge           Charge          ....    0
 Multiplicity           Mult            ....    1
 Number of Electrons    NEL             ....   54
 Basis Dimension        Dim             ....  307

ORBITAL ENERGIES
----------------

  NO   OCC          E(Eh)            E(eV)
   0   2.0000     -92.011213     -2503.7524
   1   2.0000     -91.989348     -2503.1574
   2   2.0000     -15.608268      -424.7226
   3   2.0000     -11.286898      -307.1321
   4   2.0000     -11.277019      -306.8633
   5   2.0000      -9.006193      -245.0710
   6   2.0000      -8.987655      -244.5665
   7   2.0000      -6.686914      -181.9602
   8   2.0000      -6.685881      -181.9321
   9   2.0000      -6.684294      -181.8889
  10   2.0000      -6.668469      -181.4583
  11   2.0000      -6.667723      -181.4380
  12   2.0000      -6.666367      -181.4011
  13   2.0000      -1.259160       -34.2635
  14   2.0000      -1.067459       -29.0470
  15   2.0000      -1.002872       -27.2895
  16   2.0000      -0.844798       -22.9881
  17   2.0000      -0.779796       -21.2193
  18   2.0000      -0.698629       -19.0107
  19   2.0000      -0.657123       -17.8812
  20   2.0000      -0.570328       -15.5194
  21   2.0000      -0.514715       -14.0061
  22   2.0000      -0.511910       -13.9298
  23   2.0000      -0.473250       -12.8778
  24   2.0000      -0.415591       -11.3088
  25   2.0000      -0.387038       -10.5319
  26   2.0000      -0.308024        -8.3818
  27   0.0000       0.027437         0.7466
  28   0.0000       0.036572         0.9952
  29   0.0000       0.043457         1.1825
  30   0.0000       0.059642         1.6229
  31   0.0000       0.064395         1.7523

MULLIKEN ATOMIC CHARGES
-----------------------
   0 S :   -0.001004
   1 S :   -0.189836
   2 N :   -0.235561
   3 C :   -0.298496
   4 C :   -0.367572
   5 H :    0.106675
   6 H :    0.447830
   7 H :    0.537965
Sum of atomic charges:    0.0000000

LOEWDIN ATOMIC CHARGES
----------------------
   0 S :    0.629304
   1 S :    0.692992
   2 N :    0.047918
   3 C :   -0.334168
   4 C :   -0.138255
   5 H :   -0.412674
   6 H :   -0.280802
   7 H :   -0.204314

  Mayer bond orders larger than 0.100000
B(  0-S ,  1-S ) :   1.0359 B(  0-S ,  2-N ) :   0.9521 B(  1-S ,  3-C ) :   0.9490
B(  2-N ,  4-C ) :   0.8290 B(  2-N ,  5-H ) :   0.9925 B(  3-C ,  4-C ) :   1.6490
B(  3-C ,  6-H ) :   0.8140 B(  4-C ,  7-H ) :   0.6670

MP2 TOTAL ENERGY:     -927.905699193 Eh
FINAL SINGLE POINT ENERGY      -927.905699192689

DIPOLE MOMENT
-------------
                                X             Y             Z
Electronic contribution:      1.21522      -3.96096      -0.23342
Nuclear contribution   :     -1.30221       4.73667       0.61191
                        -----------------------------------------
Total Dipole Moment    :     -0.08700       0.77571       0.37848
                        -----------------------------------------
Magnitude (a.u.)       :      0.86750
Magnitude (Debye)      :      2.20500

Rotational constants in cm-1:     0.160417     0.138846     0.077500
Rotational constants in MHz :  4809.177429  4162.510889  2323.404482

                             ****ORCA TERMINATED NORMALLY****
TOTAL RUN TIME: 0 days 0 hours 1 minutes 23 seconds 810 msec
