                         Program Version 5.0.3 -  RELEASE  -
|  1> !ri-mp2 aug-cc-pvtz aug-cc-pvtz/c tightscf
|  2> %pal nprocs 16 end
|  3>
|  4> * xyz 0 1
|  5> C      2.066444   -1.078567    0.000000
|  6> C      1.117232   -0.133948    0.000001
|  7> C     -0.293736   -0.518951    0.000015
|  8> C     -1.341106    0.310850    0.000031
|  9> C     -2.772365   -0.122358   -0.000019
| 10> C      1.473859    1.328371   -0.000012
| 11> H      3.118414   -0.827682   -0.000025
| 12> H      1.813394   -2.130884    0.000014
| 13> H     -0.482710   -1.588989   -0.000013
| 14> H     -1.170199    1.382350    0.000073
| 15> H     -2.863802   -1.208498   -0.000060
| 16> H     -3.301379    0.263852    0.875706
| 17> H     -3.301329    0.263911   -0.875747
| 18> H      1.065954    1.834129   -0.878047
| 19> H      1.066119    1.834099    0.878118
| 20> H      2.553575    1.465330   -0.000111
| 21> *
| 22>
| 23>                          ****END OF INPUT****

CARTESIAN COORDINATES (ANGSTROEM)
---------------------------------
  C      2.066444   -1.078567    0.000000
  C      1.117232   -0.133948    0.000001
  C     -0.293736   -0.518951    0.000015
  C     -1.341106    0.310850    0.000031
  C     -2.772365   -0.122358   -0.000019
  C      1.473859    1.328371   -0.000012
  H      3.118414   -0.827682   -0.000025
  H      1.813394   -2.130884    0.000014
  H     -0.482710   -1.588989   -0.000013
  H     -1.170199    1.382350    0.000073
  H     -2.863802   -1.208498   -0.000060
  H     -3.301379    0.263852    0.875706
  H     -3.301329    0.263911   -0.875747
  H      1.065954    1.834129   -0.878047
  H      1.066119    1.834099    0.878118
  H      2.553575    1.465330   -0.000111

 Total Charge           Charge          ....    0
 Multiplicity           Mult            ....    1
 Number of Electrons    NEL             ....   46
 Basis Dimension        Dim             ....  506

ORBITAL ENERGIES
----------------

  NO   OCC          E(Eh)            E(eV)
   0   2.0000     -11.240320      -305.8647
   1   2.0000     -11.232238      -305.6447
   2   2.0000     -11.224601      -305.4369
   3   2.0000     -11.222424      -305.3777
   4   2.0000     -11.218951      -305.2832
   5   2.0000     -11.214923      -305.1736
   6   2.0000      -1.110311       -30.2131
   7   2.0000      -1.042034       -28.3552
   8   2.0000      -0.937742       -25.5173
   9   2.0000      -0.929007       -25.2796
  10   2.0000      -0.786513       -21.4021
  11   2.0000      -0.718707       -19.5570
  12   2.0000      -0.647028       -17.6065
  13   2.0000      -0.616741       -16.7824
  14   2.0000      -0.574722       -15.6390
  15   2.0000      -0.565454       -15.3868
  16   2.0000      -0.563666       -15.3381
  17   2.0000      -0.543489       -14.7891
  18   2.0000      -0.518842       -14.1184
  19   2.0000      -0.508879       -13.8473
  20   2.0000      -0.476491       -12.9660
  21   2.0000      -0.414682       -11.2841
  22   2.0000      -0.310039        -8.4366
  23   0.0000       0.029493         0.8025
  24   0.0000       0.033524         0.9122
  25   0.0000       0.035368         0.9624
  26   0.0000       0.043926         1.1953
  27   0.0000       0.049761         1.3541

MULLIKEN ATOMIC CHARGES
-----------------------
   0 C :   -1.508261
   1 C :    1.241016
   2 C :   -0.291773
   3 C :   -0.295229
   4 C :   -0.826208
   5 C :   -0.835299
   6 H :    0.385196
   7 H :    0.268260
   8 H :    0.151997
   9 H :    0.186632
  10 H :    0.288963
  11 H :    0.270151
  12 H :    0.270154
  13 H :    0.240133
  14 H :    0.240146
  15 H :    0.214122
Sum of atomic charges:    0.0000000

LOEWDIN ATOMIC CHARGES
----------------------
   0 C :    0.540785
   1 C :   -0.170314
   2 C :    0.192466
   3 C :    0.212891
   4 C :    0.556468
   5 C :    0.549594
   6 H :   -0.220785
   7 H :   -0.222343
   8 H :   -0.193547
   9 H :   -0.194316
  10 H :   -0.183103
  11 H :   -0.176011
  12 H :   -0.176011
  13 H :   -0.167455
  14 H :   -0.167448
  15 H :   -0.180871

  Mayer bond orders larger than 0.100000
B(  0-C ,  1-C ) :   0.8534 B(  0-C ,  2-C ) :  -0.1505 B(  0-C ,  3-C ) :   0.1090
B(  0-C ,  6-H ) :   0.8071 B(  0-C ,  7-H ) :   1.1712 B(  1-C ,  2-C ) :   0.6868
B(  1-C ,  5-C ) :   0.7013 B(  2-C ,  3-C ) :   1.0863 B(  2-C ,  8-H ) :   1.2211
B(  2-C ,  9-H ) :  -0.1167 B(  3-C ,  4-C ) :   0.7008 B(  3-C ,  5-C ) :  -0.1081
B(  3-C ,  9-H ) :   1.2748 B(  4-C , 10-H ) :   0.9483 B(  4-C , 11-H ) :   0.9951
B(  4-C , 12-H ) :   0.9951 B(  5-C , 13-H ) :   1.0090 B(  5-C , 14-H ) :   1.0090
B(  5-C , 15-H ) :   1.0263

MP2 TOTAL ENERGY:     -234.098686637 Eh
FINAL SINGLE POINT ENERGY      -234.098686637479

DIPOLE MOMENT
-------------
                                X             Y             Z
Electronic contribution:      1.37194      -1.18219       0.00009
Nuclear contribution   :     -1.57959       1.35416      -0.00010
                        -----------------------------------------
Total Dipole Moment    :     -0.20764       0.17198      -0.00001
                        -----------------------------------------
Magnitude (a.u.)       :      0.26961
Magnitude (Debye)      :      0.68531

Rotational constants in cm-1:     0.266252     0.063793     0.052455
Rotational constants in MHz :  7982.033895  1912.451241  1572.572630

                             ****ORCA TERMINATED NORMALLY****
TOTAL RUN TIME: 0 days 0 hours 3 minutes 59 seconds 563 msec
