                         Program Version 5.0.3 -  RELEASE  -
|  1> !ri-mp2 aug-cc-pvtz aug-cc-pvtz/c tightscf
|  2> %pal nprocs 16 end
|  3> %maxcore 3800
|  4>
|  5> * xyz 0 1
|  6> C      2.400164    0.371989    0.000000
|  7> C      2.378036   -1.032831    0.000000
|  8> C      1.225975    1.104452    0.000000
|  9> C      1.182367   -1.731751    0.000000
| 10> C     -2.128810   -0.282841    0.000000
| 11> C      0.000000    0.426694    0.000000
| 12> C     -1.373591    0.855619    0.000000
| 13> C      0.002265   -0.990913    0.000000
| 14> C     -1.867833    2.265725    0.000000
| 15> N     -1.311240   -1.397591    0.000000
| 16> H      3.352447    0.884837    0.000000
| 17> H      3.311976   -1.578318    0.000000
| 18> H      1.256605    2.186234    0.000000
| 19> H      1.169380   -2.813921    0.000000
| 20> H     -3.200520   -0.392058    0.000000
| 21> H     -1.518424    2.813683    0.878543
| 22> H     -1.518424    2.813683   -0.878543
| 23> H     -2.957161    2.300824    0.000000
| 24> H     -1.628625   -2.348693    0.000000
| 25> *
| 26>
| 27>                          ****END OF INPUT****

CARTESIAN COORDINATES (ANGSTROEM)
---------------------------------
  C      2.400164    0.371989    0.000000
  C      2.378036   -1.032831    0.000000
  C      1.225975    1.104452    0.000000
  C      1.182367   -1.731751    0.000000
  C     -2.128810   -0.282841    0.000000
  C      0.000000    0.426694    0.000000
  C     -1.373591    0.855619    0.000000
  C      0.002265   -0.990913    0.000000
  C     -1.867833    2.265725    0.000000
  N     -1.311240   -1.397591    0.000000
  H      3.352447    0.884837    0.000000
  H      3.311976   -1.578318    0.000000
  H      1.256605    2.186234    0.000000
  H      1.169380   -2.813921    0.000000
  H     -3.200520   -0.392058    0.000000
  H     -1.518424    2.813683    0.878543
  H     -1.518424    2.813683   -0.878543
  H     -2.957161    2.300824    0.000000
  H     -1.628625   -2.348693    0.000000

 Total Charge           Charge          ....    0
 Multiplicity           Mult            ....    1
 Number of Electrons    NEL             ....   70
 Basis Dimension        Dim             ....  667

ORBITAL ENERGIES
----------------

  NO   OCC          E(Eh)            E(eV)
   0   2.0000     -15.597489      -424.4293
   1   2.0000     -11.263473      -306.4947
   2   2.0000     -11.262001      -306.4546
   3   2.0000     -11.228667      -305.5476
   4   2.0000     -11.227960      -305.5283
   5   2.0000     -11.226695      -305.4939
   6   2.0000     -11.221384      -305.3494
   7   2.0000     -11.220480      -305.3248
   8   2.0000     -11.220029      -305.3125
   9   2.0000     -11.218202      -305.2628
  10   2.0000      -1.292381       -35.1675
  11   2.0000      -1.129961       -30.7478
  12   2.0000      -1.073716       -29.2173
  13   2.0000      -0.999137       -27.1879
  14   2.0000      -0.987788       -26.8791
  15   2.0000      -0.932861       -25.3844
  16   2.0000      -0.840581       -22.8734
  17   2.0000      -0.805610       -21.9218
  18   2.0000      -0.757369       -20.6090
  19   2.0000      -0.722137       -19.6504
  20   2.0000      -0.660568       -17.9750
  21   2.0000      -0.646877       -17.6024
  22   2.0000      -0.604504       -16.4494
  23   2.0000      -0.594339       -16.1728
  24   2.0000      -0.592587       -16.1251
  25   2.0000      -0.571266       -15.5449
  26   2.0000      -0.551519       -15.0076
  27   2.0000      -0.543074       -14.7778
  28   2.0000      -0.530954       -14.4480
  29   2.0000      -0.498865       -13.5748
  30   2.0000      -0.475413       -12.9367
  31   2.0000      -0.464624       -12.6431
  32   2.0000      -0.375137       -10.2080
  33   2.0000      -0.298995        -8.1361
  34   2.0000      -0.279567        -7.6074
  35   0.0000       0.024960         0.6792
  36   0.0000       0.031251         0.8504
  37   0.0000       0.032911         0.8956
  38   0.0000       0.043010         1.1704
  39   0.0000       0.044664         1.2154

MULLIKEN ATOMIC CHARGES
-----------------------
   0 C :   -0.497149
   1 C :   -0.276480
   2 C :   -0.937102
   3 C :   -1.121770
   4 C :   -1.149970
   5 C :    1.812111
   6 C :    0.630747
   7 C :   -0.254582
   8 C :   -0.908006
   9 N :   -0.103440
  10 H :    0.641130
  11 H :    0.414906
  12 H :   -0.088829
  13 H :    0.406177
  14 H :    0.677822
  15 H :    0.261088
  16 H :    0.261088
  17 H :    0.236738
  18 H :   -0.004478
Sum of atomic charges:    0.0000000

LOEWDIN ATOMIC CHARGES
----------------------
   0 C :    0.186766
   1 C :    0.182655
   2 C :    0.227163
   3 C :    0.236048
   4 C :    0.162845
   5 C :   -0.110109
   6 C :   -0.101382
   7 C :   -0.218035
   8 C :    0.572302
   9 N :    0.545901
  10 H :   -0.196062
  11 H :   -0.191530
  12 H :   -0.177858
  13 H :   -0.183474
  14 H :   -0.163691
  15 H :   -0.170205
  16 H :   -0.170205
  17 H :   -0.178045
  18 H :   -0.253083

  Mayer bond orders larger than 0.100000
B(  0-C ,  1-C ) :   1.0717 B(  0-C ,  2-C ) :   1.1798 B(  0-C ,  3-C ) :   0.1965
B(  0-C ,  5-C ) :  -0.1509 B(  0-C ,  6-C ) :   0.3172 B(  0-C ,  7-C ) :   0.1943
B(  0-C , 10-H ) :   0.4664 B(  0-C , 11-H ) :  -0.2195 B(  0-C , 12-H ) :  -0.1459
B(  1-C ,  2-C ) :  -0.2925 B(  1-C ,  3-C ) :   1.4252 B(  1-C ,  5-C ) :   0.1553
B(  1-C ,  7-C ) :  -0.5013 B(  1-C , 11-H ) :   0.8213 B(  2-C ,  3-C ) :   0.1864
B(  2-C ,  4-C ) :   0.1534 B(  2-C ,  5-C ) :   0.8046 B(  2-C ,  7-C ) :  -0.7960
B(  2-C ,  9-N ) :   0.1330 B(  2-C , 10-H ) :  -0.1596 B(  2-C , 12-H ) :   2.0205
B(  3-C ,  4-C ) :  -0.1487 B(  3-C ,  5-C ) :  -0.1057 B(  3-C ,  6-C ) :   0.1406
B(  3-C ,  7-C ) :   0.8659 B(  3-C ,  9-N ) :  -0.1203 B(  3-C , 11-H ) :  -0.1965
B(  3-C , 13-H ) :   0.8454 B(  4-C ,  6-C ) :   0.3696 B(  4-C ,  7-C ) :   0.2836
B(  4-C ,  8-C ) :  -0.1606 B(  4-C ,  9-N ) :   1.2077 B(  4-C , 10-H ) :   0.1535
B(  4-C , 12-H ) :  -0.1259 B(  4-C , 13-H ) :   0.1108 B(  4-C , 14-H ) :   0.3121
B(  5-C ,  6-C ) :   0.7526 B(  5-C ,  7-C ) :  -0.2640 B(  5-C ,  9-N ) :  -0.4562
B(  5-C , 10-H ) :  -0.2006 B(  5-C , 12-H ) :  -0.1442 B(  5-C , 13-H ) :   0.1885
B(  6-C ,  7-C ) :   0.5279 B(  6-C ,  8-C ) :   0.6315 B(  6-C ,  9-N ) :  -0.2772
B(  6-C , 10-H ) :   0.1865 B(  6-C , 12-H ) :  -0.3179 B(  6-C , 13-H ) :  -0.1710
B(  6-C , 14-H ) :   0.1229 B(  7-C ,  9-N ) :   0.7297 B(  7-C , 10-H ) :  -0.1402
B(  7-C , 11-H ) :   0.3428 B(  7-C , 12-H ) :   0.3924 B(  7-C , 13-H ) :  -0.2483
B(  8-C , 15-H ) :   1.0423 B(  8-C , 16-H ) :   1.0423 B(  8-C , 17-H ) :   1.0045
B(  9-N , 18-H ) :   1.2757

MP2 TOTAL ENERGY:     -402.306990544 Eh
FINAL SINGLE POINT ENERGY      -402.306990544128

DIPOLE MOMENT
-------------
                                X             Y             Z
Electronic contribution:      1.13838      -4.32365      -0.00000
Nuclear contribution   :     -1.74425       3.86651       0.00000
                        -----------------------------------------
Total Dipole Moment    :     -0.60588      -0.45714      -0.00000
                        -----------------------------------------
Magnitude (a.u.)       :      0.75899
Magnitude (Debye)      :      1.92919

Rotational constants in cm-1:     0.087483     0.042340     0.028682
Rotational constants in MHz :  2622.667458  1269.324239   859.879154

                             ****ORCA TERMINATED NORMALLY****
TOTAL RUN TIME: 0 days 0 hours 12 minutes 38 seconds 400 msec
