                         Program Version 5.0.3 -  RELEASE  -
|  1> !ri-mp2 aug-cc-pvtz aug-cc-pvtz/c tightscf
|  2> %pal nprocs 16 end
|  3>
|  4> * xyz 0 1
|  5> S      2.304780    0.469076    0.000055
|  6> N     -0.000276   -1.064889   -0.000264
|  7> C     -1.440161   -1.078448    0.000154
|  8> C     -2.045252    0.250085    0.000038
|  9> C      0.961067   -0.361593   -0.000087
| 10> C     -2.535008    1.342919   -0.000048
| 11> H     -1.775353   -1.640578   -0.874688
| 12> H     -1.774829   -1.640184    0.875452
| 13> H     -2.968251    2.311985   -0.000143
| 14> *
| 15>
| 16>                          ****END OF INPUT****

CARTESIAN COORDINATES (ANGSTROEM)
---------------------------------
  S      2.304780    0.469076    0.000055
  N     -0.000276   -1.064889   -0.000264
  C     -1.440161   -1.078448    0.000154
  C     -2.045252    0.250085    0.000038
  C      0.961067   -0.361593   -0.000087
  C     -2.535008    1.342919   -0.000048
  H     -1.775353   -1.640578   -0.874688
  H     -1.774829   -1.640184    0.875452
  H     -2.968251    2.311985   -0.000143

 Total Charge           Charge          ....    0
 Multiplicity           Mult            ....    1
 Number of Electrons    NEL             ....   50
 Basis Dimension        Dim             ....  349

ORBITAL ENERGIES
----------------

  NO   OCC          E(Eh)            E(eV)
   0   2.0000     -91.951589     -2502.1300
   1   2.0000     -15.612183      -424.8291
   2   2.0000     -11.379195      -309.6436
   3   2.0000     -11.338790      -308.5442
   4   2.0000     -11.256756      -306.3119
   5   2.0000     -11.249287      -306.1087
   6   2.0000      -8.954909      -243.6755
   7   2.0000      -6.636535      -180.5893
   8   2.0000      -6.634037      -180.5213
   9   2.0000      -6.633756      -180.5137
  10   2.0000      -1.302040       -35.4303
  11   2.0000      -1.099121       -29.9086
  12   2.0000      -1.038044       -28.2466
  13   2.0000      -0.990551       -26.9543
  14   2.0000      -0.786309       -21.3966
  15   2.0000      -0.726091       -19.7579
  16   2.0000      -0.680864       -18.5273
  17   2.0000      -0.672285       -18.2938
  18   2.0000      -0.599476       -16.3126
  19   2.0000      -0.549668       -14.9572
  20   2.0000      -0.540202       -14.6997
  21   2.0000      -0.423632       -11.5276
  22   2.0000      -0.414967       -11.2918
  23   2.0000      -0.371011       -10.0957
  24   2.0000      -0.358580        -9.7575
  25   0.0000       0.024648         0.6707
  26   0.0000       0.030075         0.8184
  27   0.0000       0.041555         1.1308
  28   0.0000       0.058119         1.5815
  29   0.0000       0.070093         1.9073

MULLIKEN ATOMIC CHARGES
-----------------------
   0 S :   -0.311544
   1 N :    0.087309
   2 C :    0.169791
   3 C :    0.760816
   4 C :   -0.375396
   5 C :   -1.563581
   6 H :    0.359832
   7 H :    0.359803
   8 H :    0.512971
Sum of atomic charges:    0.0000000

LOEWDIN ATOMIC CHARGES
----------------------
   0 S :    0.832039
   1 N :    0.221128
   2 C :    0.044500
   3 C :    0.016615
   4 C :   -0.890765
   5 C :    0.404619
   6 H :   -0.168482
   7 H :   -0.168476
   8 H :   -0.291179

  Mayer bond orders larger than 0.100000
B(  0-S ,  4-C ) :   1.8102 B(  1-N ,  2-C ) :   0.6073 B(  1-N ,  4-C ) :   1.9819
B(  2-C ,  3-C ) :   0.9178 B(  2-C ,  4-C ) :  -0.3644 B(  2-C ,  5-C ) :  -0.2098
B(  2-C ,  6-H ) :   0.8788 B(  2-C ,  7-H ) :   0.8788 B(  3-C ,  4-C ) :   0.1066
B(  3-C ,  5-C ) :   0.9508 B(  3-C ,  8-H ) :  -0.1240 B(  5-C ,  8-H ) :   0.9408

MP2 TOTAL ENERGY:     -606.196173825 Eh
FINAL SINGLE POINT ENERGY      -606.196173824510

DIPOLE MOMENT
-------------
                                X             Y             Z
Electronic contribution:      5.17009       0.69184      -0.00039
Nuclear contribution   :     -6.37034      -0.95658       0.00060
                        -----------------------------------------
Total Dipole Moment    :     -1.20025      -0.26474       0.00021
                        -----------------------------------------
Magnitude (a.u.)       :      1.22910
Magnitude (Debye)      :      3.12413

Rotational constants in cm-1:     0.230192     0.048154     0.040116
Rotational constants in MHz :  6900.977400  1443.626666  1202.649275

                             ****ORCA TERMINATED NORMALLY****
TOTAL RUN TIME: 0 days 0 hours 1 minutes 34 seconds 719 msec
