                         Program Version 5.0.3 -  RELEASE  -
|  1> !ri-mp2 aug-cc-pvtz aug-cc-pvtz/c tightscf
|  2> %pal nprocs 16 end
|  3>
|  4> * xyz 0 1
|  5> H     -2.208077    0.786344    0.000000
|  6> C     -1.250002    0.285807    0.000000
|  7> C      0.000000    0.979789    0.000000
|  8> C      1.052965    0.110970    0.000000
|  9> H     -1.892989   -1.815714    0.000000
| 10> C     -1.117544   -1.068772    0.000000
| 11> S      0.542369   -1.539521    0.000000
| 12> H      1.168494    2.786598    0.000000
| 13> H     -0.354771    2.912496    0.878798
| 14> H     -0.354771    2.912496   -0.878798
| 15> C      0.124666    2.475760    0.000000
| 16> H      2.103691    0.348795    0.000000
| 17> *
| 18>
| 19>                          ****END OF INPUT****

CARTESIAN COORDINATES (ANGSTROEM)
---------------------------------
  H     -2.208077    0.786344    0.000000
  C     -1.250002    0.285807    0.000000
  C      0.000000    0.979789    0.000000
  C      1.052965    0.110970    0.000000
  H     -1.892989   -1.815714    0.000000
  C     -1.117544   -1.068772    0.000000
  S      0.542369   -1.539521    0.000000
  H      1.168494    2.786598    0.000000
  H     -0.354771    2.912496    0.878798
  H     -0.354771    2.912496   -0.878798
  C      0.124666    2.475760    0.000000
  H      2.103691    0.348795    0.000000

 Total Charge           Charge          ....    0
 Multiplicity           Mult            ....    1
 Number of Electrons    NEL             ....   52
 Basis Dimension        Dim             ....  418

ORBITAL ENERGIES
----------------

  NO   OCC          E(Eh)            E(eV)
   0   2.0000     -91.978853     -2502.8718
   1   2.0000     -11.260883      -306.4242
   2   2.0000     -11.252765      -306.2033
   3   2.0000     -11.242828      -305.9329
   4   2.0000     -11.233357      -305.6752
   5   2.0000     -11.228603      -305.5458
   6   2.0000      -8.979043      -244.3322
   7   2.0000      -6.660074      -181.2298
   8   2.0000      -6.659562      -181.2159
   9   2.0000      -6.658812      -181.1955
  10   2.0000      -1.170820       -31.8596
  11   2.0000      -1.029289       -28.0084
  12   2.0000      -0.980761       -26.6879
  13   2.0000      -0.912699       -24.8358
  14   2.0000      -0.769721       -20.9452
  15   2.0000      -0.732258       -19.9258
  16   2.0000      -0.668833       -18.1999
  17   2.0000      -0.584108       -15.8944
  18   2.0000      -0.581517       -15.8239
  19   2.0000      -0.562838       -15.3156
  20   2.0000      -0.521688       -14.1959
  21   2.0000      -0.512307       -13.9406
  22   2.0000      -0.506227       -13.7751
  23   2.0000      -0.466543       -12.6953
  24   2.0000      -0.337563        -9.1856
  25   2.0000      -0.322095        -8.7646
  26   0.0000       0.029709         0.8084
  27   0.0000       0.033380         0.9083
  28   0.0000       0.037315         1.0154
  29   0.0000       0.047574         1.2946
  30   0.0000       0.048402         1.3171

MULLIKEN ATOMIC CHARGES
-----------------------
   0 H :    0.461034
   1 C :   -0.916007
   2 C :    0.958541
   3 C :   -0.709438
   4 H :    0.464832
   5 C :   -0.390075
   6 S :   -0.152273
   7 H :    0.248052
   8 H :    0.278607
   9 H :    0.278607
  10 C :   -0.925480
  11 H :    0.403599
Sum of atomic charges:   -0.0000000

LOEWDIN ATOMIC CHARGES
----------------------
   0 H :   -0.187638
   1 C :    0.082058
   2 C :   -0.261394
   3 C :   -0.177584
   4 H :   -0.264426
   5 C :   -0.193974
   6 S :    1.217594
   7 H :   -0.180416
   8 H :   -0.171514
   9 H :   -0.171514
  10 C :    0.567334
  11 H :   -0.258526

  Mayer bond orders larger than 0.100000
B(  0-H ,  1-C ) :   0.8173 B(  1-C ,  2-C ) :   1.0087 B(  1-C ,  5-C ) :   1.4935
B(  1-C ,  6-S ) :   0.1317 B(  2-C ,  3-C ) :   1.1203 B(  2-C ,  5-C ) :  -0.1763
B(  2-C , 10-C ) :   0.6920 B(  3-C ,  5-C ) :   0.1212 B(  3-C ,  6-S ) :   1.1839
B(  3-C , 11-H ) :   0.9051 B(  4-H ,  5-C ) :   0.8272 B(  5-C ,  6-S ) :   1.1198
B(  7-H , 10-C ) :   0.9985 B(  8-H , 10-C ) :   0.9873 B(  9-H , 10-C ) :   0.9873

MP2 TOTAL ENERGY:     -591.437074403 Eh
FINAL SINGLE POINT ENERGY      -591.437074402829

DIPOLE MOMENT
-------------
                                X             Y             Z
Electronic contribution:      1.37048      -7.49646      -0.00000
Nuclear contribution   :     -1.54719       7.93762       0.00000
                        -----------------------------------------
Total Dipole Moment    :     -0.17670       0.44116      -0.00000
                        -----------------------------------------
Magnitude (a.u.)       :      0.47523
Magnitude (Debye)      :      1.20794

Rotational constants in cm-1:     0.232860     0.081691     0.061159
Rotational constants in MHz :  6980.969319  2449.041021  1833.488948

                             ****ORCA TERMINATED NORMALLY****
TOTAL RUN TIME: 0 days 0 hours 3 minutes 0 seconds 837 msec
