                         Program Version 5.0.3 -  RELEASE  -
|  1> !ri-mp2 aug-cc-pvtz aug-cc-pvtz/c tightscf
|  2> %pal nprocs 16 end
|  3>
|  4> * xyz 0 1
|  5> C     -1.572019   -1.152435    0.064704
|  6> H     -2.544151   -1.085014   -0.426242
|  7> H     -1.109397   -2.095497   -0.217069
|  8> H     -1.747322   -1.170696    1.143837
|  9> C      1.649859    1.062268   -0.055942
| 10> H      1.313035    2.014631    0.352183
| 11> H      2.646218    0.870729    0.349265
| 12> H      1.737758    1.156202   -1.139611
| 13> O      1.248482   -1.330506   -0.129077
| 14> H      2.137286   -1.421916    0.225802
| 15> C      0.703049   -0.076396    0.308494
| 16> H      0.580650   -0.102704    1.400853
| 17> C     -0.691524    0.040475   -0.320727
| 18> H     -0.545223    0.020911   -1.406038
| 19> C     -1.380726    1.356806    0.052990
| 20> H     -1.468276    1.460678    1.137735
| 21> H     -0.850062    2.229463   -0.326308
| 22> H     -2.390195    1.382956   -0.358897
| 23> *
| 24>
| 25>                          ****END OF INPUT****

CARTESIAN COORDINATES (ANGSTROEM)
---------------------------------
  C     -1.572019   -1.152435    0.064704
  H     -2.544151   -1.085014   -0.426242
  H     -1.109397   -2.095497   -0.217069
  H     -1.747322   -1.170696    1.143837
  C      1.649859    1.062268   -0.055942
  H      1.313035    2.014631    0.352183
  H      2.646218    0.870729    0.349265
  H      1.737758    1.156202   -1.139611
  O      1.248482   -1.330506   -0.129077
  H      2.137286   -1.421916    0.225802
  C      0.703049   -0.076396    0.308494
  H      0.580650   -0.102704    1.400853
  C     -0.691524    0.040475   -0.320727
  H     -0.545223    0.020911   -1.406038
  C     -1.380726    1.356806    0.052990
  H     -1.468276    1.460678    1.137735
  H     -0.850062    2.229463   -0.326308
  H     -2.390195    1.382956   -0.358897

 Total Charge           Charge          ....    0
 Multiplicity           Mult            ....    1
 Number of Electrons    NEL             ....   50
 Basis Dimension        Dim             ....  552

ORBITAL ENERGIES
----------------

  NO   OCC          E(Eh)            E(eV)
   0   2.0000     -20.550964      -559.2201
   1   2.0000     -11.277022      -306.8634
   2   2.0000     -11.222470      -305.3789
   3   2.0000     -11.216542      -305.2176
   4   2.0000     -11.211379      -305.0771
   5   2.0000     -11.200910      -304.7922
   6   2.0000      -1.353789       -36.8385
   7   2.0000      -1.081323       -29.4243
   8   2.0000      -0.991657       -26.9843
   9   2.0000      -0.924693       -25.1622
  10   2.0000      -0.859699       -23.3936
  11   2.0000      -0.762963       -20.7613
  12   2.0000      -0.686807       -18.6890
  13   2.0000      -0.633701       -17.2439
  14   2.0000      -0.613015       -16.6810
  15   2.0000      -0.593989       -16.1633
  16   2.0000      -0.556154       -15.1337
  17   2.0000      -0.542399       -14.7594
  18   2.0000      -0.535314       -14.5666
  19   2.0000      -0.525216       -14.2919
  20   2.0000      -0.509470       -13.8634
  21   2.0000      -0.474511       -12.9121
  22   2.0000      -0.468691       -12.7537
  23   2.0000      -0.446816       -12.1585
  24   2.0000      -0.432893       -11.7796
  25   0.0000       0.029242         0.7957
  26   0.0000       0.035076         0.9545
  27   0.0000       0.037837         1.0296
  28   0.0000       0.039964         1.0875
  29   0.0000       0.053689         1.4609

MULLIKEN ATOMIC CHARGES
-----------------------
   0 C :   -1.136447
   1 H :    0.263233
   2 H :    0.310093
   3 H :    0.240904
   4 C :   -1.062945
   5 H :    0.293142
   6 H :    0.250103
   7 H :    0.266385
   8 O :   -0.705521
   9 H :    0.129888
  10 C :    0.482610
  11 H :    0.254333
  12 C :    0.371190
  13 H :    0.339707
  14 C :   -1.082863
  15 H :    0.255858
  16 H :    0.275375
  17 H :    0.254956
Sum of atomic charges:   -0.0000000

LOEWDIN ATOMIC CHARGES
----------------------
   0 C :    0.582748
   1 H :   -0.168286
   2 H :   -0.180588
   3 H :   -0.160654
   4 C :    0.592799
   5 H :   -0.178112
   6 H :   -0.170393
   7 H :   -0.157888
   8 O :    0.835306
   9 H :   -0.491254
  10 C :   -0.264616
  11 H :   -0.134371
  12 C :   -0.053992
  13 H :   -0.133915
  14 C :    0.582525
  15 H :   -0.156365
  16 H :   -0.178001
  17 H :   -0.164944

  Mayer bond orders larger than 0.100000
B(  0-C ,  1-H ) :   1.0033 B(  0-C ,  2-H ) :   0.9486 B(  0-C ,  3-H ) :   1.0125
B(  0-C , 12-C ) :   0.6769 B(  0-C , 14-C ) :   0.1307 B(  4-C ,  5-H ) :   0.9514
B(  4-C ,  6-H ) :   1.0108 B(  4-C ,  7-H ) :   0.9631 B(  4-C , 10-C ) :   0.8089
B(  8-O ,  9-H ) :   1.0455 B(  8-O , 10-C ) :   0.5346 B( 10-C , 11-H ) :   0.9986
B( 10-C , 12-C ) :   0.8751 B( 12-C , 13-H ) :   0.8447 B( 12-C , 14-C ) :   0.6902
B( 14-C , 15-H ) :   1.0017 B( 14-C , 16-H ) :   0.9657 B( 14-C , 17-H ) :   1.0073

MP2 TOTAL ENERGY:     -272.440897777 Eh
FINAL SINGLE POINT ENERGY      -272.440897777173

DIPOLE MOMENT
-------------
                                X             Y             Z
Electronic contribution:      2.66850      -2.98201      -0.45976
Nuclear contribution   :     -2.36490       3.45017       0.78135
                        -----------------------------------------
Total Dipole Moment    :      0.30360       0.46815       0.32158
                        -----------------------------------------
Magnitude (a.u.)       :      0.64401
Magnitude (Debye)      :      1.63695

Rotational constants in cm-1:     0.146015     0.099118     0.064176
Rotational constants in MHz :  4377.424273  2971.491688  1923.957459

                             ****ORCA TERMINATED NORMALLY****
TOTAL RUN TIME: 0 days 0 hours 5 minutes 16 seconds 219 msec
