                         Program Version 5.0.3 -  RELEASE  -
|  1> !ri-mp2 aug-cc-pvtz aug-cc-pvtz/c tightscf
|  2> %pal nprocs 16 end
|  3>
|  4> * xyz 0 1
|  5> F      1.978702    0.162047    1.097252
|  6> F      1.978699    0.162110   -1.097247
|  7> N     -0.935444   -1.145511   -0.000034
|  8> N     -2.145699   -0.572385   -0.000016
|  9> C     -0.086571   -0.124026   -0.000003
| 10> C      1.374341   -0.401214   -0.000013
| 11> C     -0.758309    1.116762    0.000036
| 12> C     -2.090320    0.782498    0.000026
| 13> H     -2.962960   -1.156749   -0.000033
| 14> H      1.588333   -1.468840   -0.000044
| 15> H     -0.328803    2.101756    0.000066
| 16> H     -2.980019    1.387567    0.000046
| 17> *
| 18>
| 19>                          ****END OF INPUT****

CARTESIAN COORDINATES (ANGSTROEM)
---------------------------------
  F      1.978702    0.162047    1.097252
  F      1.978699    0.162110   -1.097247
  N     -0.935444   -1.145511   -0.000034
  N     -2.145699   -0.572385   -0.000016
  C     -0.086571   -0.124026   -0.000003
  C      1.374341   -0.401214   -0.000013
  C     -0.758309    1.116762    0.000036
  C     -2.090320    0.782498    0.000026
  H     -2.962960   -1.156749   -0.000033
  H      1.588333   -1.468840   -0.000044
  H     -0.328803    2.101756    0.000066
  H     -2.980019    1.387567    0.000046

 Total Charge           Charge          ....    0
 Multiplicity           Mult            ....    1
 Number of Electrons    NEL             ....   60
 Basis Dimension        Dim             ....  460

ORBITAL ENERGIES
----------------

  NO   OCC          E(Eh)            E(eV)
   0   2.0000     -26.303948      -715.7668
   1   2.0000     -26.303929      -715.7663
   2   2.0000     -15.659768      -426.1240
   3   2.0000     -15.613548      -424.8662
   4   2.0000     -11.410868      -310.5055
   5   2.0000     -11.295114      -307.3557
   6   2.0000     -11.277954      -306.8887
   7   2.0000     -11.240226      -305.8621
   8   2.0000      -1.649643       -44.8891
   9   2.0000      -1.588494       -43.2251
  10   2.0000      -1.400988       -38.1228
  11   2.0000      -1.134513       -30.8717
  12   2.0000      -1.076231       -29.2857
  13   2.0000      -0.976648       -26.5759
  14   2.0000      -0.849147       -23.1065
  15   2.0000      -0.818727       -22.2787
  16   2.0000      -0.772528       -21.0215
  17   2.0000      -0.753524       -20.5044
  18   2.0000      -0.746199       -20.3051
  19   2.0000      -0.713317       -19.4103
  20   2.0000      -0.659631       -17.9495
  21   2.0000      -0.628977       -17.1153
  22   2.0000      -0.620328       -16.8800
  23   2.0000      -0.619482       -16.8570
  24   2.0000      -0.610303       -16.6072
  25   2.0000      -0.601757       -16.3746
  26   2.0000      -0.531468       -14.4620
  27   2.0000      -0.484853       -13.1935
  28   2.0000      -0.387951       -10.5567
  29   2.0000      -0.366592        -9.9755
  30   0.0000       0.019703         0.5362
  31   0.0000       0.034527         0.9395
  32   0.0000       0.040898         1.1129
  33   0.0000       0.049424         1.3449
  34   0.0000       0.075986         2.0677

MULLIKEN ATOMIC CHARGES
-----------------------
   0 F :   -0.445878
   1 F :   -0.445878
   2 N :   -0.828039
   3 N :    0.272204
   4 C :    0.504627
   5 C :    0.647588
   6 C :   -0.352811
   7 C :   -0.992435
   8 H :    0.149061
   9 H :    0.345002
  10 H :    0.504478
  11 H :    0.642081
Sum of atomic charges:    0.0000000

LOEWDIN ATOMIC CHARGES
----------------------
   0 F :    0.462167
   1 F :    0.462167
   2 N :    0.326571
   3 N :    0.330516
   4 C :   -0.369549
   5 C :   -0.760592
   6 C :    0.215988
   7 C :    0.132263
   8 H :   -0.258855
   9 H :   -0.188233
  10 H :   -0.186085
  11 H :   -0.166358

  Mayer bond orders larger than 0.100000
B(  0-F ,  5-C ) :   0.7593 B(  1-F ,  5-C ) :   0.7593 B(  2-N ,  3-N ) :   0.4206
B(  2-N ,  4-C ) :   1.3586 B(  2-N ,  6-C ) :  -0.1432 B(  2-N ,  7-C ) :   0.1770
B(  3-N ,  4-C ) :  -0.1099 B(  3-N ,  6-C ) :  -0.1364 B(  3-N ,  7-C ) :   1.1412
B(  3-N ,  8-H ) :   1.0968 B(  4-C ,  5-C ) :   0.7917 B(  4-C ,  6-C ) :   1.0758
B(  5-C ,  9-H ) :   0.9719 B(  6-C ,  7-C ) :   1.0332 B(  6-C , 10-H ) :   0.7841
B(  7-C , 11-H ) :   0.5219

MP2 TOTAL ENERGY:     -463.289631805 Eh
FINAL SINGLE POINT ENERGY      -463.289631805277

DIPOLE MOMENT
-------------
                                X             Y             Z
Electronic contribution:      6.56150      -0.44771      -0.00002
Nuclear contribution   :     -8.21598       0.50911       0.00003
                        -----------------------------------------
Total Dipole Moment    :     -1.65448       0.06140       0.00000
                        -----------------------------------------
Magnitude (a.u.)       :      1.65562
Magnitude (Debye)      :      4.20825

Rotational constants in cm-1:     0.162079     0.045156     0.043691
Rotational constants in MHz :  4859.011473  1353.731820  1309.813369

                             ****ORCA TERMINATED NORMALLY****
TOTAL RUN TIME: 0 days 0 hours 3 minutes 15 seconds 357 msec
