                         Program Version 5.0.3 -  RELEASE  -
|  1> !ri-mp2 aug-cc-pvtz aug-cc-pvtz/c tightscf
|  2> %pal nprocs 16 end
|  3> %maxcore 3800
|  4>
|  5> * xyz 0 1
|  6> C      2.151772   -0.572496   -0.560545
|  7> C     -2.062713   -0.100817   -1.587752
|  8> C      0.451205    2.241234    0.698532
|  9> C     -1.313679   -1.261876    1.680440
| 10> C      0.859422   -0.182791   -1.105501
| 11> C     -0.223077    0.034236   -0.014933
| 12> N      3.188160   -0.864297   -0.158479
| 13> O     -1.377593    0.628217   -0.574436
| 14> O      0.199911    0.871969    1.008392
| 15> O     -0.475157   -1.218770    0.519329
| 16> H     -2.222341   -1.139012   -1.294351
| 17> H     -1.527238   -0.071217   -2.540553
| 18> H     -3.024533    0.389798   -1.715392
| 19> H      1.291753    2.348187    0.008318
| 20> H      0.717315    2.710667    1.641691
| 21> H     -0.432534    2.723319    0.283632
| 22> H     -2.243086   -0.715593    1.516465
| 23> H     -0.797455   -0.851306    2.545921
| 24> H     -1.529699   -2.314243    1.843635
| 25> H      0.519543   -0.961831   -1.786348
| 26> H      0.976294    0.735039   -1.681386
| 27> *
| 28>
| 29>                          ****END OF INPUT****

CARTESIAN COORDINATES (ANGSTROEM)
---------------------------------
  C      2.151772   -0.572496   -0.560545
  C     -2.062713   -0.100817   -1.587752
  C      0.451205    2.241234    0.698532
  C     -1.313679   -1.261876    1.680440
  C      0.859422   -0.182791   -1.105501
  C     -0.223077    0.034236   -0.014933
  N      3.188160   -0.864297   -0.158479
  O     -1.377593    0.628217   -0.574436
  O      0.199911    0.871969    1.008392
  O     -0.475157   -1.218770    0.519329
  H     -2.222341   -1.139012   -1.294351
  H     -1.527238   -0.071217   -2.540553
  H     -3.024533    0.389798   -1.715392
  H      1.291753    2.348187    0.008318
  H      0.717315    2.710667    1.641691
  H     -0.432534    2.723319    0.283632
  H     -2.243086   -0.715593    1.516465
  H     -0.797455   -0.851306    2.545921
  H     -1.529699   -2.314243    1.843635
  H      0.519543   -0.961831   -1.786348
  H      0.976294    0.735039   -1.681386

 Total Charge           Charge          ....    0
 Multiplicity           Mult            ....    1
 Number of Electrons    NEL             ....   78
 Basis Dimension        Dim             ....  713

ORBITAL ENERGIES
----------------

  NO   OCC          E(Eh)            E(eV)
   0   2.0000     -20.583685      -560.1105
   1   2.0000     -20.579555      -559.9982
   2   2.0000     -20.579437      -559.9949
   3   2.0000     -15.563492      -423.5041
   4   2.0000     -11.419733      -310.7467
   5   2.0000     -11.291498      -307.2573
   6   2.0000     -11.284768      -307.0741
   7   2.0000     -11.283635      -307.0433
   8   2.0000     -11.276943      -306.8612
   9   2.0000     -11.269608      -306.6616
  10   2.0000      -1.475502       -40.1504
  11   2.0000      -1.368358       -37.2349
  12   2.0000      -1.367284       -37.2057
  13   2.0000      -1.217292       -33.1242
  14   2.0000      -1.073321       -29.2066
  15   2.0000      -0.986549       -26.8454
  16   2.0000      -0.950925       -25.8760
  17   2.0000      -0.941887       -25.6300
  18   2.0000      -0.813268       -22.1301
  19   2.0000      -0.740601       -20.1528
  20   2.0000      -0.730215       -19.8702
  21   2.0000      -0.720210       -19.5979
  22   2.0000      -0.675355       -18.3773
  23   2.0000      -0.655513       -17.8374
  24   2.0000      -0.638855       -17.3841
  25   2.0000      -0.619605       -16.8603
  26   2.0000      -0.610418       -16.6103
  27   2.0000      -0.598669       -16.2906
  28   2.0000      -0.594159       -16.1679
  29   2.0000      -0.575034       -15.6475
  30   2.0000      -0.551213       -14.9993
  31   2.0000      -0.540219       -14.7001
  32   2.0000      -0.512385       -13.9427
  33   2.0000      -0.501596       -13.6491
  34   2.0000      -0.479514       -13.0482
  35   2.0000      -0.467915       -12.7326
  36   2.0000      -0.460657       -12.5351
  37   2.0000      -0.455252       -12.3880
  38   2.0000      -0.438053       -11.9200
  39   0.0000       0.022414         0.6099
  40   0.0000       0.031768         0.8645
  41   0.0000       0.032993         0.8978
  42   0.0000       0.038785         1.0554
  43   0.0000       0.048420         1.3176

MULLIKEN ATOMIC CHARGES
-----------------------
   0 C :    0.353498
   1 C :   -1.014033
   2 C :   -0.987169
   3 C :   -1.022700
   4 C :   -0.240476
   5 C :    1.914895
   6 N :   -0.834069
   7 O :   -0.639588
   8 O :   -0.713915
   9 O :   -0.682659
  10 H :    0.407259
  11 H :    0.328597
  12 H :    0.319286
  13 H :    0.367049
  14 H :    0.334578
  15 H :    0.413035
  16 H :    0.366512
  17 H :    0.380797
  18 H :    0.354163
  19 H :    0.274007
  20 H :    0.320931
Sum of atomic charges:   -0.0000000

LOEWDIN ATOMIC CHARGES
----------------------
   0 C :   -0.209548
   1 C :    0.343972
   2 C :    0.360607
   3 C :    0.364245
   4 C :    0.229720
   5 C :   -1.135445
   6 N :    0.272939
   7 O :    0.578771
   8 O :    0.584417
   9 O :    0.579461
  10 H :   -0.180476
  11 H :   -0.180122
  12 H :   -0.179170
  13 H :   -0.180586
  14 H :   -0.178347
  15 H :   -0.187556
  16 H :   -0.179315
  17 H :   -0.184145
  18 H :   -0.183863
  19 H :   -0.170856
  20 H :   -0.164704

  Mayer bond orders larger than 0.100000
B(  0-C ,  4-C ) :   0.8613 B(  0-C ,  5-C ) :   0.2914 B(  0-C ,  6-N ) :   1.7729
B(  1-C ,  7-O ) :   1.0128 B(  1-C , 10-H ) :   0.8300 B(  1-C , 11-H ) :   0.8997
B(  1-C , 12-H ) :   0.9880 B(  2-C ,  8-O ) :   1.0667 B(  2-C , 13-H ) :   0.8553
B(  2-C , 14-H ) :   0.9642 B(  2-C , 15-H ) :   0.8298 B(  3-C ,  9-O ) :   1.0089
B(  3-C , 16-H ) :   0.8788 B(  3-C , 17-H ) :   0.8653 B(  3-C , 18-H ) :   0.9363
B(  4-C ,  5-C ) :   0.7894 B(  4-C ,  6-N ) :   0.1637 B(  4-C , 19-H ) :   0.9175
B(  4-C , 20-H ) :   0.9409 B(  5-C ,  7-O ) :   0.2982 B(  5-C ,  8-O ) :   0.4347
B(  5-C ,  9-O ) :   0.5204

MP2 TOTAL ENERGY:     -514.746347336 Eh
FINAL SINGLE POINT ENERGY      -514.746347335811

DIPOLE MOMENT
-------------
                                X             Y             Z
Electronic contribution:      6.56181      -2.22499       0.38742
Nuclear contribution   :     -8.35528       2.87935      -1.17495
                        -----------------------------------------
Total Dipole Moment    :     -1.79347       0.65435      -0.78753
                        -----------------------------------------
Magnitude (a.u.)       :      2.06517
Magnitude (Debye)      :      5.24924

Rotational constants in cm-1:     0.053872     0.034277     0.033003
Rotational constants in MHz :  1615.034420  1027.601104   989.413822

                             ****ORCA TERMINATED NORMALLY****
TOTAL RUN TIME: 0 days 0 hours 14 minutes 2 seconds 27 msec
