                         Program Version 5.0.3 -  RELEASE  -
|  1> !ri-mp2 aug-cc-pvtz aug-cc-pvtz/c tightscf
|  2> %pal nprocs 16 end
|  3> %maxcore 3800
|  4>
|  5> * xyz 0 1
|  6> C     -3.309215   -0.035048   -0.489887
|  7> C     -2.671442    1.180652   -0.272279
|  8> C     -2.629106   -1.220002   -0.231542
|  9> C     -1.363124    1.208399    0.197144
| 10> C     -1.321483   -1.186224    0.237822
| 11> C     -0.666846    0.027201    0.456848
| 12> C      0.765821    0.059305    0.929966
| 13> C      1.782430   -0.026705   -0.220241
| 14> C      3.223262    0.025404    0.272641
| 15> O      4.180079   -0.117662   -0.774765
| 16> H     -4.328143   -0.059056   -0.851886
| 17> H     -3.193934    2.108670   -0.463436
| 18> H     -3.118515   -2.171659   -0.391314
| 19> H     -0.877699    2.161375    0.369864
| 20> H     -0.803093   -2.115354    0.441580
| 21> H      0.940283   -0.770099    1.620194
| 22> H      0.940705    0.977696    1.495854
| 23> H      1.606106    0.797260   -0.919162
| 24> H      1.631807   -0.951245   -0.781323
| 25> H      3.399381    0.953589    0.829929
| 26> H      3.418890   -0.803311    0.954619
| 27> H      4.081795    0.615535   -1.389632
| 28> *
| 29>
| 30>                          ****END OF INPUT****

CARTESIAN COORDINATES (ANGSTROEM)
---------------------------------
  C     -3.309215   -0.035048   -0.489887
  C     -2.671442    1.180652   -0.272279
  C     -2.629106   -1.220002   -0.231542
  C     -1.363124    1.208399    0.197144
  C     -1.321483   -1.186224    0.237822
  C     -0.666846    0.027201    0.456848
  C      0.765821    0.059305    0.929966
  C      1.782430   -0.026705   -0.220241
  C      3.223262    0.025404    0.272641
  O      4.180079   -0.117662   -0.774765
  H     -4.328143   -0.059056   -0.851886
  H     -3.193934    2.108670   -0.463436
  H     -3.118515   -2.171659   -0.391314
  H     -0.877699    2.161375    0.369864
  H     -0.803093   -2.115354    0.441580
  H      0.940283   -0.770099    1.620194
  H      0.940705    0.977696    1.495854
  H      1.606106    0.797260   -0.919162
  H      1.631807   -0.951245   -0.781323
  H      3.399381    0.953589    0.829929
  H      3.418890   -0.803311    0.954619
  H      4.081795    0.615535   -1.389632

 Total Charge           Charge          ....    0
 Multiplicity           Mult            ....    1
 Number of Electrons    NEL             ....   74
 Basis Dimension        Dim             ....  736

ORBITAL ENERGIES
----------------

  NO   OCC          E(Eh)            E(eV)
   0   2.0000     -20.557072      -559.3864
   1   2.0000     -11.275705      -306.8275
   2   2.0000     -11.242058      -305.9120
   3   2.0000     -11.235144      -305.7238
   4   2.0000     -11.234911      -305.7175
   5   2.0000     -11.234075      -305.6947
   6   2.0000     -11.231527      -305.6254
   7   2.0000     -11.231244      -305.6177
   8   2.0000     -11.231022      -305.6116
   9   2.0000     -11.226455      -305.4874
  10   2.0000      -1.356869       -36.9223
  11   2.0000      -1.158587       -31.5268
  12   2.0000      -1.077978       -29.3333
  13   2.0000      -1.015426       -27.6312
  14   2.0000      -1.011287       -27.5185
  15   2.0000      -0.917818       -24.9751
  16   2.0000      -0.833046       -22.6683
  17   2.0000      -0.828765       -22.5518
  18   2.0000      -0.793158       -21.5829
  19   2.0000      -0.699799       -19.0425
  20   2.0000      -0.690310       -18.7843
  21   2.0000      -0.649878       -17.6841
  22   2.0000      -0.636338       -17.3156
  23   2.0000      -0.616844       -16.7852
  24   2.0000      -0.605137       -16.4666
  25   2.0000      -0.587446       -15.9852
  26   2.0000      -0.579108       -15.7583
  27   2.0000      -0.558879       -15.2079
  28   2.0000      -0.524472       -14.2716
  29   2.0000      -0.512561       -13.9475
  30   2.0000      -0.496935       -13.5223
  31   2.0000      -0.487200       -13.2574
  32   2.0000      -0.484888       -13.1945
  33   2.0000      -0.472501       -12.8574
  34   2.0000      -0.440830       -11.9956
  35   2.0000      -0.337988        -9.1971
  36   2.0000      -0.327927        -8.9233
  37   0.0000       0.026985         0.7343
  38   0.0000       0.031060         0.8452
  39   0.0000       0.033430         0.9097
  40   0.0000       0.037021         1.0074
  41   0.0000       0.044100         1.2000

MULLIKEN ATOMIC CHARGES
-----------------------
   0 C :   -0.116258
   1 C :   -0.686396
   2 C :   -0.705201
   3 C :   -0.981503
   4 C :   -0.988650
   5 C :    1.722965
   6 C :   -0.283859
   7 C :   -0.386149
   8 C :   -0.238431
   9 O :   -0.657984
  10 H :    0.397961
  11 H :    0.571530
  12 H :    0.548900
  13 H :    0.005441
  14 H :    0.082175
  15 H :    0.223116
  16 H :    0.241067
  17 H :    0.265991
  18 H :    0.246742
  19 H :    0.252589
  20 H :    0.315894
  21 H :    0.170060
Sum of atomic charges:    0.0000000

LOEWDIN ATOMIC CHARGES
----------------------
   0 C :    0.192142
   1 C :    0.196883
   2 C :    0.197884
   3 C :    0.217402
   4 C :    0.217975
   5 C :   -0.110211
   6 C :    0.269663
   7 C :    0.281117
   8 C :    0.038298
   9 O :    0.806883
  10 H :   -0.188117
  11 H :   -0.185016
  12 H :   -0.184632
  13 H :   -0.176859
  14 H :   -0.174722
  15 H :   -0.146701
  16 H :   -0.150287
  17 H :   -0.145056
  18 H :   -0.143309
  19 H :   -0.152914
  20 H :   -0.161833
  21 H :   -0.498591

  Mayer bond orders larger than 0.100000
B(  0-C ,  1-C ) :   1.1052 B(  0-C ,  2-C ) :   1.1148 B(  0-C ,  3-C ) :  -0.2348
B(  0-C ,  4-C ) :  -0.1855 B(  0-C , 10-H ) :   0.9045 B(  1-C ,  2-C ) :   0.1921
B(  1-C ,  3-C ) :   1.3223 B(  1-C ,  5-C ) :   0.1083 B(  1-C , 10-H ) :  -0.1806
B(  1-C , 11-H ) :   0.6292 B(  2-C ,  3-C ) :   0.1059 B(  2-C ,  4-C ) :   1.3805
B(  2-C , 10-H ) :  -0.1596 B(  2-C , 12-H ) :   0.6519 B(  3-C ,  4-C ) :  -0.2511
B(  3-C ,  5-C ) :   0.3945 B(  3-C ,  6-C ) :   0.1123 B(  3-C , 10-H ) :   0.1337
B(  3-C , 11-H ) :  -0.1043 B(  3-C , 13-H ) :   1.6607 B(  3-C , 14-H ) :   0.2027
B(  4-C ,  5-C ) :   0.4584 B(  4-C ,  6-C ) :   0.1293 B(  4-C , 10-H ) :   0.1068
B(  4-C , 13-H ) :   0.1806 B(  4-C , 14-H ) :   1.4656 B(  5-C ,  6-C ) :   0.4858
B(  5-C , 13-H ) :  -0.2611 B(  5-C , 14-H ) :  -0.2324 B(  6-C ,  7-C ) :   0.8288
B(  6-C , 13-H ) :  -0.1119 B(  6-C , 14-H ) :  -0.1086 B(  6-C , 15-H ) :   1.0694
B(  6-C , 16-H ) :   1.0333 B(  7-C ,  8-C ) :   0.9368 B(  7-C , 17-H ) :   0.9555
B(  7-C , 18-H ) :   0.9527 B(  8-C ,  9-O ) :   0.7172 B(  8-C , 19-H ) :   0.9941
B(  8-C , 20-H ) :   0.9282 B(  9-O , 21-H ) :   0.9975 B( 13-H , 14-H ) :   0.1209

MP2 TOTAL ENERGY:     -424.547821083 Eh
FINAL SINGLE POINT ENERGY      -424.547821082603

DIPOLE MOMENT
-------------
                                X             Y             Z
Electronic contribution:     -4.25675      -0.28719      -0.83450
Nuclear contribution   :      3.84039       0.75670       0.92153
                        -----------------------------------------
Total Dipole Moment    :     -0.41635       0.46951       0.08703
                        -----------------------------------------
Magnitude (a.u.)       :      0.63353
Magnitude (Debye)      :      1.61031

Rotational constants in cm-1:     0.126068     0.018187     0.017220
Rotational constants in MHz :  3779.415276   545.219995   516.234938

                             ****ORCA TERMINATED NORMALLY****
TOTAL RUN TIME: 0 days 0 hours 13 minutes 6 seconds 813 msec
