                         Program Version 5.0.3 -  RELEASE  -
|  1> !ri-mp2 aug-cc-pvtz aug-cc-pvtz/c tightscf
|  2> %pal nprocs 16 end
|  3>
|  4> * xyz 0 1
|  5> O     -2.088631   -0.584833   -0.000019
|  6> O     -0.935596    1.306407    0.000008
|  7> O      2.497307    0.192352   -0.000016
|  8> C     -1.014648   -0.052431    0.000002
|  9> C      0.243940   -0.824199    0.000019
| 10> C      1.450682   -0.297452    0.000000
| 11> H     -0.029116    1.634178    0.000053
| 12> H      0.164626   -1.901098    0.000033
| 13> *
| 14>
| 15>                          ****END OF INPUT****

CARTESIAN COORDINATES (ANGSTROEM)
---------------------------------
  O     -2.088631   -0.584833   -0.000019
  O     -0.935596    1.306407    0.000008
  O      2.497307    0.192352   -0.000016
  C     -1.014648   -0.052431    0.000002
  C      0.243940   -0.824199    0.000019
  C      1.450682   -0.297452    0.000000
  H     -0.029116    1.634178    0.000053
  H      0.164626   -1.901098    0.000033

 Total Charge           Charge          ....    0
 Multiplicity           Mult            ....    1
 Number of Electrons    NEL             ....   44
 Basis Dimension        Dim             ....  322

ORBITAL ENERGIES
----------------

  NO   OCC          E(Eh)            E(eV)
   0   2.0000     -20.684380      -562.8506
   1   2.0000     -20.629200      -561.3491
   2   2.0000     -20.554899      -559.3272
   3   2.0000     -11.435270      -311.1695
   4   2.0000     -11.414321      -310.5995
   5   2.0000     -11.284672      -307.0715
   6   2.0000      -1.530193       -41.6387
   7   2.0000      -1.474216       -40.1155
   8   2.0000      -1.378258       -37.5043
   9   2.0000      -1.117438       -30.4070
  10   2.0000      -0.877916       -23.8893
  11   2.0000      -0.822732       -22.3877
  12   2.0000      -0.778344       -21.1798
  13   2.0000      -0.726010       -19.7557
  14   2.0000      -0.697264       -18.9735
  15   2.0000      -0.658787       -17.9265
  16   2.0000      -0.642951       -17.4956
  17   2.0000      -0.638185       -17.3659
  18   2.0000      -0.586884       -15.9699
  19   2.0000      -0.502786       -13.6815
  20   2.0000      -0.474201       -12.9037
  21   2.0000      -0.406509       -11.0617
  22   0.0000       0.020524         0.5585
  23   0.0000       0.035060         0.9540
  24   0.0000       0.056337         1.5330
  25   0.0000       0.070515         1.9188
  26   0.0000       0.072910         1.9840

MULLIKEN ATOMIC CHARGES
-----------------------
   0 O :   -0.635180
   1 O :   -0.349322
   2 O :   -0.460167
   3 C :    0.413609
   4 C :   -0.194083
   5 C :    0.652892
   6 H :    0.171550
   7 H :    0.400702
Sum of atomic charges:    0.0000000

LOEWDIN ATOMIC CHARGES
----------------------
   0 O :    0.427406
   1 O :    0.828564
   2 O :    0.455945
   3 C :   -0.870001
   4 C :    0.141861
   5 C :   -0.247292
   6 H :   -0.504311
   7 H :   -0.232172

  Mayer bond orders larger than 0.100000
B(  0-O ,  3-C ) :   1.6181 B(  1-O ,  3-C ) :   1.0202 B(  1-O ,  6-H ) :   0.9678
B(  2-O ,  4-C ) :  -0.1063 B(  2-O ,  5-C ) :   1.9360 B(  3-C ,  4-C ) :   0.8038
B(  4-C ,  5-C ) :   1.6186 B(  4-C ,  7-H ) :   0.8191

MP2 TOTAL ENERGY:     -340.639389518 Eh
FINAL SINGLE POINT ENERGY      -340.639389518028

DIPOLE MOMENT
-------------
                                X             Y             Z
Electronic contribution:      1.37570       0.19373      -0.00003
Nuclear contribution   :      0.12216      -0.24250       0.00008
                        -----------------------------------------
Total Dipole Moment    :      1.49786      -0.04877       0.00005
                        -----------------------------------------
Magnitude (a.u.)       :      1.49865
Magnitude (Debye)      :      3.80927

Rotational constants in cm-1:     0.344329     0.075948     0.062224
Rotational constants in MHz : 10322.724769  2276.868889  1865.416577

                             ****ORCA TERMINATED NORMALLY****
TOTAL RUN TIME: 0 days 0 hours 1 minutes 22 seconds 224 msec
