                         Program Version 5.0.3 -  RELEASE  -
|  1> !ri-mp2 aug-cc-pvtz aug-cc-pvtz/c tightscf
|  2> %pal nprocs 16 end
|  3>
|  4> * xyz 0 1
|  5> C     -1.174839   -1.203589    0.000000
|  6> C     -1.199799    0.182128    0.000000
|  7> C      0.057339   -1.847450    0.000000
|  8> C      1.173702    0.138239    0.000000
|  9> C      0.000000    0.891573    0.000000
| 10> C      0.034480    2.395305    0.000000
| 11> N      1.217307   -1.194023    0.000000
| 12> H     -2.090952   -1.778442    0.000000
| 13> H     -2.144751    0.712153    0.000000
| 14> H      0.113787   -2.930206    0.000000
| 15> H      2.134084    0.644651    0.000000
| 16> H     -0.468705    2.803456    0.878765
| 17> H      1.058791    2.765852    0.000000
| 18> H     -0.468705    2.803456   -0.878765
| 19> *
| 20>
| 21>                          ****END OF INPUT****

CARTESIAN COORDINATES (ANGSTROEM)
---------------------------------
  C     -1.174839   -1.203589    0.000000
  C     -1.199799    0.182128    0.000000
  C      0.057339   -1.847450    0.000000
  C      1.173702    0.138239    0.000000
  C      0.000000    0.891573    0.000000
  C      0.034480    2.395305    0.000000
  N      1.217307   -1.194023    0.000000
  H     -2.090952   -1.778442    0.000000
  H     -2.144751    0.712153    0.000000
  H      0.113787   -2.930206    0.000000
  H      2.134084    0.644651    0.000000
  H     -0.468705    2.803456    0.878765
  H      1.058791    2.765852    0.000000
  H     -0.468705    2.803456   -0.878765

 Total Charge           Charge          ....    0
 Multiplicity           Mult            ....    1
 Number of Electrons    NEL             ....   50
 Basis Dimension        Dim             ....  483

ORBITAL ENERGIES
----------------

  NO   OCC          E(Eh)            E(eV)
   0   2.0000     -15.562169      -423.4681
   1   2.0000     -11.267817      -306.6129
   2   2.0000     -11.266753      -306.5839
   3   2.0000     -11.252194      -306.1878
   4   2.0000     -11.246550      -306.0342
   5   2.0000     -11.238894      -305.8258
   6   2.0000     -11.232264      -305.6455
   7   2.0000      -1.257161       -34.2091
   8   2.0000      -1.101000       -29.9597
   9   2.0000      -1.048583       -28.5334
  10   2.0000      -0.950978       -25.8774
  11   2.0000      -0.858440       -23.3593
  12   2.0000      -0.827906       -22.5285
  13   2.0000      -0.710121       -19.3234
  14   2.0000      -0.670899       -18.2561
  15   2.0000      -0.633214       -17.2306
  16   2.0000      -0.588010       -16.0006
  17   2.0000      -0.578863       -15.7516
  18   2.0000      -0.571159       -15.5420
  19   2.0000      -0.551227       -14.9996
  20   2.0000      -0.527754       -14.3609
  21   2.0000      -0.510071       -13.8797
  22   2.0000      -0.412915       -11.2360
  23   2.0000      -0.377746       -10.2790
  24   2.0000      -0.336811        -9.1651
  25   0.0000       0.026178         0.7123
  26   0.0000       0.031704         0.8627
  27   0.0000       0.037741         1.0270
  28   0.0000       0.044812         1.2194
  29   0.0000       0.047462         1.2915

MULLIKEN ATOMIC CHARGES
-----------------------
   0 C :   -0.343870
   1 C :   -0.906728
   2 C :   -0.554057
   3 C :   -0.964436
   4 C :    1.438557
   5 C :   -0.785615
   6 N :   -0.482687
   7 H :    0.240452
   8 H :    0.444653
   9 H :    0.646416
  10 H :    0.497099
  11 H :    0.265071
  12 H :    0.240074
  13 H :    0.265071
Sum of atomic charges:   -0.0000000

LOEWDIN ATOMIC CHARGES
----------------------
   0 C :    0.198967
   1 C :    0.209266
   2 C :    0.003270
   3 C :    0.026354
   4 C :   -0.123874
   5 C :    0.574921
   6 N :    0.369839
   7 H :   -0.189457
   8 H :   -0.166520
   9 H :   -0.195900
  10 H :   -0.190648
  11 H :   -0.167704
  12 H :   -0.180811
  13 H :   -0.167704

  Mayer bond orders larger than 0.100000
B(  0-C ,  1-C ) :   1.2799 B(  0-C ,  2-C ) :   0.8992 B(  0-C ,  7-H ) :   1.1580
B(  1-C ,  2-C ) :   0.2721 B(  1-C ,  3-C ) :   0.4114 B(  1-C ,  4-C ) :   0.7779
B(  1-C ,  8-H ) :   0.8563 B(  2-C ,  3-C ) :   0.4034 B(  2-C ,  4-C ) :  -0.2004
B(  2-C ,  6-N ) :   1.2680 B(  2-C ,  9-H ) :   0.4224 B(  3-C ,  4-C ) :   0.3998
B(  3-C ,  5-C ) :  -0.1772 B(  3-C ,  6-N ) :   0.9664 B(  3-C , 10-H ) :   0.6842
B(  4-C ,  5-C ) :   0.6097 B(  5-C , 11-H ) :   1.0157 B(  5-C , 12-H ) :   1.0001
B(  5-C , 13-H ) :   1.0157

MP2 TOTAL ENERGY:     -287.007584359 Eh
FINAL SINGLE POINT ENERGY      -287.007584358552

DIPOLE MOMENT
-------------
                                X             Y             Z
Electronic contribution:      1.07789      -4.44115      -0.00000
Nuclear contribution   :     -1.87477       5.05562       0.00000
                        -----------------------------------------
Total Dipole Moment    :     -0.79688       0.61447      -0.00000
                        -----------------------------------------
Magnitude (a.u.)       :      1.00627
Magnitude (Debye)      :      2.55774

Rotational constants in cm-1:     0.191650     0.086416     0.060223
Rotational constants in MHz :  5745.523199  2590.692671  1805.429748

                             ****ORCA TERMINATED NORMALLY****
TOTAL RUN TIME: 0 days 0 hours 4 minutes 4 seconds 222 msec
