                         Program Version 5.0.3 -  RELEASE  -
|  1> !ri-mp2 aug-cc-pvtz aug-cc-pvtz/c tightscf
|  2> %pal nprocs 16 end
|  3>
|  4> * xyz 0 1
|  5> S    -1.222640    1.296701    0.169140
|  6> S    -2.161882   -0.546051   -0.275063
|  7> N     2.326633    2.291015   -0.116594
|  8> N     2.731829   -2.027823   -0.080487
|  9> C     0.395120    0.601936    0.030052
| 10> C     0.511175   -0.743969    0.062000
| 11> C    -0.745707   -1.549818    0.310030
| 12> C     1.476896    1.515274   -0.054572
| 13> C     1.752199   -1.421097   -0.020140
| 14> H    -0.759980   -2.475318   -0.261951
| 15> H    -0.835001   -1.791373    1.372058
| 16> *
| 17>
| 18>                          ****END OF INPUT****

CARTESIAN COORDINATES (ANGSTROEM)
---------------------------------
  S     -1.222640    1.296701    0.169140
  S     -2.161882   -0.546051   -0.275063
  N      2.326633    2.291015   -0.116594
  N      2.731829   -2.027823   -0.080487
  C      0.395120    0.601936    0.030052
  C      0.511175   -0.743969    0.062000
  C     -0.745707   -1.549818    0.310030
  C      1.476896    1.515274   -0.054572
  C      1.752199   -1.421097   -0.020140
  H     -0.759980   -2.475318   -0.261951
  H     -0.835001   -1.791373    1.372058

 Total Charge           Charge          ....    0
 Multiplicity           Mult            ....    1
 Number of Electrons    NEL             ....   78
 Basis Dimension        Dim             ....  468

ORBITAL ENERGIES
----------------

  NO   OCC          E(Eh)            E(eV)
   0   2.0000     -92.040265     -2504.5429
   1   2.0000     -92.026380     -2504.1651
   2   2.0000     -15.615151      -424.9099
   3   2.0000     -15.608369      -424.7253
   4   2.0000     -11.370628      -309.4105
   5   2.0000     -11.345477      -308.7261
   6   2.0000     -11.330351      -308.3145
   7   2.0000     -11.313050      -307.8437
   8   2.0000     -11.307528      -307.6935
   9   2.0000      -9.038234      -245.9429
  10   2.0000      -9.024491      -245.5689
  11   2.0000      -6.718974      -182.8326
  12   2.0000      -6.718076      -182.8081
  13   2.0000      -6.716673      -182.7700
  14   2.0000      -6.705298      -182.4604
  15   2.0000      -6.704273      -182.4325
  16   2.0000      -6.702894      -182.3950
  17   2.0000      -1.269823       -34.5536
  18   2.0000      -1.254448       -34.1353
  19   2.0000      -1.209105       -32.9014
  20   2.0000      -1.076249       -29.2862
  21   2.0000      -1.065042       -28.9813
  22   2.0000      -0.904814       -24.6212
  23   2.0000      -0.872537       -23.7429
  24   2.0000      -0.819899       -22.3106
  25   2.0000      -0.679455       -18.4889
  26   2.0000      -0.656399       -17.8615
  27   2.0000      -0.622241       -16.9320
  28   2.0000      -0.596472       -16.2308
  29   2.0000      -0.583935       -15.8897
  30   2.0000      -0.578207       -15.7338
  31   2.0000      -0.547395       -14.8954
  32   2.0000      -0.522499       -14.2179
  33   2.0000      -0.509258       -13.8576
  34   2.0000      -0.501658       -13.6508
  35   2.0000      -0.491766       -13.3816
  36   2.0000      -0.480265       -13.0687
  37   2.0000      -0.412428       -11.2227
  38   2.0000      -0.353920        -9.6307
  39   0.0000       0.011753         0.3198
  40   0.0000       0.021195         0.5767
  41   0.0000       0.034459         0.9377
  42   0.0000       0.043115         1.1732
  43   0.0000       0.044263         1.2045

MULLIKEN ATOMIC CHARGES
-----------------------
   0 S :   -0.251274
   1 S :   -0.192997
   2 N :   -0.669449
   3 N :   -0.691183
   4 C :    0.751334
   5 C :    0.839124
   6 C :   -0.498613
   7 C :    0.061697
   8 C :    0.081220
   9 H :    0.308392
  10 H :    0.261750
Sum of atomic charges:    0.0000000

LOEWDIN ATOMIC CHARGES
----------------------
   0 S :    0.802027
   1 S :    0.774837
   2 N :    0.297272
   3 N :    0.302483
   4 C :   -0.684649
   5 C :   -0.345265
   6 C :   -0.137060
   7 C :   -0.330481
   8 C :   -0.243588
   9 H :   -0.226297
  10 H :   -0.209280

  Mayer bond orders larger than 0.100000
B(  0-S ,  1-S ) :   1.0171 B(  0-S ,  4-C ) :   0.6801 B(  0-S ,  7-C ) :   0.1190
B(  1-S ,  6-C ) :   0.9983 B(  2-N ,  7-C ) :   2.1308 B(  3-N ,  8-C ) :   2.0157
B(  4-C ,  5-C ) :   1.6607 B(  4-C ,  7-C ) :   0.4057 B(  4-C ,  8-C ) :   0.1590
B(  5-C ,  6-C ) :   0.7395 B(  5-C ,  7-C ) :   0.1464 B(  5-C ,  8-C ) :   0.3649
B(  6-C ,  8-C ) :   0.1466 B(  6-C ,  9-H ) :   0.9536 B(  6-C , 10-H ) :   0.9296
B(  7-C ,  8-C ) :   0.1902

MP2 TOTAL ENERGY:    -1096.057489799 Eh
FINAL SINGLE POINT ENERGY     -1096.057489798733

DIPOLE MOMENT
-------------
                                X             Y             Z
Electronic contribution:     -0.49073       3.38841      -0.74067
Nuclear contribution   :     -1.38776      -4.07375       1.05657
                        -----------------------------------------
Total Dipole Moment    :     -1.87849      -0.68535       0.31590
                        -----------------------------------------
Magnitude (a.u.)       :      2.02440
Magnitude (Debye)      :      5.14563

Rotational constants in cm-1:     0.055761     0.036563     0.022485
Rotational constants in MHz :  1671.670960  1096.136023   674.079027

                             ****ORCA TERMINATED NORMALLY****
TOTAL RUN TIME: 0 days 0 hours 5 minutes 17 seconds 578 msec
