                         Program Version 5.0.3 -  RELEASE  -
|  1> !ri-mp2 aug-cc-pvtz aug-cc-pvtz/c tightscf
|  2> %pal nprocs 16 end
|  3>
|  4> * xyz 0 1
|  5> C      1.664907   -0.863089        0.000000
|  6> C      1.344951    0.483532        0.000000
|  7> C      0.661934   -1.830509        0.000000
|  8> C     -1.007329   -0.096986        0.000000
|  9> C      0.000000    0.864343        0.000000
| 10> C     -0.676595   -1.448300        0.000000
| 11> C     -0.383063    2.293828        0.000000
| 12> O      0.394376    3.219298        0.000000
| 13> O     -1.703952   -2.348067        0.000000
| 14> H      2.700183   -1.175867        0.000000
| 15> H      2.108986    1.247054        0.000000
| 16> H      0.922411   -2.882429        0.000000
| 17> H     -2.049997    0.193551        0.000000
| 18> H     -1.476268    2.476862        0.000000
| 19> H     -1.357529   -3.245935        0.000000
| 20> *
| 21>
| 22>                          ****END OF INPUT****

CARTESIAN COORDINATES (ANGSTROEM)
---------------------------------
  C      1.664907   -0.863089    0.000000
  C      1.344951    0.483532    0.000000
  C      0.661934   -1.830509    0.000000
  C     -1.007329   -0.096986    0.000000
  C      0.000000    0.864343    0.000000
  C     -0.676595   -1.448300    0.000000
  C     -0.383063    2.293828    0.000000
  O      0.394376    3.219298    0.000000
  O     -1.703952   -2.348067    0.000000
  H      2.700183   -1.175867    0.000000
  H      2.108986    1.247054    0.000000
  H      0.922411   -2.882429    0.000000
  H     -2.049997    0.193551    0.000000
  H     -1.476268    2.476862    0.000000
  H     -1.357529   -3.245935    0.000000

 Total Charge           Charge          ....    0
 Multiplicity           Mult            ....    1
 Number of Electrons    NEL             ....   64
 Basis Dimension        Dim             ....  552

ORBITAL ENERGIES
----------------

  NO   OCC          E(Eh)            E(eV)
   0   2.0000     -20.606108      -560.7207
   1   2.0000     -20.558699      -559.4306
   2   2.0000     -11.336583      -308.4841
   3   2.0000     -11.320634      -308.0501
   4   2.0000     -11.258765      -306.3666
   5   2.0000     -11.257116      -306.3217
   6   2.0000     -11.255891      -306.2884
   7   2.0000     -11.254487      -306.2501
   8   2.0000     -11.245612      -306.0087
   9   2.0000      -1.421691       -38.6862
  10   2.0000      -1.395175       -37.9647
  11   2.0000      -1.172782       -31.9130
  12   2.0000      -1.055892       -28.7323
  13   2.0000      -1.028500       -27.9869
  14   2.0000      -0.906800       -24.6753
  15   2.0000      -0.849877       -23.1263
  16   2.0000      -0.813399       -22.1337
  17   2.0000      -0.737952       -20.0807
  18   2.0000      -0.705000       -19.1840
  19   2.0000      -0.675912       -18.3925
  20   2.0000      -0.664082       -18.0706
  21   2.0000      -0.629007       -17.1162
  22   2.0000      -0.614344       -16.7172
  23   2.0000      -0.608752       -16.5650
  24   2.0000      -0.583397       -15.8750
  25   2.0000      -0.551117       -14.9967
  26   2.0000      -0.542293       -14.7566
  27   2.0000      -0.521707       -14.1964
  28   2.0000      -0.490456       -13.3460
  29   2.0000      -0.431336       -11.7373
  30   2.0000      -0.362574        -9.8661
  31   2.0000      -0.332957        -9.0602
  32   0.0000       0.020164         0.5487
  33   0.0000       0.032047         0.8720
  34   0.0000       0.035198         0.9578
  35   0.0000       0.047434         1.2908
  36   0.0000       0.052588         1.4310

MULLIKEN ATOMIC CHARGES
-----------------------
   0 C :   -0.461542
   1 C :   -0.839110
   2 C :   -0.547652
   3 C :   -0.863918
   4 C :    1.455877
   5 C :    0.846754
   6 C :   -0.395296
   7 O :   -0.835107
   8 O :   -0.745987
   9 H :    0.560662
  10 H :    0.272735
  11 H :    0.445358
  12 H :    0.433369
  13 H :    0.513848
  14 H :    0.160009
Sum of atomic charges:   -0.0000000

LOEWDIN ATOMIC CHARGES
----------------------
   0 C :    0.203273
   1 C :    0.207458
   2 C :    0.223767
   3 C :    0.214337
   4 C :   -0.156659
   5 C :   -0.364896
   6 C :   -0.226641
   7 O :    0.442124
   8 O :    0.840179
   9 H :   -0.179304
  10 H :   -0.183635
  11 H :   -0.180614
  12 H :   -0.177227
  13 H :   -0.184966
  14 H :   -0.477196

  Mayer bond orders larger than 0.100000
B(  0-C ,  1-C ) :   1.2363 B(  0-C ,  2-C ) :   1.1056 B(  0-C ,  3-C ) :  -0.1093
B(  0-C ,  9-H ) :   0.6060 B(  1-C ,  2-C ) :   0.1519 B(  1-C ,  3-C ) :   0.1982
B(  1-C ,  4-C ) :   0.5001 B(  1-C ,  5-C ) :  -0.1455 B(  1-C ,  6-C ) :   0.1412
B(  1-C ,  9-H ) :  -0.1211 B(  1-C , 10-H ) :   1.0377 B(  2-C ,  3-C ) :   0.3471
B(  2-C ,  4-C ) :  -0.1407 B(  2-C ,  5-C ) :   0.9600 B(  2-C ,  6-C ) :   0.1062
B(  2-C ,  8-O ) :  -0.1231 B(  2-C , 11-H ) :   0.7728 B(  3-C ,  4-C ) :   0.4535
B(  3-C ,  5-C ) :   0.8405 B(  3-C , 12-H ) :   0.8114 B(  4-C ,  6-C ) :   0.4673
B(  4-C ,  7-O ) :  -0.1078 B(  5-C ,  8-O ) :   0.5886 B(  6-C ,  7-O ) :   1.4952
B(  6-C , 13-H ) :   0.7265 B(  7-O , 13-H ) :  -0.1298 B(  8-O , 14-H ) :   1.0496

MP2 TOTAL ENERGY:     -420.028580752 Eh
FINAL SINGLE POINT ENERGY      -420.028580751863

DIPOLE MOMENT
-------------
                                X             Y             Z
Electronic contribution:     -0.89748       1.63542       0.00000
Nuclear contribution   :      0.81409      -3.31982       0.00000
                        -----------------------------------------
Total Dipole Moment    :     -0.08338      -1.68441       0.00000
                        -----------------------------------------
Magnitude (a.u.)       :      1.68647
Magnitude (Debye)      :      4.28667

Rotational constants in cm-1:     0.122633     0.037987     0.029003
Rotational constants in MHz :  3676.444121  1138.832810   869.494164

                             ****ORCA TERMINATED NORMALLY****
TOTAL RUN TIME: 0 days 0 hours 6 minutes 37 seconds 470 msec
