                         Program Version 5.0.3 -  RELEASE  -
|  1> !ri-mp2 aug-cc-pvtz aug-cc-pvtz/c tightscf
|  2> %pal nprocs 16 end
|  3>
|  4> * xyz 0 1
|  5> C     -3.258638   -0.287523    0.090842
|  6> C      2.749710   -0.958717   -0.125572
|  7> C     -1.803228   -0.542577   -0.299578
|  8> C      1.324767   -0.757447    0.387390
|  9> C     -0.859239    0.560574    0.183682
| 10> C      0.597669    0.413820   -0.263537
| 11> O      1.346525    1.592486    0.069305
| 12> H     -3.369799   -0.222411    1.174974
| 13> H     -3.623837    0.649674   -0.334114
| 14> H     -3.910731   -1.087613   -0.261728
| 15> H      3.360328   -0.076592    0.059161
| 16> H      3.223088   -1.809507    0.366235
| 17> H      2.756534   -1.152346   -1.200530
| 18> H     -1.487941   -1.506260    0.106282
| 19> H     -1.729119   -0.630970   -1.387734
| 20> H      1.337132   -0.587285    1.467729
| 21> H      0.744175   -1.665979    0.216421
| 22> H     -1.230746    1.521745   -0.190767
| 23> H     -0.885745    0.627798    1.275431
| 24> H      0.618632    0.275514   -1.354253
| 25> H      0.919582    2.355577   -0.330907
| 26> *
| 27>
| 28>                          ****END OF INPUT****

CARTESIAN COORDINATES (ANGSTROEM)
---------------------------------
  C     -3.258638   -0.287523    0.090842
  C      2.749710   -0.958717   -0.125572
  C     -1.803228   -0.542577   -0.299578
  C      1.324767   -0.757447    0.387390
  C     -0.859239    0.560574    0.183682
  C      0.597669    0.413820   -0.263537
  O      1.346525    1.592486    0.069305
  H     -3.369799   -0.222411    1.174974
  H     -3.623837    0.649674   -0.334114
  H     -3.910731   -1.087613   -0.261728
  H      3.360328   -0.076592    0.059161
  H      3.223088   -1.809507    0.366235
  H      2.756534   -1.152346   -1.200530
  H     -1.487941   -1.506260    0.106282
  H     -1.729119   -0.630970   -1.387734
  H      1.337132   -0.587285    1.467729
  H      0.744175   -1.665979    0.216421
  H     -1.230746    1.521745   -0.190767
  H     -0.885745    0.627798    1.275431
  H      0.618632    0.275514   -1.354253
  H      0.919582    2.355577   -0.330907

 Total Charge           Charge          ....    0
 Multiplicity           Mult            ....    1
 Number of Electrons    NEL             ....   58
 Basis Dimension        Dim             ....  644

ORBITAL ENERGIES
----------------

  NO   OCC          E(Eh)            E(eV)
   0   2.0000     -20.550164      -559.1984
   1   2.0000     -11.274919      -306.8061
   2   2.0000     -11.223200      -305.3988
   3   2.0000     -11.219458      -305.2970
   4   2.0000     -11.215060      -305.1773
   5   2.0000     -11.214269      -305.1558
   6   2.0000     -11.203564      -304.8645
   7   2.0000      -1.352469       -36.8025
   8   2.0000      -1.080853       -29.4115
   9   2.0000      -1.035028       -28.1645
  10   2.0000      -0.961236       -26.1566
  11   2.0000      -0.873902       -23.7801
  12   2.0000      -0.817163       -22.2361
  13   2.0000      -0.778122       -21.1738
  14   2.0000      -0.697297       -18.9744
  15   2.0000      -0.635804       -17.3011
  16   2.0000      -0.622567       -16.9409
  17   2.0000      -0.586132       -15.9495
  18   2.0000      -0.579390       -15.7660
  19   2.0000      -0.562594       -15.3090
  20   2.0000      -0.546104       -14.8602
  21   2.0000      -0.531607       -14.4657
  22   2.0000      -0.508161       -13.8278
  23   2.0000      -0.494654       -13.4602
  24   2.0000      -0.486869       -13.2484
  25   2.0000      -0.475507       -12.9392
  26   2.0000      -0.467516       -12.7218
  27   2.0000      -0.449301       -12.2261
  28   2.0000      -0.426947       -11.6178
  29   0.0000       0.028758         0.7825
  30   0.0000       0.034303         0.9334
  31   0.0000       0.034770         0.9461
  32   0.0000       0.038375         1.0442
  33   0.0000       0.049680         1.3519

MULLIKEN ATOMIC CHARGES
-----------------------
   0 C :   -1.001558
   1 C :   -1.007929
   2 C :   -0.437105
   3 C :   -0.502011
   4 C :   -0.471331
   5 C :    0.647717
   6 O :   -0.769843
   7 H :    0.261638
   8 H :    0.263316
   9 H :    0.275038
  10 H :    0.295384
  11 H :    0.275674
  12 H :    0.253410
  13 H :    0.279312
  14 H :    0.234287
  15 H :    0.234338
  16 H :    0.313403
  17 H :    0.266142
  18 H :    0.206348
  19 H :    0.254376
  20 H :    0.129394
Sum of atomic charges:    0.0000000

LOEWDIN ATOMIC CHARGES
----------------------
   0 C :    0.582841
   1 C :    0.584312
   2 C :    0.260746
   3 C :    0.263298
   4 C :    0.284739
   5 C :   -0.254642
   6 O :    0.834952
   7 H :   -0.169093
   8 H :   -0.171305
   9 H :   -0.172385
  10 H :   -0.178515
  11 H :   -0.173707
  12 H :   -0.169944
  13 H :   -0.159856
  14 H :   -0.143737
  15 H :   -0.142110
  16 H :   -0.162405
  17 H :   -0.149395
  18 H :   -0.138224
  19 H :   -0.134288
  20 H :   -0.491282

  Mayer bond orders larger than 0.100000
B(  0-C ,  2-C ) :   0.8705 B(  0-C ,  7-H ) :   0.9699 B(  0-C ,  8-H ) :   0.9751
B(  0-C ,  9-H ) :   0.9880 B(  1-C ,  3-C ) :   0.8839 B(  1-C , 10-H ) :   0.9475
B(  1-C , 11-H ) :   0.9870 B(  1-C , 12-H ) :   0.9735 B(  2-C ,  4-C ) :   0.8727
B(  2-C , 13-H ) :   0.9431 B(  2-C , 14-H ) :   0.9761 B(  3-C ,  4-C ) :   0.1116
B(  3-C ,  5-C ) :   0.7557 B(  3-C , 15-H ) :   1.0054 B(  3-C , 16-H ) :   0.9093
B(  4-C ,  5-C ) :   0.9804 B(  4-C , 17-H ) :   0.9536 B(  4-C , 18-H ) :   0.9631
B(  5-C ,  6-O ) :   0.3582 B(  5-C , 19-H ) :   1.0127 B(  6-O , 20-H ) :   1.0383

MP2 TOTAL ENERGY:     -311.663200651 Eh
FINAL SINGLE POINT ENERGY      -311.663200650753

DIPOLE MOMENT
-------------
                                X             Y             Z
Electronic contribution:      2.86751       3.42271       0.08739
Nuclear contribution   :     -3.47244      -3.50051      -0.41866
                        -----------------------------------------
Total Dipole Moment    :     -0.60493      -0.07780      -0.33127
                        -----------------------------------------
Magnitude (a.u.)       :      0.69407
Magnitude (Debye)      :      1.76418

Rotational constants in cm-1:     0.161054     0.040439     0.034358
Rotational constants in MHz :  4828.278967  1212.329021  1030.030379

                             ****ORCA TERMINATED NORMALLY****
TOTAL RUN TIME: 0 days 0 hours 8 minutes 49 seconds 531 msec
