                         Program Version 5.0.3 -  RELEASE  -
|  1> !ri-mp2 aug-cc-pvtz aug-cc-pvtz/c tightscf
|  2> %pal nprocs 16 end
|  3>
|  4> * xyz 0 1
|  5> O     -0.697958   -1.455911    0.000000
|  6> C     -1.079484   -0.145052    0.000000
|  7> C      0.661528   -1.463672    0.000000
|  8> C      0.000000    0.676627    0.000000
|  9> C      1.141177   -0.197619    0.000000
| 10> C      0.006984    2.171398    0.000000
| 11> H     -2.139263    0.036670    0.000000
| 12> H      1.128523   -2.431792    0.000000
| 13> H      2.178895    0.090679    0.000000
| 14> H     -1.007010    2.569914    0.000000
| 15> H      0.520643    2.565867    0.878993
| 16> H      0.520643    2.565867   -0.878993
| 17> *
| 18>
| 19>                          ****END OF INPUT****

CARTESIAN COORDINATES (ANGSTROEM)
---------------------------------
  O     -0.697958   -1.455911    0.000000
  C     -1.079484   -0.145052    0.000000
  C      0.661528   -1.463672    0.000000
  C      0.000000    0.676627    0.000000
  C      1.141177   -0.197619    0.000000
  C      0.006984    2.171398    0.000000
  H     -2.139263    0.036670    0.000000
  H      1.128523   -2.431792    0.000000
  H      2.178895    0.090679    0.000000
  H     -1.007010    2.569914    0.000000
  H      0.520643    2.565867    0.878993
  H      0.520643    2.565867   -0.878993

 Total Charge           Charge          ....    0
 Multiplicity           Mult            ....    1
 Number of Electrons    NEL             ....   44
 Basis Dimension        Dim             ....  414

ORBITAL ENERGIES
----------------

  NO   OCC          E(Eh)            E(eV)
   0   2.0000     -20.617302      -561.0253
   1   2.0000     -11.285777      -307.1016
   2   2.0000     -11.276850      -306.8587
   3   2.0000     -11.233846      -305.6885
   4   2.0000     -11.228592      -305.5455
   5   2.0000     -11.224629      -305.4377
   6   2.0000      -1.452028       -39.5117
   7   2.0000      -1.098437       -29.8900
   8   2.0000      -1.012540       -27.5526
   9   2.0000      -0.947264       -25.7764
  10   2.0000      -0.794052       -21.6072
  11   2.0000      -0.769185       -20.9306
  12   2.0000      -0.712660       -19.3925
  13   2.0000      -0.632165       -17.2021
  14   2.0000      -0.605762       -16.4836
  15   2.0000      -0.584283       -15.8991
  16   2.0000      -0.569783       -15.5046
  17   2.0000      -0.563072       -15.3220
  18   2.0000      -0.541226       -14.7275
  19   2.0000      -0.507237       -13.8026
  20   2.0000      -0.383996       -10.4491
  21   2.0000      -0.314581        -8.5602
  22   0.0000       0.029380         0.7995
  23   0.0000       0.033562         0.9133
  24   0.0000       0.036893         1.0039
  25   0.0000       0.047404         1.2899
  26   0.0000       0.048268         1.3134

MULLIKEN ATOMIC CHARGES
-----------------------
   0 O :   -0.392704
   1 C :   -0.912260
   2 C :   -0.532933
   3 C :    0.988415
   4 C :   -0.903277
   5 C :   -0.803407
   6 H :    0.607246
   7 H :    0.721253
   8 H :    0.419488
   9 H :    0.249753
  10 H :    0.279213
  11 H :    0.279213
Sum of atomic charges:    0.0000000

LOEWDIN ATOMIC CHARGES
----------------------
   0 O :    0.548760
   1 C :   -0.011572
   2 C :   -0.031676
   3 C :   -0.171899
   4 C :    0.189652
   5 C :    0.571265
   6 H :   -0.188053
   7 H :   -0.193660
   8 H :   -0.188640
   9 H :   -0.178320
  10 H :   -0.172929
  11 H :   -0.172929

  Mayer bond orders larger than 0.100000
B(  0-O ,  1-C ) :   0.8769 B(  0-O ,  2-C ) :   1.0331 B(  1-C ,  2-C ) :   0.1045
B(  1-C ,  3-C ) :   0.8154 B(  1-C ,  4-C ) :   0.2628 B(  1-C ,  6-H ) :   0.6407
B(  2-C ,  3-C ) :  -0.1020 B(  2-C ,  4-C ) :   1.3983 B(  2-C ,  7-H ) :   0.4305
B(  3-C ,  4-C ) :   0.8673 B(  3-C ,  5-C ) :   0.6669 B(  4-C ,  8-H ) :   0.9526
B(  5-C ,  9-H ) :   0.9891 B(  5-C , 10-H ) :   0.9878 B(  5-C , 11-H ) :   0.9878

MP2 TOTAL ENERGY:     -268.821613202 Eh
FINAL SINGLE POINT ENERGY      -268.821613201856

DIPOLE MOMENT
-------------
                                X             Y             Z
Electronic contribution:     -0.97503      -5.02734      -0.00000
Nuclear contribution   :      1.19917       5.40916       0.00000
                        -----------------------------------------
Total Dipole Moment    :      0.22414       0.38181      -0.00000
                        -----------------------------------------
Magnitude (a.u.)       :      0.44274
Magnitude (Debye)      :      1.12535

Rotational constants in cm-1:     0.298572     0.112665     0.083054
Rotational constants in MHz :  8950.969867  3377.604937  2489.895007

                             ****ORCA TERMINATED NORMALLY****
TOTAL RUN TIME: 0 days 0 hours 2 minutes 38 seconds 561 msec
