                         Program Version 5.0.3 -  RELEASE  -
|  1> !ri-mp2 aug-cc-pvtz aug-cc-pvtz/c tightscf
|  2> %pal nprocs 16 end
|  3>
|  4> * xyz 0 1
|  5> N      2.719618    0.153377   -0.188334
|  6> C      1.682004   -0.289004    0.037142
|  7> C      0.346430   -0.814715    0.299669
|  8> C     -0.763293    0.051501   -0.329333
|  9> C     -2.127718   -0.576818   -0.072382
| 10> N     -0.717065    1.384780    0.269645
| 11> H      0.293437   -1.831487   -0.093339
| 12> H      0.196590   -0.861421    1.380188
| 13> H     -0.587244    0.069181   -1.413475
| 14> H     -2.916735    0.027258   -0.522652
| 15> H     -2.188243   -1.576132   -0.504413
| 16> H     -2.323569   -0.642517    0.998642
| 17> H      0.153061    1.858327    0.055880
| 18> H     -1.469698    1.963912   -0.080591
| 19> *
| 20>
| 21>                          ****END OF INPUT****

CARTESIAN COORDINATES (ANGSTROEM)
---------------------------------
  N      2.719618    0.153377   -0.188334
  C      1.682004   -0.289004    0.037142
  C      0.346430   -0.814715    0.299669
  C     -0.763293    0.051501   -0.329333
  C     -2.127718   -0.576818   -0.072382
  N     -0.717065    1.384780    0.269645
  H      0.293437   -1.831487   -0.093339
  H      0.196590   -0.861421    1.380188
  H     -0.587244    0.069181   -1.413475
  H     -2.916735    0.027258   -0.522652
  H     -2.188243   -1.576132   -0.504413
  H     -2.323569   -0.642517    0.998642
  H      0.153061    1.858327    0.055880
  H     -1.469698    1.963912   -0.080591

 Total Charge           Charge          ....    0
 Multiplicity           Mult            ....    1
 Number of Electrons    NEL             ....   46
 Basis Dimension        Dim             ....  460

ORBITAL ENERGIES
----------------

  NO   OCC          E(Eh)            E(eV)
   0   2.0000     -15.567848      -423.6227
   1   2.0000     -15.555281      -423.2807
   2   2.0000     -11.286655      -307.1255
   3   2.0000     -11.278984      -306.9167
   4   2.0000     -11.272540      -306.7414
   5   2.0000     -11.233705      -305.6846
   6   2.0000      -1.227023       -33.3890
   7   2.0000      -1.203990       -32.7622
   8   2.0000      -1.061277       -28.8788
   9   2.0000      -0.987136       -26.8613
  10   2.0000      -0.825853       -22.4726
  11   2.0000      -0.706433       -19.2230
  12   2.0000      -0.685718       -18.6593
  13   2.0000      -0.677340       -18.4314
  14   2.0000      -0.597693       -16.2641
  15   2.0000      -0.583327       -15.8731
  16   2.0000      -0.560083       -15.2406
  17   2.0000      -0.541221       -14.7274
  18   2.0000      -0.529774       -14.4159
  19   2.0000      -0.523284       -14.2393
  20   2.0000      -0.460368       -12.5272
  21   2.0000      -0.458420       -12.4742
  22   2.0000      -0.408389       -11.1128
  23   0.0000       0.023796         0.6475
  24   0.0000       0.032702         0.8899
  25   0.0000       0.036092         0.9821
  26   0.0000       0.041051         1.1170
  27   0.0000       0.054845         1.4924

MULLIKEN ATOMIC CHARGES
-----------------------
   0 N :   -0.638876
   1 C :    0.113307
   2 C :   -0.237130
   3 C :    0.558375
   4 C :   -1.055385
   5 N :   -0.677381
   6 H :    0.306103
   7 H :    0.303136
   8 H :    0.282081
   9 H :    0.266477
  10 H :    0.279132
  11 H :    0.289957
  12 H :    0.105678
  13 H :    0.104526
Sum of atomic charges:    0.0000000

LOEWDIN ATOMIC CHARGES
----------------------
   0 N :    0.265575
   1 C :   -0.211609
   2 C :    0.241527
   3 C :   -0.182091
   4 C :    0.591226
   5 N :    0.858806
   6 H :   -0.154827
   7 H :   -0.151369
   8 H :   -0.128358
   9 H :   -0.163762
  10 H :   -0.164042
  11 H :   -0.159705
  12 H :   -0.325991
  13 H :   -0.315379

  Mayer bond orders larger than 0.100000
B(  0-N ,  1-C ) :   2.1627 B(  1-C ,  2-C ) :   0.8682 B(  2-C ,  3-C ) :   0.8266
B(  2-C ,  5-N ) :   0.1677 B(  2-C ,  6-H ) :   0.9310 B(  2-C ,  7-H ) :   0.9307
B(  3-C ,  4-C ) :   0.7542 B(  3-C ,  5-N ) :   0.3745 B(  3-C ,  8-H ) :   0.9032
B(  4-C ,  9-H ) :   0.9854 B(  4-C , 10-H ) :   0.9609 B(  4-C , 11-H ) :   0.9511
B(  5-N , 12-H ) :   0.9914 B(  5-N , 13-H ) :   0.9867

MP2 TOTAL ENERGY:     -266.213103847 Eh
FINAL SINGLE POINT ENERGY      -266.213103847163

DIPOLE MOMENT
-------------
                                X             Y             Z
Electronic contribution:      7.46648       0.56256      -0.04186
Nuclear contribution   :     -9.06887      -1.01039      -0.18412
                        -----------------------------------------
Total Dipole Moment    :     -1.60239      -0.44783      -0.22598
                        -----------------------------------------
Magnitude (a.u.)       :      1.67907
Magnitude (Debye)      :      4.26786

Rotational constants in cm-1:     0.263213     0.070932     0.059601
Rotational constants in MHz :  7890.931251  2126.488964  1786.802165

                             ****ORCA TERMINATED NORMALLY****
TOTAL RUN TIME: 0 days 0 hours 3 minutes 21 seconds 719 msec
