                         Program Version 5.0.3 -  RELEASE  -
|  1> !ri-mp2 aug-cc-pvtz aug-cc-pvtz/c tightscf
|  2> %pal nprocs 16 end
|  3>
|  4> * xyz 0 1
|  5> C     -1.178493   -1.652194    0.116805
|  6> H     -2.072764   -2.053240   -0.361889
|  7> H     -0.342512   -2.298223   -0.146619
|  8> H     -1.321481   -1.719640    1.198086
|  9> C      0.547343    1.874508   -0.035601
| 10> H     -0.265216    2.515201    0.308948
| 11> H      1.466983    2.246656    0.415537
| 12> H      0.637818    1.980802   -1.117431
| 13> S      1.773454   -0.622977   -0.100054
| 14> H      2.704710    0.202406    0.408749
| 15> C      0.298134    0.419562    0.349892
| 16> H      0.183677    0.344478    1.433269
| 17> C     -0.951456   -0.197739   -0.311553
| 18> H     -0.786007   -0.181121   -1.393993
| 19> C     -2.209169    0.629016   -0.010608
| 20> H     -2.374526    0.713213    1.066488
| 21> H     -2.158055    1.634905   -0.423808
| 22> H     -3.086048    0.143279   -0.440087
| 23> *
| 24>
| 25>                          ****END OF INPUT****

CARTESIAN COORDINATES (ANGSTROEM)
---------------------------------
  C     -1.178493   -1.652194    0.116805
  H     -2.072764   -2.053240   -0.361889
  H     -0.342512   -2.298223   -0.146619
  H     -1.321481   -1.719640    1.198086
  C      0.547343    1.874508   -0.035601
  H     -0.265216    2.515201    0.308948
  H      1.466983    2.246656    0.415537
  H      0.637818    1.980802   -1.117431
  S      1.773454   -0.622977   -0.100054
  H      2.704710    0.202406    0.408749
  C      0.298134    0.419562    0.349892
  H      0.183677    0.344478    1.433269
  C     -0.951456   -0.197739   -0.311553
  H     -0.786007   -0.181121   -1.393993
  C     -2.209169    0.629016   -0.010608
  H     -2.374526    0.713213    1.066488
  H     -2.158055    1.634905   -0.423808
  H     -3.086048    0.143279   -0.440087

 Total Charge           Charge          ....    0
 Multiplicity           Mult            ....    1
 Number of Electrons    NEL             ....   58
 Basis Dimension        Dim             ....  556

ORBITAL ENERGIES
----------------

  NO   OCC          E(Eh)            E(eV)
   0   2.0000     -91.944167     -2501.9280
   1   2.0000     -11.266671      -306.5817
   2   2.0000     -11.237155      -305.7785
   3   2.0000     -11.223122      -305.3967
   4   2.0000     -11.217473      -305.2429
   5   2.0000     -11.212389      -305.1046
   6   2.0000      -8.945172      -243.4105
   7   2.0000      -6.626479      -180.3156
   8   2.0000      -6.625436      -180.2873
   9   2.0000      -6.624505      -180.2620
  10   2.0000      -1.114154       -30.3177
  11   2.0000      -1.020473       -27.7685
  12   2.0000      -0.948840       -25.8193
  13   2.0000      -0.920810       -25.0565
  14   2.0000      -0.847609       -23.0646
  15   2.0000      -0.761859       -20.7312
  16   2.0000      -0.634002       -17.2521
  17   2.0000      -0.619473       -16.8567
  18   2.0000      -0.595030       -16.1916
  19   2.0000      -0.587225       -15.9792
  20   2.0000      -0.548286       -14.9196
  21   2.0000      -0.541479       -14.7344
  22   2.0000      -0.517815       -14.0905
  23   2.0000      -0.514759       -14.0073
  24   2.0000      -0.488019       -13.2797
  25   2.0000      -0.470953       -12.8153
  26   2.0000      -0.461111       -12.5475
  27   2.0000      -0.425461       -11.5774
  28   2.0000      -0.351135        -9.5549
  29   0.0000       0.029755         0.8097
  30   0.0000       0.034124         0.9286
  31   0.0000       0.037978         1.0334
  32   0.0000       0.039822         1.0836
  33   0.0000       0.052671         1.4333

MULLIKEN ATOMIC CHARGES
-----------------------
   0 C :   -1.126462
   1 H :    0.257341
   2 H :    0.299186
   3 H :    0.250739
   4 C :   -1.049860
   5 H :    0.274634
   6 H :    0.288481
   7 H :    0.300458
   8 S :   -0.488050
   9 H :   -0.020305
  10 C :    0.268771
  11 H :    0.291170
  12 C :    0.342709
  13 H :    0.380530
  14 C :   -1.069849
  15 H :    0.266622
  16 H :    0.283308
  17 H :    0.250577
Sum of atomic charges:   -0.0000000

LOEWDIN ATOMIC CHARGES
----------------------
   0 C :    0.553657
   1 H :   -0.167112
   2 H :   -0.211972
   3 H :   -0.159450
   4 C :    0.511801
   5 H :   -0.182173
   6 H :   -0.187703
   7 H :   -0.166684
   8 S :    1.331014
   9 H :   -0.575519
  10 C :   -0.358673
  11 H :   -0.200762
  12 C :   -0.121860
  13 H :   -0.148337
  14 C :    0.582471
  15 H :   -0.154067
  16 H :   -0.179558
  17 H :   -0.165073

  Mayer bond orders larger than 0.100000
B(  0-C ,  1-H ) :   0.9980 B(  0-C ,  2-H ) :   0.9593 B(  0-C ,  3-H ) :   1.0067
B(  0-C , 12-C ) :   0.6608 B(  0-C , 14-C ) :   0.1427 B(  4-C ,  5-H ) :   0.9405
B(  4-C ,  6-H ) :   0.9921 B(  4-C ,  7-H ) :   0.9618 B(  4-C , 10-C ) :   0.7593
B(  8-S ,  9-H ) :   1.1518 B(  8-S , 10-C ) :   0.7168 B( 10-C , 11-H ) :   0.9184
B( 10-C , 12-C ) :   1.0063 B( 12-C , 13-H ) :   0.8128 B( 12-C , 14-C ) :   0.6369
B( 14-C , 15-H ) :   0.9896 B( 14-C , 16-H ) :   0.9636 B( 14-C , 17-H ) :   1.0071

MP2 TOTAL ENERGY:     -595.035288211 Eh
FINAL SINGLE POINT ENERGY      -595.035288211273

DIPOLE MOMENT
-------------
                                X             Y             Z
Electronic contribution:      7.38695      -3.15792      -0.76941
Nuclear contribution   :     -7.80620       3.70854       0.99336
                        -----------------------------------------
Total Dipole Moment    :     -0.41925       0.55062       0.22394
                        -----------------------------------------
Magnitude (a.u.)       :      0.72739
Magnitude (Debye)      :      1.84888

Rotational constants in cm-1:     0.122457     0.070139     0.047611
Rotational constants in MHz :  3671.157660  2102.723859  1427.353901

                             ****ORCA TERMINATED NORMALLY****
TOTAL RUN TIME: 0 days 0 hours 6 minutes 8 seconds 504 msec
