                         Program Version 5.0.3 -  RELEASE  -
|  1> !ri-mp2 aug-cc-pvtz aug-cc-pvtz/c tightscf
|  2> %pal nprocs 16 end
|  3>
|  4> * xyz 0 1
|  5> O    -2.290204   -0.882999   -0.151424
|  6> O     1.444926    1.959948    0.003154
|  7> O     2.919242   -0.207425   -0.239915
|  8> N    -0.081213   -1.807611    0.272914
|  9> N     1.538222   -0.300125   -0.183639
| 10> N     1.139137   -1.556445    0.277999
| 11> C    -0.561361    0.592228    0.420127
| 12> C    -0.879772   -0.732796   -0.252028
| 13> C    -1.815431    1.347987    0.067672
| 14> C     0.851036    0.905794    0.038355
| 15> C    -2.746502    0.420002   -0.163318
| 16> H    -0.516052    0.455732    1.514116
| 17> H    -0.629924   -0.648724   -1.323073
| 18> H    -1.972359    2.408820    0.151036
| 19> H    -3.804155    0.525826   -0.340190
| 20> H     3.069933    0.752129   -0.132165
| 21> *
| 22>
| 23>                          ****END OF INPUT****

CARTESIAN COORDINATES (ANGSTROEM)
---------------------------------
  O     -2.290204   -0.882999   -0.151424
  O      1.444926    1.959948    0.003154
  O      2.919242   -0.207425   -0.239915
  N     -0.081213   -1.807611    0.272914
  N      1.538222   -0.300125   -0.183639
  N      1.139137   -1.556445    0.277999
  C     -0.561361    0.592228    0.420127
  C     -0.879772   -0.732796   -0.252028
  C     -1.815431    1.347987    0.067672
  C      0.851036    0.905794    0.038355
  C     -2.746502    0.420002   -0.163318
  H     -0.516052    0.455732    1.514116
  H     -0.629924   -0.648724   -1.323073
  H     -1.972359    2.408820    0.151036
  H     -3.804155    0.525826   -0.340190
  H      3.069933    0.752129   -0.132165

 Total Charge           Charge          ....    0
 Multiplicity           Mult            ....    1
 Number of Electrons    NEL             ....   80
 Basis Dimension        Dim             ....  621

ORBITAL ENERGIES
----------------

  NO   OCC          E(Eh)            E(eV)
   0   2.0000     -20.633958      -561.4785
   1   2.0000     -20.622261      -561.1603
   2   2.0000     -20.584815      -560.1413
   3   2.0000     -15.712374      -427.5554
   4   2.0000     -15.706737      -427.4021
   5   2.0000     -15.655159      -425.9985
   6   2.0000     -11.409072      -310.4566
   7   2.0000     -11.359748      -309.1144
   8   2.0000     -11.328906      -308.2752
   9   2.0000     -11.295624      -307.3696
  10   2.0000     -11.264146      -306.5130
  11   2.0000      -1.514559       -41.2133
  12   2.0000      -1.460776       -39.7497
  13   2.0000      -1.428937       -38.8833
  14   2.0000      -1.404713       -38.2242
  15   2.0000      -1.188380       -32.3375
  16   2.0000      -1.141741       -31.0684
  17   2.0000      -1.075922       -29.2773
  18   2.0000      -0.943501       -25.6740
  19   2.0000      -0.931050       -25.3351
  20   2.0000      -0.826793       -22.4982
  21   2.0000      -0.803981       -21.8774
  22   2.0000      -0.774073       -21.0636
  23   2.0000      -0.760452       -20.6930
  24   2.0000      -0.718424       -19.5493
  25   2.0000      -0.690546       -18.7907
  26   2.0000      -0.666713       -18.1422
  27   2.0000      -0.658682       -17.9236
  28   2.0000      -0.634060       -17.2536
  29   2.0000      -0.621331       -16.9073
  30   2.0000      -0.597885       -16.2693
  31   2.0000      -0.589510       -16.0414
  32   2.0000      -0.584065       -15.8932
  33   2.0000      -0.560671       -15.2566
  34   2.0000      -0.545767       -14.8511
  35   2.0000      -0.520331       -14.1589
  36   2.0000      -0.484668       -13.1885
  37   2.0000      -0.449611       -12.2345
  38   2.0000      -0.399760       -10.8780
  39   2.0000      -0.375444       -10.2164
  40   0.0000       0.022529         0.6131
  41   0.0000       0.033857         0.9213
  42   0.0000       0.036889         1.0038
  43   0.0000       0.039659         1.0792
  44   0.0000       0.048766         1.3270

MULLIKEN ATOMIC CHARGES
-----------------------
   0 O :   -0.741286
   1 O :   -0.863058
   2 O :   -0.640680
   3 N :   -0.436334
   4 N :    0.738805
   5 N :   -0.373044
   6 C :    0.435318
   7 C :    0.908901
   8 C :   -0.706301
   9 C :    0.282104
  10 C :   -0.662048
  11 H :    0.279401
  12 H :    0.294704
  13 H :    0.463148
  14 H :    0.758840
  15 H :    0.261530
Sum of atomic charges:   -0.0000000

LOEWDIN ATOMIC CHARGES
----------------------
   0 O :    0.591496
   1 O :    0.496533
   2 O :    0.747324
   3 N :    0.250663
   4 N :   -0.137816
   5 N :    0.145727
   6 C :   -0.061665
   7 C :   -0.495097
   8 C :    0.271035
   9 C :   -0.613979
  10 C :   -0.006011
  11 H :   -0.120245
  12 H :   -0.138063
  13 H :   -0.181955
  14 H :   -0.174592
  15 H :   -0.573354

  Mayer bond orders larger than 0.100000
B(  0-O ,  6-C ) :   0.1561 B(  0-O ,  7-C ) :   0.4213 B(  0-O , 10-C ) :   1.1169
B(  1-O ,  4-N ) :  -0.1007 B(  1-O ,  9-C ) :   1.1695 B(  2-O ,  4-N ) :   0.5650
B(  2-O , 15-H ) :   0.9520 B(  3-N ,  4-N ) :   0.1480 B(  3-N ,  5-N ) :   0.9034
B(  3-N ,  6-C ) :   0.1718 B(  3-N ,  7-C ) :   0.4805 B(  4-N ,  5-N ) :   0.5270
B(  4-N ,  6-C ) :  -0.1297 B(  4-N ,  7-C ) :  -0.1012 B(  4-N ,  9-C ) :   1.2220
B(  6-C ,  7-C ) :   0.9114 B(  6-C ,  8-C ) :   0.6336 B(  6-C ,  9-C ) :   0.5653
B(  6-C , 10-C ) :  -0.1306 B(  6-C , 11-H ) :   0.8445 B(  7-C , 12-H ) :   0.9879
B(  8-C ,  9-C ) :   0.1118 B(  8-C , 10-C ) :   1.5427 B(  8-C , 13-H ) :   0.8348
B( 10-C , 14-H ) :   0.3500

MP2 TOTAL ENERGY:     -582.342702219 Eh
FINAL SINGLE POINT ENERGY      -582.342702219257

DIPOLE MOMENT
-------------
                                X             Y             Z
Electronic contribution:      2.64131      -2.48585       0.10513
Nuclear contribution   :     -3.68524       3.37660      -0.13003
                        -----------------------------------------
Total Dipole Moment    :     -1.04394       0.89075      -0.02489
                        -----------------------------------------
Magnitude (a.u.)       :      1.37254
Magnitude (Debye)      :      3.48871

Rotational constants in cm-1:     0.077108     0.033914     0.024328
Rotational constants in MHz :  2311.628119  1016.712307   729.330363

                             ****ORCA TERMINATED NORMALLY****
TOTAL RUN TIME: 0 days 0 hours 10 minutes 36 seconds 926 msec
