                         Program Version 5.0.3 -  RELEASE  -
|  1> !ri-mp2 aug-cc-pvtz aug-cc-pvtz/c tightscf
|  2> %pal nprocs 16 end
|  3>
|  4> * xyz 0 1
|  5> C     0.000000     0.000000    1.171492
|  6> C     0.000000     0.000000   -0.297053
|  7> C     0.000000     1.456381   -0.805220
|  8> C     1.261263    -0.728190   -0.805220
|  9> C    -1.261263    -0.728190   -0.805220
| 10> C     0.000000     0.000000    2.371824
| 11> H     0.000000     0.000000    3.433077
| 12> H     0.000000     1.469839   -1.896499
| 13> H     1.272918    -0.734919   -1.896499
| 14> H    -1.272918    -0.734919   -1.896499
| 15> H    -0.882465     1.990948   -0.454532
| 16> H     0.882465     1.990948   -0.454532
| 17> H     2.165444    -0.231237   -0.454532
| 18> H     1.282979    -1.759711   -0.454532
| 19> H    -1.282979    -1.759711   -0.454532
| 20> H    -2.165444    -0.231237   -0.454532
| 21> *
| 22>
| 23>                          ****END OF INPUT****

CARTESIAN COORDINATES (ANGSTROEM)
---------------------------------
  C      0.000000    0.000000    1.171492
  C      0.000000    0.000000   -0.297053
  C      0.000000    1.456381   -0.805220
  C      1.261263   -0.728190   -0.805220
  C     -1.261263   -0.728190   -0.805220
  C      0.000000    0.000000    2.371824
  H      0.000000    0.000000    3.433077
  H      0.000000    1.469839   -1.896499
  H      1.272918   -0.734919   -1.896499
  H     -1.272918   -0.734919   -1.896499
  H     -0.882465    1.990948   -0.454532
  H      0.882465    1.990948   -0.454532
  H      2.165444   -0.231237   -0.454532
  H      1.282979   -1.759711   -0.454532
  H     -1.282979   -1.759711   -0.454532
  H     -2.165444   -0.231237   -0.454532

 Total Charge           Charge          ....    0
 Multiplicity           Mult            ....    1
 Number of Electrons    NEL             ....   46
 Basis Dimension        Dim             ....  506

ORBITAL ENERGIES
----------------

  NO   OCC          E(Eh)            E(eV)
   0   2.0000     -11.263164      -306.4863
   1   2.0000     -11.226171      -305.4796
   2   2.0000     -11.219770      -305.3055
   3   2.0000     -11.219770      -305.3055
   4   2.0000     -11.219750      -305.3049
   5   2.0000     -11.215143      -305.1795
   6   2.0000      -1.120318       -30.4854
   7   2.0000      -1.004187       -27.3253
   8   2.0000      -0.938946       -25.5500
   9   2.0000      -0.938946       -25.5500
  10   2.0000      -0.817965       -22.2580
  11   2.0000      -0.704301       -19.1650
  12   2.0000      -0.647969       -17.6321
  13   2.0000      -0.606397       -16.5009
  14   2.0000      -0.606397       -16.5009
  15   2.0000      -0.549972       -14.9655
  16   2.0000      -0.549972       -14.9655
  17   2.0000      -0.520631       -14.1671
  18   2.0000      -0.511372       -13.9152
  19   2.0000      -0.483021       -13.1437
  20   2.0000      -0.483021       -13.1437
  21   2.0000      -0.381058       -10.3691
  22   2.0000      -0.381058       -10.3691
  23   0.0000       0.029238         0.7956
  24   0.0000       0.033153         0.9021
  25   0.0000       0.039894         1.0856
  26   0.0000       0.039894         1.0856
  27   0.0000       0.051028         1.3885

MULLIKEN ATOMIC CHARGES
-----------------------
   0 C :    1.700542
   1 C :    0.540998
   2 C :   -1.156097
   3 C :   -1.156098
   4 C :   -1.156098
   5 C :   -1.756574
   6 H :    0.432961
   7 H :    0.262661
   8 H :    0.262662
   9 H :    0.262662
  10 H :    0.293730
  11 H :    0.293730
  12 H :    0.293731
  13 H :    0.293730
  14 H :    0.293730
  15 H :    0.293732
Sum of atomic charges:    0.0000000

LOEWDIN ATOMIC CHARGES
----------------------
   0 C :    0.010161
   1 C :   -0.437863
   2 C :    0.577678
   3 C :    0.577678
   4 C :    0.577678
   5 C :    0.425373
   6 H :   -0.300225
   7 H :   -0.158824
   8 H :   -0.158824
   9 H :   -0.158824
  10 H :   -0.159001
  11 H :   -0.159001
  12 H :   -0.159001
  13 H :   -0.159001
  14 H :   -0.159001
  15 H :   -0.159001

  Mayer bond orders larger than 0.100000
B(  0-C ,  1-C ) :   0.2488 B(  0-C ,  2-C ) :   0.1592 B(  0-C ,  3-C ) :   0.1592
B(  0-C ,  4-C ) :   0.1592 B(  0-C ,  5-C ) :  -0.4290 B(  0-C ,  6-H ) :  -0.1516
B(  1-C ,  2-C ) :   0.5008 B(  1-C ,  3-C ) :   0.5008 B(  1-C ,  4-C ) :   0.5008
B(  1-C ,  5-C ) :   0.6384 B(  2-C ,  3-C ) :   0.1074 B(  2-C ,  4-C ) :   0.1074
B(  2-C ,  7-H ) :   0.9932 B(  2-C , 10-H ) :   0.9890 B(  2-C , 11-H ) :   0.9890
B(  3-C ,  4-C ) :   0.1074 B(  3-C ,  8-H ) :   0.9932 B(  3-C , 12-H ) :   0.9890
B(  3-C , 13-H ) :   0.9890 B(  4-C ,  9-H ) :   0.9932 B(  4-C , 14-H ) :   0.9890
B(  4-C , 15-H ) :   0.9890 B(  5-C ,  6-H ) :   1.0713

MP2 TOTAL ENERGY:     -234.079244689 Eh
FINAL SINGLE POINT ENERGY      -234.079244689247

DIPOLE MOMENT
-------------
                                X             Y             Z
Electronic contribution:     -0.00000       0.00000       4.94935
Nuclear contribution   :      0.00000      -0.00000      -5.24117
                        -----------------------------------------
Total Dipole Moment    :     -0.00000       0.00000      -0.29182
                        -----------------------------------------
Magnitude (a.u.)       :      0.29182
Magnitude (Debye)      :      0.74174

Rotational constants in cm-1:     0.150994     0.089666     0.089666
Rotational constants in MHz :  4526.700909  2688.119047  2688.118720

                             ****ORCA TERMINATED NORMALLY****
TOTAL RUN TIME: 0 days 0 hours 4 minutes 18 seconds 907 msec
