                         Program Version 5.0.3 -  RELEASE  -
|  1> !ri-mp2 aug-cc-pvtz aug-cc-pvtz/c tightscf
|  2> %pal nprocs 16 end
|  3> %maxcore 3800
|  4>
|  5> * xyz 0 1
|  6> C     -3.327207   -0.419023    0.041928
|  7> C      3.090721   -0.451140   -0.274255
|  8> C     -0.788431   -0.412239    0.253951
|  9> C      0.571113    0.141230   -0.203853
| 10> C      1.708576   -0.763650    0.299514
| 11> C     -2.017419    0.251736   -0.371051
| 12> H      3.827406   -1.178545    0.069812
| 13> H     -4.188029    0.070172   -0.416159
| 14> H     -3.463898   -0.383764    1.124825
| 15> H     -3.344052   -1.469173   -0.256997
| 16> H      3.079369   -0.485016   -1.366025
| 17> H      3.447082    0.535638    0.022419
| 18> H     -1.923476    0.224375   -1.461206
| 19> H     -2.055863    1.307823   -0.095365
| 20> H      1.456099   -1.799914    0.057534
| 21> H      1.746302   -0.710073    1.392821
| 22> H     -0.853981   -0.337240    1.345824
| 23> H     -0.821582   -1.482078    0.023681
| 24> H      0.587534    0.107539   -1.300667
| 25> C      0.769883    1.598721    0.226172
| 26> H     -0.014695    2.245965   -0.165115
| 27> H      1.720804    1.997706   -0.126289
| 28> H      0.757558    1.682770    1.316470
| 29> *
| 30>
| 31>                          ****END OF INPUT****

CARTESIAN COORDINATES (ANGSTROEM)
---------------------------------
  C     -3.327207   -0.419023    0.041928
  C      3.090721   -0.451140   -0.274255
  C     -0.788431   -0.412239    0.253951
  C      0.571113    0.141230   -0.203853
  C      1.708576   -0.763650    0.299514
  C     -2.017419    0.251736   -0.371051
  H      3.827406   -1.178545    0.069812
  H     -4.188029    0.070172   -0.416159
  H     -3.463898   -0.383764    1.124825
  H     -3.344052   -1.469173   -0.256997
  H      3.079369   -0.485016   -1.366025
  H      3.447082    0.535638    0.022419
  H     -1.923476    0.224375   -1.461206
  H     -2.055863    1.307823   -0.095365
  H      1.456099   -1.799914    0.057534
  H      1.746302   -0.710073    1.392821
  H     -0.853981   -0.337240    1.345824
  H     -0.821582   -1.482078    0.023681
  H      0.587534    0.107539   -1.300667
  C      0.769883    1.598721    0.226172
  H     -0.014695    2.245965   -0.165115
  H      1.720804    1.997706   -0.126289
  H      0.757558    1.682770    1.316470

 Total Charge           Charge          ....    0
 Multiplicity           Mult            ....    1
 Number of Electrons    NEL             ....   58
 Basis Dimension        Dim             ....  690

ORBITAL ENERGIES
----------------

  NO   OCC          E(Eh)            E(eV)
   0   2.0000     -11.219718      -305.3040
   1   2.0000     -11.213872      -305.1450
   2   2.0000     -11.213009      -305.1215
   3   2.0000     -11.210708      -305.0589
   4   2.0000     -11.208463      -304.9978
   5   2.0000     -11.208046      -304.9864
   6   2.0000     -11.205774      -304.9246
   7   2.0000      -1.097224       -29.8570
   8   2.0000      -1.037957       -28.2442
   9   2.0000      -0.979074       -26.6419
  10   2.0000      -0.920346       -25.0439
  11   2.0000      -0.861924       -23.4541
  12   2.0000      -0.795845       -21.6560
  13   2.0000      -0.758417       -20.6376
  14   2.0000      -0.641772       -17.4635
  15   2.0000      -0.617673       -16.8077
  16   2.0000      -0.605325       -16.4717
  17   2.0000      -0.583234       -15.8706
  18   2.0000      -0.562934       -15.3182
  19   2.0000      -0.538718       -14.6593
  20   2.0000      -0.533606       -14.5202
  21   2.0000      -0.517019       -14.0688
  22   2.0000      -0.509406       -13.8617
  23   2.0000      -0.494264       -13.4496
  24   2.0000      -0.476395       -12.9634
  25   2.0000      -0.465635       -12.6706
  26   2.0000      -0.451775       -12.2934
  27   2.0000      -0.443537       -12.0692
  28   2.0000      -0.431584       -11.7440
  29   0.0000       0.030683         0.8349
  30   0.0000       0.032707         0.8900
  31   0.0000       0.035450         0.9646
  32   0.0000       0.037331         1.0158
  33   0.0000       0.048211         1.3119

MULLIKEN ATOMIC CHARGES
-----------------------
   0 C :   -1.005843
   1 C :   -1.029769
   2 C :   -0.455515
   3 C :    0.525416
   4 C :   -0.638499
   5 C :   -0.527311
   6 H :    0.263493
   7 H :    0.283420
   8 H :    0.258268
   9 H :    0.259606
  10 H :    0.242484
  11 H :    0.301091
  12 H :    0.221883
  13 H :    0.259140
  14 H :    0.264334
  15 H :    0.227893
  16 H :    0.246004
  17 H :    0.311809
  18 H :    0.335378
  19 C :   -1.120146
  20 H :    0.291490
  21 H :    0.264670
  22 H :    0.220706
Sum of atomic charges:    0.0000000

LOEWDIN ATOMIC CHARGES
----------------------
   0 C :    0.581605
   1 C :    0.585075
   2 C :    0.280206
   3 C :   -0.027145
   4 C :    0.270819
   5 C :    0.263070
   6 H :   -0.171095
   7 H :   -0.173392
   8 H :   -0.169856
   9 H :   -0.171805
  10 H :   -0.165528
  11 H :   -0.182138
  12 H :   -0.142773
  13 H :   -0.161139
  14 H :   -0.151642
  15 H :   -0.140234
  16 H :   -0.134294
  17 H :   -0.147250
  18 H :   -0.131608
  19 C :    0.593914
  20 H :   -0.175400
  21 H :   -0.176087
  22 H :   -0.153303

  Mayer bond orders larger than 0.100000
B(  0-C ,  5-C ) :   0.9063 B(  0-C ,  7-H ) :   0.9847 B(  0-C ,  8-H ) :   0.9764
B(  0-C ,  9-H ) :   0.9796 B(  1-C ,  4-C ) :   0.9066 B(  1-C ,  6-H ) :   1.0137
B(  1-C , 10-H ) :   0.9979 B(  1-C , 11-H ) :   0.9357 B(  2-C ,  3-C ) :   0.8605
B(  2-C ,  5-C ) :   0.9344 B(  2-C , 16-H ) :   0.9638 B(  2-C , 17-H ) :   0.8961
B(  2-C , 19-C ) :   0.1602 B(  3-C ,  4-C ) :   0.8088 B(  3-C , 18-H ) :   0.8465
B(  3-C , 19-C ) :   0.5445 B(  4-C , 14-H ) :   0.9575 B(  4-C , 15-H ) :   0.9929
B(  4-C , 19-C ) :   0.1647 B(  5-C , 12-H ) :   0.9739 B(  5-C , 13-H ) :   0.9490
B( 19-C , 20-H ) :   0.9629 B( 19-C , 21-H ) :   0.9880 B( 19-C , 22-H ) :   1.0398

MP2 TOTAL ENERGY:     -275.761319074 Eh
FINAL SINGLE POINT ENERGY      -275.761319073844

DIPOLE MOMENT
-------------
                                X             Y             Z
Electronic contribution:      0.04676      -0.35874      -0.20912
Nuclear contribution   :     -0.04720       0.35458       0.17998
                        -----------------------------------------
Total Dipole Moment    :     -0.00044      -0.00416      -0.02915
                        -----------------------------------------
Magnitude (a.u.)       :      0.02945
Magnitude (Debye)      :      0.07484

Rotational constants in cm-1:     0.192026     0.036298     0.032706
Rotational constants in MHz :  5756.784556  1088.195350   980.493118

                             ****ORCA TERMINATED NORMALLY****
TOTAL RUN TIME: 0 days 0 hours 10 minutes 31 seconds 458 msec
