                         Program Version 5.0.3 -  RELEASE  -
|  1> !ri-mp2 aug-cc-pvtz aug-cc-pvtz/c tightscf
|  2> %pal nprocs 16 end
|  3>
|  4> * xyz 0 1
|  5> C     -0.002611   -1.733711    0.000000
|  6> C     -0.002408   -1.024146    1.207301
|  7> C     -0.002408    0.359331    1.183235
|  8> C     -0.002586    1.085107    0.000000
|  9> C     -0.002408    0.359331   -1.183235
| 10> C     -0.002408   -1.024146   -1.207301
| 11> N     -0.060193   -3.118911    0.000000
| 12> H     -0.007345   -1.548683    2.151914
| 13> Cl     0.000346    1.229076    2.704581
| 14> H     -0.002009    2.162516    0.000000
| 15> Cl     0.000346    1.229076   -2.704581
| 16> H     -0.007345   -1.548683   -2.151914
| 17> H      0.257626   -3.575977   -0.838380
| 18> H      0.257626   -3.575977    0.838380
| 19> *
| 20>
| 21>                          ****END OF INPUT****

CARTESIAN COORDINATES (ANGSTROEM)
---------------------------------
  C     -0.002611   -1.733711    0.000000
  C     -0.002408   -1.024146    1.207301
  C     -0.002408    0.359331    1.183235
  C     -0.002586    1.085107    0.000000
  C     -0.002408    0.359331   -1.183235
  C     -0.002408   -1.024146   -1.207301
  N     -0.060193   -3.118911    0.000000
  H     -0.007345   -1.548683    2.151914
  Cl     0.000346    1.229076    2.704581
  H     -0.002009    2.162516    0.000000
  Cl     0.000346    1.229076   -2.704581
  H     -0.007345   -1.548683   -2.151914
  H      0.257626   -3.575977   -0.838380
  H      0.257626   -3.575977    0.838380

 Total Charge           Charge          ....    0
 Multiplicity           Mult            ....    1
 Number of Electrons    NEL             ....   82
 Basis Dimension        Dim             ....  537

ORBITAL ENERGIES
----------------

  NO   OCC          E(Eh)            E(eV)
   0   2.0000    -104.847463     -2853.0445
   1   2.0000    -104.847463     -2853.0445
   2   2.0000     -15.586184      -424.1216
   3   2.0000     -11.319134      -308.0093
   4   2.0000     -11.319127      -308.0091
   5   2.0000     -11.308646      -307.7239
   6   2.0000     -11.247392      -306.0571
   7   2.0000     -11.247374      -306.0566
   8   2.0000     -11.247124      -306.0498
   9   2.0000     -10.571057      -287.6531
  10   2.0000     -10.571057      -287.6531
  11   2.0000      -8.037931      -218.7232
  12   2.0000      -8.037931      -218.7232
  13   2.0000      -8.036045      -218.6719
  14   2.0000      -8.036044      -218.6719
  15   2.0000      -8.036029      -218.6715
  16   2.0000      -8.036028      -218.6714
  17   2.0000      -1.253250       -34.1027
  18   2.0000      -1.196679       -32.5633
  19   2.0000      -1.156733       -31.4763
  20   2.0000      -1.088254       -29.6129
  21   2.0000      -1.008311       -27.4375
  22   2.0000      -1.001960       -27.2647
  23   2.0000      -0.841430       -22.8965
  24   2.0000      -0.829855       -22.5815
  25   2.0000      -0.721274       -19.6269
  26   2.0000      -0.713181       -19.4066
  27   2.0000      -0.677743       -18.4423
  28   2.0000      -0.636500       -17.3201
  29   2.0000      -0.606751       -16.5105
  30   2.0000      -0.595067       -16.1926
  31   2.0000      -0.579134       -15.7590
  32   2.0000      -0.550134       -14.9699
  33   2.0000      -0.520091       -14.1524
  34   2.0000      -0.513061       -13.9611
  35   2.0000      -0.507665       -13.8143
  36   2.0000      -0.466593       -12.6966
  37   2.0000      -0.456344       -12.4178
  38   2.0000      -0.433038       -11.7836
  39   2.0000      -0.346294        -9.4231
  40   2.0000      -0.318299        -8.6613
  41   0.0000       0.021022         0.5720
  42   0.0000       0.033921         0.9230
  43   0.0000       0.041083         1.1179
  44   0.0000       0.048859         1.3295
  45   0.0000       0.062465         1.6998

MULLIKEN ATOMIC CHARGES
-----------------------
   0 C :    1.344902
   1 C :   -0.857443
   2 C :    0.621170
   3 C :   -1.011962
   4 C :    0.621172
   5 C :   -0.857442
   6 N :   -0.720416
   7 H :    0.545094
   8 Cl:   -0.475836
   9 H :    0.588855
  10 Cl:   -0.475836
  11 H :    0.545094
  12 H :    0.066323
  13 H :    0.066323
Sum of atomic charges:   -0.0000000

LOEWDIN ATOMIC CHARGES
----------------------
   0 C :   -0.260392
   1 C :    0.126433
   2 C :   -0.778272
   3 C :    0.007667
   4 C :   -0.778272
   5 C :    0.126433
   6 N :    0.858872
   7 H :   -0.204194
   8 Cl:    0.971112
   9 H :   -0.228859
  10 Cl:    0.971112
  11 H :   -0.204194
  12 H :   -0.303724
  13 H :   -0.303724

  Mayer bond orders larger than 0.100000
B(  0-C ,  1-C ) :   0.5871 B(  0-C ,  3-C ) :  -0.2538 B(  0-C ,  5-C ) :   0.5871
B(  0-C ,  6-N ) :   0.7515 B(  1-C ,  2-C ) :   0.9154 B(  1-C ,  3-C ) :   0.4619
B(  1-C ,  4-C ) :  -0.1496 B(  1-C ,  5-C ) :   0.4300 B(  1-C ,  6-N ) :  -0.1651
B(  1-C ,  7-H ) :   0.5975 B(  2-C ,  3-C ) :   0.9901 B(  2-C ,  4-C ) :   0.1266
B(  2-C ,  5-C ) :  -0.1496 B(  2-C ,  8-Cl) :   0.8165 B(  3-C ,  4-C ) :   0.9901
B(  3-C ,  5-C ) :   0.4619 B(  3-C ,  9-H ) :   0.6372 B(  4-C ,  5-C ) :   0.9154
B(  4-C , 10-Cl) :   0.8165 B(  5-C ,  6-N ) :  -0.1651 B(  5-C , 11-H ) :   0.5975
B(  6-N , 12-H ) :   1.1092 B(  6-N , 13-H ) :   1.1092

MP2 TOTAL ENERGY:    -1205.264007658 Eh
FINAL SINGLE POINT ENERGY     -1205.264007658293

DIPOLE MOMENT
-------------
                                X             Y             Z
Electronic contribution:     -0.11503       9.78559      -0.00000
Nuclear contribution   :      0.47261     -11.04681      -0.00000
                        -----------------------------------------
Total Dipole Moment    :      0.35758      -1.26122      -0.00000
                        -----------------------------------------
Magnitude (a.u.)       :      1.31093
Magnitude (Debye)      :      3.33212

Rotational constants in cm-1:     0.047273     0.028179     0.017662
Rotational constants in MHz :  1417.222301   844.777359   529.483735

                             ****ORCA TERMINATED NORMALLY****
TOTAL RUN TIME: 0 days 0 hours 6 minutes 22 seconds 365 msec
