                         Program Version 5.0.3 -  RELEASE  -
|  1> !ri-mp2 aug-cc-pvtz aug-cc-pvtz/c tightscf
|  2> %pal nprocs 16 end
|  3> %maxcore 3800
|  4>
|  5> * xyz 0 1
|  6> C      0.771928    0.031892    0.002176
|  7> N      1.373089   -1.135533   -0.268058
|  8> C      1.517491    1.185214    0.283493
|  9> C      2.888656    1.088544    0.253045
| 10> C      3.435576   -0.156370   -0.042961
| 11> N      2.692576   -1.231573   -0.286051
| 12> C     -0.709720    0.022857   -0.000158
| 13> C     -1.402884   -1.169419    0.234804
| 14> C     -2.789799   -1.189168    0.240834
| 15> C     -3.510661   -0.022683    0.006144
| 16> C     -2.832600    1.165699   -0.237604
| 17> C     -1.444071    1.188439   -0.239574
| 18> H      4.505517   -0.314225   -0.081356
| 19> H      3.523963    1.938063    0.462583
| 20> H      1.028770    2.114805    0.536243
| 21> H     -3.383886    2.075335   -0.434047
| 22> H     -4.592120   -0.040627    0.009324
| 23> H     -3.310530   -2.118188    0.430151
| 24> H     -0.839342   -2.073585    0.409647
| 25> H     -0.935526    2.118137   -0.454969
| 26> *
| 27>
| 28>                          ****END OF INPUT****

CARTESIAN COORDINATES (ANGSTROEM)
---------------------------------
  C      0.771928    0.031892    0.002176
  N      1.373089   -1.135533   -0.268058
  C      1.517491    1.185214    0.283493
  C      2.888656    1.088544    0.253045
  C      3.435576   -0.156370   -0.042961
  N      2.692576   -1.231573   -0.286051
  C     -0.709720    0.022857   -0.000158
  C     -1.402884   -1.169419    0.234804
  C     -2.789799   -1.189168    0.240834
  C     -3.510661   -0.022683    0.006144
  C     -2.832600    1.165699   -0.237604
  C     -1.444071    1.188439   -0.239574
  H      4.505517   -0.314225   -0.081356
  H      3.523963    1.938063    0.462583
  H      1.028770    2.114805    0.536243
  H     -3.383886    2.075335   -0.434047
  H     -4.592120   -0.040627    0.009324
  H     -3.310530   -2.118188    0.430151
  H     -0.839342   -2.073585    0.409647
  H     -0.935526    2.118137   -0.454969

 Total Charge           Charge          ....    0
 Multiplicity           Mult            ....    1
 Number of Electrons    NEL             ....   82
 Basis Dimension        Dim             ....  736

ORBITAL ENERGIES
----------------

  NO   OCC          E(Eh)            E(eV)
   0   2.0000     -15.610912      -424.7945
   1   2.0000     -15.605883      -424.6577
   2   2.0000     -11.293575      -307.3138
   3   2.0000     -11.279344      -306.9266
   4   2.0000     -11.269015      -306.6455
   5   2.0000     -11.266840      -306.5863
   6   2.0000     -11.252192      -306.1877
   7   2.0000     -11.244845      -305.9878
   8   2.0000     -11.241384      -305.8936
   9   2.0000     -11.240007      -305.8561
  10   2.0000     -11.238075      -305.8036
  11   2.0000     -11.236703      -305.7662
  12   2.0000      -1.348561       -36.6962
  13   2.0000      -1.171917       -31.8895
  14   2.0000      -1.120658       -30.4947
  15   2.0000      -1.113008       -30.2865
  16   2.0000      -1.024133       -27.8681
  17   2.0000      -1.021021       -27.7834
  18   2.0000      -0.905106       -24.6292
  19   2.0000      -0.896335       -24.3905
  20   2.0000      -0.829491       -22.5716
  21   2.0000      -0.818109       -22.2619
  22   2.0000      -0.735205       -20.0059
  23   2.0000      -0.705218       -19.1900
  24   2.0000      -0.697242       -18.9729
  25   2.0000      -0.667421       -18.1614
  26   2.0000      -0.628850       -17.1119
  27   2.0000      -0.617709       -16.8087
  28   2.0000      -0.600655       -16.3447
  29   2.0000      -0.594169       -16.1682
  30   2.0000      -0.586978       -15.9725
  31   2.0000      -0.578079       -15.7303
  32   2.0000      -0.517198       -14.0737
  33   2.0000      -0.512999       -13.9594
  34   2.0000      -0.500300       -13.6138
  35   2.0000      -0.479963       -13.0604
  36   2.0000      -0.407981       -11.1017
  37   2.0000      -0.402883       -10.9630
  38   2.0000      -0.399537       -10.8720
  39   2.0000      -0.343595        -9.3497
  40   2.0000      -0.319889        -8.7046
  41   0.0000       0.022512         0.6126
  42   0.0000       0.028074         0.7639
  43   0.0000       0.034026         0.9259
  44   0.0000       0.040146         1.0924
  45   0.0000       0.044421         1.2088

MULLIKEN ATOMIC CHARGES
-----------------------
   0 C :    1.284209
   1 N :   -0.283363
   2 C :   -0.696609
   3 C :   -0.617421
   4 C :   -0.223960
   5 N :   -0.745237
   6 C :    1.938523
   7 C :   -0.950269
   8 C :   -0.712056
   9 C :   -0.152603
  10 C :   -0.811152
  11 C :   -0.948444
  12 H :    0.685469
  13 H :    0.343600
  14 H :    0.284189
  15 H :    0.414363
  16 H :    0.477572
  17 H :    0.485537
  18 H :    0.102667
  19 H :    0.124987
Sum of atomic charges:    0.0000000

LOEWDIN ATOMIC CHARGES
----------------------
   0 C :   -0.293976
   1 N :    0.228082
   2 C :    0.222676
   3 C :    0.209676
   4 C :    0.005972
   5 N :    0.205093
   6 C :   -0.121231
   7 C :    0.217245
   8 C :    0.208115
   9 C :    0.200256
  10 C :    0.203702
  11 C :    0.210134
  12 H :   -0.200472
  13 H :   -0.175409
  14 H :   -0.182576
  15 H :   -0.184370
  16 H :   -0.183829
  17 H :   -0.182959
  18 H :   -0.193523
  19 H :   -0.192607

  Mayer bond orders larger than 0.100000
B(  0-C ,  1-N ) :   0.7232 B(  0-C ,  2-C ) :   0.4523 B(  0-C ,  3-C ) :  -0.1190
B(  0-C ,  4-C ) :  -0.1056 B(  0-C ,  5-N ) :   0.1286 B(  0-C ,  6-C ) :   0.4137
B(  0-C ,  7-C ) :   0.1185 B(  0-C ,  8-C ) :   0.1332 B(  0-C ,  9-C ) :   0.1411
B(  0-C , 11-C ) :   0.2417 B(  0-C , 14-H ) :  -0.1224 B(  0-C , 17-H ) :   0.1937
B(  0-C , 18-H ) :  -0.2369 B(  1-N ,  5-N ) :  -0.4482 B(  1-N , 18-H ) :   0.1978
B(  2-C ,  3-C ) :   1.3842 B(  2-C ,  4-C ) :   0.1254 B(  2-C , 14-H ) :   1.3035
B(  3-C ,  4-C ) :   0.9756 B(  3-C , 13-H ) :   1.0516 B(  4-C ,  5-N ) :   1.2518
B(  4-C ,  6-C ) :   0.1239 B(  4-C , 12-H ) :   0.4091 B(  5-N ,  6-C ) :   0.1051
B(  5-N , 12-H ) :  -0.1561 B(  6-C ,  7-C ) :   0.1767 B(  6-C , 10-C ) :  -0.1685
B(  6-C , 11-C ) :   0.3259 B(  6-C , 18-H ) :  -0.1165 B(  6-C , 19-H ) :  -0.2096
B(  7-C ,  8-C ) :   1.1726 B(  7-C ,  9-C ) :  -0.1160 B(  7-C , 10-C ) :   0.1315
B(  7-C , 11-C ) :  -0.1963 B(  7-C , 16-H ) :   0.1220 B(  7-C , 17-H ) :  -0.1430
B(  7-C , 18-H ) :   1.4269 B(  7-C , 19-H ) :   0.1291 B(  8-C ,  9-C ) :   1.1207
B(  8-C , 10-C ) :   0.1167 B(  8-C , 16-H ) :  -0.1510 B(  8-C , 17-H ) :   0.7275
B(  9-C , 10-C ) :   1.2134 B(  9-C , 16-H ) :   0.7854 B( 10-C , 11-C ) :   1.3117
B( 10-C , 15-H ) :   0.8760 B( 10-C , 16-H ) :  -0.1730 B( 10-C , 19-H ) :  -0.1222
B( 11-C , 18-H ) :   0.1334 B( 11-C , 19-H ) :   1.5133

MP2 TOTAL ENERGY:     -494.353749069 Eh
FINAL SINGLE POINT ENERGY      -494.353749069449

DIPOLE MOMENT
-------------
                                X             Y             Z
Electronic contribution:      3.83067      -2.15490      -0.49033
Nuclear contribution   :     -3.92360       3.63423       0.86209
                        -----------------------------------------
Total Dipole Moment    :     -0.09292       1.47934       0.37176
                        -----------------------------------------
Magnitude (a.u.)       :      1.52816
Magnitude (Debye)      :      3.88427

Rotational constants in cm-1:     0.098425     0.019054     0.016205
Rotational constants in MHz :  2950.720763   571.224008   485.826739

                             ****ORCA TERMINATED NORMALLY****
TOTAL RUN TIME: 0 days 0 hours 16 minutes 34 seconds 572 msec
