                         Program Version 5.0.3 -  RELEASE  -
|  1> !ri-mp2 aug-cc-pvtz aug-cc-pvtz/c tightscf
|  2> %pal nprocs 16 end
|  3>
|  4> * xyz 0 1
|  5> F      0.201937    2.092857   -0.235362
|  6> O      2.218016   -1.126868   -0.702067
|  7> O      2.244199    0.459327    0.785864
|  8> N     -0.418686   -1.425726    0.129866
|  9> N      1.685363   -0.319981    0.031773
| 10> C      0.196563   -0.271665    0.023108
| 11> C     -0.463634    0.946200   -0.091353
| 12> C     -1.846644    0.947840   -0.089972
| 13> C     -2.503225   -0.267010    0.041067
| 14> C     -1.749398   -1.430562    0.150722
| 15> H     -2.376584    1.884122   -0.192026
| 16> H     -3.582748   -0.311349    0.052145
| 17> H     -2.224534   -2.397029    0.254856
| 18> *
| 19>
| 20>                          ****END OF INPUT****

CARTESIAN COORDINATES (ANGSTROEM)
---------------------------------
  F      0.201937    2.092857   -0.235362
  O      2.218016   -1.126868   -0.702067
  O      2.244199    0.459327    0.785864
  N     -0.418686   -1.425726    0.129866
  N      1.685363   -0.319981    0.031773
  C      0.196563   -0.271665    0.023108
  C     -0.463634    0.946200   -0.091353
  C     -1.846644    0.947840   -0.089972
  C     -2.503225   -0.267010    0.041067
  C     -1.749398   -1.430562    0.150722
  H     -2.376584    1.884122   -0.192026
  H     -3.582748   -0.311349    0.052145
  H     -2.224534   -2.397029    0.254856

 Total Charge           Charge          ....    0
 Multiplicity           Mult            ....    1
 Number of Electrons    NEL             ....   72
 Basis Dimension        Dim             ....  529

ORBITAL ENERGIES
----------------

  NO   OCC          E(Eh)            E(eV)
   0   2.0000     -26.351096      -717.0498
   1   2.0000     -20.615511      -560.9766
   2   2.0000     -20.613073      -560.9102
   3   2.0000     -15.862734      -431.6469
   4   2.0000     -15.622372      -425.1064
   5   2.0000     -11.382385      -309.7304
   6   2.0000     -11.367877      -309.3357
   7   2.0000     -11.315428      -307.9085
   8   2.0000     -11.301401      -307.5268
   9   2.0000     -11.291619      -307.2606
  10   2.0000      -1.671662       -45.4882
  11   2.0000      -1.619916       -44.0802
  12   2.0000      -1.414874       -38.5007
  13   2.0000      -1.326757       -36.1029
  14   2.0000      -1.143366       -31.1126
  15   2.0000      -1.115943       -30.3663
  16   2.0000      -0.996751       -27.1230
  17   2.0000      -0.922660       -25.1069
  18   2.0000      -0.878830       -23.9142
  19   2.0000      -0.802800       -21.8453
  20   2.0000      -0.786342       -21.3975
  21   2.0000      -0.768322       -20.9071
  22   2.0000      -0.742152       -20.1950
  23   2.0000      -0.732162       -19.9231
  24   2.0000      -0.714206       -19.4345
  25   2.0000      -0.703464       -19.1422
  26   2.0000      -0.667230       -18.1562
  27   2.0000      -0.626952       -17.0602
  28   2.0000      -0.602986       -16.4081
  29   2.0000      -0.592971       -16.1356
  30   2.0000      -0.513066       -13.9612
  31   2.0000      -0.509331       -13.8596
  32   2.0000      -0.473645       -12.8885
  33   2.0000      -0.457320       -12.4443
  34   2.0000      -0.431093       -11.7306
  35   2.0000      -0.390202       -10.6179
  36   0.0000       0.016127         0.4388
  37   0.0000       0.028367         0.7719
  38   0.0000       0.038909         1.0588
  39   0.0000       0.040287         1.0963
  40   0.0000       0.064219         1.7475

MULLIKEN ATOMIC CHARGES
-----------------------
   0 F :   -0.506517
   1 O :   -0.623540
   2 O :   -0.628527
   3 N :   -0.339978
   4 N :    0.828582
   5 C :    0.418252
   6 C :    0.765336
   7 C :   -0.750012
   8 C :   -0.055151
   9 C :   -0.650133
  10 H :    0.520538
  11 H :    0.370169
  12 H :    0.650982
Sum of atomic charges:   -0.0000000

LOEWDIN ATOMIC CHARGES
----------------------
   0 F :    0.528607
   1 O :    0.391381
   2 O :    0.385456
   3 N :    0.390727
   4 N :   -0.726978
   5 C :   -0.418703
   6 C :   -0.498590
   7 C :    0.216164
   8 C :    0.217279
   9 C :    0.041749
  10 H :   -0.165761
  11 H :   -0.176288
  12 H :   -0.185043

  Mayer bond orders larger than 0.100000
B(  0-F ,  5-C ) :   0.1127 B(  0-F ,  6-C ) :   0.5708 B(  0-F ,  7-C ) :   0.1038
B(  1-O ,  2-O ) :   0.1295 B(  1-O ,  4-N ) :   1.2599 B(  2-O ,  4-N ) :   1.2480
B(  3-N ,  5-C ) :   1.1540 B(  3-N ,  7-C ) :   0.1005 B(  3-N ,  8-C ) :  -0.2145
B(  3-N ,  9-C ) :   1.3189 B(  4-N ,  5-C ) :   0.8119 B(  5-C ,  6-C ) :   1.1221
B(  5-C ,  7-C ) :   0.2303 B(  5-C ,  8-C ) :  -0.1240 B(  5-C ,  9-C ) :   0.2123
B(  6-C ,  7-C ) :   1.2781 B(  6-C ,  8-C ) :  -0.1020 B(  7-C ,  8-C ) :   1.2170
B(  7-C ,  9-C ) :   0.2275 B(  7-C , 10-H ) :   0.6433 B(  8-C ,  9-C ) :   0.9240
B(  8-C , 11-H ) :   0.9297 B(  9-C , 12-H ) :   0.4000

MP2 TOTAL ENERGY:     -551.138249098 Eh
FINAL SINGLE POINT ENERGY      -551.138249098499

DIPOLE MOMENT
-------------
                                X             Y             Z
Electronic contribution:      5.27390       3.03013      -0.36833
Nuclear contribution   :     -7.90408      -2.77117       0.33278
                        -----------------------------------------
Total Dipole Moment    :     -2.63018       0.25896      -0.03555
                        -----------------------------------------
Magnitude (a.u.)       :      2.64314
Magnitude (Debye)      :      6.71833

Rotational constants in cm-1:     0.078869     0.042023     0.029289
Rotational constants in MHz :  2364.442333  1259.815338   878.070937

                             ****ORCA TERMINATED NORMALLY****
TOTAL RUN TIME: 0 days 0 hours 5 minutes 37 seconds 510 msec
