                         Program Version 5.0.3 -  RELEASE  -
|  1> !ri-mp2 aug-cc-pvtz aug-cc-pvtz/c tightscf
|  2> %pal nprocs 16 end
|  3>
|  4> * xyz 0 1
|  5> H     -3.802515   -1.239154    0.000000
|  6> H     -2.689478    0.229953    0.000000
|  7> C     -2.794898   -0.846771    0.000000
|  8> H     -1.915495   -2.733395    0.000000
|  9> C     -1.747715   -1.660126    0.000000
| 10> H      0.189038   -1.709801    0.877836
| 11> H      0.189038   -1.709801   -0.877836
| 12> C     -0.299553   -1.277902    0.000000
| 13> S      0.000000    0.525942    0.000000
| 14> H      2.174574   -0.032527    0.883368
| 15> H      2.174574   -0.032527   -0.883368
| 16> C      1.831485    0.507447    0.000000
| 17> H      3.459524    1.922130    0.000000
| 18> H      2.036376    2.479514   -0.882479
| 19> H      2.036376    2.479514    0.882479
| 20> C      2.368679    1.932523    0.000000
| 21> *
| 22>
| 23>                          ****END OF INPUT****

CARTESIAN COORDINATES (ANGSTROEM)
---------------------------------
  H     -3.802515   -1.239154    0.000000
  H     -2.689478    0.229953    0.000000
  C     -2.794898   -0.846771    0.000000
  H     -1.915495   -2.733395    0.000000
  C     -1.747715   -1.660126    0.000000
  H      0.189038   -1.709801    0.877836
  H      0.189038   -1.709801   -0.877836
  C     -0.299553   -1.277902    0.000000
  S      0.000000    0.525942    0.000000
  H      2.174574   -0.032527    0.883368
  H      2.174574   -0.032527   -0.883368
  C      1.831485    0.507447    0.000000
  H      3.459524    1.922130    0.000000
  H      2.036376    2.479514   -0.882479
  H      2.036376    2.479514    0.882479
  C      2.368679    1.932523    0.000000

 Total Charge           Charge          ....    0
 Multiplicity           Mult            ....    1
 Number of Electrons    NEL             ....   56
 Basis Dimension        Dim             ....  510

ORBITAL ENERGIES
----------------

  NO   OCC          E(Eh)            E(eV)
   0   2.0000     -91.941380     -2501.8521
   1   2.0000     -11.261819      -306.4497
   2   2.0000     -11.257660      -306.3365
   3   2.0000     -11.239865      -305.8523
   4   2.0000     -11.223957      -305.4194
   5   2.0000     -11.221455      -305.3513
   6   2.0000      -8.941669      -243.3152
   7   2.0000      -6.622865      -180.2173
   8   2.0000      -6.622036      -180.1948
   9   2.0000      -6.621025      -180.1672
  10   2.0000      -1.097105       -29.8538
  11   2.0000      -1.054151       -28.6849
  12   2.0000      -0.973963       -26.5029
  13   2.0000      -0.889251       -24.1978
  14   2.0000      -0.808767       -22.0077
  15   2.0000      -0.741006       -20.1638
  16   2.0000      -0.648589       -17.6490
  17   2.0000      -0.632595       -17.2138
  18   2.0000      -0.597157       -16.2495
  19   2.0000      -0.595125       -16.1942
  20   2.0000      -0.576355       -15.6834
  21   2.0000      -0.531958       -14.4753
  22   2.0000      -0.514940       -14.0122
  23   2.0000      -0.508744       -13.8436
  24   2.0000      -0.462940       -12.5972
  25   2.0000      -0.424810       -11.5597
  26   2.0000      -0.367150        -9.9907
  27   2.0000      -0.335718        -9.1353
  28   0.0000       0.028863         0.7854
  29   0.0000       0.032139         0.8746
  30   0.0000       0.036595         0.9958
  31   0.0000       0.041859         1.1390
  32   0.0000       0.048842         1.3291

MULLIKEN ATOMIC CHARGES
-----------------------
   0 H :    0.493712
   1 H :    0.375779
   2 C :   -1.110941
   3 H :    0.179493
   4 C :   -0.216399
   5 H :    0.267245
   6 H :    0.267245
   7 C :   -0.107200
   8 S :   -0.098293
   9 H :    0.246404
  10 H :    0.246404
  11 C :   -0.469775
  12 H :    0.301227
  13 H :    0.290645
  14 H :    0.290645
  15 C :   -0.956190
Sum of atomic charges:   -0.0000000

LOEWDIN ATOMIC CHARGES
----------------------
   0 H :   -0.228415
   1 H :   -0.262953
   2 C :    0.487448
   3 H :   -0.196581
   4 C :    0.107277
   5 H :   -0.222506
   6 H :   -0.222506
   7 C :   -0.093064
   8 S :    1.215134
   9 H :   -0.220183
  10 H :   -0.220183
  11 C :   -0.084508
  12 H :   -0.178331
  13 H :   -0.186562
  14 H :   -0.186562
  15 C :    0.492494

  Mayer bond orders larger than 0.100000
B(  0-H ,  2-C ) :   0.7029 B(  1-H ,  2-C ) :   0.9863 B(  2-C ,  4-C ) :   1.2808
B(  2-C ,  8-S ) :  -0.1053 B(  3-H ,  4-C ) :   1.2077 B(  4-C ,  7-C ) :   0.6981
B(  5-H ,  7-C ) :   0.9423 B(  6-H ,  7-C ) :   0.9423 B(  7-C ,  8-S ) :   1.0730
B(  8-S , 11-C ) :   0.9808 B(  9-H , 11-C ) :   0.9378 B( 10-H , 11-C ) :   0.9378
B( 11-C , 15-C ) :   0.9065 B( 12-H , 15-C ) :   0.9456 B( 13-H , 15-C ) :   0.9467
B( 14-H , 15-C ) :   0.9467

MP2 TOTAL ENERGY:     -593.800841434 Eh
FINAL SINGLE POINT ENERGY      -593.800841434435

DIPOLE MOMENT
-------------
                                X             Y             Z
Electronic contribution:     -3.37955      -0.11290      -0.00000
Nuclear contribution   :      3.96423      -0.37288       0.00000
                        -----------------------------------------
Total Dipole Moment    :      0.58468      -0.48578      -0.00000
                        -----------------------------------------
Magnitude (a.u.)       :      0.76015
Magnitude (Debye)      :      1.93215

Rotational constants in cm-1:     0.328034     0.041933     0.037967
Rotational constants in MHz :  9834.205286  1257.121632  1138.216973

                             ****ORCA TERMINATED NORMALLY****
TOTAL RUN TIME: 0 days 0 hours 3 minutes 43 seconds 882 msec
