                         Program Version 5.0.3 -  RELEASE  -
|  1> !ri-mp2 aug-cc-pvtz aug-cc-pvtz/c tightscf
|  2> %pal nprocs 16 end
|  3>
|  4> * xyz 0 1
|  5> S     -2.444945    0.114711   -0.000002
|  6> O      1.338014    1.334195    0.000002
|  7> O      2.574349   -0.551462    0.000001
|  8> C      1.397186    0.128744    0.000001
|  9> C      0.265164   -0.804020    0.000000
| 10> C     -0.982040   -0.381913    0.000000
| 11> H      3.277153    0.114294    0.000002
| 12> H      0.461205   -1.868401    0.000000
| 13> *
| 14>
| 15>                          ****END OF INPUT****

CARTESIAN COORDINATES (ANGSTROEM)
---------------------------------
  S     -2.444945    0.114711   -0.000002
  O      1.338014    1.334195    0.000002
  O      2.574349   -0.551462    0.000001
  C      1.397186    0.128744    0.000001
  C      0.265164   -0.804020    0.000000
  C     -0.982040   -0.381913    0.000000
  H      3.277153    0.114294    0.000002
  H      0.461205   -1.868401    0.000000

 Total Charge           Charge          ....    0
 Multiplicity           Mult            ....    1
 Number of Electrons    NEL             ....   52
 Basis Dimension        Dim             ....  326

ORBITAL ENERGIES
----------------

  NO   OCC          E(Eh)            E(eV)
   0   2.0000     -92.002603     -2503.5181
   1   2.0000     -20.621650      -561.1436
   2   2.0000     -20.554784      -559.3241
   3   2.0000     -11.406282      -310.3807
   4   2.0000     -11.375343      -309.5388
   5   2.0000     -11.269743      -306.6653
   6   2.0000      -9.005304      -245.0468
   7   2.0000      -6.686291      -181.9432
   8   2.0000      -6.684920      -181.9059
   9   2.0000      -6.683818      -181.8759
  10   2.0000      -1.471986       -40.0548
  11   2.0000      -1.369475       -37.2653
  12   2.0000      -1.145550       -31.1720
  13   2.0000      -1.041300       -28.3352
  14   2.0000      -0.880026       -23.9467
  15   2.0000      -0.727647       -19.8003
  16   2.0000      -0.719817       -19.5872
  17   2.0000      -0.683313       -18.5939
  18   2.0000      -0.643357       -17.5066
  19   2.0000      -0.614393       -16.7185
  20   2.0000      -0.605678       -16.4813
  21   2.0000      -0.527533       -14.3549
  22   2.0000      -0.491134       -13.3644
  23   2.0000      -0.474782       -12.9195
  24   2.0000      -0.450637       -12.2625
  25   2.0000      -0.353545        -9.6205
  26   0.0000       0.026366         0.7175
  27   0.0000       0.031223         0.8496
  28   0.0000       0.039472         1.0741
  29   0.0000       0.054119         1.4727
  30   0.0000       0.065498         1.7823

MULLIKEN ATOMIC CHARGES
-----------------------
   0 S :   -0.273112
   1 O :   -0.727172
   2 O :   -0.387343
   3 C :    0.356941
   4 C :   -0.067170
   5 C :    0.439233
   6 H :    0.254293
   7 H :    0.404330
Sum of atomic charges:    0.0000000

LOEWDIN ATOMIC CHARGES
----------------------
   0 S :    0.995654
   1 O :    0.430716
   2 O :    0.817132
   3 C :   -0.886497
   4 C :    0.025979
   5 C :   -0.671856
   6 H :   -0.476667
   7 H :   -0.234461

  Mayer bond orders larger than 0.100000
B(  0-S ,  4-C ) :  -0.1361 B(  0-S ,  5-C ) :   2.1559 B(  1-O ,  3-C ) :   1.5893
B(  2-O ,  3-C ) :   1.0388 B(  2-O ,  6-H ) :   0.9527 B(  3-C ,  4-C ) :   0.8888
B(  4-C ,  5-C ) :   1.3275 B(  4-C ,  7-H ) :   0.8679

MP2 TOTAL ENERGY:     -663.226545985 Eh
FINAL SINGLE POINT ENERGY      -663.226545984645

DIPOLE MOMENT
-------------
                                X             Y             Z
Electronic contribution:     -3.70745       0.88725      -0.00000
Nuclear contribution   :      3.70668      -1.66929       0.00000
                        -----------------------------------------
Total Dipole Moment    :     -0.00077      -0.78204      -0.00000
                        -----------------------------------------
Magnitude (a.u.)       :      0.78204
Magnitude (Debye)      :      1.98780

Rotational constants in cm-1:     0.358796     0.045184     0.040130
Rotational constants in MHz : 10756.438011  1354.578154  1203.072950

                             ****ORCA TERMINATED NORMALLY****
TOTAL RUN TIME: 0 days 0 hours 1 minutes 31 seconds 526 msec
