                         Program Version 5.0.3 -  RELEASE  -
|  1> !ri-mp2 aug-cc-pvtz aug-cc-pvtz/c tightscf
|  2> %pal nprocs 16 end
|  3>
|  4> * xyz 0 1
|  5> O      1.772604   -1.164175    0.005094
|  6> O      1.810770    1.063763    0.003743
|  7> N     -2.805856    0.007250   -0.044985
|  8> C      1.155229   -0.132919    0.000440
|  9> C     -0.273472   -0.038262   -0.008028
| 10> C     -1.481370   -0.002709   -0.003032
| 11> H      1.173225    1.788219   -0.008235
| 12> H     -3.302718   -0.848895    0.140583
| 13> H     -3.298834    0.856562    0.175579
| 14> *
| 15>
| 16>                          ****END OF INPUT****

CARTESIAN COORDINATES (ANGSTROEM)
---------------------------------
  O      1.772604   -1.164175    0.005094
  O      1.810770    1.063763    0.003743
  N     -2.805856    0.007250   -0.044985
  C      1.155229   -0.132919    0.000440
  C     -0.273472   -0.038262   -0.008028
  C     -1.481370   -0.002709   -0.003032
  H      1.173225    1.788219   -0.008235
  H     -3.302718   -0.848895    0.140583
  H     -3.298834    0.856562    0.175579

 Total Charge           Charge          ....    0
 Multiplicity           Mult            ....    1
 Number of Electrons    NEL             ....   44
 Basis Dimension        Dim             ....  345

ORBITAL ENERGIES
----------------

  NO   OCC          E(Eh)            E(eV)
   0   2.0000     -20.612243      -560.8876
   1   2.0000     -20.542760      -558.9969
   2   2.0000     -15.630081      -425.3161
   3   2.0000     -11.403592      -310.3075
   4   2.0000     -11.313796      -307.8640
   5   2.0000     -11.247187      -306.0515
   6   2.0000      -1.457226       -39.6531
   7   2.0000      -1.362350       -37.0714
   8   2.0000      -1.273308       -34.6485
   9   2.0000      -1.055503       -28.7217
  10   2.0000      -0.893918       -24.3247
  11   2.0000      -0.806524       -21.9466
  12   2.0000      -0.773048       -21.0357
  13   2.0000      -0.750562       -20.4238
  14   2.0000      -0.658577       -17.9208
  15   2.0000      -0.632605       -17.2141
  16   2.0000      -0.600348       -16.3363
  17   2.0000      -0.560707       -15.2576
  18   2.0000      -0.484912       -13.1951
  19   2.0000      -0.470298       -12.7975
  20   2.0000      -0.423025       -11.5111
  21   2.0000      -0.374767       -10.1979
  22   0.0000       0.011334         0.3084
  23   0.0000       0.029908         0.8138
  24   0.0000       0.041505         1.1294
  25   0.0000       0.071075         1.9341
  26   0.0000       0.076880         2.0920

MULLIKEN ATOMIC CHARGES
-----------------------
   0 O :   -0.584928
   1 O :   -0.345373
   2 N :   -0.509179
   3 C :   -0.211488
   4 C :    0.518875
   5 C :    0.541321
   6 H :    0.209480
   7 H :    0.189161
   8 H :    0.192132
Sum of atomic charges:    0.0000000

LOEWDIN ATOMIC CHARGES
----------------------
   0 O :    0.410569
   1 O :    0.809732
   2 N :    0.787356
   3 C :   -0.911416
   4 C :    0.026928
   5 C :   -0.026931
   6 H :   -0.499262
   7 H :   -0.296675
   8 H :   -0.300302

  Mayer bond orders larger than 0.100000
B(  0-O ,  3-C ) :   1.7732 B(  0-O ,  4-C ) :  -0.2196 B(  1-O ,  3-C ) :   1.0343
B(  1-O ,  4-C ) :  -0.1152 B(  1-O ,  6-H ) :   0.9503 B(  2-N ,  5-C ) :   0.6600
B(  2-N ,  7-H ) :   0.9975 B(  2-N ,  8-H ) :   0.9993 B(  3-C ,  4-C ) :   0.5146
B(  3-C ,  5-C ) :  -0.1720 B(  4-C ,  5-C ) :   2.4721

MP2 TOTAL ENERGY:     -320.736627000 Eh
FINAL SINGLE POINT ENERGY      -320.736627000174

DIPOLE MOMENT
-------------
                                X             Y             Z
Electronic contribution:      2.69644      -0.59595      -0.05665
Nuclear contribution   :     -5.23458       1.74315       0.29902
                        -----------------------------------------
Total Dipole Moment    :     -2.53815       1.14721       0.24237
                        -----------------------------------------
Magnitude (a.u.)       :      2.79589
Magnitude (Debye)      :      7.10659

Rotational constants in cm-1:     0.376876     0.060335     0.052033
Rotational constants in MHz : 11298.466461  1808.798620  1559.914252

                             ****ORCA TERMINATED NORMALLY****
TOTAL RUN TIME: 0 days 0 hours 1 minutes 41 seconds 70 msec
