                         Program Version 5.0.3 -  RELEASE  -
|  1> !ri-mp2 aug-cc-pvtz aug-cc-pvtz/c tightscf
|  2> %pal nprocs 16 end
|  3>
|  4> * xyz 0 1
|  5> S    -1.754466   -0.335189   -0.197249
|  6> F     1.013789    1.522561   -0.771068
|  7> F     2.045030   -1.036519    0.178958
|  8> N     0.632941    0.772412    0.482854
|  9> C     0.799133   -0.571033    0.149039
| 10> C    -0.780143    1.004087    0.668274
| 11> C    -0.280485   -1.267924   -0.221740
| 12> H    -0.988442    0.907291    1.731910
| 13> H    -1.050908    1.989954    0.309837
| 14> H    -0.280179   -2.306271   -0.510189
| 15> *
| 16>
| 17>                          ****END OF INPUT****

CARTESIAN COORDINATES (ANGSTROEM)
---------------------------------
  S     -1.754466   -0.335189   -0.197249
  F      1.013789    1.522561   -0.771068
  F      2.045030   -1.036519    0.178958
  N      0.632941    0.772412    0.482854
  C      0.799133   -0.571033    0.149039
  C     -0.780143    1.004087    0.668274
  C     -0.280485   -1.267924   -0.221740
  H     -0.988442    0.907291    1.731910
  H     -1.050908    1.989954    0.309837
  H     -0.280179   -2.306271   -0.510189

 Total Charge           Charge          ....    0
 Multiplicity           Mult            ....    1
 Number of Electrons    NEL             ....   62
 Basis Dimension        Dim             ....  395

ORBITAL ENERGIES
----------------

  NO   OCC          E(Eh)            E(eV)
   0   2.0000     -91.992873     -2503.2533
   1   2.0000     -26.336590      -716.6550
   2   2.0000     -26.299367      -715.6422
   3   2.0000     -15.699747      -427.2118
   4   2.0000     -11.375973      -309.5560
   5   2.0000     -11.330698      -308.3240
   6   2.0000     -11.302845      -307.5661
   7   2.0000      -8.993073      -244.7140
   8   2.0000      -6.674158      -181.6131
   9   2.0000      -6.673314      -181.5901
  10   2.0000      -6.672152      -181.5585
  11   2.0000      -1.657959       -45.1154
  12   2.0000      -1.579303       -42.9750
  13   2.0000      -1.281833       -34.8804
  14   2.0000      -1.087367       -29.5887
  15   2.0000      -1.031667       -28.0731
  16   2.0000      -0.878947       -23.9174
  17   2.0000      -0.829317       -22.5668
  18   2.0000      -0.763175       -20.7670
  19   2.0000      -0.735599       -20.0167
  20   2.0000      -0.720253       -19.5991
  21   2.0000      -0.687720       -18.7138
  22   2.0000      -0.672970       -18.3124
  23   2.0000      -0.656180       -17.8556
  24   2.0000      -0.604495       -16.4491
  25   2.0000      -0.596284       -16.2257
  26   2.0000      -0.552794       -15.0423
  27   2.0000      -0.537387       -14.6230
  28   2.0000      -0.479120       -13.0375
  29   2.0000      -0.447709       -12.1828
  30   2.0000      -0.339503        -9.2383
  31   0.0000       0.027702         0.7538
  32   0.0000       0.032581         0.8866
  33   0.0000       0.043636         1.1874
  34   0.0000       0.058004         1.5784
  35   0.0000       0.073633         2.0037

MULLIKEN ATOMIC CHARGES
-----------------------
   0 S :   -0.213791
   1 F :   -0.447972
   2 F :   -0.366566
   3 N :    0.002658
   4 C :    0.515580
   5 C :   -0.180170
   6 C :   -0.427983
   7 H :    0.296065
   8 H :    0.347116
   9 H :    0.475063
Sum of atomic charges:    0.0000000

LOEWDIN ATOMIC CHARGES
----------------------
   0 S :    1.176308
   1 F :    0.255500
   2 F :    0.501584
   3 N :   -0.046940
   4 C :   -0.800808
   5 C :   -0.163678
   6 C :   -0.223680
   7 H :   -0.222550
   8 H :   -0.223804
   9 H :   -0.251933

  Mayer bond orders larger than 0.100000
B(  0-S ,  5-C ) :   1.0191 B(  0-S ,  6-C ) :   1.0406 B(  1-F ,  3-N ) :   0.6980
B(  2-F ,  4-C ) :   0.7629 B(  2-F ,  6-C ) :   0.1045 B(  3-N ,  4-C ) :   0.9194
B(  3-N ,  5-C ) :   0.8044 B(  4-C ,  6-C ) :   1.6382 B(  5-C ,  7-H ) :   0.8963
B(  5-C ,  8-H ) :   0.8580 B(  6-C ,  9-H ) :   0.7503

MP2 TOTAL ENERGY:     -767.620226579 Eh
FINAL SINGLE POINT ENERGY      -767.620226578526

DIPOLE MOMENT
-------------
                                X             Y             Z
Electronic contribution:      4.02513      -0.49384      -1.50316
Nuclear contribution   :     -4.99595       0.11901       2.00994
                        -----------------------------------------
Total Dipole Moment    :     -0.97082      -0.37482       0.50679
                        -----------------------------------------
Magnitude (a.u.)       :      1.15751
Magnitude (Debye)      :      2.94215

Rotational constants in cm-1:     0.114003     0.068266     0.049101
Rotational constants in MHz :  3417.735676  2046.570339  1472.018176

                             ****ORCA TERMINATED NORMALLY****
TOTAL RUN TIME: 0 days 0 hours 2 minutes 39 seconds 254 msec
