                         Program Version 5.0.3 -  RELEASE  -
|  1> !ri-mp2 aug-cc-pvtz aug-cc-pvtz/c tightscf
|  2> %pal nprocs 16 end
|  3>
|  4> * xyz 0 1
|  5> S      3.337777   -0.078999   -0.008241
|  6> N      0.585203    0.215569    0.016899
|  7> N     -4.172513   -0.426062   -0.009011
|  8> C     -0.703901   -0.405684    0.011919
|  9> C     -1.805058    0.666399   -0.001765
| 10> C     -3.134377    0.067327   -0.005912
| 11> C      1.762573    0.040262    0.005120
| 12> H     -0.797866   -1.046210   -0.866960
| 13> H     -0.809327   -1.034429    0.897962
| 14> H     -1.695465    1.298430   -0.884021
| 15> H     -1.706021    1.309821    0.873498
| 16> *
| 17>
| 18>                          ****END OF INPUT****

CARTESIAN COORDINATES (ANGSTROEM)
---------------------------------
  S      3.337777   -0.078999   -0.008241
  N      0.585203    0.215569    0.016899
  N     -4.172513   -0.426062   -0.009011
  C     -0.703901   -0.405684    0.011919
  C     -1.805058    0.666399   -0.001765
  C     -3.134377    0.067327   -0.005912
  C      1.762573    0.040262    0.005120
  H     -0.797866   -1.046210   -0.866960
  H     -0.809327   -1.034429    0.897962
  H     -1.695465    1.298430   -0.884021
  H     -1.706021    1.309821    0.873498

 Total Charge           Charge          ....    0
 Multiplicity           Mult            ....    1
 Number of Electrons    NEL             ....   58
 Basis Dimension        Dim             ....  418

ORBITAL ENERGIES
----------------

  NO   OCC          E(Eh)            E(eV)
   0   2.0000     -91.962319     -2502.4219
   1   2.0000     -15.623850      -425.1466
   2   2.0000     -15.587059      -424.1454
   3   2.0000     -11.391162      -309.9693
   4   2.0000     -11.337450      -308.5077
   5   2.0000     -11.307749      -307.6995
   6   2.0000     -11.290087      -307.2189
   7   2.0000      -8.965571      -243.9656
   8   2.0000      -6.647188      -180.8792
   9   2.0000      -6.644644      -180.8100
  10   2.0000      -6.644418      -180.8038
  11   2.0000      -1.314472       -35.7686
  12   2.0000      -1.240547       -33.7570
  13   2.0000      -1.123074       -30.5604
  14   2.0000      -1.045736       -28.4559
  15   2.0000      -0.961697       -26.1691
  16   2.0000      -0.774012       -21.0620
  17   2.0000      -0.710495       -19.3336
  18   2.0000      -0.702685       -19.1210
  19   2.0000      -0.640528       -17.4297
  20   2.0000      -0.615208       -16.7407
  21   2.0000      -0.607990       -16.5443
  22   2.0000      -0.572051       -15.5663
  23   2.0000      -0.550669       -14.9845
  24   2.0000      -0.538477       -14.6527
  25   2.0000      -0.479259       -13.0413
  26   2.0000      -0.478181       -13.0120
  27   2.0000      -0.380728       -10.3601
  28   2.0000      -0.370657       -10.0861
  29   0.0000       0.021979         0.5981
  30   0.0000       0.033502         0.9116
  31   0.0000       0.034707         0.9444
  32   0.0000       0.052178         1.4198
  33   0.0000       0.054032         1.4703

MULLIKEN ATOMIC CHARGES
-----------------------
   0 S :   -0.351516
   1 N :    0.031228
   2 N :   -0.568440
   3 C :    0.003522
   4 C :   -0.024905
   5 C :    0.029122
   6 C :   -0.402852
   7 H :    0.327831
   8 H :    0.329880
   9 H :    0.312915
  10 H :    0.313215
Sum of atomic charges:    0.0000000

LOEWDIN ATOMIC CHARGES
----------------------
   0 S :    0.831641
   1 N :    0.229857
   2 N :    0.266438
   3 C :    0.114318
   4 C :    0.235638
   5 C :   -0.205993
   6 C :   -0.874155
   7 H :   -0.143458
   8 H :   -0.143552
   9 H :   -0.155368
  10 H :   -0.155366

  Mayer bond orders larger than 0.100000
B(  0-S ,  6-C ) :   1.8455 B(  1-N ,  3-C ) :   0.5300 B(  1-N ,  6-C ) :   1.9968
B(  2-N ,  5-C ) :   2.2627 B(  3-C ,  4-C ) :   0.8610 B(  3-C ,  5-C ) :   0.1293
B(  3-C ,  6-C ) :  -0.2697 B(  3-C ,  7-H ) :   0.9108 B(  3-C ,  8-H ) :   0.9105
B(  4-C ,  5-C ) :   0.7945 B(  4-C ,  9-H ) :   0.9159 B(  4-C , 10-H ) :   0.9147

MP2 TOTAL ENERGY:     -661.525011480 Eh
FINAL SINGLE POINT ENERGY      -661.525011479714

DIPOLE MOMENT
-------------
                                X             Y             Z
Electronic contribution:      5.29807      -0.18841      -0.01439
Nuclear contribution   :     -4.98528       0.51362       0.02018
                        -----------------------------------------
Total Dipole Moment    :      0.31279       0.32521       0.00579
                        -----------------------------------------
Magnitude (a.u.)       :      0.45126
Magnitude (Debye)      :      1.14701

Rotational constants in cm-1:     0.863872     0.020652     0.020322
Rotational constants in MHz : 25898.242208   619.127326   609.245355

                             ****ORCA TERMINATED NORMALLY****
TOTAL RUN TIME: 0 days 0 hours 2 minutes 34 seconds 722 msec
