                         Program Version 5.0.3 -  RELEASE  -
|  1> !ri-mp2 aug-cc-pvtz aug-cc-pvtz/c tightscf
|  2> %pal nprocs 16 end
|  3>
|  4> * xyz 0 1
|  5> S     -1.154148   -0.066919   -0.130433
|  6> O      0.068806   -1.262764    0.214972
|  7> N     -0.111862    1.263970    0.119104
|  8> C      1.205240    0.713893   -0.140345
|  9> C      1.248577   -0.612642   -0.043800
| 10> H      2.033948    1.375479   -0.327363
| 11> H     -0.169651    1.597164    1.080067
| 12> H      2.111755   -1.255125   -0.114406
| 13> *
| 14>
| 15>                          ****END OF INPUT****

CARTESIAN COORDINATES (ANGSTROEM)
---------------------------------
  S     -1.154148   -0.066919   -0.130433
  O      0.068806   -1.262764    0.214972
  N     -0.111862    1.263970    0.119104
  C      1.205240    0.713893   -0.140345
  C      1.248577   -0.612642   -0.043800
  H      2.033948    1.375479   -0.327363
  H     -0.169651    1.597164    1.080067
  H      2.111755   -1.255125   -0.114406

 Total Charge           Charge          ....    0
 Multiplicity           Mult            ....    1
 Number of Electrons    NEL             ....   46
 Basis Dimension        Dim             ....  303

ORBITAL ENERGIES
----------------

  NO   OCC          E(Eh)            E(eV)
   0   2.0000     -92.036703     -2504.4460
   1   2.0000     -20.610382      -560.8370
   2   2.0000     -15.608036      -424.7162
   3   2.0000     -11.306389      -307.6625
   4   2.0000     -11.271741      -306.7197
   5   2.0000      -9.028587      -245.6803
   6   2.0000      -6.709349      -182.5707
   7   2.0000      -6.708156      -182.5382
   8   2.0000      -6.706245      -182.4862
   9   2.0000      -1.416397       -38.5421
  10   2.0000      -1.233609       -33.5682
  11   2.0000      -1.031477       -28.0679
  12   2.0000      -0.891998       -24.2725
  13   2.0000      -0.806577       -21.9481
  14   2.0000      -0.720001       -19.5922
  15   2.0000      -0.679779       -18.4977
  16   2.0000      -0.611811       -16.6482
  17   2.0000      -0.598487       -16.2857
  18   2.0000      -0.564928       -15.3725
  19   2.0000      -0.515997       -14.0410
  20   2.0000      -0.478364       -13.0169
  21   2.0000      -0.386047       -10.5049
  22   2.0000      -0.329175        -8.9573
  23   0.0000       0.027865         0.7583
  24   0.0000       0.037498         1.0204
  25   0.0000       0.042862         1.1663
  26   0.0000       0.064159         1.7458
  27   0.0000       0.072608         1.9758

MULLIKEN ATOMIC CHARGES
-----------------------
   0 S :    0.257489
   1 O :   -0.596270
   2 N :   -0.311438
   3 C :   -0.384533
   4 C :   -0.267221
   5 H :    0.555639
   6 H :    0.104900
   7 H :    0.641435
Sum of atomic charges:    0.0000000

LOEWDIN ATOMIC CHARGES
----------------------
   0 S :    0.872552
   1 O :    0.136440
   2 N :    0.107347
   3 C :   -0.047646
   4 C :   -0.232435
   5 H :   -0.210259
   6 H :   -0.416444
   7 H :   -0.209555

  Mayer bond orders larger than 0.100000
B(  0-S ,  1-O ) :   0.7450 B(  0-S ,  2-N ) :   0.9728 B(  0-S ,  3-C ) :   0.1315
B(  1-O ,  4-C ) :   0.8618 B(  2-N ,  3-C ) :   0.7212 B(  2-N ,  6-H ) :   0.9844
B(  3-C ,  4-C ) :   1.7440 B(  3-C ,  5-H ) :   0.6718 B(  4-C ,  7-H ) :   0.5584

MP2 TOTAL ENERGY:     -605.277970746 Eh
FINAL SINGLE POINT ENERGY      -605.277970746253

DIPOLE MOMENT
-------------
                                X             Y             Z
Electronic contribution:     -3.28092      -1.27399      -0.28172
Nuclear contribution   :      3.88960       1.65498       0.62668
                        -----------------------------------------
Total Dipole Moment    :      0.60868       0.38098       0.34495
                        -----------------------------------------
Magnitude (a.u.)       :      0.79664
Magnitude (Debye)      :      2.02490

Rotational constants in cm-1:     0.248936     0.185970     0.110624
Rotational constants in MHz :  7462.919529  5575.228625  3316.428262

                             ****ORCA TERMINATED NORMALLY****
TOTAL RUN TIME: 0 days 0 hours 1 minutes 26 seconds 846 msec
