                         Program Version 5.0.3 -  RELEASE  -
|  1> !ri-mp2 aug-cc-pvtz aug-cc-pvtz/c tightscf
|  2> %pal nprocs 16 end
|  3>
|  4> * xyz 0 1
|  5> C      2.526085   -0.224091   -0.000065
|  6> C      1.294342   -0.739554    0.000012
|  7> C      0.034400    0.006499   -0.000010
|  8> C     -1.115939   -0.688795    0.000099
|  9> C     -2.521058   -0.179706    0.000118
| 10> C      0.114883    1.508528   -0.000144
| 11> H      3.396043   -0.865751   -0.000039
| 12> H      2.711374    0.841312   -0.000153
| 13> H      1.189188   -1.820097    0.000100
| 14> H     -1.028922   -1.771727    0.000189
| 15> H     -3.063558   -0.549262    0.875060
| 16> H     -2.589482    0.905588   -0.000006
| 17> H     -3.063659   -0.549470   -0.874672
| 18> H      0.658431    1.866471   -0.877450
| 19> H     -0.864162    1.979015   -0.000164
| 20> H      0.658474    1.866628    0.877071
| 21> *
| 22>
| 23>                          ****END OF INPUT****

CARTESIAN COORDINATES (ANGSTROEM)
---------------------------------
  C      2.526085   -0.224091   -0.000065
  C      1.294342   -0.739554    0.000012
  C      0.034400    0.006499   -0.000010
  C     -1.115939   -0.688795    0.000099
  C     -2.521058   -0.179706    0.000118
  C      0.114883    1.508528   -0.000144
  H      3.396043   -0.865751   -0.000039
  H      2.711374    0.841312   -0.000153
  H      1.189188   -1.820097    0.000100
  H     -1.028922   -1.771727    0.000189
  H     -3.063558   -0.549262    0.875060
  H     -2.589482    0.905588   -0.000006
  H     -3.063659   -0.549470   -0.874672
  H      0.658431    1.866471   -0.877450
  H     -0.864162    1.979015   -0.000164
  H      0.658474    1.866628    0.877071

 Total Charge           Charge          ....    0
 Multiplicity           Mult            ....    1
 Number of Electrons    NEL             ....   46
 Basis Dimension        Dim             ....  506

ORBITAL ENERGIES
----------------

  NO   OCC          E(Eh)            E(eV)
   0   2.0000     -11.234804      -305.7146
   1   2.0000     -11.231419      -305.6224
   2   2.0000     -11.230118      -305.5870
   3   2.0000     -11.222379      -305.3764
   4   2.0000     -11.217816      -305.2523
   5   2.0000     -11.217787      -305.2515
   6   2.0000      -1.112414       -30.2703
   7   2.0000      -1.026710       -27.9382
   8   2.0000      -0.971387       -26.4328
   9   2.0000      -0.909900       -24.7596
  10   2.0000      -0.786776       -21.4093
  11   2.0000      -0.709678       -19.3113
  12   2.0000      -0.661116       -17.9899
  13   2.0000      -0.612610       -16.6700
  14   2.0000      -0.579467       -15.7681
  15   2.0000      -0.572300       -15.5731
  16   2.0000      -0.557302       -15.1649
  17   2.0000      -0.537394       -14.6232
  18   2.0000      -0.521431       -14.1888
  19   2.0000      -0.508917       -13.8483
  20   2.0000      -0.473152       -12.8751
  21   2.0000      -0.415858       -11.3161
  22   2.0000      -0.308670        -8.3993
  23   0.0000       0.029704         0.8083
  24   0.0000       0.033235         0.9044
  25   0.0000       0.036514         0.9936
  26   0.0000       0.045330         1.2335
  27   0.0000       0.048708         1.3254

MULLIKEN ATOMIC CHARGES
-----------------------
   0 C :   -1.022262
   1 C :   -0.439415
   2 C :    1.780554
   3 C :   -1.061864
   4 C :   -0.834671
   5 C :   -0.805055
   6 H :    0.444341
   7 H :    0.250538
   8 H :    0.013323
   9 H :    0.142908
  10 H :    0.231495
  11 H :    0.367101
  12 H :    0.231488
  13 H :    0.191639
  14 H :    0.318236
  15 H :    0.191643
Sum of atomic charges:    0.0000000

LOEWDIN ATOMIC CHARGES
----------------------
   0 C :    0.529929
   1 C :    0.156556
   2 C :   -0.126693
   3 C :    0.233049
   4 C :    0.569550
   5 C :    0.561460
   6 H :   -0.227248
   7 H :   -0.231393
   8 H :   -0.200838
   9 H :   -0.193833
  10 H :   -0.171023
  11 H :   -0.200929
  12 H :   -0.171024
  13 H :   -0.164367
  14 H :   -0.198828
  15 H :   -0.164367

  Mayer bond orders larger than 0.100000
B(  0-C ,  1-C ) :   1.1724 B(  0-C ,  3-C ) :   0.1132 B(  0-C ,  6-H ) :   0.7365
B(  0-C ,  7-H ) :   1.1849 B(  1-C ,  2-C ) :   0.4164 B(  1-C ,  8-H ) :   1.5464
B(  1-C ,  9-H ) :  -0.1094 B(  2-C ,  3-C ) :   0.5030 B(  2-C ,  5-C ) :   0.6276
B(  2-C ,  8-H ) :  -0.1065 B(  2-C ,  9-H ) :  -0.1931 B(  3-C ,  4-C ) :   0.6777
B(  3-C ,  8-H ) :  -0.1199 B(  3-C ,  9-H ) :   1.4390 B(  4-C , 10-H ) :   1.0685
B(  4-C , 11-H ) :   0.8360 B(  4-C , 12-H ) :   1.0685 B(  5-C , 13-H ) :   1.0852
B(  5-C , 14-H ) :   0.8483 B(  5-C , 15-H ) :   1.0852

MP2 TOTAL ENERGY:     -234.096774118 Eh
FINAL SINGLE POINT ENERGY      -234.096774118425

DIPOLE MOMENT
-------------
                                X             Y             Z
Electronic contribution:      1.82157      -1.93214       0.00008
Nuclear contribution   :     -2.09944       2.00104      -0.00007
                        -----------------------------------------
Total Dipole Moment    :     -0.27787       0.06890       0.00001
                        -----------------------------------------
Magnitude (a.u.)       :      0.28629
Magnitude (Debye)      :      0.72768

Rotational constants in cm-1:     0.263321     0.070205     0.056579
Rotational constants in MHz :  7894.168451  2104.695051  1696.186798

                             ****ORCA TERMINATED NORMALLY****
TOTAL RUN TIME: 0 days 0 hours 4 minutes 21 seconds 823 msec
