                         Program Version 5.0.3 -  RELEASE  -
|  1> !ri-mp2 aug-cc-pvtz aug-cc-pvtz/c tightscf
|  2> %pal nprocs 16 end
|  3>
|  4> * xyz 0 1
|  5> Cl   -0.294090    2.071082   -0.000003
|  6> S     2.440221   -0.174159    0.000001
|  7> O    -1.231702   -1.742984    0.000002
|  8> O    -2.709242   -0.031225    0.000000
|  9> C    -0.315568    0.356447    0.000000
| 10> C     0.729367   -0.479618    0.000001
| 11> C    -1.577506   -0.412007    0.000000
| 12> C     0.190782   -1.883495    0.000003
| 13> H     2.338062    1.169452    0.000000
| 14> H     0.491515   -2.442798    0.888008
| 15> H     0.491515   -2.442801   -0.888000
| 16> *
| 17>
| 18>                          ****END OF INPUT****

CARTESIAN COORDINATES (ANGSTROEM)
---------------------------------
  Cl    -0.294090    2.071082   -0.000003
  S      2.440221   -0.174159    0.000001
  O     -1.231702   -1.742984    0.000002
  O     -2.709242   -0.031225    0.000000
  C     -0.315568    0.356447    0.000000
  C      0.729367   -0.479618    0.000001
  C     -1.577506   -0.412007    0.000000
  C      0.190782   -1.883495    0.000003
  H      2.338062    1.169452    0.000000
  H      0.491515   -2.442798    0.888008
  H      0.491515   -2.442801   -0.888000

 Total Charge           Charge          ....    0
 Multiplicity           Mult            ....    1
 Number of Electrons    NEL             ....   76
 Basis Dimension        Dim             ....  445

ORBITAL ENERGIES
----------------

  NO   OCC          E(Eh)            E(eV)
   0   2.0000    -104.872196     -2853.7175
   1   2.0000     -92.015998     -2503.8826
   2   2.0000     -20.622970      -561.1795
   3   2.0000     -20.556682      -559.3758
   4   2.0000     -11.400641      -310.2272
   5   2.0000     -11.337565      -308.5108
   6   2.0000     -11.334301      -308.4220
   7   2.0000     -11.325751      -308.1894
   8   2.0000     -10.595534      -288.3192
   9   2.0000      -9.017030      -245.3658
  10   2.0000      -8.062522      -219.3924
  11   2.0000      -8.060440      -219.3357
  12   2.0000      -8.060419      -219.3352
  13   2.0000      -6.698358      -182.2716
  14   2.0000      -6.697315      -182.2432
  15   2.0000      -6.696342      -182.2167
  16   2.0000      -1.477418       -40.2026
  17   2.0000      -1.386245       -37.7216
  18   2.0000      -1.205166       -32.7942
  19   2.0000      -1.120396       -30.4875
  20   2.0000      -1.018054       -27.7027
  21   2.0000      -0.996639       -27.1199
  22   2.0000      -0.820884       -22.3374
  23   2.0000      -0.790345       -21.5064
  24   2.0000      -0.713726       -19.4215
  25   2.0000      -0.706418       -19.2226
  26   2.0000      -0.666620       -18.1397
  27   2.0000      -0.647671       -17.6240
  28   2.0000      -0.591074       -16.0839
  29   2.0000      -0.585835       -15.9414
  30   2.0000      -0.557157       -15.1610
  31   2.0000      -0.549932       -14.9644
  32   2.0000      -0.537304       -14.6208
  33   2.0000      -0.488252       -13.2860
  34   2.0000      -0.481985       -13.1155
  35   2.0000      -0.458289       -12.4707
  36   2.0000      -0.458287       -12.4706
  37   2.0000      -0.363306        -9.8860
  38   0.0000       0.023087         0.6282
  39   0.0000       0.033628         0.9151
  40   0.0000       0.038873         1.0578
  41   0.0000       0.055702         1.5157
  42   0.0000       0.070996         1.9319

MULLIKEN ATOMIC CHARGES
-----------------------
   0 Cl:   -0.349328
   1 S :   -0.411630
   2 O :   -0.331909
   3 O :   -0.699391
   4 C :    0.572576
   5 C :    0.266021
   6 C :    0.272437
   7 C :   -0.144923
   8 H :    0.175504
   9 H :    0.325322
  10 H :    0.325322
Sum of atomic charges:   -0.0000000

LOEWDIN ATOMIC CHARGES
----------------------
   0 Cl:    1.017680
   1 S :    1.367599
   2 O :    0.570746
   3 O :    0.420339
   4 C :   -0.870149
   5 C :   -0.670393
   6 C :   -0.917260
   7 C :   -0.031724
   8 H :   -0.571779
   9 H :   -0.157530
  10 H :   -0.157530

  Mayer bond orders larger than 0.100000
B(  0-Cl,  4-C ) :   0.5958 B(  0-Cl,  5-C ) :   0.1375 B(  1-S ,  4-C ) :   0.1995
B(  1-S ,  5-C ) :   0.7148 B(  1-S ,  8-H ) :   1.0401 B(  2-O ,  3-O ) :  -0.1026
B(  2-O ,  6-C ) :   1.0133 B(  2-O ,  7-C ) :   0.6927 B(  3-O ,  6-C ) :   1.6149
B(  4-C ,  5-C ) :   1.4669 B(  4-C ,  6-C ) :   0.8033 B(  5-C ,  6-C ) :   0.1399
B(  5-C ,  7-C ) :   0.9212 B(  7-C ,  9-H ) :   0.9148 B(  7-C , 10-H ) :   0.9148

MP2 TOTAL ENERGY:    -1161.588198370 Eh
FINAL SINGLE POINT ENERGY     -1161.588198369559

DIPOLE MOMENT
-------------
                                X             Y             Z
Electronic contribution:     -1.40199       5.97416      -0.00001
Nuclear contribution   :      3.41661      -6.35257       0.00001
                        -----------------------------------------
Total Dipole Moment    :      2.01463      -0.37842       0.00000
                        -----------------------------------------
Magnitude (a.u.)       :      2.04986
Magnitude (Debye)      :      5.21033

Rotational constants in cm-1:     0.063543     0.044234     0.026208
Rotational constants in MHz :  1904.969621  1326.099439   785.704683

                             ****ORCA TERMINATED NORMALLY****
TOTAL RUN TIME: 0 days 0 hours 3 minutes 38 seconds 423 msec
