                         Program Version 5.0.3 -  RELEASE  -
|  1> !ri-mp2 aug-cc-pvtz aug-cc-pvtz/c tightscf
|  2> %pal nprocs 16 end
|  3>
|  4> * xyz 0 1
|  5> C     -0.725688    1.839957    0.003904
|  6> C     -1.772672    0.931790   -0.002269
|  7> C      0.599144    1.416167    0.004591
|  8> C     -0.184148   -0.880797   -0.007062
|  9> C     -1.513782   -0.444159   -0.007235
| 10> C      0.841141    0.050127   -0.000913
| 11> N     -2.554624   -1.364322   -0.068662
| 12> Cl     2.499376   -0.526961    0.002399
| 13> H     -0.942366    2.899755    0.008952
| 14> H     -2.796213    1.283658   -0.007912
| 15> H      1.416937    2.119885    0.009926
| 16> H      0.045646   -1.937052   -0.016153
| 17> H     -3.451270   -1.039482    0.252768
| 18> H     -2.343722   -2.296693    0.246175
| 19> *
| 20>
| 21>                          ****END OF INPUT****

CARTESIAN COORDINATES (ANGSTROEM)
---------------------------------
  C     -0.725688    1.839957    0.003904
  C     -1.772672    0.931790   -0.002269
  C      0.599144    1.416167    0.004591
  C     -0.184148   -0.880797   -0.007062
  C     -1.513782   -0.444159   -0.007235
  C      0.841141    0.050127   -0.000913
  N     -2.554624   -1.364322   -0.068662
  Cl     2.499376   -0.526961    0.002399
  H     -0.942366    2.899755    0.008952
  H     -2.796213    1.283658   -0.007912
  H      1.416937    2.119885    0.009926
  H      0.045646   -1.937052   -0.016153
  H     -3.451270   -1.039482    0.252768
  H     -2.343722   -2.296693    0.246175

 Total Charge           Charge          ....    0
 Multiplicity           Mult            ....    1
 Number of Electrons    NEL             ....   66
 Basis Dimension        Dim             ....  510

ORBITAL ENERGIES
----------------

  NO   OCC          E(Eh)            E(eV)
   0   2.0000    -104.837556     -2852.7749
   1   2.0000     -15.575988      -423.8442
   2   2.0000     -11.305113      -307.6278
   3   2.0000     -11.294059      -307.3270
   4   2.0000     -11.248750      -306.0941
   5   2.0000     -11.237498      -305.7879
   6   2.0000     -11.233153      -305.6696
   7   2.0000     -11.232688      -305.6570
   8   2.0000     -10.561186      -287.3845
   9   2.0000      -8.028054      -218.4545
  10   2.0000      -8.026210      -218.4043
  11   2.0000      -8.026202      -218.4041
  12   2.0000      -1.239350       -33.7244
  13   2.0000      -1.173519       -31.9331
  14   2.0000      -1.103486       -30.0274
  15   2.0000      -1.013604       -27.5816
  16   2.0000      -0.989055       -26.9136
  17   2.0000      -0.842537       -22.9266
  18   2.0000      -0.820115       -22.3165
  19   2.0000      -0.710738       -19.3402
  20   2.0000      -0.701257       -19.0822
  21   2.0000      -0.667924       -18.1751
  22   2.0000      -0.617983       -16.8162
  23   2.0000      -0.608333       -16.5536
  24   2.0000      -0.583969       -15.8906
  25   2.0000      -0.558250       -15.1907
  26   2.0000      -0.530292       -14.4300
  27   2.0000      -0.505087       -13.7441
  28   2.0000      -0.500460       -13.6182
  29   2.0000      -0.451698       -12.2913
  30   2.0000      -0.440898       -11.9975
  31   2.0000      -0.342097        -9.3089
  32   2.0000      -0.306250        -8.3335
  33   0.0000       0.023400         0.6367
  34   0.0000       0.031730         0.8634
  35   0.0000       0.037811         1.0289
  36   0.0000       0.048113         1.3092
  37   0.0000       0.052629         1.4321

MULLIKEN ATOMIC CHARGES
-----------------------
   0 C :   -0.218631
   1 C :   -0.667209
   2 C :   -0.888893
   3 C :   -1.033882
   4 C :    1.315626
   5 C :    0.605850
   6 N :   -0.729407
   7 Cl:   -0.497912
   8 H :    0.483595
   9 H :    0.465758
  10 H :    0.499818
  11 H :    0.533265
  12 H :    0.063476
  13 H :    0.068547
Sum of atomic charges:    0.0000000

LOEWDIN ATOMIC CHARGES
----------------------
   0 C :    0.176475
   1 C :    0.216173
   2 C :    0.098045
   3 C :    0.123558
   4 C :   -0.254884
   5 C :   -0.769422
   6 N :    0.853933
   7 Cl:    0.954534
   8 H :   -0.179967
   9 H :   -0.185210
  10 H :   -0.212450
  11 H :   -0.205477
  12 H :   -0.307872
  13 H :   -0.307435

  Mayer bond orders larger than 0.100000
B(  0-C ,  1-C ) :   1.0254 B(  0-C ,  2-C ) :   1.1463 B(  0-C ,  3-C ) :  -0.1274
B(  0-C ,  8-H ) :   0.7990 B(  1-C ,  2-C ) :   0.2846 B(  1-C ,  3-C ) :   0.4348
B(  1-C ,  4-C ) :   0.6605 B(  1-C ,  5-C ) :  -0.1482 B(  1-C ,  6-N ) :  -0.1700
B(  1-C ,  9-H ) :   0.6990 B(  2-C ,  3-C ) :   0.4680 B(  2-C ,  4-C ) :  -0.1264
B(  2-C ,  5-C ) :   1.0463 B(  2-C , 10-H ) :   0.7718 B(  3-C ,  4-C ) :   0.5688
B(  3-C ,  5-C ) :   1.0569 B(  3-C ,  6-N ) :  -0.1376 B(  3-C ,  7-Cl) :   0.1209
B(  3-C , 11-H ) :   0.5792 B(  4-C ,  6-N ) :   0.7217 B(  5-C ,  7-Cl) :   0.7134
B(  6-N , 12-H ) :   1.1131 B(  6-N , 13-H ) :   1.1066

MP2 TOTAL ENERGY:     -746.140401281 Eh
FINAL SINGLE POINT ENERGY      -746.140401281020

DIPOLE MOMENT
-------------
                                X             Y             Z
Electronic contribution:     10.21448      -1.78421      -0.11711
Nuclear contribution   :    -11.33071       1.72555       0.47601
                        -----------------------------------------
Total Dipole Moment    :     -1.11624      -0.05866       0.35890
                        -----------------------------------------
Magnitude (a.u.)       :      1.17398
Magnitude (Debye)      :      2.98402

Rotational constants in cm-1:     0.114179     0.039631     0.029439
Rotational constants in MHz :  3423.004681  1188.117452   882.546841

                             ****ORCA TERMINATED NORMALLY****
TOTAL RUN TIME: 0 days 0 hours 5 minutes 21 seconds 409 msec
