                         Program Version 5.0.3 -  RELEASE  -
|  1> !ri-mp2 aug-cc-pvtz aug-cc-pvtz/c tightscf
|  2> %pal nprocs 16 end
|  3>
|  4> * xyz 0 1
|  5> C      1.635229    1.169984    0.080429
|  6> C      0.276934    1.186693   -0.201516
|  7> C      2.267258   -0.057658    0.237114
|  8> C      0.324908   -1.186647   -0.148460
|  9> C     -0.416052   -0.015986   -0.320449
| 10> C     -2.745423    0.061771    0.682967
| 11> C     -1.897892   -0.062347   -0.591011
| 12> N      1.628799   -1.222087    0.123692
| 13> H      2.197669    2.088931    0.173539
| 14> H     -0.242156    2.128401   -0.334054
| 15> H      3.327219   -0.108700    0.457919
| 16> H     -0.166546   -2.150313   -0.242291
| 17> H     -2.523086   -0.747211    1.379701
| 18> H     -3.809451    0.022818    0.446195
| 19> H     -2.548064    1.004033    1.195978
| 20> H     -2.164854    0.740982   -1.281320
| 21> H     -2.142103   -0.999187   -1.095962
| 22> *
| 23>
| 24>                          ****END OF INPUT****

CARTESIAN COORDINATES (ANGSTROEM)
---------------------------------
  C      1.635229    1.169984    0.080429
  C      0.276934    1.186693   -0.201516
  C      2.267258   -0.057658    0.237114
  C      0.324908   -1.186647   -0.148460
  C     -0.416052   -0.015986   -0.320449
  C     -2.745423    0.061771    0.682967
  C     -1.897892   -0.062347   -0.591011
  N      1.628799   -1.222087    0.123692
  H      2.197669    2.088931    0.173539
  H     -0.242156    2.128401   -0.334054
  H      3.327219   -0.108700    0.457919
  H     -0.166546   -2.150313   -0.242291
  H     -2.523086   -0.747211    1.379701
  H     -3.809451    0.022818    0.446195
  H     -2.548064    1.004033    1.195978
  H     -2.164854    0.740982   -1.281320
  H     -2.142103   -0.999187   -1.095962

 Total Charge           Charge          ....    0
 Multiplicity           Mult            ....    1
 Number of Electrons    NEL             ....   58
 Basis Dimension        Dim             ....  575

ORBITAL ENERGIES
----------------

  NO   OCC          E(Eh)            E(eV)
   0   2.0000     -15.561833      -423.4590
   1   2.0000     -11.267288      -306.5985
   2   2.0000     -11.266801      -306.5852
   3   2.0000     -11.251730      -306.1751
   4   2.0000     -11.243137      -305.9413
   5   2.0000     -11.238125      -305.8049
   6   2.0000     -11.236556      -305.7622
   7   2.0000     -11.222410      -305.3773
   8   2.0000      -1.256413       -34.1887
   9   2.0000      -1.106991       -30.1228
  10   2.0000      -1.056296       -28.7433
  11   2.0000      -0.999016       -27.1846
  12   2.0000      -0.881415       -23.9845
  13   2.0000      -0.858009       -23.3476
  14   2.0000      -0.811624       -22.0854
  15   2.0000      -0.709263       -19.3000
  16   2.0000      -0.673722       -18.3329
  17   2.0000      -0.639276       -17.3956
  18   2.0000      -0.602811       -16.4033
  19   2.0000      -0.595824       -16.2132
  20   2.0000      -0.570510       -15.5244
  21   2.0000      -0.558639       -15.2013
  22   2.0000      -0.537945       -14.6382
  23   2.0000      -0.514940       -14.0122
  24   2.0000      -0.502432       -13.6719
  25   2.0000      -0.490463       -13.3462
  26   2.0000      -0.411462       -11.1964
  27   2.0000      -0.377294       -10.2667
  28   2.0000      -0.335925        -9.1410
  29   0.0000       0.026449         0.7197
  30   0.0000       0.031246         0.8502
  31   0.0000       0.037078         1.0089
  32   0.0000       0.040204         1.0940
  33   0.0000       0.046514         1.2657

MULLIKEN ATOMIC CHARGES
-----------------------
   0 C :   -0.368064
   1 C :   -0.979038
   2 C :   -0.521654
   3 C :   -0.848681
   4 C :    1.451302
   5 C :   -0.905258
   6 C :   -0.358127
   7 N :   -0.599324
   8 H :    0.264919
   9 H :    0.361771
  10 H :    0.658362
  11 H :    0.533685
  12 H :    0.287461
  13 H :    0.286102
  14 H :    0.288387
  15 H :    0.237519
  16 H :    0.210637
Sum of atomic charges:   -0.0000000

LOEWDIN ATOMIC CHARGES
----------------------
   0 C :    0.202206
   1 C :    0.214691
   2 C :    0.005388
   3 C :    0.033467
   4 C :   -0.115057
   5 C :    0.589296
   6 C :    0.252890
   7 N :    0.371801
   8 H :   -0.189446
   9 H :   -0.165153
  10 H :   -0.196042
  11 H :   -0.184224
  12 H :   -0.168223
  13 H :   -0.171033
  14 H :   -0.170001
  15 H :   -0.153193
  16 H :   -0.157364

  Mayer bond orders larger than 0.100000
B(  0-C ,  1-C ) :   1.3131 B(  0-C ,  2-C ) :   0.9250 B(  0-C ,  4-C ) :  -0.1303
B(  0-C ,  8-H ) :   1.1213 B(  1-C ,  2-C ) :   0.2857 B(  1-C ,  3-C ) :   0.3535
B(  1-C ,  4-C ) :   0.6166 B(  1-C ,  9-H ) :   0.9749 B(  2-C ,  3-C ) :   0.2935
B(  2-C ,  4-C ) :  -0.1765 B(  2-C ,  7-N ) :   1.2499 B(  2-C , 10-H ) :   0.4074
B(  3-C ,  4-C ) :   0.4130 B(  3-C ,  6-C ) :  -0.1350 B(  3-C ,  7-N ) :   0.8795
B(  3-C ,  8-H ) :   0.1097 B(  3-C , 11-H ) :   0.6171 B(  4-C ,  6-C ) :   0.8202
B(  5-C ,  6-C ) :   0.8679 B(  5-C , 12-H ) :   0.9517 B(  5-C , 13-H ) :   0.9516
B(  5-C , 14-H ) :   0.9391 B(  6-C , 15-H ) :   1.0003 B(  6-C , 16-H ) :   1.0006

MP2 TOTAL ENERGY:     -326.233406274 Eh
FINAL SINGLE POINT ENERGY      -326.233406274430

DIPOLE MOMENT
-------------
                                X             Y             Z
Electronic contribution:      7.56174      -1.23128      -0.82546
Nuclear contribution   :     -8.19514       2.00520       0.71202
                        -----------------------------------------
Total Dipole Moment    :     -0.63340       0.77392      -0.11344
                        -----------------------------------------
Magnitude (a.u.)       :      1.00649
Magnitude (Debye)      :      2.55830

Rotational constants in cm-1:     0.156684     0.049410     0.041156
Rotational constants in MHz :  4697.280952  1481.277675  1233.811233

                             ****ORCA TERMINATED NORMALLY****
TOTAL RUN TIME: 0 days 0 hours 6 minutes 48 seconds 778 msec
