                         Program Version 5.0.3 -  RELEASE  -
|  1> !ri-mp2 aug-cc-pvtz aug-cc-pvtz/c tightscf
|  2> %pal nprocs 16 end
|  3>
|  4> * xyz 0 1
|  5> O      0.891155   -0.824592    0.000333
|  6> O     -0.557923   -1.054738   -0.000461
|  7> N     -0.044878    1.222226   -0.000283
|  8> C      1.000131    0.519722   -0.000070
|  9> C     -1.143632    0.283846    0.000324
| 10> H      2.022843    0.872053   -0.000125
| 11> H     -1.756107    0.392727    0.898645
| 12> H     -1.757438    0.392866   -0.897042
| 13> *
| 14>
| 15>                          ****END OF INPUT****

CARTESIAN COORDINATES (ANGSTROEM)
---------------------------------
  O      0.891155   -0.824592    0.000333
  O     -0.557923   -1.054738   -0.000461
  N     -0.044878    1.222226   -0.000283
  C      1.000131    0.519722   -0.000070
  C     -1.143632    0.283846    0.000324
  H      2.022843    0.872053   -0.000125
  H     -1.756107    0.392727    0.898645
  H     -1.757438    0.392866   -0.897042

 Total Charge           Charge          ....    0
 Multiplicity           Mult            ....    1
 Number of Electrons    NEL             ....   38
 Basis Dimension        Dim             ....  299

ORBITAL ENERGIES
----------------

  NO   OCC          E(Eh)            E(eV)
   0   2.0000     -20.669351      -562.4416
   1   2.0000     -20.649431      -561.8996
   2   2.0000     -15.578357      -423.9086
   3   2.0000     -11.360658      -309.1392
   4   2.0000     -11.334176      -308.4186
   5   2.0000      -1.530096       -41.6360
   6   2.0000      -1.278724       -34.7959
   7   2.0000      -1.251881       -34.0654
   8   2.0000      -0.930240       -25.3131
   9   2.0000      -0.854657       -23.2564
  10   2.0000      -0.747162       -20.3313
  11   2.0000      -0.720327       -19.6011
  12   2.0000      -0.626024       -17.0350
  13   2.0000      -0.607401       -16.5282
  14   2.0000      -0.599631       -16.3168
  15   2.0000      -0.583502       -15.8779
  16   2.0000      -0.520708       -14.1692
  17   2.0000      -0.479757       -13.0548
  18   2.0000      -0.402843       -10.9619
  19   0.0000       0.028692         0.7807
  20   0.0000       0.037083         1.0091
  21   0.0000       0.044086         1.1996
  22   0.0000       0.074709         2.0329
  23   0.0000       0.081820         2.2264

MULLIKEN ATOMIC CHARGES
-----------------------
   0 O :   -0.308953
   1 O :   -0.347040
   2 N :   -0.461552
   3 C :   -0.242855
   4 C :   -0.001508
   5 H :    0.695949
   6 H :    0.332865
   7 H :    0.333094
Sum of atomic charges:   -0.0000000

LOEWDIN ATOMIC CHARGES
----------------------
   0 O :    0.334724
   1 O :    0.350035
   2 N :    0.342875
   3 C :   -0.317878
   4 C :   -0.160951
   5 H :   -0.190225
   6 H :   -0.179276
   7 H :   -0.179304

  Mayer bond orders larger than 0.100000
B(  0-O ,  1-O ) :   0.7814 B(  0-O ,  3-C ) :   1.0560 B(  1-O ,  4-C ) :   0.7193
B(  2-N ,  3-C ) :   1.7962 B(  2-N ,  4-C ) :   0.7740 B(  3-C ,  5-H ) :   0.4400
B(  4-C ,  6-H ) :   0.8896 B(  4-C ,  7-H ) :   0.8895

MP2 TOTAL ENERGY:     -282.642211968 Eh
FINAL SINGLE POINT ENERGY      -282.642211967966

DIPOLE MOMENT
-------------
                                X             Y             Z
Electronic contribution:      1.52184      -1.28313      -0.00090
Nuclear contribution   :     -1.45146       1.59749       0.00144
                        -----------------------------------------
Total Dipole Moment    :      0.07039       0.31436       0.00054
                        -----------------------------------------
Magnitude (a.u.)       :      0.32215
Magnitude (Debye)      :      0.81883

Rotational constants in cm-1:     0.299096     0.293192     0.152408
Rotational constants in MHz :  8966.668278  8789.679665  4569.078405

                             ****ORCA TERMINATED NORMALLY****
TOTAL RUN TIME: 0 days 0 hours 1 minutes 17 seconds 99 msec
