                         Program Version 5.0.3 -  RELEASE  -
|  1> !ri-mp2 aug-cc-pvtz aug-cc-pvtz/c tightscf
|  2> %pal nprocs 16 end
|  3>
|  4> * xyz 0 1
|  5> C     -0.101375   -1.193285    0.000050
|  6> H      0.073644   -1.818598    0.875674
|  7> H      0.073697   -1.818666   -0.875519
|  8> C     -1.534643   -0.600290   -0.000041
|  9> H     -2.112333   -0.914628    0.873359
| 10> H     -2.112265   -0.914644   -0.873479
| 11> C      2.169627   -0.018400   -0.000040
| 12> H      2.749486    0.894993   -0.000074
| 13> H      2.721180   -0.949106   -0.000022
| 14> C      0.834976    0.009041    0.000011
| 15> C     -1.306567    0.887577   -0.000018
| 16> H     -2.117586    1.602915   -0.000019
| 17> C     -0.007168    1.200885    0.000034
| 18> H      0.395073    2.204577    0.000103
| 19> *
| 20>
| 21>                          ****END OF INPUT****

CARTESIAN COORDINATES (ANGSTROEM)
---------------------------------
  C     -0.101375   -1.193285    0.000050
  H      0.073644   -1.818598    0.875674
  H      0.073697   -1.818666   -0.875519
  C     -1.534643   -0.600290   -0.000041
  H     -2.112333   -0.914628    0.873359
  H     -2.112265   -0.914644   -0.873479
  C      2.169627   -0.018400   -0.000040
  H      2.749486    0.894993   -0.000074
  H      2.721180   -0.949106   -0.000022
  C      0.834976    0.009041    0.000011
  C     -1.306567    0.887577   -0.000018
  H     -2.117586    1.602915   -0.000019
  C     -0.007168    1.200885    0.000034
  H      0.395073    2.204577    0.000103

 Total Charge           Charge          ....    0
 Multiplicity           Mult            ....    1
 Number of Electrons    NEL             ....   44
 Basis Dimension        Dim             ....  460

ORBITAL ENERGIES
----------------

  NO   OCC          E(Eh)            E(eV)
   0   2.0000     -11.237655      -305.7921
   1   2.0000     -11.234779      -305.7139
   2   2.0000     -11.229657      -305.5745
   3   2.0000     -11.225927      -305.4730
   4   2.0000     -11.225640      -305.4652
   5   2.0000     -11.208227      -304.9914
   6   2.0000      -1.146197       -31.1896
   7   2.0000      -1.016073       -27.6488
   8   2.0000      -0.974453       -26.5162
   9   2.0000      -0.875493       -23.8234
  10   2.0000      -0.767763       -20.8919
  11   2.0000      -0.714587       -19.4449
  12   2.0000      -0.666288       -18.1306
  13   2.0000      -0.625899       -17.0316
  14   2.0000      -0.591107       -16.0848
  15   2.0000      -0.548435       -14.9237
  16   2.0000      -0.514437       -13.9986
  17   2.0000      -0.514099       -13.9893
  18   2.0000      -0.495991       -13.4966
  19   2.0000      -0.469572       -12.7777
  20   2.0000      -0.424387       -11.5482
  21   2.0000      -0.304908        -8.2970
  22   0.0000       0.030001         0.8164
  23   0.0000       0.035130         0.9559
  24   0.0000       0.037536         1.0214
  25   0.0000       0.043515         1.1841
  26   0.0000       0.049969         1.3597

MULLIKEN ATOMIC CHARGES
-----------------------
   0 C :   -0.468614
   1 H :    0.230339
   2 H :    0.230292
   3 C :   -0.268302
   4 H :    0.274437
   5 H :    0.274463
   6 C :   -1.299099
   7 H :    0.394512
   8 H :    0.297000
   9 C :    1.176456
  10 C :   -0.819796
  11 H :    0.473905
  12 C :   -0.883263
  13 H :    0.387670
Sum of atomic charges:   -0.0000000

LOEWDIN ATOMIC CHARGES
----------------------
   0 C :    0.293436
   1 H :   -0.148244
   2 H :   -0.148247
   3 C :    0.278066
   4 H :   -0.153734
   5 H :   -0.153730
   6 C :    0.539211
   7 H :   -0.229966
   8 H :   -0.224399
   9 C :   -0.159845
  10 C :    0.246406
  11 H :   -0.174714
  12 C :    0.211410
  13 H :   -0.175650

  Mayer bond orders larger than 0.100000
B(  0-C ,  1-H ) :   0.9718 B(  0-C ,  2-H ) :   0.9718 B(  0-C ,  3-C ) :   1.1340
B(  0-C ,  6-C ) :  -0.1119 B(  0-C ,  9-C ) :   0.7814 B(  0-C , 10-C ) :   0.1677
B(  3-C ,  4-H ) :   0.9525 B(  3-C ,  5-H ) :   0.9525 B(  3-C , 10-C ) :   0.6699
B(  6-C ,  7-H ) :   0.8745 B(  6-C ,  8-H ) :   1.0133 B(  6-C ,  9-C ) :   1.0271
B(  6-C , 12-C ) :   0.1671 B(  9-C , 12-C ) :   0.6279 B( 10-C , 11-H ) :   0.7668
B( 10-C , 12-C ) :   1.6769 B( 12-C , 13-H ) :   0.9868

MP2 TOTAL ENERGY:     -232.900860595 Eh
FINAL SINGLE POINT ENERGY      -232.900860594566

DIPOLE MOMENT
-------------
                                X             Y             Z
Electronic contribution:     -0.02647       1.67645      -0.00000
Nuclear contribution   :     -0.33939      -1.76672       0.00002
                        -----------------------------------------
Total Dipole Moment    :     -0.36587      -0.09027       0.00002
                        -----------------------------------------
Magnitude (a.u.)       :      0.37684
Magnitude (Debye)      :      0.95785

Rotational constants in cm-1:     0.244975     0.115709     0.080915
Rotational constants in MHz :  7344.165373  3468.862663  2425.779657

                             ****ORCA TERMINATED NORMALLY****
TOTAL RUN TIME: 0 days 0 hours 3 minutes 42 seconds 696 msec
