                         Program Version 5.0.3 -  RELEASE  -
|  1> !ri-mp2 aug-cc-pvtz aug-cc-pvtz/c tightscf
|  2> %pal nprocs 16 end
|  3>
|  4> * xyz 0 1
|  5> C      0.053087    2.127284    0.000000
|  6> H     -0.448036    2.532049    0.880290
|  7> H      1.086611    2.465817    0.000000
|  8> H     -0.448036    2.532049   -0.880290
|  9> C     -0.629178   -1.458575    0.000000
| 10> O      0.709685   -1.409033    0.000000
| 11> N      1.104596   -0.064916    0.000000
| 12> C      0.000000    0.635944    0.000000
| 13> C     -1.148537   -0.210735    0.000000
| 14> H     -2.184862    0.075240    0.000000
| 15> H     -1.067559   -2.441986    0.000000
| 16> *
| 17>
| 18>                          ****END OF INPUT****

CARTESIAN COORDINATES (ANGSTROEM)
---------------------------------
  C      0.053087    2.127284    0.000000
  H     -0.448036    2.532049    0.880290
  H      1.086611    2.465817    0.000000
  H     -0.448036    2.532049   -0.880290
  C     -0.629178   -1.458575    0.000000
  O      0.709685   -1.409033    0.000000
  N      1.104596   -0.064916    0.000000
  C      0.000000    0.635944    0.000000
  C     -1.148537   -0.210735    0.000000
  H     -2.184862    0.075240    0.000000
  H     -1.067559   -2.441986    0.000000

 Total Charge           Charge          ....    0
 Multiplicity           Mult            ....    1
 Number of Electrons    NEL             ....   44
 Basis Dimension        Dim             ....  391

ORBITAL ENERGIES
----------------

  NO   OCC          E(Eh)            E(eV)
   0   2.0000     -20.641622      -561.6871
   1   2.0000     -15.615096      -424.9084
   2   2.0000     -11.315676      -307.9152
   3   2.0000     -11.286110      -307.1107
   4   2.0000     -11.240382      -305.8663
   5   2.0000     -11.237258      -305.7813
   6   2.0000      -1.488178       -40.4954
   7   2.0000      -1.175554       -31.9884
   8   2.0000      -1.070831       -29.1388
   9   2.0000      -0.987114       -26.8607
  10   2.0000      -0.832038       -22.6409
  11   2.0000      -0.778471       -21.1833
  12   2.0000      -0.722387       -19.6571
  13   2.0000      -0.656389       -17.8612
  14   2.0000      -0.624652       -16.9976
  15   2.0000      -0.588507       -16.0141
  16   2.0000      -0.585072       -15.9206
  17   2.0000      -0.554286       -15.0829
  18   2.0000      -0.539994       -14.6940
  19   2.0000      -0.475177       -12.9302
  20   2.0000      -0.412120       -11.2144
  21   2.0000      -0.368547       -10.0287
  22   0.0000       0.025615         0.6970
  23   0.0000       0.030891         0.8406
  24   0.0000       0.041146         1.1197
  25   0.0000       0.044770         1.2183
  26   0.0000       0.058499         1.5918

MULLIKEN ATOMIC CHARGES
-----------------------
   0 C :   -0.828105
   1 H :    0.298348
   2 H :    0.296374
   3 H :    0.298348
   4 C :   -0.624656
   5 O :   -0.384477
   6 N :   -0.521218
   7 C :    0.742021
   8 C :   -0.463324
   9 H :    0.478256
  10 H :    0.708432
Sum of atomic charges:    0.0000000

LOEWDIN ATOMIC CHARGES
----------------------
   0 C :    0.578910
   1 H :   -0.170810
   2 H :   -0.180010
   3 H :   -0.170810
   4 C :   -0.065220
   5 O :    0.397972
   6 N :    0.190049
   7 C :   -0.402114
   8 C :    0.198372
   9 H :   -0.194764
  10 H :   -0.181574

  Mayer bond orders larger than 0.100000
B(  0-C ,  1-H ) :   0.9537 B(  0-C ,  2-H ) :   0.9566 B(  0-C ,  3-H ) :   0.9537
B(  0-C ,  7-C ) :   0.7618 B(  4-C ,  5-O ) :   1.1356 B(  4-C ,  8-C ) :   1.2972
B(  4-C , 10-H ) :   0.4482 B(  5-O ,  6-N ) :   0.6895 B(  6-N ,  7-C ) :   1.0774
B(  7-C ,  8-C ) :   0.8899 B(  8-C ,  9-H ) :   0.8338

MP2 TOTAL ENERGY:     -284.834660600 Eh
FINAL SINGLE POINT ENERGY      -284.834660600435

DIPOLE MOMENT
-------------
                                X             Y             Z
Electronic contribution:      1.74198      -4.76902       0.00000
Nuclear contribution   :     -3.02755       5.11244       0.00000
                        -----------------------------------------
Total Dipole Moment    :     -1.28557       0.34342       0.00000
                        -----------------------------------------
Magnitude (a.u.)       :      1.33065
Magnitude (Debye)      :      3.38224

Rotational constants in cm-1:     0.307800     0.117508     0.086404
Rotational constants in MHz :  9227.608890  3522.797127  2590.315141

                             ****ORCA TERMINATED NORMALLY****
TOTAL RUN TIME: 0 days 0 hours 2 minutes 13 seconds 113 msec
