                         Program Version 5.0.3 -  RELEASE  -
|  1> !ri-mp2 aug-cc-pvtz aug-cc-pvtz/c tightscf
|  2> %pal nprocs 16 end
|  3>
|  4> * xyz 0 1
|  5> N     -1.271596   -1.030212    0.000000
|  6> C     -1.236096    0.239527    0.000000
|  7> C      0.000000    1.085157    0.000000
|  8> C      1.263984    0.348634    0.000000
|  9> C      1.244327   -0.987977    0.000000
| 10> C     -0.025532   -1.764497    0.000000
| 11> O     -0.082178    2.301599    0.000000
| 12> H     -2.173830    0.792159    0.000000
| 13> H      2.180630    0.923062    0.000000
| 14> H      2.167680   -1.557260    0.000000
| 15> H     -0.047988   -2.442167    0.862672
| 16> H     -0.047988   -2.442167   -0.862672
| 17> *
| 18>
| 19>                          ****END OF INPUT****

CARTESIAN COORDINATES (ANGSTROEM)
---------------------------------
  N     -1.271596   -1.030212    0.000000
  C     -1.236096    0.239527    0.000000
  C      0.000000    1.085157    0.000000
  C      1.263984    0.348634    0.000000
  C      1.244327   -0.987977    0.000000
  C     -0.025532   -1.764497    0.000000
  O     -0.082178    2.301599    0.000000
  H     -2.173830    0.792159    0.000000
  H      2.180630    0.923062    0.000000
  H      2.167680   -1.557260    0.000000
  H     -0.047988   -2.442167    0.862672
  H     -0.047988   -2.442167   -0.862672

 Total Charge           Charge          ....    0
 Multiplicity           Mult            ....    1
 Number of Electrons    NEL             ....   50
 Basis Dimension        Dim             ....  437

ORBITAL ENERGIES
----------------

  NO   OCC          E(Eh)            E(eV)
   0   2.0000     -20.558380      -559.4220
   1   2.0000     -15.595248      -424.3683
   2   2.0000     -11.343579      -308.6745
   3   2.0000     -11.294036      -307.3263
   4   2.0000     -11.288918      -307.1871
   5   2.0000     -11.282328      -307.0077
   6   2.0000     -11.254531      -306.2514
   7   2.0000      -1.395453       -37.9722
   8   2.0000      -1.269037       -34.5322
   9   2.0000      -1.104572       -30.0569
  10   2.0000      -1.020734       -27.7756
  11   2.0000      -0.873394       -23.7663
  12   2.0000      -0.860652       -23.4195
  13   2.0000      -0.723854       -19.6971
  14   2.0000      -0.695404       -18.9229
  15   2.0000      -0.674151       -18.3446
  16   2.0000      -0.640488       -17.4286
  17   2.0000      -0.618312       -16.8251
  18   2.0000      -0.585614       -15.9354
  19   2.0000      -0.562589       -15.3088
  20   2.0000      -0.555581       -15.1181
  21   2.0000      -0.486766       -13.2456
  22   2.0000      -0.442049       -12.0288
  23   2.0000      -0.402662       -10.9570
  24   2.0000      -0.393092       -10.6966
  25   0.0000       0.021146         0.5754
  26   0.0000       0.035469         0.9652
  27   0.0000       0.039345         1.0706
  28   0.0000       0.039859         1.0846
  29   0.0000       0.050055         1.3621

MULLIKEN ATOMIC CHARGES
-----------------------
   0 N :   -0.471346
   1 C :   -0.490865
   2 C :    0.999835
   3 C :   -0.762474
   4 C :   -0.401023
   5 C :   -0.186936
   6 O :   -0.976900
   7 H :    0.668515
   8 H :    0.511038
   9 H :    0.450917
  10 H :    0.329620
  11 H :    0.329620
Sum of atomic charges:   -0.0000000

LOEWDIN ATOMIC CHARGES
----------------------
   0 N :    0.401663
   1 C :    0.038469
   2 C :   -0.566033
   3 C :    0.214279
   4 C :    0.239282
   5 C :    0.085453
   6 O :    0.445909
   7 H :   -0.195715
   8 H :   -0.189041
   9 H :   -0.163099
  10 H :   -0.155583
  11 H :   -0.155583

  Mayer bond orders larger than 0.100000
B(  0-N ,  1-C ) :   1.6137 B(  0-N ,  5-C ) :   0.7466 B(  1-C ,  2-C ) :   0.6930
B(  1-C ,  3-C ) :   0.3575 B(  1-C ,  4-C ) :  -0.1211 B(  1-C ,  5-C ) :   0.1138
B(  1-C ,  7-H ) :   0.3688 B(  2-C ,  3-C ) :   1.0166 B(  2-C ,  6-O ) :   1.2235
B(  3-C ,  4-C ) :   1.5178 B(  3-C ,  8-H ) :   0.6460 B(  4-C ,  5-C ) :   0.9403
B(  4-C ,  9-H ) :   0.7218 B(  5-C , 10-H ) :   0.8908 B(  5-C , 11-H ) :   0.8908

MP2 TOTAL ENERGY:     -322.869752390 Eh
FINAL SINGLE POINT ENERGY      -322.869752390087

DIPOLE MOMENT
-------------
                                X             Y             Z
Electronic contribution:     -1.25443       3.26521       0.00000
Nuclear contribution   :      2.04369      -4.63701       0.00000
                        -----------------------------------------
Total Dipole Moment    :      0.78925      -1.37180       0.00000
                        -----------------------------------------
Magnitude (a.u.)       :      1.58265
Magnitude (Debye)      :      4.02276

Rotational constants in cm-1:     0.178093     0.092491     0.061543
Rotational constants in MHz :  5339.081387  2772.821321  1845.003916

                             ****ORCA TERMINATED NORMALLY****
TOTAL RUN TIME: 0 days 0 hours 3 minutes 30 seconds 348 msec
