                         Program Version 5.0.3 -  RELEASE  -
|  1> !ri-mp2 aug-cc-pvtz aug-cc-pvtz/c tightscf
|  2> %pal nprocs 16 end
|  3>
|  4> * xyz 0 1
|  5> S      2.388840   -0.228485   -0.065926
|  6> O     -1.264798    1.114379   -0.020009
|  7> O     -2.745689   -0.568829   -0.105351
|  8> N      0.144946    1.180968    0.131545
|  9> C      0.766882   -0.013837    0.054715
| 10> C     -1.610527   -0.229493   -0.016169
| 11> C     -0.337581   -1.036321    0.118536
| 12> H      0.526739    2.051909   -0.206611
| 13> H     -0.336392   -1.568271    1.071151
| 14> H     -0.255164   -1.781153   -0.670150
| 15> *
| 16>
| 17>                          ****END OF INPUT****

CARTESIAN COORDINATES (ANGSTROEM)
---------------------------------
  S      2.388840   -0.228485   -0.065926
  O     -1.264798    1.114379   -0.020009
  O     -2.745689   -0.568829   -0.105351
  N      0.144946    1.180968    0.131545
  C      0.766882   -0.013837    0.054715
  C     -1.610527   -0.229493   -0.016169
  C     -0.337581   -1.036321    0.118536
  H      0.526739    2.051909   -0.206611
  H     -0.336392   -1.568271    1.071151
  H     -0.255164   -1.781153   -0.670150

 Total Charge           Charge          ....    0
 Multiplicity           Mult            ....    1
 Number of Electrons    NEL             ....   60
 Basis Dimension        Dim             ....  395

ORBITAL ENERGIES
----------------

  NO   OCC          E(Eh)            E(eV)
   0   2.0000     -91.936709     -2501.7250
   1   2.0000     -20.681991      -562.7856
   2   2.0000     -20.590056      -560.2839
   3   2.0000     -15.697825      -427.1595
   4   2.0000     -11.427304      -310.9527
   5   2.0000     -11.389858      -309.9338
   6   2.0000     -11.303664      -307.5883
   7   2.0000      -8.939481      -243.2557
   8   2.0000      -6.620835      -180.1621
   9   2.0000      -6.619186      -180.1172
  10   2.0000      -6.618248      -180.0917
  11   2.0000      -1.535120       -41.7727
  12   2.0000      -1.433297       -39.0020
  13   2.0000      -1.245990       -33.9051
  14   2.0000      -1.112118       -30.2623
  15   2.0000      -0.999800       -27.2059
  16   2.0000      -0.883473       -24.0405
  17   2.0000      -0.821954       -22.3665
  18   2.0000      -0.755769       -20.5655
  19   2.0000      -0.731362       -19.9014
  20   2.0000      -0.689804       -18.7705
  21   2.0000      -0.654388       -17.8068
  22   2.0000      -0.631590       -17.1864
  23   2.0000      -0.625496       -17.0206
  24   2.0000      -0.580923       -15.8077
  25   2.0000      -0.553605       -15.0644
  26   2.0000      -0.489822       -13.3287
  27   2.0000      -0.486839       -13.2476
  28   2.0000      -0.366053        -9.9608
  29   2.0000      -0.357941        -9.7401
  30   0.0000       0.024121         0.6564
  31   0.0000       0.033603         0.9144
  32   0.0000       0.038096         1.0366
  33   0.0000       0.058532         1.5927
  34   0.0000       0.061875         1.6837

MULLIKEN ATOMIC CHARGES
-----------------------
   0 S :   -0.484880
   1 O :   -0.329760
   2 O :   -0.648255
   3 N :   -0.011944
   4 C :    0.258104
   5 C :    0.453841
   6 C :   -0.087415
   7 H :    0.176001
   8 H :    0.324158
   9 H :    0.350152
Sum of atomic charges:    0.0000000

LOEWDIN ATOMIC CHARGES
----------------------
   0 S :    0.901597
   1 O :    0.506206
   2 O :    0.450321
   3 N :    0.270547
   4 C :   -0.977865
   5 C :   -0.777260
   6 C :    0.218187
   7 H :   -0.293179
   8 H :   -0.145134
   9 H :   -0.153421

  Mayer bond orders larger than 0.100000
B(  0-S ,  4-C ) :   1.6078 B(  1-O ,  3-N ) :   0.6893 B(  1-O ,  5-C ) :   0.9236
B(  2-O ,  5-C ) :   1.6429 B(  3-N ,  4-C ) :   1.0600 B(  3-N ,  7-H ) :   1.0047
B(  4-C ,  6-C ) :   0.8423 B(  5-C ,  6-C ) :   0.7115 B(  6-C ,  8-H ) :   0.8901
B(  6-C ,  9-H ) :   0.8916

MP2 TOTAL ENERGY:     -718.459487934 Eh
FINAL SINGLE POINT ENERGY      -718.459487934098

DIPOLE MOMENT
-------------
                                X             Y             Z
Electronic contribution:      0.29139       1.40883      -0.18149
Nuclear contribution   :     -0.19329      -1.22663       0.18782
                        -----------------------------------------
Total Dipole Moment    :      0.09810       0.18220       0.00634
                        -----------------------------------------
Magnitude (a.u.)       :      0.20703
Magnitude (Debye)      :      0.52622

Rotational constants in cm-1:     0.233788     0.045325     0.038382
Rotational constants in MHz :  7008.787903  1358.813809  1150.662452

                             ****ORCA TERMINATED NORMALLY****
TOTAL RUN TIME: 0 days 0 hours 2 minutes 54 seconds 708 msec
