                         Program Version 5.0.3 -  RELEASE  -
|  1> !ri-mp2 aug-cc-pvtz aug-cc-pvtz/c tightscf
|  2> %pal nprocs 16 end
|  3>
|  4> * xyz 0 1
|  5> O     -0.600225   -0.593424    1.360417
|  6> O     -2.161412   -0.986180   -0.769034
|  7> N      1.130210    0.592913   -0.768875
|  8> N      1.938772   -0.211377   -0.307642
|  9> N      2.733579   -0.958359   -0.022308
| 10> C     -0.951945    0.534649    0.607097
| 11> C      0.297309    1.321982    0.196777
| 12> C     -1.791724    0.146454   -0.592557
| 13> H     -1.576131    1.219785    1.205469
| 14> H      0.000108    2.247521   -0.295100
| 15> H      0.858777    1.579106    1.096908
| 16> H     -2.066282    0.961562   -1.285775
| 17> H     -1.063155   -1.351900    0.971304
| 18> *
| 19>
| 20>                          ****END OF INPUT****

CARTESIAN COORDINATES (ANGSTROEM)
---------------------------------
  O     -0.600225   -0.593424    1.360417
  O     -2.161412   -0.986180   -0.769034
  N      1.130210    0.592913   -0.768875
  N      1.938772   -0.211377   -0.307642
  N      2.733579   -0.958359   -0.022308
  C     -0.951945    0.534649    0.607097
  C      0.297309    1.321982    0.196777
  C     -1.791724    0.146454   -0.592557
  H     -1.576131    1.219785    1.205469
  H      0.000108    2.247521   -0.295100
  H      0.858777    1.579106    1.096908
  H     -2.066282    0.961562   -1.285775
  H     -1.063155   -1.351900    0.971304

 Total Charge           Charge          ....    0
 Multiplicity           Mult            ....    1
 Number of Electrons    NEL             ....   60
 Basis Dimension        Dim             ....  483

ORBITAL ENERGIES
----------------

  NO   OCC          E(Eh)            E(eV)
   0   2.0000     -20.586530      -560.1880
   1   2.0000     -20.578299      -559.9640
   2   2.0000     -15.787001      -429.5861
   3   2.0000     -15.670820      -426.4247
   4   2.0000     -15.611845      -424.8199
   5   2.0000     -11.356009      -309.0127
   6   2.0000     -11.317927      -307.9765
   7   2.0000     -11.300751      -307.5091
   8   2.0000      -1.511937       -41.1419
   9   2.0000      -1.433204       -38.9995
  10   2.0000      -1.382903       -37.6307
  11   2.0000      -1.299942       -35.3732
  12   2.0000      -1.074819       -29.2473
  13   2.0000      -0.946029       -25.7427
  14   2.0000      -0.828834       -22.5537
  15   2.0000      -0.756960       -20.5979
  16   2.0000      -0.734332       -19.9822
  17   2.0000      -0.718512       -19.5517
  18   2.0000      -0.714891       -19.4532
  19   2.0000      -0.683737       -18.6054
  20   2.0000      -0.672930       -18.3114
  21   2.0000      -0.657581       -17.8937
  22   2.0000      -0.603415       -16.4198
  23   2.0000      -0.582735       -15.8570
  24   2.0000      -0.562406       -15.3038
  25   2.0000      -0.543977       -14.8024
  26   2.0000      -0.487985       -13.2788
  27   2.0000      -0.456283       -12.4161
  28   2.0000      -0.437652       -11.9091
  29   2.0000      -0.384985       -10.4760
  30   0.0000       0.022553         0.6137
  31   0.0000       0.035240         0.9589
  32   0.0000       0.038848         1.0571
  33   0.0000       0.046400         1.2626
  34   0.0000       0.056533         1.5383

MULLIKEN ATOMIC CHARGES
-----------------------
   0 O :   -0.699301
   1 O :   -0.803974
   2 N :   -0.941931
   3 N :    1.374700
   4 N :   -0.851678
   5 C :    0.531187
   6 C :   -0.221022
   7 C :   -0.109705
   8 H :    0.346117
   9 H :    0.298081
  10 H :    0.320002
  11 H :    0.546782
  12 H :    0.210742
Sum of atomic charges:   -0.0000000

LOEWDIN ATOMIC CHARGES
----------------------
   0 O :    0.829544
   1 O :    0.481754
   2 N :    0.219800
   3 N :   -0.232749
   4 N :    0.299213
   5 C :   -0.311893
   6 C :    0.083275
   7 C :   -0.179908
   8 H :   -0.144010
   9 H :   -0.171538
  10 H :   -0.158513
  11 H :   -0.160551
  12 H :   -0.554424

  Mayer bond orders larger than 0.100000
B(  0-O ,  5-C ) :   0.5346 B(  0-O , 12-H ) :   0.9827 B(  1-O ,  7-C ) :   1.5051
B(  2-N ,  3-N ) :   0.8000 B(  2-N ,  4-N ) :   0.5026 B(  2-N ,  6-C ) :   0.7064
B(  3-N ,  4-N ) :   1.2628 B(  5-C ,  6-C ) :   0.9285 B(  5-C ,  7-C ) :   0.8204
B(  5-C ,  8-H ) :   0.9341 B(  6-C ,  9-H ) :   0.9310 B(  6-C , 10-H ) :   0.9070
B(  7-C , 11-H ) :   0.6482

MP2 TOTAL ENERGY:     -431.244351016 Eh
FINAL SINGLE POINT ENERGY      -431.244351015847

DIPOLE MOMENT
-------------
                                X             Y             Z
Electronic contribution:      3.39877      -3.17720      -1.42464
Nuclear contribution   :     -3.77549       4.53098       1.66021
                        -----------------------------------------
Total Dipole Moment    :     -0.37672       1.35378       0.23556
                        -----------------------------------------
Magnitude (a.u.)       :      1.42483
Magnitude (Debye)      :      3.62162

Rotational constants in cm-1:     0.121164     0.044604     0.043139
Rotational constants in MHz :  3632.411592  1337.189297  1293.289512

                             ****ORCA TERMINATED NORMALLY****
TOTAL RUN TIME: 0 days 0 hours 5 minutes 0 seconds 226 msec
