                         Program Version 5.0.3 -  RELEASE  -
|  1> !ri-mp2 aug-cc-pvtz aug-cc-pvtz/c tightscf
|  2> %pal nprocs 16 end
|  3>
|  4> * xyz 0 1
|  5> S    -1.919398   -0.623306   -0.000004
|  6> O     0.684500    2.053364    0.000006
|  7> N    -1.349126    0.945938    0.000001
|  8> N     3.124988   -0.766794    0.000002
|  9> C     0.587079   -0.360579    0.000000
| 10> C    -0.044852    0.929530    0.000002
| 11> C    -0.373055   -1.340201   -0.000004
| 12> C     1.987770   -0.580577    0.000001
| 13> H     0.082922    2.809754    0.000007
| 14> H    -0.221242   -2.406813   -0.000007
| 15> *
| 16>
| 17>                          ****END OF INPUT****

CARTESIAN COORDINATES (ANGSTROEM)
---------------------------------
  S     -1.919398   -0.623306   -0.000004
  O      0.684500    2.053364    0.000006
  N     -1.349126    0.945938    0.000001
  N      3.124988   -0.766794    0.000002
  C      0.587079   -0.360579    0.000000
  C     -0.044852    0.929530    0.000002
  C     -0.373055   -1.340201   -0.000004
  C      1.987770   -0.580577    0.000001
  H      0.082922    2.809754    0.000007
  H     -0.221242   -2.406813   -0.000007

 Total Charge           Charge          ....    0
 Multiplicity           Mult            ....    1
 Number of Electrons    NEL             ....   64
 Basis Dimension        Dim             ....  418

ORBITAL ENERGIES
----------------

  NO   OCC          E(Eh)            E(eV)
   0   2.0000     -92.045330     -2504.6808
   1   2.0000     -20.632726      -561.4450
   2   2.0000     -15.606777      -424.6820
   3   2.0000     -15.583968      -424.0613
   4   2.0000     -11.385238      -309.8081
   5   2.0000     -11.333875      -308.4104
   6   2.0000     -11.306200      -307.6573
   7   2.0000     -11.289389      -307.1999
   8   2.0000      -9.042351      -246.0549
   9   2.0000      -6.723274      -182.9496
  10   2.0000      -6.722319      -182.9236
  11   2.0000      -6.721601      -182.9041
  12   2.0000      -1.463406       -39.8213
  13   2.0000      -1.299751       -35.3680
  14   2.0000      -1.233582       -33.5675
  15   2.0000      -1.120627       -30.4938
  16   2.0000      -1.039442       -28.2846
  17   2.0000      -0.872147       -23.7323
  18   2.0000      -0.861307       -23.4373
  19   2.0000      -0.787569       -21.4308
  20   2.0000      -0.705673       -19.2023
  21   2.0000      -0.662344       -18.0233
  22   2.0000      -0.657941       -17.9035
  23   2.0000      -0.609569       -16.5872
  24   2.0000      -0.570090       -15.5129
  25   2.0000      -0.562261       -15.2999
  26   2.0000      -0.532809       -14.4985
  27   2.0000      -0.512415       -13.9435
  28   2.0000      -0.504050       -13.7159
  29   2.0000      -0.469781       -12.7834
  30   2.0000      -0.404101       -10.9961
  31   2.0000      -0.368356       -10.0235
  32   0.0000       0.024420         0.6645
  33   0.0000       0.029456         0.8015
  34   0.0000       0.050004         1.3607
  35   0.0000       0.054512         1.4833
  36   0.0000       0.063107         1.7172

MULLIKEN ATOMIC CHARGES
-----------------------
   0 S :    0.115968
   1 O :   -0.464433
   2 N :   -0.519845
   3 N :   -0.733180
   4 C :    1.510949
   5 C :    0.033879
   6 C :   -0.944315
   7 C :    0.320880
   8 H :    0.246189
   9 H :    0.433908
Sum of atomic charges:    0.0000000

LOEWDIN ATOMIC CHARGES
----------------------
   0 S :    1.099011
   1 O :    0.846108
   2 N :   -0.029997
   3 N :    0.270360
   4 C :   -0.311350
   5 C :   -0.762090
   6 C :   -0.174218
   7 C :   -0.250262
   8 H :   -0.461185
   9 H :   -0.226376

  Mayer bond orders larger than 0.100000
B(  0-S ,  2-N ) :   0.9423 B(  0-S ,  4-C ) :  -0.1692 B(  0-S ,  5-C ) :   0.1700
B(  0-S ,  6-C ) :   1.3469 B(  1-O ,  5-C ) :   0.9218 B(  1-O ,  8-H ) :   0.9456
B(  2-N ,  5-C ) :   1.0030 B(  3-N ,  4-C ) :  -0.1239 B(  3-N ,  7-C ) :   2.0697
B(  4-C ,  5-C ) :   0.2260 B(  4-C ,  6-C ) :   0.9098 B(  4-C ,  7-C ) :   0.6479
B(  5-C ,  6-C ) :   0.1099 B(  5-C ,  7-C ) :   0.1150 B(  6-C ,  9-H ) :   0.8401

MP2 TOTAL ENERGY:     -735.469453642 Eh
FINAL SINGLE POINT ENERGY      -735.469453642207

DIPOLE MOMENT
-------------
                                X             Y             Z
Electronic contribution:     -1.37932      -0.61466      -0.00000
Nuclear contribution   :     -0.05516       0.43415       0.00000
                        -----------------------------------------
Total Dipole Moment    :     -1.43447      -0.18050      -0.00000
                        -----------------------------------------
Magnitude (a.u.)       :      1.44578
Magnitude (Debye)      :      3.67489

Rotational constants in cm-1:     0.110880     0.049401     0.034175
Rotational constants in MHz :  3324.089631  1481.002246  1024.534876

                             ****ORCA TERMINATED NORMALLY****
TOTAL RUN TIME: 0 days 0 hours 3 minutes 22 seconds 830 msec
