                         Program Version 5.0.3 -  RELEASE  -
|  1> !ri-mp2 aug-cc-pvtz aug-cc-pvtz/c tightscf
|  2> %pal nprocs 16 end
|  3>
|  4> * xyz 0 1
|  5> F     -1.641036   -0.642024   -0.961587
|  6> N      1.087050   -0.943365    0.151427
|  7> N      1.749753    0.051367   -0.134059
|  8> N      2.441943    0.885774   -0.448358
|  9> C     -0.170884   -0.683104    0.894190
| 10> C     -1.185976    0.068769    0.096722
| 11> C     -1.642697    1.288657    0.320483
| 12> H     -0.554963   -1.669771    1.144246
| 13> H      0.032320   -0.144959    1.821789
| 14> H     -2.385849    1.733728   -0.323978
| 15> H     -1.276059    1.856850    1.160784
| 16> *
| 17>
| 18>                          ****END OF INPUT****

CARTESIAN COORDINATES (ANGSTROEM)
---------------------------------
  F     -1.641036   -0.642024   -0.961587
  N      1.087050   -0.943365    0.151427
  N      1.749753    0.051367   -0.134059
  N      2.441943    0.885774   -0.448358
  C     -0.170884   -0.683104    0.894190
  C     -1.185976    0.068769    0.096722
  C     -1.642697    1.288657    0.320483
  H     -0.554963   -1.669771    1.144246
  H      0.032320   -0.144959    1.821789
  H     -2.385849    1.733728   -0.323978
  H     -1.276059    1.856850    1.160784

 Total Charge           Charge          ....    0
 Multiplicity           Mult            ....    1
 Number of Electrons    NEL             ....   52
 Basis Dimension        Dim             ....  414

ORBITAL ENERGIES
----------------

  NO   OCC          E(Eh)            E(eV)
   0   2.0000     -26.314112      -716.0434
   1   2.0000     -15.788497      -429.6268
   2   2.0000     -15.673203      -426.4895
   3   2.0000     -15.614184      -424.8836
   4   2.0000     -11.341823      -308.6267
   5   2.0000     -11.304099      -307.6002
   6   2.0000     -11.245782      -306.0133
   7   2.0000      -1.630303       -44.3628
   8   2.0000      -1.513836       -41.1936
   9   2.0000      -1.302214       -35.4350
  10   2.0000      -1.098050       -29.8794
  11   2.0000      -0.998633       -27.1742
  12   2.0000      -0.829380       -22.5686
  13   2.0000      -0.765309       -20.8251
  14   2.0000      -0.729598       -19.8534
  15   2.0000      -0.723028       -19.6746
  16   2.0000      -0.700021       -19.0485
  17   2.0000      -0.692953       -18.8562
  18   2.0000      -0.686298       -18.6751
  19   2.0000      -0.657197       -17.8832
  20   2.0000      -0.599893       -16.3239
  21   2.0000      -0.586323       -15.9546
  22   2.0000      -0.570303       -15.5187
  23   2.0000      -0.452250       -12.3063
  24   2.0000      -0.395721       -10.7681
  25   2.0000      -0.385625       -10.4934
  26   0.0000       0.026836         0.7303
  27   0.0000       0.034819         0.9475
  28   0.0000       0.040828         1.1110
  29   0.0000       0.055841         1.5195
  30   0.0000       0.066994         1.8230

MULLIKEN ATOMIC CHARGES
-----------------------
   0 F :   -0.484321
   1 N :   -0.891428
   2 N :    1.340386
   3 N :   -0.814684
   4 C :   -0.043477
   5 C :    0.673489
   6 C :   -1.211776
   7 H :    0.347288
   8 H :    0.293716
   9 H :    0.510240
  10 H :    0.280567
Sum of atomic charges:   -0.0000000

LOEWDIN ATOMIC CHARGES
----------------------
   0 F :    0.485851
   1 N :    0.217354
   2 N :   -0.248378
   3 N :    0.292925
   4 C :    0.063524
   5 C :   -0.529425
   6 C :    0.520309
   7 H :   -0.175413
   8 H :   -0.174773
   9 H :   -0.221748
  10 H :   -0.230226

  Mayer bond orders larger than 0.100000
B(  0-F ,  5-C ) :   0.5854 B(  0-F ,  6-C ) :   0.1505 B(  1-N ,  2-N ) :   0.8359
B(  1-N ,  3-N ) :   0.4779 B(  1-N ,  4-C ) :   0.7931 B(  2-N ,  3-N ) :   1.3414
B(  4-C ,  5-C ) :   0.8347 B(  4-C ,  7-H ) :   0.8993 B(  4-C ,  8-H ) :   0.9672
B(  5-C ,  6-C ) :   1.3565 B(  6-C ,  9-H ) :   0.6462 B(  6-C , 10-H ) :   1.1202

MP2 TOTAL ENERGY:     -380.109325506 Eh
FINAL SINGLE POINT ENERGY      -380.109325506329

DIPOLE MOMENT
-------------
                                X             Y             Z
Electronic contribution:      2.06240      -1.88299      -3.70406
Nuclear contribution   :     -2.44709       2.32823       4.58906
                        -----------------------------------------
Total Dipole Moment    :     -0.38469       0.44525       0.88500
                        -----------------------------------------
Magnitude (a.u.)       :      1.06276
Magnitude (Debye)      :      2.70133

Rotational constants in cm-1:     0.162491     0.058245     0.053063
Rotational constants in MHz :  4871.356372  1746.154104  1590.784563

                             ****ORCA TERMINATED NORMALLY****
TOTAL RUN TIME: 0 days 0 hours 2 minutes 33 seconds 996 msec
