                         Program Version 5.0.3 -  RELEASE  -
|  1> !ri-mp2 aug-cc-pvtz aug-cc-pvtz/c tightscf
|  2> %pal nprocs 16 end
|  3>
|  4> * xyz 0 1
|  5> S    -0.671855   -1.153928    0.660705
|  6> S    -2.102626   -0.073495   -0.487708
|  7> O     2.806302    0.706910    0.014558
|  8> O     1.840814   -1.023297   -0.999049
|  9> C     0.592505    0.197419    0.742618
| 10> C     1.861261   -0.020299   -0.114890
| 11> C    -0.080754    1.484200    0.342170
| 12> C    -1.272181    1.455845   -0.241430
| 13> H     0.997209   -1.505143   -0.912903
| 14> H     0.933145    0.237738    1.777666
| 15> H     0.468066    2.404340    0.484590
| 16> H    -1.788640    2.329941   -0.612187
| 17> *
| 18>
| 19>                          ****END OF INPUT****

CARTESIAN COORDINATES (ANGSTROEM)
---------------------------------
  S     -0.671855   -1.153928    0.660705
  S     -2.102626   -0.073495   -0.487708
  O      2.806302    0.706910    0.014558
  O      1.840814   -1.023297   -0.999049
  C      0.592505    0.197419    0.742618
  C      1.861261   -0.020299   -0.114890
  C     -0.080754    1.484200    0.342170
  C     -1.272181    1.455845   -0.241430
  H      0.997209   -1.505143   -0.912903
  H      0.933145    0.237738    1.777666
  H      0.468066    2.404340    0.484590
  H     -1.788640    2.329941   -0.612187

 Total Charge           Charge          ....    0
 Multiplicity           Mult            ....    1
 Number of Electrons    NEL             ....   76
 Basis Dimension        Dim             ....  468

ORBITAL ENERGIES
----------------

  NO   OCC          E(Eh)            E(eV)
   0   2.0000     -92.014084     -2503.8305
   1   2.0000     -92.013563     -2503.8163
   2   2.0000     -20.621496      -561.1394
   3   2.0000     -20.555670      -559.3482
   4   2.0000     -11.400777      -310.2309
   5   2.0000     -11.322994      -308.1143
   6   2.0000     -11.301036      -307.5168
   7   2.0000     -11.276021      -306.8361
   8   2.0000      -9.012544      -245.2438
   9   2.0000      -9.012073      -245.2310
  10   2.0000      -6.693472      -182.1386
  11   2.0000      -6.692894      -182.1229
  12   2.0000      -6.692431      -182.1103
  13   2.0000      -6.691977      -182.0979
  14   2.0000      -6.691099      -182.0741
  15   2.0000      -6.690794      -182.0658
  16   2.0000      -1.473658       -40.1003
  17   2.0000      -1.377975       -37.4966
  18   2.0000      -1.174715       -31.9656
  19   2.0000      -1.045163       -28.4403
  20   2.0000      -1.018727       -27.7210
  21   2.0000      -0.879163       -23.9232
  22   2.0000      -0.827339       -22.5130
  23   2.0000      -0.788748       -21.4629
  24   2.0000      -0.734513       -19.9871
  25   2.0000      -0.701259       -19.0822
  26   2.0000      -0.670322       -18.2404
  27   2.0000      -0.650903       -17.7120
  28   2.0000      -0.591947       -16.1077
  29   2.0000      -0.588590       -16.0163
  30   2.0000      -0.538295       -14.6477
  31   2.0000      -0.530946       -14.4478
  32   2.0000      -0.495701       -13.4887
  33   2.0000      -0.491135       -13.3645
  34   2.0000      -0.475276       -12.9329
  35   2.0000      -0.459207       -12.4956
  36   2.0000      -0.415826       -11.3152
  37   2.0000      -0.332296        -9.0422
  38   0.0000       0.024769         0.6740
  39   0.0000       0.031572         0.8591
  40   0.0000       0.040503         1.1021
  41   0.0000       0.047045         1.2802
  42   0.0000       0.053743         1.4624

MULLIKEN ATOMIC CHARGES
-----------------------
   0 S :   -0.333967
   1 S :   -0.163150
   2 O :   -0.737892
   3 O :   -0.425806
   4 C :    0.358047
   5 C :    0.634463
   6 C :   -0.464391
   7 C :   -0.278076
   8 H :    0.259065
   9 H :    0.329083
  10 H :    0.382922
  11 H :    0.439701
Sum of atomic charges:   -0.0000000

LOEWDIN ATOMIC CHARGES
----------------------
   0 S :    0.816220
   1 S :    0.749414
   2 O :    0.437676
   3 O :    0.824331
   4 C :   -0.407910
   5 C :   -0.853871
   6 C :    0.038513
   7 C :   -0.301217
   8 H :   -0.626743
   9 H :   -0.227266
  10 H :   -0.186790
  11 H :   -0.262358

  Mayer bond orders larger than 0.100000
B(  0-S ,  1-S ) :   1.0317 B(  0-S ,  4-C ) :   0.8601 B(  1-S ,  7-C ) :   0.9641
B(  2-O ,  5-C ) :   1.4740 B(  3-O ,  5-C ) :   0.9260 B(  3-O ,  8-H ) :   0.8885
B(  4-C ,  5-C ) :   0.7441 B(  4-C ,  6-C ) :   0.9912 B(  4-C ,  9-H ) :   0.9048
B(  5-C ,  6-C ) :   0.1858 B(  6-C ,  7-C ) :   1.6574 B(  6-C , 10-H ) :   0.8665
B(  7-C , 11-H ) :   0.8403

MP2 TOTAL ENERGY:    -1100.194894929 Eh
FINAL SINGLE POINT ENERGY     -1100.194894929150

DIPOLE MOMENT
-------------
                                X             Y             Z
Electronic contribution:     -2.05605      -3.20077      -0.34410
Nuclear contribution   :      0.74033       3.37081       0.68991
                        -----------------------------------------
Total Dipole Moment    :     -1.31572       0.17004       0.34581
                        -----------------------------------------
Magnitude (a.u.)       :      1.37099
Magnitude (Debye)      :      3.48479

Rotational constants in cm-1:     0.091321     0.036787     0.031178
Rotational constants in MHz :  2737.746821  1102.861138   934.702848

                             ****ORCA TERMINATED NORMALLY****
TOTAL RUN TIME: 0 days 0 hours 4 minutes 31 seconds 51 msec
