                         Program Version 5.0.3 -  RELEASE  -
|  1> !ri-mp2 aug-cc-pvtz aug-cc-pvtz/c tightscf
|  2> %pal nprocs 16 end
|  3>
|  4> * xyz 0 1
|  5> C     -1.579132   -1.018404    0.000000
|  6> C     -0.556518   -1.950256    0.000000
|  7> C     -1.323399    0.352438    0.000000
|  8> C      1.044493   -0.139672    0.000000
|  9> C      0.763417   -1.497487    0.000000
| 10> C      0.000000    0.787801    0.000000
| 11> C     -0.623241    3.096404    0.000000
| 12> O      1.751266   -2.443316    0.000000
| 13> O      0.383127    2.095674    0.000000
| 14> H     -2.605756   -1.359527    0.000000
| 15> H     -0.754444   -3.011972    0.000000
| 16> H     -2.144558    1.051118    0.000000
| 17> H      2.064483    0.223401    0.000000
| 18> H     -1.251546    3.030018    0.891559
| 19> H     -1.251546    3.030018   -0.891559
| 20> H     -0.098191    4.047676    0.000000
| 21> H      2.612695   -2.014536    0.000000
| 22> *
| 23>
| 24>                          ****END OF INPUT****

CARTESIAN COORDINATES (ANGSTROEM)
---------------------------------
  C     -1.579132   -1.018404    0.000000
  C     -0.556518   -1.950256    0.000000
  C     -1.323399    0.352438    0.000000
  C      1.044493   -0.139672    0.000000
  C      0.763417   -1.497487    0.000000
  C      0.000000    0.787801    0.000000
  C     -0.623241    3.096404    0.000000
  O      1.751266   -2.443316    0.000000
  O      0.383127    2.095674    0.000000
  H     -2.605756   -1.359527    0.000000
  H     -0.754444   -3.011972    0.000000
  H     -2.144558    1.051118    0.000000
  H      2.064483    0.223401    0.000000
  H     -1.251546    3.030018    0.891559
  H     -1.251546    3.030018   -0.891559
  H     -0.098191    4.047676    0.000000
  H      2.612695   -2.014536    0.000000

 Total Charge           Charge          ....    0
 Multiplicity           Mult            ....    1
 Number of Electrons    NEL             ....   66
 Basis Dimension        Dim             ....  598

ORBITAL ENERGIES
----------------

  NO   OCC          E(Eh)            E(eV)
   0   2.0000     -20.591307      -560.3179
   1   2.0000     -20.588662      -560.2460
   2   2.0000     -11.307208      -307.6848
   3   2.0000     -11.306212      -307.6577
   4   2.0000     -11.286134      -307.1113
   5   2.0000     -11.243653      -305.9553
   6   2.0000     -11.223889      -305.4175
   7   2.0000     -11.222375      -305.3763
   8   2.0000     -11.218671      -305.2756
   9   2.0000      -1.413024       -38.4503
  10   2.0000      -1.405477       -38.2450
  11   2.0000      -1.145757       -31.1776
  12   2.0000      -1.027354       -27.9557
  13   2.0000      -1.007140       -27.4057
  14   2.0000      -0.945900       -25.7392
  15   2.0000      -0.851196       -23.1622
  16   2.0000      -0.809118       -22.0172
  17   2.0000      -0.739650       -20.1269
  18   2.0000      -0.706524       -19.2255
  19   2.0000      -0.669995       -18.2315
  20   2.0000      -0.657868       -17.9015
  21   2.0000      -0.652974       -17.7683
  22   2.0000      -0.611341       -16.6354
  23   2.0000      -0.597108       -16.2481
  24   2.0000      -0.590442       -16.0667
  25   2.0000      -0.559058       -15.2127
  26   2.0000      -0.537271       -14.6199
  27   2.0000      -0.520733       -14.1699
  28   2.0000      -0.518831       -14.1181
  29   2.0000      -0.490574       -13.3492
  30   2.0000      -0.457287       -12.4434
  31   2.0000      -0.330862        -9.0032
  32   2.0000      -0.310404        -8.4465
  33   0.0000       0.027356         0.7444
  34   0.0000       0.031319         0.8522
  35   0.0000       0.034289         0.9331
  36   0.0000       0.045296         1.2326
  37   0.0000       0.046341         1.2610

MULLIKEN ATOMIC CHARGES
-----------------------
   0 C :   -0.315797
   1 C :   -0.865491
   2 C :   -0.429939
   3 C :   -1.137458
   4 C :    0.958425
   5 C :    1.055029
   6 C :   -0.872655
   7 O :   -0.755455
   8 O :   -0.720228
   9 H :    0.417668
  10 H :    0.574804
  11 H :    0.401109
  12 H :    0.456180
  13 H :    0.349529
  14 H :    0.349529
  15 H :    0.365901
  16 H :    0.168849
Sum of atomic charges:   -0.0000000

LOEWDIN ATOMIC CHARGES
----------------------
   0 C :    0.180146
   1 C :    0.204471
   2 C :    0.199285
   3 C :    0.221718
   4 C :   -0.386016
   5 C :   -0.395948
   6 C :    0.342949
   7 O :    0.840713
   8 O :    0.574142
   9 H :   -0.178814
  10 H :   -0.190329
  11 H :   -0.214764
  12 H :   -0.185775
  13 H :   -0.174483
  14 H :   -0.174483
  15 H :   -0.181584
  16 H :   -0.481229

  Mayer bond orders larger than 0.100000
B(  0-C ,  1-C ) :   1.1806 B(  0-C ,  2-C ) :   0.9467 B(  0-C ,  3-C ) :  -0.1420
B(  0-C ,  4-C ) :  -0.2257 B(  0-C ,  5-C ) :  -0.1868 B(  0-C ,  9-H ) :   0.8387
B(  1-C ,  2-C ) :   0.3540 B(  1-C ,  3-C ) :   0.6111 B(  1-C ,  4-C ) :   0.8193
B(  1-C ,  5-C ) :  -0.1171 B(  1-C , 10-H ) :   0.4823 B(  2-C ,  3-C ) :   0.5351
B(  2-C ,  4-C ) :  -0.1683 B(  2-C ,  5-C ) :   0.9197 B(  2-C ,  8-O ) :  -0.3559
B(  2-C ,  9-H ) :  -0.1242 B(  2-C , 11-H ) :   0.8562 B(  3-C ,  4-C ) :   0.8921
B(  3-C ,  5-C ) :   0.5232 B(  3-C ,  7-O ) :  -0.1510 B(  3-C ,  8-O ) :   0.1705
B(  3-C , 11-H ) :  -0.1018 B(  3-C , 12-H ) :   0.6200 B(  4-C ,  7-O ) :   0.6588
B(  5-C ,  8-O ) :   0.5995 B(  6-C ,  8-O ) :   0.9749 B(  6-C , 13-H ) :   0.8847
B(  6-C , 14-H ) :   0.8847 B(  6-C , 15-H ) :   0.9213 B(  7-O , 16-H ) :   1.0425

MP2 TOTAL ENERGY:     -421.216115103 Eh
FINAL SINGLE POINT ENERGY      -421.216115102695

DIPOLE MOMENT
-------------
                                X             Y             Z
Electronic contribution:      3.19951      -4.26829      -0.00000
Nuclear contribution   :     -3.39012       4.98323       0.00000
                        -----------------------------------------
Total Dipole Moment    :     -0.19062       0.71494      -0.00000
                        -----------------------------------------
Magnitude (a.u.)       :      0.73991
Magnitude (Debye)      :      1.88071

Rotational constants in cm-1:     0.121733     0.037612     0.028892
Rotational constants in MHz :  3649.453237  1127.572867   866.151352

                             ****ORCA TERMINATED NORMALLY****
TOTAL RUN TIME: 0 days 0 hours 6 minutes 52 seconds 203 msec
