                         Program Version 5.0.3 -  RELEASE  -
|  1> !ri-mp2 aug-cc-pvtz aug-cc-pvtz/c tightscf
|  2> %pal nprocs 16 end
|  3> %maxcore 3800
|  4>
|  5> * xyz 0 1
|  6> C      0.135051   -1.341137   -0.005889
|  7> C     -1.264169    0.607942    0.005249
|  8> C      1.139570    0.840940   -0.006939
|  9> C     -1.138604   -0.783210    0.001330
| 10> C      1.282088   -0.540466   -0.008323
| 11> C     -0.131706    1.410882    0.000566
| 12> C     -2.369752   -1.651925    0.000466
| 13> C      2.650233   -1.171347    0.006646
| 14> O     -0.202773    2.778770    0.000841
| 15> H      0.240904   -2.419111   -0.011504
| 16> H     -2.248573    1.063933    0.008732
| 17> H      2.003339    1.491882   -0.012720
| 18> H     -2.995986   -1.450770    0.871977
| 19> H     -2.981562   -1.469036   -0.885355
| 20> H     -2.107933   -2.708818    0.013301
| 21> H      3.426357   -0.446250   -0.234263
| 22> H      2.878024   -1.585952    0.991583
| 23> H      2.715992   -1.990403   -0.710787
| 24> H     -1.124645    3.054300    0.003665
| 25> *
| 26>
| 27>                          ****END OF INPUT****

CARTESIAN COORDINATES (ANGSTROEM)
---------------------------------
  C      0.135051   -1.341137   -0.005889
  C     -1.264169    0.607942    0.005249
  C      1.139570    0.840940   -0.006939
  C     -1.138604   -0.783210    0.001330
  C      1.282088   -0.540466   -0.008323
  C     -0.131706    1.410882    0.000566
  C     -2.369752   -1.651925    0.000466
  C      2.650233   -1.171347    0.006646
  O     -0.202773    2.778770    0.000841
  H      0.240904   -2.419111   -0.011504
  H     -2.248573    1.063933    0.008732
  H      2.003339    1.491882   -0.012720
  H     -2.995986   -1.450770    0.871977
  H     -2.981562   -1.469036   -0.885355
  H     -2.107933   -2.708818    0.013301
  H      3.426357   -0.446250   -0.234263
  H      2.878024   -1.585952    0.991583
  H      2.715992   -1.990403   -0.710787
  H     -1.124645    3.054300    0.003665

 Total Charge           Charge          ....    0
 Multiplicity           Mult            ....    1
 Number of Electrons    NEL             ....   66
 Basis Dimension        Dim             ....  644

ORBITAL ENERGIES
----------------

  NO   OCC          E(Eh)            E(eV)
   0   2.0000     -20.587596      -560.2170
   1   2.0000     -11.299200      -307.4669
   2   2.0000     -11.245800      -306.0138
   3   2.0000     -11.243897      -305.9620
   4   2.0000     -11.224671      -305.4388
   5   2.0000     -11.221963      -305.3651
   6   2.0000     -11.220583      -305.3276
   7   2.0000     -11.215628      -305.1928
   8   2.0000     -11.213760      -305.1419
   9   2.0000      -1.401315       -38.1317
  10   2.0000      -1.153032       -31.3756
  11   2.0000      -1.058994       -28.8167
  12   2.0000      -1.019090       -27.7308
  13   2.0000      -0.939113       -25.5546
  14   2.0000      -0.934390       -25.4261
  15   2.0000      -0.822022       -22.3683
  16   2.0000      -0.791860       -21.5476
  17   2.0000      -0.711243       -19.3539
  18   2.0000      -0.678424       -18.4609
  19   2.0000      -0.653030       -17.7698
  20   2.0000      -0.594090       -16.1660
  21   2.0000      -0.588561       -16.0155
  22   2.0000      -0.572904       -15.5895
  23   2.0000      -0.571135       -15.5414
  24   2.0000      -0.568916       -15.4810
  25   2.0000      -0.564049       -15.3486
  26   2.0000      -0.551285       -15.0012
  27   2.0000      -0.520330       -14.1589
  28   2.0000      -0.500223       -13.6118
  29   2.0000      -0.480632       -13.0787
  30   2.0000      -0.459415       -12.5013
  31   2.0000      -0.324605        -8.8330
  32   2.0000      -0.309259        -8.4154
  33   0.0000       0.026702         0.7266
  34   0.0000       0.031548         0.8585
  35   0.0000       0.034129         0.9287
  36   0.0000       0.043999         1.1973
  37   0.0000       0.045608         1.2410

MULLIKEN ATOMIC CHARGES
-----------------------
   0 C :   -1.202611
   1 C :   -1.002399
   2 C :   -0.751822
   3 C :    1.219666
   4 C :    1.181531
   5 C :    0.859228
   6 C :   -0.979674
   7 C :   -0.931777
   8 O :   -0.785406
   9 H :    0.022256
  10 H :    0.313481
  11 H :    0.300936
  12 H :    0.249540
  13 H :    0.250952
  14 H :    0.254462
  15 H :    0.263795
  16 H :    0.298047
  17 H :    0.259859
  18 H :    0.179937
Sum of atomic charges:   -0.0000000

LOEWDIN ATOMIC CHARGES
----------------------
   0 C :    0.224863
   1 C :    0.224871
   2 C :    0.227714
   3 C :   -0.131683
   4 C :   -0.128723
   5 C :   -0.370038
   6 C :    0.582957
   7 C :    0.583998
   8 O :    0.839391
   9 H :   -0.182588
  10 H :   -0.180495
  11 H :   -0.182545
  12 H :   -0.166556
  13 H :   -0.165998
  14 H :   -0.180104
  15 H :   -0.178523
  16 H :   -0.162972
  17 H :   -0.170108
  18 H :   -0.483461

  Mayer bond orders larger than 0.100000
B(  0-C ,  1-C ) :   0.2610 B(  0-C ,  2-C ) :   0.1624 B(  0-C ,  3-C ) :   0.6366
B(  0-C ,  4-C ) :   0.4469 B(  0-C ,  5-C ) :  -0.2146 B(  0-C ,  7-C ) :   0.1370
B(  0-C ,  9-H ) :   1.4831 B(  0-C , 10-H ) :   0.1210 B(  1-C ,  2-C ) :   0.2818
B(  1-C ,  3-C ) :   0.5731 B(  1-C ,  4-C ) :  -0.2353 B(  1-C ,  5-C ) :   0.8583
B(  1-C ,  6-C ) :   0.1116 B(  1-C ,  8-O ) :  -0.1840 B(  1-C , 10-H ) :   0.9433
B(  2-C ,  3-C ) :  -0.1367 B(  2-C ,  4-C ) :   0.6023 B(  2-C ,  5-C ) :   0.8303
B(  2-C ,  8-O ) :   0.1261 B(  2-C , 11-H ) :   1.0540 B(  3-C ,  4-C ) :   0.3310
B(  3-C ,  5-C ) :   0.1616 B(  3-C ,  6-C ) :   0.4293 B(  3-C ,  9-H ) :  -0.1115
B(  3-C , 12-H ) :  -0.1054 B(  3-C , 13-H ) :  -0.1105 B(  4-C ,  5-C ) :   0.1893
B(  4-C ,  7-C ) :   0.5272 B(  4-C ,  9-H ) :  -0.1594 B(  5-C ,  8-O ) :   0.5586
B(  6-C , 12-H ) :   1.0473 B(  6-C , 13-H ) :   1.0503 B(  6-C , 14-H ) :   1.0164
B(  7-C , 15-H ) :   1.0011 B(  7-C , 16-H ) :   0.9800 B(  7-C , 17-H ) :   1.0308
B(  8-O , 18-H ) :   1.0327

MP2 TOTAL ENERGY:     -385.335641319 Eh
FINAL SINGLE POINT ENERGY      -385.335641319395

DIPOLE MOMENT
-------------
                                X             Y             Z
Electronic contribution:     -0.29692       6.20737      -0.02504
Nuclear contribution   :     -0.20016      -6.51022       0.03515
                        -----------------------------------------
Total Dipole Moment    :     -0.49708      -0.30284       0.01011
                        -----------------------------------------
Magnitude (a.u.)       :      0.58215
Magnitude (Debye)      :      1.47972

Rotational constants in cm-1:     0.059788     0.058789     0.029970
Rotational constants in MHz :  1792.387066  1762.437079   898.487115

                             ****ORCA TERMINATED NORMALLY****
TOTAL RUN TIME: 0 days 0 hours 9 minutes 23 seconds 24 msec
