                         Program Version 5.0.3 -  RELEASE  -
|  1> !ri-mp2 aug-cc-pvtz aug-cc-pvtz/c tightscf
|  2> %pal nprocs 16 end
|  3>
|  4> * xyz 0 1
|  5> N     -1.616715   -0.101498    0.115335
|  6> N     -2.512940   -0.696208   -0.240366
|  7> N      2.592445   -0.787850    0.164792
|  8> C     -0.601166    0.598614    0.503988
|  9> C      0.580873    0.787284   -0.409301
| 10> C      1.711258   -0.097097   -0.096653
| 11> H     -0.609112    0.927289    1.529719
| 12> H      0.289318    0.620071   -1.447202
| 13> H      0.934469    1.818720   -0.349050
| 14> *
| 15>
| 16>                          ****END OF INPUT****

CARTESIAN COORDINATES (ANGSTROEM)
---------------------------------
  N     -1.616715   -0.101498    0.115335
  N     -2.512940   -0.696208   -0.240366
  N      2.592445   -0.787850    0.164792
  C     -0.601166    0.598614    0.503988
  C      0.580873    0.787284   -0.409301
  C      1.711258   -0.097097   -0.096653
  H     -0.609112    0.927289    1.529719
  H      0.289318    0.620071   -1.447202
  H      0.934469    1.818720   -0.349050

 Total Charge           Charge          ....    0
 Multiplicity           Mult            ....    1
 Number of Electrons    NEL             ....   42
 Basis Dimension        Dim             ....  345

ORBITAL ENERGIES
----------------

  NO   OCC          E(Eh)            E(eV)
   0   2.0000     -15.752673      -428.6520
   1   2.0000     -15.676000      -426.5657
   2   2.0000     -15.576291      -423.8524
   3   2.0000     -11.312364      -307.8251
   4   2.0000     -11.297351      -307.4165
   5   2.0000     -11.280344      -306.9538
   6   2.0000      -1.480707       -40.2921
   7   2.0000      -1.230761       -33.4907
   8   2.0000      -1.167979       -31.7823
   9   2.0000      -1.038924       -28.2706
  10   2.0000      -0.777397       -21.1541
  11   2.0000      -0.734575       -19.9888
  12   2.0000      -0.700184       -19.0530
  13   2.0000      -0.677877       -18.4460
  14   2.0000      -0.665641       -18.1130
  15   2.0000      -0.626792       -17.0559
  16   2.0000      -0.568489       -15.4694
  17   2.0000      -0.559979       -15.2378
  18   2.0000      -0.472304       -12.8520
  19   2.0000      -0.469922       -12.7872
  20   2.0000      -0.346072        -9.4171
  21   0.0000       0.022829         0.6212
  22   0.0000       0.032473         0.8836
  23   0.0000       0.041822         1.1380
  24   0.0000       0.057769         1.5720
  25   0.0000       0.076254         2.0750

MULLIKEN ATOMIC CHARGES
-----------------------
   0 N :    0.574419
   1 N :   -0.806289
   2 N :   -0.486517
   3 C :   -0.509087
   4 C :    0.042515
   5 C :    0.106500
   6 H :    0.496814
   7 H :    0.279851
   8 H :    0.301794
Sum of atomic charges:    0.0000000

LOEWDIN ATOMIC CHARGES
----------------------
   0 N :   -0.031957
   1 N :    0.306939
   2 N :    0.250929
   3 C :    0.061003
   4 C :    0.185708
   5 C :   -0.214084
   6 H :   -0.214626
   7 H :   -0.172958
   8 H :   -0.170955

  Mayer bond orders larger than 0.100000
B(  0-N ,  1-N ) :   1.2412 B(  0-N ,  3-C ) :   1.4177 B(  2-N ,  5-C ) :   2.3651
B(  3-C ,  4-C ) :   0.7614 B(  3-C ,  5-C ) :   0.2036 B(  3-C ,  6-H ) :   0.6823
B(  4-C ,  5-C ) :   0.8262 B(  4-C ,  7-H ) :   0.9341 B(  4-C ,  8-H ) :   0.9180

MP2 TOTAL ENERGY:     -279.781494135 Eh
FINAL SINGLE POINT ENERGY      -279.781494135092

DIPOLE MOMENT
-------------
                                X             Y             Z
Electronic contribution:     -1.39300      -2.05091       0.10276
Nuclear contribution   :      0.58923       3.26573      -0.25908
                        -----------------------------------------
Total Dipole Moment    :     -0.80377       1.21482      -0.15632
                        -----------------------------------------
Magnitude (a.u.)       :      1.46502
Magnitude (Debye)      :      3.72378

Rotational constants in cm-1:     0.391443     0.061244     0.056941
Rotational constants in MHz : 11735.159085  1836.063335  1707.048497

                             ****ORCA TERMINATED NORMALLY****
TOTAL RUN TIME: 0 days 0 hours 1 minutes 40 seconds 393 msec
