                         Program Version 5.0.3 -  RELEASE  -
|  1> !ri-mp2 aug-cc-pvtz aug-cc-pvtz/c tightscf
|  2> %pal nprocs 16 end
|  3>
|  4> * xyz 0 1
|  5> O      3.552425   -1.677314   -0.000076
|  6> O     -3.552425   -1.677314   -0.000133
|  7> O      4.601741    0.288643    0.000051
|  8> O     -4.601741    0.288643   -0.000016
|  9> N      0.000000    1.455001    0.000098
| 10> C      3.482204   -0.481149   -0.000003
| 11> C     -3.482204   -0.481149   -0.000058
| 12> C      2.240625    0.251308    0.000033
| 13> C     -2.240624    0.251308   -0.000006
| 14> C      1.181312    0.822939    0.000062
| 15> C     -1.181312    0.822939    0.000041
| 16> H      4.369566    1.225617    0.000108
| 17> H     -4.369566    1.225617    0.000046
| 18> H      0.000000    2.465308    0.000146
| 19> *
| 20>
| 21>                          ****END OF INPUT****

CARTESIAN COORDINATES (ANGSTROEM)
---------------------------------
  O      3.552425   -1.677314   -0.000076
  O     -3.552425   -1.677314   -0.000133
  O      4.601741    0.288643    0.000051
  O     -4.601741    0.288643   -0.000016
  N      0.000000    1.455001    0.000098
  C      3.482204   -0.481149   -0.000003
  C     -3.482204   -0.481149   -0.000058
  C      2.240625    0.251308    0.000033
  C     -2.240624    0.251308   -0.000006
  C      1.181312    0.822939    0.000062
  C     -1.181312    0.822939    0.000041
  H      4.369566    1.225617    0.000108
  H     -4.369566    1.225617    0.000046
  H      0.000000    2.465308    0.000146

 Total Charge           Charge          ....    0
 Multiplicity           Mult            ....    1
 Number of Electrons    NEL             ....   78
 Basis Dimension        Dim             ....  575

ORBITAL ENERGIES
----------------

  NO   OCC          E(Eh)            E(eV)
   0   2.0000     -20.632978      -561.4519
   1   2.0000     -20.632978      -561.4519
   2   2.0000     -20.565423      -559.6136
   3   2.0000     -20.565423      -559.6136
   4   2.0000     -15.699440      -427.2035
   5   2.0000     -11.425406      -310.9011
   6   2.0000     -11.425406      -310.9011
   7   2.0000     -11.340769      -308.5980
   8   2.0000     -11.340754      -308.5976
   9   2.0000     -11.283250      -307.0329
  10   2.0000     -11.283250      -307.0328
  11   2.0000      -1.479979       -40.2723
  12   2.0000      -1.479971       -40.2720
  13   2.0000      -1.385595       -37.7040
  14   2.0000      -1.385591       -37.7038
  15   2.0000      -1.355413       -36.8827
  16   2.0000      -1.108674       -30.1686
  17   2.0000      -1.076225       -29.2856
  18   2.0000      -0.940852       -25.6019
  19   2.0000      -0.911014       -24.7900
  20   2.0000      -0.856772       -23.3139
  21   2.0000      -0.834171       -22.6989
  22   2.0000      -0.813487       -22.1361
  23   2.0000      -0.811547       -22.0833
  24   2.0000      -0.680398       -18.5146
  25   2.0000      -0.680154       -18.5079
  26   2.0000      -0.662475       -18.0269
  27   2.0000      -0.653081       -17.7712
  28   2.0000      -0.634762       -17.2727
  29   2.0000      -0.620807       -16.8930
  30   2.0000      -0.619799       -16.8656
  31   2.0000      -0.510911       -13.9026
  32   2.0000      -0.504766       -13.7354
  33   2.0000      -0.493992       -13.4422
  34   2.0000      -0.493306       -13.4235
  35   2.0000      -0.461744       -12.5647
  36   2.0000      -0.459475       -12.5030
  37   2.0000      -0.449566       -12.2333
  38   2.0000      -0.385010       -10.4766
  39   0.0000       0.000529         0.0144
  40   0.0000       0.020990         0.5712
  41   0.0000       0.035999         0.9796
  42   0.0000       0.057595         1.5673
  43   0.0000       0.067672         1.8414

MULLIKEN ATOMIC CHARGES
-----------------------
   0 O :   -0.620338
   1 O :   -0.620339
   2 O :   -0.341938
   3 O :   -0.341939
   4 N :   -0.004212
   5 C :   -0.059213
   6 C :   -0.059210
   7 C :    0.000373
   8 C :    0.000390
   9 C :    0.693024
  10 C :    0.692987
  11 H :    0.214183
  12 H :    0.214183
  13 H :    0.232049
Sum of atomic charges:   -0.0000000

LOEWDIN ATOMIC CHARGES
----------------------
   0 O :    0.429195
   1 O :    0.429195
   2 O :    0.817748
   3 O :    0.817748
   4 N :    0.419318
   5 C :   -0.886990
   6 C :   -0.886989
   7 C :    0.056224
   8 C :    0.056224
   9 C :    0.000612
  10 C :    0.000611
  11 H :   -0.491142
  12 H :   -0.491142
  13 H :   -0.270615

  Mayer bond orders larger than 0.100000
B(  0-O ,  5-C ) :   1.7228 B(  0-O ,  7-C ) :  -0.1515 B(  1-O ,  6-C ) :   1.7228
B(  1-O ,  8-C ) :  -0.1515 B(  2-O ,  5-C ) :   1.0627 B(  2-O ,  7-C ) :  -0.1675
B(  2-O , 11-H ) :   0.9456 B(  3-O ,  6-C ) :   1.0627 B(  3-O ,  8-C ) :  -0.1675
B(  3-O , 12-H ) :   0.9456 B(  4-N ,  9-C ) :   0.8068 B(  4-N , 10-C ) :   0.8068
B(  4-N , 13-H ) :   1.0252 B(  5-C ,  7-C ) :   0.6481 B(  5-C ,  9-C ) :  -0.5456
B(  6-C ,  8-C ) :   0.6480 B(  6-C , 10-C ) :  -0.5456 B(  7-C ,  8-C ) :  -0.1017
B(  7-C ,  9-C ) :   2.1398 B(  7-C , 10-C ) :   0.2301 B(  8-C ,  9-C ) :   0.2301
B(  8-C , 10-C ) :   2.1398 B(  9-C , 10-C ) :  -0.1341

MP2 TOTAL ENERGY:     -585.004102365 Eh
FINAL SINGLE POINT ENERGY      -585.004102365329

DIPOLE MOMENT
-------------
                                X             Y             Z
Electronic contribution:     -0.00000      -0.80072      -0.00005
Nuclear contribution   :     -0.00000       4.67076       0.00028
                        -----------------------------------------
Total Dipole Moment    :     -0.00000       3.87004       0.00024
                        -----------------------------------------
Magnitude (a.u.)       :      3.87004
Magnitude (Debye)      :      9.83686

Rotational constants in cm-1:     0.108977     0.010770     0.009801
Rotational constants in MHz :  3267.059964   322.865283   293.827912

                             ****ORCA TERMINATED NORMALLY****
TOTAL RUN TIME: 0 days 0 hours 5 minutes 42 seconds 742 msec
