                         Program Version 5.0.3 -  RELEASE  -
|  1> !ri-mp2 aug-cc-pvtz aug-cc-pvtz/c tightscf
|  2> %pal nprocs 16 end
|  3>
|  4> * xyz 0 1
|  5> C     -2.115162   -0.859134   -0.446944
|  6> S     -0.736952    0.145568    0.134592
|  7> O     -0.603003   -0.070176    1.570701
|  8> O     -0.913666    1.497805   -0.387410
|  9> C      0.712310   -0.599546   -0.708204
| 10> C      1.940525    0.209848   -0.457486
| 11> C      2.972177   -0.220038    0.256620
| 12> H     -1.957196   -1.891564   -0.146285
| 13> H     -2.996316   -0.452994    0.044646
| 14> H     -2.202825   -0.759745   -1.525431
| 15> H      0.446453   -0.619309   -1.766218
| 16> H      0.799645   -1.614868   -0.324996
| 17> H      1.949759    1.202936   -0.889296
| 18> H      2.982692   -1.202462    0.711754
| 19> H      3.843275    0.401100    0.412111
| 20> *
| 21>
| 22>                          ****END OF INPUT****

CARTESIAN COORDINATES (ANGSTROEM)
---------------------------------
  C     -2.115162   -0.859134   -0.446944
  S     -0.736952    0.145568    0.134592
  O     -0.603003   -0.070176    1.570701
  O     -0.913666    1.497805   -0.387410
  C      0.712310   -0.599546   -0.708204
  C      1.940525    0.209848   -0.457486
  C      2.972177   -0.220038    0.256620
  H     -1.957196   -1.891564   -0.146285
  H     -2.996316   -0.452994    0.044646
  H     -2.202825   -0.759745   -1.525431
  H      0.446453   -0.619309   -1.766218
  H      0.799645   -1.614868   -0.324996
  H      1.949759    1.202936   -0.889296
  H      2.982692   -1.202462    0.711754
  H      3.843275    0.401100    0.412111

 Total Charge           Charge          ....    0
 Multiplicity           Mult            ....    1
 Number of Electrons    NEL             ....   64
 Basis Dimension        Dim             ....  510

ORBITAL ENERGIES
----------------

  NO   OCC          E(Eh)            E(eV)
   0   2.0000     -92.178738     -2508.3110
   1   2.0000     -20.541646      -558.9666
   2   2.0000     -20.540937      -558.9473
   3   2.0000     -11.287883      -307.1589
   4   2.0000     -11.279567      -306.9326
   5   2.0000     -11.255466      -306.2768
   6   2.0000     -11.244331      -305.9738
   7   2.0000      -9.148516      -248.9438
   8   2.0000      -6.833030      -185.9362
   9   2.0000      -6.832532      -185.9227
  10   2.0000      -6.832455      -185.9206
  11   2.0000      -1.439962       -39.1834
  12   2.0000      -1.328819       -36.1590
  13   2.0000      -1.110075       -30.2067
  14   2.0000      -1.047722       -28.5100
  15   2.0000      -0.980005       -26.6673
  16   2.0000      -0.827962       -22.5300
  17   2.0000      -0.780344       -21.2342
  18   2.0000      -0.689872       -18.7724
  19   2.0000      -0.678765       -18.4701
  20   2.0000      -0.661297       -17.9948
  21   2.0000      -0.644121       -17.5274
  22   2.0000      -0.619036       -16.8448
  23   2.0000      -0.604794       -16.4573
  24   2.0000      -0.598268       -16.2797
  25   2.0000      -0.569907       -15.5080
  26   2.0000      -0.522794       -14.2260
  27   2.0000      -0.493806       -13.4372
  28   2.0000      -0.491770       -13.3817
  29   2.0000      -0.465223       -12.6594
  30   2.0000      -0.443201       -12.0601
  31   2.0000      -0.381011       -10.3678
  32   0.0000       0.022477         0.6116
  33   0.0000       0.032587         0.8867
  34   0.0000       0.036096         0.9822
  35   0.0000       0.040178         1.0933
  36   0.0000       0.050455         1.3729

MULLIKEN ATOMIC CHARGES
-----------------------
   0 C :   -1.030818
   1 S :    2.210167
   2 O :   -1.045266
   3 O :   -1.049446
   4 C :   -0.294924
   5 C :   -0.302509
   6 C :   -1.052048
   7 H :    0.307569
   8 H :    0.284592
   9 H :    0.309362
  10 H :    0.327087
  11 H :    0.239225
  12 H :    0.287558
  13 H :    0.278333
  14 H :    0.531119
Sum of atomic charges:   -0.0000000

LOEWDIN ATOMIC CHARGES
----------------------
   0 C :    0.507151
   1 S :    0.253758
   2 O :    0.019795
   3 O :    0.018423
   4 C :    0.165394
   5 C :    0.134933
   6 C :    0.536613
   7 H :   -0.207049
   8 H :   -0.207666
   9 H :   -0.208825
  10 H :   -0.192397
  11 H :   -0.198112
  12 H :   -0.193057
  13 H :   -0.212394
  14 H :   -0.216566

  Mayer bond orders larger than 0.100000
B(  0-C ,  1-S ) :   0.8365 B(  0-C ,  7-H ) :   0.8894 B(  0-C ,  8-H ) :   0.9514
B(  0-C ,  9-H ) :   0.8898 B(  1-S ,  2-O ) :   1.2130 B(  1-S ,  3-O ) :   1.2233
B(  1-S ,  4-C ) :   0.8558 B(  3-O ,  4-C ) :   0.1268 B(  4-C ,  5-C ) :   0.9154
B(  4-C , 10-H ) :   0.8677 B(  4-C , 11-H ) :   0.9342 B(  5-C ,  6-C ) :   1.4399
B(  5-C , 12-H ) :   1.0036 B(  6-C , 13-H ) :   1.0582 B(  6-C , 14-H ) :   0.6273

MP2 TOTAL ENERGY:     -704.815078356 Eh
FINAL SINGLE POINT ENERGY      -704.815078355853

DIPOLE MOMENT
-------------
                                X             Y             Z
Electronic contribution:     -2.70786       3.36534       2.25576
Nuclear contribution   :      2.86505      -4.92015      -3.47010
                        -----------------------------------------
Total Dipole Moment    :      0.15719      -1.55480      -1.21434
                        -----------------------------------------
Magnitude (a.u.)       :      1.97907
Magnitude (Debye)      :      5.03041

Rotational constants in cm-1:     0.137933     0.047643     0.047245
Rotational constants in MHz :  4135.132615  1428.305847  1416.357814

                             ****ORCA TERMINATED NORMALLY****
TOTAL RUN TIME: 0 days 0 hours 4 minutes 40 seconds 748 msec
