                         Program Version 5.0.3 -  RELEASE  -
|  1> !ri-mp2 aug-cc-pvtz aug-cc-pvtz/c tightscf
|  2> %pal nprocs 16 end
|  3>
|  4> * xyz 0 1
|  5> Cl     2.402272   -0.042853    0.000005
|  6> Cl    -0.367556    2.071610   -0.000009
|  7> O     -1.150299   -1.778024    0.000004
|  8> O     -2.691642   -0.125824   -0.000006
|  9> C      0.277438   -1.865987    0.000008
| 10> C      0.741846   -0.443903    0.000003
| 11> C     -0.314842    0.367425   -0.000002
| 12> C     -1.548384   -0.464123   -0.000002
| 13> H      0.604505   -2.409285   -0.888461
| 14> H      0.604501   -2.409278    0.888482
| 15> *
| 16>
| 17>                          ****END OF INPUT****

CARTESIAN COORDINATES (ANGSTROEM)
---------------------------------
  Cl     2.402272   -0.042853    0.000005
  Cl    -0.367556    2.071610   -0.000009
  O     -1.150299   -1.778024    0.000004
  O     -2.691642   -0.125824   -0.000006
  C      0.277438   -1.865987    0.000008
  C      0.741846   -0.443903    0.000003
  C     -0.314842    0.367425   -0.000002
  C     -1.548384   -0.464123   -0.000002
  H      0.604505   -2.409285   -0.888461
  H      0.604501   -2.409278    0.888482

 Total Charge           Charge          ....    0
 Multiplicity           Mult            ....    1
 Number of Electrons    NEL             ....   76
 Basis Dimension        Dim             ....  422

ORBITAL ENERGIES
----------------

  NO   OCC          E(Eh)            E(eV)
   0   2.0000    -104.894579     -2854.3266
   1   2.0000    -104.876016     -2853.8215
   2   2.0000     -20.631158      -561.4023
   3   2.0000     -20.566113      -559.6324
   4   2.0000     -11.409826      -310.4772
   5   2.0000     -11.360258      -309.1283
   6   2.0000     -11.342980      -308.6582
   7   2.0000     -11.339748      -308.5702
   8   2.0000     -10.618012      -288.9308
   9   2.0000     -10.599339      -288.4227
  10   2.0000      -8.084979      -220.0035
  11   2.0000      -8.082875      -219.9462
  12   2.0000      -8.082771      -219.9434
  13   2.0000      -8.066368      -219.4970
  14   2.0000      -8.064171      -219.4372
  15   2.0000      -8.064112      -219.4356
  16   2.0000      -1.486495       -40.4496
  17   2.0000      -1.395739       -37.9800
  18   2.0000      -1.233846       -33.5746
  19   2.0000      -1.171736       -31.8846
  20   2.0000      -1.073001       -29.1978
  21   2.0000      -1.007295       -27.4099
  22   2.0000      -0.837677       -22.7943
  23   2.0000      -0.798467       -21.7274
  24   2.0000      -0.721764       -19.6402
  25   2.0000      -0.716629       -19.5005
  26   2.0000      -0.669174       -18.2091
  27   2.0000      -0.651482       -17.7277
  28   2.0000      -0.598583       -16.2883
  29   2.0000      -0.597896       -16.2696
  30   2.0000      -0.588425       -16.0119
  31   2.0000      -0.571969       -15.5641
  32   2.0000      -0.515032       -14.0147
  33   2.0000      -0.500284       -13.6134
  34   2.0000      -0.493119       -13.4184
  35   2.0000      -0.482732       -13.1358
  36   2.0000      -0.463286       -12.6066
  37   2.0000      -0.392024       -10.6675
  38   0.0000       0.024338         0.6623
  39   0.0000       0.037119         1.0101
  40   0.0000       0.051637         1.4051
  41   0.0000       0.059471         1.6183
  42   0.0000       0.068689         1.8691

MULLIKEN ATOMIC CHARGES
-----------------------
   0 Cl:   -0.323858
   1 Cl:   -0.308233
   2 O :   -0.307719
   3 O :   -0.692968
   4 C :   -0.136981
   5 C :    0.232303
   6 C :    0.558895
   7 C :    0.335940
   8 H :    0.321310
   9 H :    0.321310
Sum of atomic charges:    0.0000000

LOEWDIN ATOMIC CHARGES
----------------------
   0 Cl:    1.041847
   1 Cl:    1.022755
   2 O :    0.570452
   3 O :    0.426130
   4 C :   -0.038908
   5 C :   -0.888131
   6 C :   -0.903383
   7 C :   -0.914064
   8 H :   -0.158349
   9 H :   -0.158350

  Mayer bond orders larger than 0.100000
B(  0-Cl,  5-C ) :   0.7622 B(  1-Cl,  6-C ) :   0.7031 B(  2-O ,  3-O ) :  -0.1083
B(  2-O ,  4-C ) :   0.6932 B(  2-O ,  7-C ) :   1.0211 B(  3-O ,  7-C ) :   1.6264
B(  4-C ,  5-C ) :   0.8964 B(  4-C ,  8-H ) :   0.9185 B(  4-C ,  9-H ) :   0.9185
B(  5-C ,  6-C ) :   1.5161 B(  5-C ,  7-C ) :   0.1451 B(  6-C ,  7-C ) :   0.8381

MP2 TOTAL ENERGY:    -1222.980444750 Eh
FINAL SINGLE POINT ENERGY     -1222.980444749762

DIPOLE MOMENT
-------------
                                X             Y             Z
Electronic contribution:      3.31646       6.62144      -0.00002
Nuclear contribution   :     -1.64465      -7.23263       0.00002
                        -----------------------------------------
Total Dipole Moment    :      1.67180      -0.61118       0.00001
                        -----------------------------------------
Magnitude (a.u.)       :      1.78002
Magnitude (Debye)      :      4.52445

Rotational constants in cm-1:     0.063775     0.043637     0.026036
Rotational constants in MHz :  1911.933449  1308.202021   780.554286

                             ****ORCA TERMINATED NORMALLY****
TOTAL RUN TIME: 0 days 0 hours 3 minutes 4 seconds 881 msec
