                         Program Version 5.0.3 -  RELEASE  -
|  1> !ri-mp2 aug-cc-pvtz aug-cc-pvtz/c tightscf
|  2> %pal nprocs 16 end
|  3>
|  4> * xyz 0 1
|  5> S     -1.557947   -0.547420   -0.078355
|  6> C      0.113521   -1.121692    0.074303
|  7> C      1.026808   -0.155065    0.016891
|  8> C      0.488759    1.236776   -0.190699
|  9> C     -0.987946    1.187007    0.215046
| 10> O      2.374694   -0.392412    0.019811
| 11> H      0.314952   -2.177612    0.152421
| 12> H      1.028571    1.980024    0.403180
| 13> H     -1.614058    1.868088   -0.353978
| 14> H      0.605870    1.517008   -1.244505
| 15> H     -1.102813    1.398424    1.277082
| 16> H      2.850231    0.429936    0.167745
| 17> *
| 18>
| 19>                          ****END OF INPUT****

CARTESIAN COORDINATES (ANGSTROEM)
---------------------------------
  S     -1.557947   -0.547420   -0.078355
  C      0.113521   -1.121692    0.074303
  C      1.026808   -0.155065    0.016891
  C      0.488759    1.236776   -0.190699
  C     -0.987946    1.187007    0.215046
  O      2.374694   -0.392412    0.019811
  H      0.314952   -2.177612    0.152421
  H      1.028571    1.980024    0.403180
  H     -1.614058    1.868088   -0.353978
  H      0.605870    1.517008   -1.244505
  H     -1.102813    1.398424    1.277082
  H      2.850231    0.429936    0.167745

 Total Charge           Charge          ....    0
 Multiplicity           Mult            ....    1
 Number of Electrons    NEL             ....   54
 Basis Dimension        Dim             ....  418

ORBITAL ENERGIES
----------------

  NO   OCC          E(Eh)            E(eV)
   0   2.0000     -91.951896     -2502.1383
   1   2.0000     -20.595925      -560.4436
   2   2.0000     -11.299998      -307.4886
   3   2.0000     -11.267855      -306.6139
   4   2.0000     -11.254705      -306.2561
   5   2.0000     -11.241710      -305.9025
   6   2.0000      -8.951660      -243.5871
   7   2.0000      -6.632879      -180.4898
   8   2.0000      -6.632062      -180.4676
   9   2.0000      -6.630943      -180.4371
  10   2.0000      -1.406878       -38.2831
  11   2.0000      -1.136811       -30.9342
  12   2.0000      -0.996011       -27.1028
  13   2.0000      -0.963726       -26.2243
  14   2.0000      -0.823313       -22.4035
  15   2.0000      -0.756273       -20.5792
  16   2.0000      -0.710609       -19.3366
  17   2.0000      -0.661695       -18.0056
  18   2.0000      -0.634750       -17.2724
  19   2.0000      -0.587841       -15.9960
  20   2.0000      -0.563091       -15.3225
  21   2.0000      -0.532027       -14.4772
  22   2.0000      -0.508339       -13.8326
  23   2.0000      -0.497401       -13.5350
  24   2.0000      -0.448923       -12.2158
  25   2.0000      -0.415921       -11.3178
  26   2.0000      -0.291023        -7.9191
  27   0.0000       0.023425         0.6374
  28   0.0000       0.035757         0.9730
  29   0.0000       0.040198         1.0938
  30   0.0000       0.041364         1.1256
  31   0.0000       0.055929         1.5219

MULLIKEN ATOMIC CHARGES
-----------------------
   0 S :   -0.316268
   1 C :   -0.575451
   2 C :    0.501784
   3 C :   -0.305612
   4 C :   -0.432837
   5 O :   -0.644335
   6 H :    0.482082
   7 H :    0.304443
   8 H :    0.290955
   9 H :    0.260001
  10 H :    0.224236
  11 H :    0.211002
Sum of atomic charges:    0.0000000

LOEWDIN ATOMIC CHARGES
----------------------
   0 S :    1.139678
   1 C :   -0.186068
   2 C :   -0.462618
   3 C :    0.204441
   4 C :   -0.027007
   5 O :    0.824811
   6 H :   -0.263446
   7 H :   -0.155211
   8 H :   -0.222327
   9 H :   -0.147714
  10 H :   -0.220284
  11 H :   -0.484254

  Mayer bond orders larger than 0.100000
B(  0-S ,  1-C ) :   1.0803 B(  0-S ,  2-C ) :  -0.1251 B(  0-S ,  4-C ) :   0.9532
B(  1-C ,  2-C ) :   1.4048 B(  1-C ,  6-H ) :   0.7605 B(  2-C ,  3-C ) :   0.7582
B(  2-C ,  5-O ) :   0.8198 B(  3-C ,  4-C ) :   1.0380 B(  3-C ,  7-H ) :   0.9488
B(  3-C ,  9-H ) :   0.8946 B(  4-C ,  8-H ) :   0.9249 B(  4-C , 10-H ) :   0.9515
B(  5-O , 11-H ) :   0.9658

MP2 TOTAL ENERGY:     -628.518840525 Eh
FINAL SINGLE POINT ENERGY      -628.518840525017

DIPOLE MOMENT
-------------
                                X             Y             Z
Electronic contribution:     -1.61478      -3.82984      -0.25338
Nuclear contribution   :      2.15266       4.99040       0.40176
                        -----------------------------------------
Total Dipole Moment    :      0.53788       1.16057       0.14838
                        -----------------------------------------
Magnitude (a.u.)       :      1.28773
Magnitude (Debye)      :      3.27315

Rotational constants in cm-1:     0.200565     0.078849     0.058486
Rotational constants in MHz :  6012.773531  2363.825269  1753.376362

                             ****ORCA TERMINATED NORMALLY****
TOTAL RUN TIME: 0 days 0 hours 2 minutes 47 seconds 903 msec
