                         Program Version 5.0.3 -  RELEASE  -
|  1> !ri-mp2 aug-cc-pvtz aug-cc-pvtz/c tightscf
|  2> %pal nprocs 16 end
|  3>
|  4> * xyz 0 1
|  5> N     -1.193024    0.354700    0.000000
|  6> C      0.000000    1.136486    0.000000
|  7> N      1.111424    0.505412    0.000000
|  8> C      0.730867   -0.899567    0.000000
|  9> C     -0.764372   -0.854862    0.000000
| 10> H     -0.075334    2.215149    0.000000
| 11> H      1.139796   -1.410552    0.877155
| 12> H      1.139796   -1.410552   -0.877155
| 13> H     -1.432029   -1.707173    0.000000
| 14> *
| 15>
| 16>                          ****END OF INPUT****

CARTESIAN COORDINATES (ANGSTROEM)
---------------------------------
  N     -1.193024    0.354700    0.000000
  C      0.000000    1.136486    0.000000
  N      1.111424    0.505412    0.000000
  C      0.730867   -0.899567    0.000000
  C     -0.764372   -0.854862    0.000000
  H     -0.075334    2.215149    0.000000
  H      1.139796   -1.410552    0.877155
  H      1.139796   -1.410552   -0.877155
  H     -1.432029   -1.707173    0.000000

 Total Charge           Charge          ....    0
 Multiplicity           Mult            ....    1
 Number of Electrons    NEL             ....   36
 Basis Dimension        Dim             ....  322

ORBITAL ENERGIES
----------------

  NO   OCC          E(Eh)            E(eV)
   0   2.0000     -15.578101      -423.9017
   1   2.0000     -15.563914      -423.5156
   2   2.0000     -11.305900      -307.6492
   3   2.0000     -11.302556      -307.5582
   4   2.0000     -11.275624      -306.8253
   5   2.0000      -1.328882       -36.1607
   6   2.0000      -1.166038       -31.7295
   7   2.0000      -1.011217       -27.5166
   8   2.0000      -0.828312       -22.5395
   9   2.0000      -0.785625       -21.3779
  10   2.0000      -0.699654       -19.0386
  11   2.0000      -0.644064       -17.5259
  12   2.0000      -0.607319       -16.5260
  13   2.0000      -0.567842       -15.4518
  14   2.0000      -0.489354       -13.3160
  15   2.0000      -0.466692       -12.6993
  16   2.0000      -0.437590       -11.9074
  17   2.0000      -0.397018       -10.8034
  18   0.0000       0.025455         0.6927
  19   0.0000       0.038976         1.0606
  20   0.0000       0.041967         1.1420
  21   0.0000       0.042088         1.1453
  22   0.0000       0.078368         2.1325

MULLIKEN ATOMIC CHARGES
-----------------------
   0 N :   -0.392027
   1 C :   -0.370797
   2 N :   -0.518590
   3 C :   -0.029849
   4 C :   -0.527470
   5 H :    0.609578
   6 H :    0.319586
   7 H :    0.319586
   8 H :    0.589983
Sum of atomic charges:    0.0000000

LOEWDIN ATOMIC CHARGES
----------------------
   0 N :    0.373665
   1 C :   -0.169477
   2 N :    0.370084
   3 C :    0.072030
   4 C :    0.036217
   5 H :   -0.197144
   6 H :   -0.155988
   7 H :   -0.155988
   8 H :   -0.173400

  Mayer bond orders larger than 0.100000
B(  0-N ,  1-C ) :   0.9019 B(  0-N ,  4-C ) :   1.4653 B(  1-C ,  2-N ) :   1.6558
B(  1-C ,  4-C ) :  -0.1113 B(  1-C ,  5-H ) :   0.5990 B(  2-N ,  3-C ) :   0.7530
B(  3-C ,  4-C ) :   0.8369 B(  3-C ,  6-H ) :   0.8819 B(  3-C ,  7-H ) :   0.8819
B(  4-C ,  8-H ) :   0.5814

MP2 TOTAL ENERGY:     -225.761201339 Eh
FINAL SINGLE POINT ENERGY      -225.761201338823

DIPOLE MOMENT
-------------
                                X             Y             Z
Electronic contribution:     -0.85096       1.42933      -0.00000
Nuclear contribution   :      0.76644      -2.29220       0.00000
                        -----------------------------------------
Total Dipole Moment    :     -0.08452      -0.86287      -0.00000
                        -----------------------------------------
Magnitude (a.u.)       :      0.86700
Magnitude (Debye)      :      2.20374

Rotational constants in cm-1:     0.321071     0.295119     0.158252
Rotational constants in MHz :  9625.462625  8847.441459  4744.289196

                             ****ORCA TERMINATED NORMALLY****
TOTAL RUN TIME: 0 days 0 hours 1 minutes 27 seconds 994 msec
