                         Program Version 5.0.3 -  RELEASE  -
|  1> !ri-mp2 aug-cc-pvtz aug-cc-pvtz/c tightscf
|  2> %pal nprocs 16 end
|  3>
|  4> * xyz 0 1
|  5> N      1.836314    0.047911   -0.000037
|  6> C      1.226255   -1.073102   -0.000001
|  7> C     -0.257423   -1.256683    0.000068
|  8> C     -1.075456    0.025969   -0.000044
|  9> C     -0.291026    1.257772    0.000051
| 10> C      1.053818    1.213993   -0.000020
| 11> O     -2.292236    0.003283   -0.000067
| 12> H      1.839628   -1.972339   -0.000073
| 13> H     -0.551220   -1.860885    0.865345
| 14> H     -0.825378    2.197611    0.000125
| 15> H      1.634483    2.127729    0.000039
| 16> H     -0.550829   -1.861455   -0.864964
| 17> *
| 18>
| 19>                          ****END OF INPUT****

CARTESIAN COORDINATES (ANGSTROEM)
---------------------------------
  N      1.836314    0.047911   -0.000037
  C      1.226255   -1.073102   -0.000001
  C     -0.257423   -1.256683    0.000068
  C     -1.075456    0.025969   -0.000044
  C     -0.291026    1.257772    0.000051
  C      1.053818    1.213993   -0.000020
  O     -2.292236    0.003283   -0.000067
  H      1.839628   -1.972339   -0.000073
  H     -0.551220   -1.860885    0.865345
  H     -0.825378    2.197611    0.000125
  H      1.634483    2.127729    0.000039
  H     -0.550829   -1.861455   -0.864964

 Total Charge           Charge          ....    0
 Multiplicity           Mult            ....    1
 Number of Electrons    NEL             ....   50
 Basis Dimension        Dim             ....  437

ORBITAL ENERGIES
----------------

  NO   OCC          E(Eh)            E(eV)
   0   2.0000     -20.546560      -559.1003
   1   2.0000     -15.584948      -424.0880
   2   2.0000     -11.342444      -308.6436
   3   2.0000     -11.318805      -308.0003
   4   2.0000     -11.302059      -307.5447
   5   2.0000     -11.266331      -306.5725
   6   2.0000     -11.244502      -305.9785
   7   2.0000      -1.388168       -37.7740
   8   2.0000      -1.278915       -34.8011
   9   2.0000      -1.071136       -29.1471
  10   2.0000      -1.059474       -28.8298
  11   2.0000      -0.889442       -24.2029
  12   2.0000      -0.837189       -22.7811
  13   2.0000      -0.707879       -19.2624
  14   2.0000      -0.695225       -18.9180
  15   2.0000      -0.681979       -18.5576
  16   2.0000      -0.641870       -17.4662
  17   2.0000      -0.615524       -16.7493
  18   2.0000      -0.606534       -16.5046
  19   2.0000      -0.564061       -15.3489
  20   2.0000      -0.521958       -14.2032
  21   2.0000      -0.510346       -13.8872
  22   2.0000      -0.441131       -12.0038
  23   2.0000      -0.421726       -11.4758
  24   2.0000      -0.362297        -9.8586
  25   0.0000       0.024097         0.6557
  26   0.0000       0.031815         0.8657
  27   0.0000       0.040705         1.1076
  28   0.0000       0.041398         1.1265
  29   0.0000       0.046254         1.2586

MULLIKEN ATOMIC CHARGES
-----------------------
   0 N :   -0.348574
   1 C :   -0.657456
   2 C :   -0.009781
   3 C :    0.522673
   4 C :   -0.287402
   5 C :   -0.418236
   6 O :   -0.925312
   7 H :    0.543290
   8 H :    0.284306
   9 H :    0.377029
  10 H :    0.635194
  11 H :    0.284270
Sum of atomic charges:    0.0000000

LOEWDIN ATOMIC CHARGES
----------------------
   0 N :    0.367683
   1 C :    0.054998
   2 C :    0.287834
   3 C :   -0.556318
   4 C :    0.213628
   5 C :    0.037284
   6 O :    0.445684
   7 H :   -0.172147
   8 H :   -0.146154
   9 H :   -0.196968
  10 H :   -0.189393
  11 H :   -0.146131

  Mayer bond orders larger than 0.100000
B(  0-N ,  1-C ) :   1.4618 B(  0-N ,  4-C ) :  -0.1027 B(  0-N ,  5-C ) :   0.9716
B(  1-C ,  2-C ) :   0.6387 B(  1-C ,  3-C ) :   0.2737 B(  1-C ,  7-H ) :   0.6015
B(  2-C ,  3-C ) :   0.7561 B(  2-C ,  8-H ) :   0.9459 B(  2-C , 11-H ) :   0.9459
B(  3-C ,  4-C ) :   0.9117 B(  3-C ,  6-O ) :   1.2618 B(  4-C ,  5-C ) :   1.4478
B(  4-C ,  9-H ) :   0.8791 B(  5-C , 10-H ) :   0.4774

MP2 TOTAL ENERGY:     -322.871799114 Eh
FINAL SINGLE POINT ENERGY      -322.871799113985

DIPOLE MOMENT
-------------
                                X             Y             Z
Electronic contribution:     -0.63495       0.88832      -0.00032
Nuclear contribution   :      1.50217      -1.35177       0.00046
                        -----------------------------------------
Total Dipole Moment    :      0.86722      -0.46344       0.00014
                        -----------------------------------------
Magnitude (a.u.)       :      0.98329
Magnitude (Debye)      :      2.49932

Rotational constants in cm-1:     0.184502     0.090009     0.061158
Rotational constants in MHz :  5531.221339  2698.389089  1833.477084

                             ****ORCA TERMINATED NORMALLY****
TOTAL RUN TIME: 0 days 0 hours 3 minutes 30 seconds 951 msec
