                         Program Version 5.0.3 -  RELEASE  -
|  1> !ri-mp2 aug-cc-pvtz aug-cc-pvtz/c tightscf
|  2> %pal nprocs 16 end
|  3>
|  4> * xyz 0 1
|  5> N    -0.276322   -1.723967    0.000021
|  6> N    -1.849466   -0.170596   -0.000023
|  7> N    -0.289475    2.979967   -0.000049
|  8> C     0.394581   -0.521917    0.000012
|  9> C    -0.614933    0.430613   -0.000017
| 10> C    -1.610732   -1.456201    0.000000
| 11> C     1.794759   -0.410634    0.000031
| 12> C    -0.446188    1.838684   -0.000036
| 13> C     2.991406   -0.303459    0.000049
| 14> H     0.162004   -2.629700    0.000046
| 15> H    -2.356541   -2.233190    0.000003
| 16> H     4.048019   -0.197456    0.000073
| 17> *
| 18>
| 19>                          ****END OF INPUT****

CARTESIAN COORDINATES (ANGSTROEM)
---------------------------------
  N     -0.276322   -1.723967    0.000021
  N     -1.849466   -0.170596   -0.000023
  N     -0.289475    2.979967   -0.000049
  C      0.394581   -0.521917    0.000012
  C     -0.614933    0.430613   -0.000017
  C     -1.610732   -1.456201    0.000000
  C      1.794759   -0.410634    0.000031
  C     -0.446188    1.838684   -0.000036
  C      2.991406   -0.303459    0.000049
  H      0.162004   -2.629700    0.000046
  H     -2.356541   -2.233190    0.000003
  H      4.048019   -0.197456    0.000073

 Total Charge           Charge          ....    0
 Multiplicity           Mult            ....    1
 Number of Electrons    NEL             ....   60
 Basis Dimension        Dim             ....  483

ORBITAL ENERGIES
----------------

  NO   OCC          E(Eh)            E(eV)
   0   2.0000     -15.664128      -426.2426
   1   2.0000     -15.588841      -424.1939
   2   2.0000     -15.573099      -423.7656
   3   2.0000     -11.337824      -308.5179
   4   2.0000     -11.332971      -308.3858
   5   2.0000     -11.314153      -307.8738
   6   2.0000     -11.275937      -306.8339
   7   2.0000     -11.271766      -306.7203
   8   2.0000     -11.266939      -306.5890
   9   2.0000      -1.390214       -37.8297
  10   2.0000      -1.228876       -33.4394
  11   2.0000      -1.209970       -32.9250
  12   2.0000      -1.107389       -30.1336
  13   2.0000      -1.038319       -28.2541
  14   2.0000      -0.914865       -24.8947
  15   2.0000      -0.870978       -23.7005
  16   2.0000      -0.844414       -22.9777
  17   2.0000      -0.743655       -20.2359
  18   2.0000      -0.699525       -19.0350
  19   2.0000      -0.682613       -18.5748
  20   2.0000      -0.652936       -17.7673
  21   2.0000      -0.648845       -17.6560
  22   2.0000      -0.559297       -15.2192
  23   2.0000      -0.508962       -13.8496
  24   2.0000      -0.492043       -13.3892
  25   2.0000      -0.474983       -12.9250
  26   2.0000      -0.469269       -12.7694
  27   2.0000      -0.430907       -11.7256
  28   2.0000      -0.425477       -11.5778
  29   2.0000      -0.336224        -9.1491
  30   0.0000       0.013529         0.3681
  31   0.0000       0.024877         0.6769
  32   0.0000       0.037804         1.0287
  33   0.0000       0.060072         1.6347
  34   0.0000       0.062394         1.6978

MULLIKEN ATOMIC CHARGES
-----------------------
   0 N :   -0.064001
   1 N :   -0.639227
   2 N :   -0.777040
   3 C :    0.722974
   4 C :    1.037036
   5 C :   -0.743311
   6 C :    0.999967
   7 C :    0.361779
   8 C :   -1.983529
   9 H :    0.079484
  10 H :    0.647918
  11 H :    0.357948
Sum of atomic charges:    0.0000000

LOEWDIN ATOMIC CHARGES
----------------------
   0 N :    0.538629
   1 N :    0.380076
   2 N :    0.270300
   3 C :   -0.296178
   4 C :   -0.390823
   5 C :   -0.040488
   6 C :    0.023835
   7 C :   -0.235407
   8 C :    0.430718
   9 H :   -0.232146
  10 H :   -0.166450
  11 H :   -0.282067

  Mayer bond orders larger than 0.100000
B(  0-N ,  1-N ) :  -0.1343 B(  0-N ,  3-C ) :   1.0268 B(  0-N ,  4-C ) :  -0.2509
B(  0-N ,  5-C ) :   1.1954 B(  0-N ,  6-C ) :  -0.1065 B(  0-N ,  9-H ) :   1.1531
B(  1-N ,  3-C ) :   0.1546 B(  1-N ,  4-C ) :   0.2092 B(  1-N ,  5-C ) :   1.5753
B(  2-N ,  7-C ) :   2.0072 B(  3-C ,  4-C ) :   1.5819 B(  3-C ,  6-C ) :   1.2596
B(  3-C ,  8-C ) :  -0.8805 B(  4-C ,  5-C ) :  -0.1596 B(  4-C ,  6-C ) :  -0.3289
B(  4-C ,  7-C ) :   0.6735 B(  4-C ,  8-C ) :   0.3007 B(  5-C , 10-H ) :   0.4909
B(  6-C ,  7-C ) :   0.1057 B(  6-C , 11-H ) :  -0.3391 B(  8-C , 11-H ) :   1.4015

MP2 TOTAL ENERGY:     -393.876515587 Eh
FINAL SINGLE POINT ENERGY      -393.876515586636

DIPOLE MOMENT
-------------
                                X             Y             Z
Electronic contribution:     -0.94599       1.99985      -0.00006
Nuclear contribution   :      1.76978      -4.86294       0.00012
                        -----------------------------------------
Total Dipole Moment    :      0.82379      -2.86309       0.00006
                        -----------------------------------------
Magnitude (a.u.)       :      2.97925
Magnitude (Debye)      :      7.57264

Rotational constants in cm-1:     0.067191     0.064722     0.032967
Rotational constants in MHz :  2014.343734  1940.316481   988.318625

                             ****ORCA TERMINATED NORMALLY****
TOTAL RUN TIME: 0 days 0 hours 4 minutes 35 seconds 478 msec
