                         Program Version 5.0.3 -  RELEASE  -
|  1> !ri-mp2 aug-cc-pvtz aug-cc-pvtz/c tightscf
|  2> %pal nprocs 16 end
|  3>
|  4> * xyz 0 1
|  5> S      1.535241    1.076974    0.000006
|  6> S     -2.578025   -0.232305    0.000005
|  7> O      2.214634   -1.515497   -0.000019
|  8> N     -0.028314   -1.003049   -0.000009
|  9> C     -0.279530    1.342985    0.000012
| 10> C     -0.953928   -0.011648    0.000002
| 11> C      1.338317   -0.698704   -0.000010
| 12> H     -0.577310    1.904471   -0.882290
| 13> H     -0.577306    1.904457    0.882325
| 14> H     -0.308867   -1.974111   -0.000017
| 15> *
| 16>
| 17>                          ****END OF INPUT****

CARTESIAN COORDINATES (ANGSTROEM)
---------------------------------
  S      1.535241    1.076974    0.000006
  S     -2.578025   -0.232305    0.000005
  O      2.214634   -1.515497   -0.000019
  N     -0.028314   -1.003049   -0.000009
  C     -0.279530    1.342985    0.000012
  C     -0.953928   -0.011648    0.000002
  C      1.338317   -0.698704   -0.000010
  H     -0.577310    1.904471   -0.882290
  H     -0.577306    1.904457    0.882325
  H     -0.308867   -1.974111   -0.000017

 Total Charge           Charge          ....    0
 Multiplicity           Mult            ....    1
 Number of Electrons    NEL             ....   68
 Basis Dimension        Dim             ....  399

ORBITAL ENERGIES
----------------

  NO   OCC          E(Eh)            E(eV)
   0   2.0000     -92.009940     -2503.7178
   1   2.0000     -91.939943     -2501.8130
   2   2.0000     -20.581174      -560.0422
   3   2.0000     -15.660444      -426.1424
   4   2.0000     -11.425560      -310.9053
   5   2.0000     -11.393640      -310.0367
   6   2.0000     -11.316431      -307.9357
   7   2.0000      -9.010825      -245.1970
   8   2.0000      -8.942845      -243.3472
   9   2.0000      -6.691716      -182.0908
  10   2.0000      -6.690901      -182.0687
  11   2.0000      -6.689840      -182.0398
  12   2.0000      -6.624111      -180.2512
  13   2.0000      -6.622625      -180.2108
  14   2.0000      -6.621584      -180.1825
  15   2.0000      -1.447932       -39.4002
  16   2.0000      -1.331703       -36.2375
  17   2.0000      -1.112827       -30.2816
  18   2.0000      -1.067354       -29.0442
  19   2.0000      -0.935929       -25.4679
  20   2.0000      -0.860035       -23.4027
  21   2.0000      -0.839789       -22.8518
  22   2.0000      -0.708876       -19.2895
  23   2.0000      -0.683083       -18.5876
  24   2.0000      -0.647452       -17.6181
  25   2.0000      -0.633621       -17.2417
  26   2.0000      -0.618957       -16.8427
  27   2.0000      -0.571213       -15.5435
  28   2.0000      -0.524938       -14.2843
  29   2.0000      -0.511113       -13.9081
  30   2.0000      -0.467465       -12.7204
  31   2.0000      -0.412049       -11.2124
  32   2.0000      -0.369946       -10.0667
  33   2.0000      -0.359440        -9.7809
  34   0.0000       0.025004         0.6804
  35   0.0000       0.037122         1.0101
  36   0.0000       0.039174         1.0660
  37   0.0000       0.054423         1.4809
  38   0.0000       0.056953         1.5498

MULLIKEN ATOMIC CHARGES
-----------------------
   0 S :   -0.119572
   1 S :   -0.495216
   2 O :   -0.659732
   3 N :    0.212879
   4 C :   -0.217939
   5 C :    0.118338
   6 C :    0.433807
   7 H :    0.304272
   8 H :    0.304272
   9 H :    0.118891
Sum of atomic charges:    0.0000000

LOEWDIN ATOMIC CHARGES
----------------------
   0 S :    1.224801
   1 S :    0.930704
   2 O :    0.373105
   3 N :    0.388426
   4 C :   -0.131536
   5 C :   -1.006140
   6 C :   -1.039005
   7 H :   -0.229691
   8 H :   -0.229690
   9 H :   -0.280974

  Mayer bond orders larger than 0.100000
B(  0-S ,  4-C ) :   0.9192 B(  0-S ,  5-C ) :   0.1299 B(  0-S ,  6-C ) :   1.0297
B(  1-S ,  5-C ) :   1.6584 B(  2-O ,  6-C ) :   1.6106 B(  3-N ,  5-C ) :   1.0403
B(  3-N ,  6-C ) :   1.0583 B(  3-N ,  9-H ) :   1.0389 B(  4-C ,  5-C ) :   0.8870
B(  4-C ,  7-H ) :   0.9195 B(  4-C ,  8-H ) :   0.9195 B(  5-C ,  6-C ) :  -0.1461

MP2 TOTAL ENERGY:    -1041.131225716 Eh
FINAL SINGLE POINT ENERGY     -1041.131225716391

DIPOLE MOMENT
-------------
                                X             Y             Z
Electronic contribution:      1.23449      -0.95649      -0.00001
Nuclear contribution   :     -1.33916       1.70586       0.00002
                        -----------------------------------------
Total Dipole Moment    :     -0.10467       0.74937       0.00001
                        -----------------------------------------
Magnitude (a.u.)       :      0.75664
Magnitude (Debye)      :      1.92323

Rotational constants in cm-1:     0.129617     0.041847     0.031822
Rotational constants in MHz :  3885.819497  1254.551550   953.986542

                             ****ORCA TERMINATED NORMALLY****
TOTAL RUN TIME: 0 days 0 hours 2 minutes 51 seconds 430 msec
