                         Program Version 5.0.3 -  RELEASE  -
|  1> !ri-mp2 aug-cc-pvtz aug-cc-pvtz/c tightscf
|  2> %pal nprocs 16 end
|  3>
|  4> * xyz 0 1
|  5> Cl    1.997780   -1.371459    0.000000
|  6> S    -1.725995    0.605097    0.000000
|  7> O     0.396341    2.866951    0.000000
|  8> N    -1.923957   -1.041509    0.000000
|  9> C     0.000000    0.542410    0.000000
| 10> C     0.370267   -0.782870    0.000000
| 11> C    -0.756625   -1.641068    0.000000
| 12> C     0.840877    1.741435    0.000000
| 13> H    -0.703404   -2.720895    0.000000
| 14> H     1.926917    1.549668    0.000000
| 15> *
| 16>
| 17>                          ****END OF INPUT****

CARTESIAN COORDINATES (ANGSTROEM)
---------------------------------
  Cl     1.997780   -1.371459    0.000000
  S     -1.725995    0.605097    0.000000
  O      0.396341    2.866951    0.000000
  N     -1.923957   -1.041509    0.000000
  C      0.000000    0.542410    0.000000
  C      0.370267   -0.782870    0.000000
  C     -0.756625   -1.641068    0.000000
  C      0.840877    1.741435    0.000000
  H     -0.703404   -2.720895    0.000000
  H      1.926917    1.549668    0.000000

 Total Charge           Charge          ....    0
 Multiplicity           Mult            ....    1
 Number of Electrons    NEL             ....   74
 Basis Dimension        Dim             ....  422

ORBITAL ENERGIES
----------------

  NO   OCC          E(Eh)            E(eV)
   0   2.0000    -104.882502     -2853.9980
   1   2.0000     -92.041538     -2504.5776
   2   2.0000     -20.586996      -560.2006
   3   2.0000     -15.628006      -425.2597
   4   2.0000     -11.367628      -309.3289
   5   2.0000     -11.344616      -308.7027
   6   2.0000     -11.314757      -307.8902
   7   2.0000     -11.313985      -307.8692
   8   2.0000     -10.605884      -288.6008
   9   2.0000      -9.038292      -245.9444
  10   2.0000      -8.072834      -219.6730
  11   2.0000      -8.070785      -219.6172
  12   2.0000      -8.070768      -219.6168
  13   2.0000      -6.719036      -182.8343
  14   2.0000      -6.718073      -182.8081
  15   2.0000      -6.717462      -182.7914
  16   2.0000      -1.422277       -38.7021
  17   2.0000      -1.312924       -35.7265
  18   2.0000      -1.190104       -32.3844
  19   2.0000      -1.093069       -29.7439
  20   2.0000      -1.017306       -27.6823
  21   2.0000      -0.923651       -25.1338
  22   2.0000      -0.814120       -22.1533
  23   2.0000      -0.779001       -21.1977
  24   2.0000      -0.707401       -19.2494
  25   2.0000      -0.686596       -18.6832
  26   2.0000      -0.645094       -17.5539
  27   2.0000      -0.618531       -16.8311
  28   2.0000      -0.605209       -16.4686
  29   2.0000      -0.556504       -15.1432
  30   2.0000      -0.534576       -14.5465
  31   2.0000      -0.522669       -14.2225
  32   2.0000      -0.504118       -13.7178
  33   2.0000      -0.470915       -12.8142
  34   2.0000      -0.459026       -12.4907
  35   2.0000      -0.399018       -10.8578
  36   2.0000      -0.373234       -10.1562
  37   0.0000       0.020108         0.5472
  38   0.0000       0.028002         0.7620
  39   0.0000       0.034383         0.9356
  40   0.0000       0.057630         1.5682
  41   0.0000       0.065236         1.7752

MULLIKEN ATOMIC CHARGES
-----------------------
   0 Cl:   -0.373949
   1 S :    0.079198
   2 O :   -0.677758
   3 N :   -0.544070
   4 C :    0.631375
   5 C :    0.665951
   6 C :   -0.532506
   7 C :   -0.360496
   8 H :    0.617402
   9 H :    0.494852
Sum of atomic charges:   -0.0000000

LOEWDIN ATOMIC CHARGES
----------------------
   0 Cl:    0.995767
   1 S :    1.135171
   2 O :    0.425834
   3 N :   -0.058579
   4 C :   -0.620089
   5 C :   -0.899904
   6 C :   -0.227749
   7 C :   -0.328104
   8 H :   -0.209789
   9 H :   -0.212558

  Mayer bond orders larger than 0.100000
B(  0-Cl,  5-C ) :   0.6271 B(  1-S ,  3-N ) :   0.9930 B(  1-S ,  4-C ) :   0.9844
B(  1-S ,  6-C ) :   0.1782 B(  2-O ,  7-C ) :   1.5703 B(  3-N ,  6-C ) :   1.2052
B(  4-C ,  5-C ) :   1.3660 B(  4-C ,  7-C ) :   0.5455 B(  5-C ,  6-C ) :   0.9300
B(  6-C ,  8-H ) :   0.5891 B(  7-C ,  9-H ) :   0.7367

MP2 TOTAL ENERGY:    -1140.512775663 Eh
FINAL SINGLE POINT ENERGY     -1140.512775662680

DIPOLE MOMENT
-------------
                                X             Y             Z
Electronic contribution:      2.13105      -1.67872       0.00000
Nuclear contribution   :     -1.49394       0.76398       0.00000
                        -----------------------------------------
Total Dipole Moment    :      0.63710      -0.91473       0.00000
                        -----------------------------------------
Magnitude (a.u.)       :      1.11474
Magnitude (Debye)      :      2.83343

Rotational constants in cm-1:     0.064044     0.046306     0.026875
Rotational constants in MHz :  1919.988034  1388.210022   805.679281

                             ****ORCA TERMINATED NORMALLY****
TOTAL RUN TIME: 0 days 0 hours 3 minutes 35 seconds 84 msec
