                         Program Version 5.0.3 -  RELEASE  -
|  1> !ri-mp2 aug-cc-pvtz aug-cc-pvtz/c tightscf
|  2> %pal nprocs 16 end
|  3>
|  4> * xyz 0 1
|  5> C      0.232599    2.252569    0.000000
|  6> H      1.240702    2.639284    0.000000
|  7> H     -0.591492    2.949028    0.000000
|  8> O      0.964439   -0.073898    0.000000
|  9> C     -0.031516   -1.052379    0.000000
| 10> O      0.109849   -2.226036    0.000000
| 11> C     -1.150253   -0.013443    0.000000
| 12> H     -1.774247   -0.027961    0.891486
| 13> H     -1.774247   -0.027961   -0.891486
| 14> C      0.000000    0.957768    0.000000
| 15> *
| 16>
| 17>                          ****END OF INPUT****

CARTESIAN COORDINATES (ANGSTROEM)
---------------------------------
  C      0.232599    2.252569    0.000000
  H      1.240702    2.639284    0.000000
  H     -0.591492    2.949028    0.000000
  O      0.964439   -0.073898    0.000000
  C     -0.031516   -1.052379    0.000000
  O      0.109849   -2.226036    0.000000
  C     -1.150253   -0.013443    0.000000
  H     -1.774247   -0.027961    0.891486
  H     -1.774247   -0.027961   -0.891486
  C      0.000000    0.957768    0.000000

 Total Charge           Charge          ....    0
 Multiplicity           Mult            ....    1
 Number of Electrons    NEL             ....   44
 Basis Dimension        Dim             ....  368

ORBITAL ENERGIES
----------------

  NO   OCC          E(Eh)            E(eV)
   0   2.0000     -20.627149      -561.2933
   1   2.0000     -20.576018      -559.9019
   2   2.0000     -11.405031      -310.3467
   3   2.0000     -11.329741      -308.2979
   4   2.0000     -11.283471      -307.0389
   5   2.0000     -11.240526      -305.8703
   6   2.0000      -1.489563       -40.5331
   7   2.0000      -1.407083       -38.2887
   8   2.0000      -1.083388       -29.4805
   9   2.0000      -1.029374       -28.0107
  10   2.0000      -0.821361       -22.3504
  11   2.0000      -0.767696       -20.8901
  12   2.0000      -0.707812       -19.2605
  13   2.0000      -0.694463       -18.8973
  14   2.0000      -0.693681       -18.8760
  15   2.0000      -0.611711       -16.6455
  16   2.0000      -0.601294       -16.3620
  17   2.0000      -0.584065       -15.8932
  18   2.0000      -0.530289       -14.4299
  19   2.0000      -0.529223       -14.4009
  20   2.0000      -0.462813       -12.5938
  21   2.0000      -0.378707       -10.3051
  22   0.0000       0.022878         0.6225
  23   0.0000       0.034045         0.9264
  24   0.0000       0.039275         1.0687
  25   0.0000       0.043656         1.1879
  26   0.0000       0.068644         1.8679

MULLIKEN ATOMIC CHARGES
-----------------------
   0 C :   -1.266687
   1 H :    0.463962
   2 H :    0.299368
   3 O :   -0.387341
   4 C :    0.389092
   5 O :   -0.621567
   6 C :   -0.273778
   7 H :    0.328929
   8 H :    0.328929
   9 C :    0.739093
Sum of atomic charges:    0.0000000

LOEWDIN ATOMIC CHARGES
----------------------
   0 C :    0.538290
   1 H :   -0.226561
   2 H :   -0.235246
   3 O :    0.564317
   4 C :   -0.743205
   5 O :    0.432791
   6 C :    0.339227
   7 H :   -0.148189
   8 H :   -0.148189
   9 C :   -0.373235

  Mayer bond orders larger than 0.100000
B(  0-C ,  1-H ) :   0.7751 B(  0-C ,  2-H ) :   1.1163 B(  0-C ,  6-C ) :  -0.1211
B(  0-C ,  9-C ) :   1.2031 B(  3-O ,  4-C ) :   1.0115 B(  3-O ,  9-C ) :   0.6828
B(  4-C ,  5-O ) :   1.6383 B(  4-C ,  6-C ) :   0.8404 B(  4-C ,  9-C ) :  -0.1390
B(  6-C ,  7-H ) :   0.9000 B(  6-C ,  8-H ) :   0.9000 B(  6-C ,  9-C ) :   0.9201

MP2 TOTAL ENERGY:     -304.711361269 Eh
FINAL SINGLE POINT ENERGY      -304.711361268589

DIPOLE MOMENT
-------------
                                X             Y             Z
Electronic contribution:      1.82188      -4.15207      -0.00000
Nuclear contribution   :     -2.83302       5.40208       0.00000
                        -----------------------------------------
Total Dipole Moment    :     -1.01114       1.25001      -0.00000
                        -----------------------------------------
Magnitude (a.u.)       :      1.60777
Magnitude (Debye)      :      4.08663

Rotational constants in cm-1:     0.408296     0.092744     0.076679
Rotational constants in MHz : 12240.400942  2780.400653  2298.763683

                             ****ORCA TERMINATED NORMALLY****
TOTAL RUN TIME: 0 days 0 hours 1 minutes 55 seconds 717 msec
