                         Program Version 5.0.3 -  RELEASE  -
|  1> !ri-mp2 aug-cc-pvtz aug-cc-pvtz/c tightscf
|  2> %pal nprocs 16 end
|  3> %maxcore 3800
|  4>
|  5> * xyz 0 1
|  6> C      0.000000    0.000000    0.295876
|  7> C      0.000056    3.828834   -0.530290
|  8> C     -0.000056   -3.828834   -0.530290
|  9> C      0.000000    1.290026   -0.509256
| 10> C      0.000000   -1.290026   -0.509256
| 11> C      0.000059    2.564624    0.327131
| 12> C     -0.000059   -2.564624    0.327131
| 13> O      0.000000    0.000000    1.506774
| 14> H     -0.880828    3.873562   -1.174448
| 15> H      0.000099    4.725217    0.090803
| 16> H      0.880894    3.873522   -1.174514
| 17> H      0.880828   -3.873562   -1.174448
| 18> H     -0.000099   -4.725217    0.090803
| 19> H     -0.880894   -3.873522   -1.174514
| 20> H      0.868429    1.265284   -1.177370
| 21> H     -0.868485    1.265321   -1.177299
| 22> H      0.868485   -1.265321   -1.177299
| 23> H     -0.868429   -1.265284   -1.177370
| 24> H     -0.869532    2.558992    0.986328
| 25> H      0.869698    2.558953    0.986265
| 26> H      0.869532   -2.558992    0.986328
| 27> H     -0.869698   -2.558953    0.986265
| 28> *
| 29>
| 30>                          ****END OF INPUT****

CARTESIAN COORDINATES (ANGSTROEM)
---------------------------------
  C      0.000000    0.000000    0.295876
  C      0.000056    3.828834   -0.530290
  C     -0.000056   -3.828834   -0.530290
  C      0.000000    1.290026   -0.509256
  C      0.000000   -1.290026   -0.509256
  C      0.000059    2.564624    0.327131
  C     -0.000059   -2.564624    0.327131
  O      0.000000    0.000000    1.506774
  H     -0.880828    3.873562   -1.174448
  H      0.000099    4.725217    0.090803
  H      0.880894    3.873522   -1.174514
  H      0.880828   -3.873562   -1.174448
  H     -0.000099   -4.725217    0.090803
  H     -0.880894   -3.873522   -1.174514
  H      0.868429    1.265284   -1.177370
  H     -0.868485    1.265321   -1.177299
  H      0.868485   -1.265321   -1.177299
  H     -0.868429   -1.265284   -1.177370
  H     -0.869532    2.558992    0.986328
  H      0.869698    2.558953    0.986265
  H      0.869532   -2.558992    0.986328
  H     -0.869698   -2.558953    0.986265

 Total Charge           Charge          ....    0
 Multiplicity           Mult            ....    1
 Number of Electrons    NEL             ....   64
 Basis Dimension        Dim             ....  690

ORBITAL ENERGIES
----------------

  NO   OCC          E(Eh)            E(eV)
   0   2.0000     -20.541563      -558.9643
   1   2.0000     -11.324827      -308.1642
   2   2.0000     -11.234732      -305.7126
   3   2.0000     -11.234710      -305.7120
   4   2.0000     -11.220731      -305.3316
   5   2.0000     -11.220731      -305.3316
   6   2.0000     -11.215247      -305.1824
   7   2.0000     -11.215247      -305.1824
   8   2.0000      -1.384442       -37.6726
   9   2.0000      -1.082556       -29.4578
  10   2.0000      -1.065013       -28.9805
  11   2.0000      -0.986305       -26.8387
  12   2.0000      -0.936621       -25.4868
  13   2.0000      -0.838475       -22.8161
  14   2.0000      -0.802436       -21.8354
  15   2.0000      -0.729321       -19.8458
  16   2.0000      -0.655656       -17.8413
  17   2.0000      -0.655366       -17.8334
  18   2.0000      -0.630822       -17.1655
  19   2.0000      -0.627275       -17.0690
  20   2.0000      -0.572853       -15.5881
  21   2.0000      -0.572692       -15.5837
  22   2.0000      -0.557941       -15.1823
  23   2.0000      -0.537587       -14.6285
  24   2.0000      -0.520618       -14.1667
  25   2.0000      -0.498044       -13.5525
  26   2.0000      -0.489634       -13.3236
  27   2.0000      -0.486596       -13.2410
  28   2.0000      -0.478434       -13.0189
  29   2.0000      -0.477341       -12.9891
  30   2.0000      -0.471215       -12.8224
  31   2.0000      -0.402200       -10.9444
  32   0.0000       0.026590         0.7236
  33   0.0000       0.030471         0.8291
  34   0.0000       0.036004         0.9797
  35   0.0000       0.037674         1.0252
  36   0.0000       0.046806         1.2737

MULLIKEN ATOMIC CHARGES
-----------------------
   0 C :    0.483251
   1 C :   -0.957445
   2 C :   -0.957446
   3 C :   -0.213204
   4 C :   -0.213203
   5 C :   -0.435032
   6 C :   -0.435032
   7 O :   -0.938692
   8 H :    0.265307
   9 H :    0.284735
  10 H :    0.265303
  11 H :    0.265307
  12 H :    0.284735
  13 H :    0.265302
  14 H :    0.267860
  15 H :    0.267871
  16 H :    0.267871
  17 H :    0.267860
  18 H :    0.241163
  19 H :    0.241164
  20 H :    0.241162
  21 H :    0.241163
Sum of atomic charges:    0.0000000

LOEWDIN ATOMIC CHARGES
----------------------
   0 C :   -0.479132
   1 C :    0.579262
   2 C :    0.579262
   3 C :    0.272864
   4 C :    0.272864
   5 C :    0.248717
   6 C :    0.248717
   7 O :    0.493766
   8 H :   -0.171712
   9 H :   -0.172276
  10 H :   -0.171712
  11 H :   -0.171712
  12 H :   -0.172276
  13 H :   -0.171712
  14 H :   -0.146343
  15 H :   -0.146342
  16 H :   -0.146342
  17 H :   -0.146343
  18 H :   -0.149889
  19 H :   -0.149887
  20 H :   -0.149889
  21 H :   -0.149887

  Mayer bond orders larger than 0.100000
B(  0-C ,  3-C ) :   0.9026 B(  0-C ,  4-C ) :   0.9026 B(  0-C ,  7-O ) :   1.1088
B(  1-C ,  5-C ) :   0.9329 B(  1-C ,  8-H ) :   0.9628 B(  1-C ,  9-H ) :   0.9781
B(  1-C , 10-H ) :   0.9628 B(  2-C ,  6-C ) :   0.9329 B(  2-C , 11-H ) :   0.9628
B(  2-C , 12-H ) :   0.9781 B(  2-C , 13-H ) :   0.9628 B(  3-C ,  5-C ) :   0.9308
B(  3-C , 14-H ) :   0.9415 B(  3-C , 15-H ) :   0.9414 B(  4-C ,  6-C ) :   0.9308
B(  4-C , 16-H ) :   0.9414 B(  4-C , 17-H ) :   0.9415 B(  5-C , 18-H ) :   0.9654
B(  5-C , 19-H ) :   0.9654 B(  6-C , 20-H ) :   0.9654 B(  6-C , 21-H ) :   0.9654

MP2 TOTAL ENERGY:     -349.689994612 Eh
FINAL SINGLE POINT ENERGY      -349.689994612441

DIPOLE MOMENT
-------------
                                X             Y             Z
Electronic contribution:     -0.00000       0.00000       4.39828
Nuclear contribution   :      0.00000       0.00000      -5.53333
                        -----------------------------------------
Total Dipole Moment    :     -0.00000       0.00000      -1.13505
                        -----------------------------------------
Magnitude (a.u.)       :      1.13505
Magnitude (Debye)      :      2.88507

Rotational constants in cm-1:     0.218931     0.024161     0.022290
Rotational constants in MHz :  6563.376058   724.324750   668.237092

                             ****ORCA TERMINATED NORMALLY****
TOTAL RUN TIME: 0 days 0 hours 10 minutes 30 seconds 90 msec
