                         Program Version 5.0.3 -  RELEASE  -
|  1> !ri-mp2 aug-cc-pvtz aug-cc-pvtz/c tightscf
|  2> %pal nprocs 16 end
|  3>
|  4> * xyz 0 1
|  5> Cl     2.873531    0.486714    0.000430
|  6> O     -2.513569    1.387263   -0.000565
|  7> O     -3.095526   -0.762540   -0.000395
|  8> C     -2.179793    0.237520   -0.000377
|  9> C     -0.799428   -0.203129   -0.000117
| 10> C      0.356403   -0.534339    0.000095
| 11> C      1.742195   -0.935325    0.000352
| 12> H     -2.655104   -1.621927   -0.000224
| 13> H      1.980933   -1.519238   -0.885367
| 14> H      1.980645   -1.519107    0.886235
| 15> *
| 16>
| 17>                          ****END OF INPUT****

CARTESIAN COORDINATES (ANGSTROEM)
---------------------------------
  Cl     2.873531    0.486714    0.000430
  O     -2.513569    1.387263   -0.000565
  O     -3.095526   -0.762540   -0.000395
  C     -2.179793    0.237520   -0.000377
  C     -0.799428   -0.203129   -0.000117
  C      0.356403   -0.534339    0.000095
  C      1.742195   -0.935325    0.000352
  H     -2.655104   -1.621927   -0.000224
  H      1.980933   -1.519238   -0.885367
  H      1.980645   -1.519107    0.886235

 Total Charge           Charge          ....    0
 Multiplicity           Mult            ....    1
 Number of Electrons    NEL             ....   60
 Basis Dimension        Dim             ....  395

ORBITAL ENERGIES
----------------

  NO   OCC          E(Eh)            E(eV)
   0   2.0000    -104.854150     -2853.2265
   1   2.0000     -20.632945      -561.4510
   2   2.0000     -20.568746      -559.7040
   3   2.0000     -11.425310      -310.8985
   4   2.0000     -11.351842      -308.8993
   5   2.0000     -11.296562      -307.3951
   6   2.0000     -11.278018      -306.8905
   7   2.0000     -10.577685      -287.8334
   8   2.0000      -8.044480      -218.9014
   9   2.0000      -8.042510      -218.8478
  10   2.0000      -8.042473      -218.8468
  11   2.0000      -1.481548       -40.3150
  12   2.0000      -1.387594       -37.7584
  13   2.0000      -1.172574       -31.9074
  14   2.0000      -1.089010       -29.6335
  15   2.0000      -0.985346       -26.8126
  16   2.0000      -0.899119       -24.4663
  17   2.0000      -0.820811       -22.3354
  18   2.0000      -0.709580       -19.3086
  19   2.0000      -0.682441       -18.5702
  20   2.0000      -0.676413       -18.4061
  21   2.0000      -0.651071       -17.7165
  22   2.0000      -0.621383       -16.9087
  23   2.0000      -0.592497       -16.1227
  24   2.0000      -0.507414       -13.8074
  25   2.0000      -0.492890       -13.4122
  26   2.0000      -0.471849       -12.8397
  27   2.0000      -0.468192       -12.7402
  28   2.0000      -0.433242       -11.7891
  29   2.0000      -0.432388       -11.7659
  30   0.0000       0.015352         0.4177
  31   0.0000       0.034079         0.9273
  32   0.0000       0.035202         0.9579
  33   0.0000       0.057209         1.5567
  34   0.0000       0.069844         1.9005

MULLIKEN ATOMIC CHARGES
-----------------------
   0 Cl:   -0.262751
   1 O :   -0.612182
   2 O :   -0.364408
   3 C :    0.173884
   4 C :    1.148207
   5 C :   -0.371864
   6 C :   -0.517126
   7 H :    0.225042
   8 H :    0.290598
   9 H :    0.290599
Sum of atomic charges:    0.0000000

LOEWDIN ATOMIC CHARGES
----------------------
   0 Cl:    0.874565
   1 O :    0.432716
   2 O :    0.818803
   3 C :   -0.876231
   4 C :    0.054584
   5 C :   -0.002734
   6 C :   -0.313420
   7 H :   -0.489566
   8 H :   -0.249359
   9 H :   -0.249359

  Mayer bond orders larger than 0.100000
B(  0-Cl,  6-C ) :   0.8618 B(  1-O ,  3-C ) :   1.7601 B(  1-O ,  4-C ) :  -0.2208
B(  1-O ,  5-C ) :   0.1230 B(  2-O ,  3-C ) :   1.0528 B(  2-O ,  7-H ) :   0.9468
B(  3-C ,  4-C ) :   0.3960 B(  3-C ,  6-C ) :   0.1112 B(  4-C ,  5-C ) :   1.9958
B(  4-C ,  6-C ) :  -0.3180 B(  5-C ,  6-C ) :   1.5755 B(  6-C ,  8-H ) :   0.9102
B(  6-C ,  9-H ) :   0.9102

MP2 TOTAL ENERGY:     -763.813457758 Eh
FINAL SINGLE POINT ENERGY      -763.813457758050

DIPOLE MOMENT
-------------
                                X             Y             Z
Electronic contribution:      3.67401       3.01502       0.00034
Nuclear contribution   :     -2.75056      -5.08353       0.00001
                        -----------------------------------------
Total Dipole Moment    :      0.92345      -2.06850       0.00036
                        -----------------------------------------
Magnitude (a.u.)       :      2.26528
Magnitude (Debye)      :      5.75787

Rotational constants in cm-1:     0.233395     0.025296     0.022921
Rotational constants in MHz :  6996.998808   758.362760   687.148949

                             ****ORCA TERMINATED NORMALLY****
TOTAL RUN TIME: 0 days 0 hours 2 minutes 3 seconds 492 msec
