                         Program Version 5.0.3 -  RELEASE  -
|  1> !ri-mp2 aug-cc-pvtz aug-cc-pvtz/c tightscf
|  2> %pal nprocs 16 end
|  3>
|  4> * xyz 0 1
|  5> O     2.409384   -1.476771   -0.000003
|  6> O     2.963804    0.626484    0.000002
|  7> N    -1.062861    1.308586    0.000003
|  8> N     2.141777   -0.283046    0.000000
|  9> N    -3.957177   -0.642796   -0.000002
| 10> C     0.751730    0.081376    0.000000
| 11> C    -0.341936   -0.807462   -0.000002
| 12> C     0.284912    1.380757    0.000003
| 13> C    -1.469753   -0.017320    0.000000
| 14> C    -2.836470   -0.370988   -0.000001
| 15> H    -0.303559   -1.881146   -0.000005
| 16> H     0.823963    2.309913    0.000006
| 17> H    -1.688970    2.096140    0.000005
| 18> *
| 19>
| 20>                          ****END OF INPUT****

CARTESIAN COORDINATES (ANGSTROEM)
---------------------------------
  O      2.409384   -1.476771   -0.000003
  O      2.963804    0.626484    0.000002
  N     -1.062861    1.308586    0.000003
  N      2.141777   -0.283046    0.000000
  N     -3.957177   -0.642796   -0.000002
  C      0.751730    0.081376    0.000000
  C     -0.341936   -0.807462   -0.000002
  C      0.284912    1.380757    0.000003
  C     -1.469753   -0.017320    0.000000
  C     -2.836470   -0.370988   -0.000001
  H     -0.303559   -1.881146   -0.000005
  H      0.823963    2.309913    0.000006
  H     -1.688970    2.096140    0.000005

 Total Charge           Charge          ....    0
 Multiplicity           Mult            ....    1
 Number of Electrons    NEL             ....   70
 Basis Dimension        Dim             ....  529

ORBITAL ENERGIES
----------------

  NO   OCC          E(Eh)            E(eV)
   0   2.0000     -20.613479      -560.9213
   1   2.0000     -20.610320      -560.8353
   2   2.0000     -15.868555      -431.8053
   3   2.0000     -15.684360      -426.7931
   4   2.0000     -15.601369      -424.5348
   5   2.0000     -11.342910      -308.6563
   6   2.0000     -11.341097      -308.6069
   7   2.0000     -11.317227      -307.9574
   8   2.0000     -11.304586      -307.6134
   9   2.0000     -11.296029      -307.3806
  10   2.0000      -1.617208       -44.0065
  11   2.0000      -1.409886       -38.3650
  12   2.0000      -1.376819       -37.4651
  13   2.0000      -1.247857       -33.9559
  14   2.0000      -1.155255       -31.4361
  15   2.0000      -1.088954       -29.6319
  16   2.0000      -1.000521       -27.2255
  17   2.0000      -0.899945       -24.4888
  18   2.0000      -0.841573       -22.9004
  19   2.0000      -0.824953       -22.4481
  20   2.0000      -0.744943       -20.2709
  21   2.0000      -0.738637       -20.0993
  22   2.0000      -0.734706       -19.9924
  23   2.0000      -0.700909       -19.0727
  24   2.0000      -0.659155       -17.9365
  25   2.0000      -0.650278       -17.6950
  26   2.0000      -0.621936       -16.9238
  27   2.0000      -0.585596       -15.9349
  28   2.0000      -0.522457       -14.2168
  29   2.0000      -0.513130       -13.9630
  30   2.0000      -0.506794       -13.7906
  31   2.0000      -0.496800       -13.5186
  32   2.0000      -0.465227       -12.6595
  33   2.0000      -0.427015       -11.6197
  34   2.0000      -0.365446        -9.9443
  35   0.0000       0.011897         0.3237
  36   0.0000       0.034394         0.9359
  37   0.0000       0.037766         1.0277
  38   0.0000       0.038914         1.0589
  39   0.0000       0.063640         1.7317

MULLIKEN ATOMIC CHARGES
-----------------------
   0 O :   -0.657970
   1 O :   -0.669944
   2 N :    0.021366
   3 N :    0.706096
   4 N :   -0.753756
   5 C :    0.518469
   6 C :   -0.639768
   7 C :   -0.691440
   8 C :    0.574243
   9 C :    0.326552
  10 H :    0.468459
  11 H :    0.722211
  12 H :    0.075482
Sum of atomic charges:    0.0000000

LOEWDIN ATOMIC CHARGES
----------------------
   0 O :    0.391018
   1 O :    0.380242
   2 N :    0.536486
   3 N :   -0.737149
   4 N :    0.272964
   5 C :   -0.249590
   6 C :    0.240577
   7 C :    0.184507
   8 C :   -0.274558
   9 C :   -0.214099
  10 H :   -0.160164
  11 H :   -0.144761
  12 H :   -0.225474

  Mayer bond orders larger than 0.100000
B(  0-O ,  1-O ) :   0.1094 B(  0-O ,  3-N ) :   1.1340 B(  0-O ,  5-C ) :   0.2034
B(  1-O ,  3-N ) :   1.0784 B(  1-O ,  5-C ) :   0.1739 B(  2-N ,  5-C ) :  -0.2187
B(  2-N ,  6-C ) :  -0.1746 B(  2-N ,  7-C ) :   1.2312 B(  2-N ,  8-C ) :   0.9415
B(  2-N , 12-H ) :   1.1742 B(  3-N ,  5-C ) :   1.3007 B(  3-N ,  6-C ) :  -0.2018
B(  3-N ,  7-C ) :  -0.1573 B(  4-N ,  8-C ) :  -0.1597 B(  4-N ,  9-C ) :   2.0836
B(  5-C ,  6-C ) :   1.0761 B(  5-C ,  7-C ) :   0.6275 B(  5-C ,  8-C ) :  -0.1288
B(  6-C ,  7-C ) :   0.1325 B(  6-C ,  8-C ) :   1.3249 B(  6-C , 10-H ) :   0.9380
B(  7-C ,  8-C ) :   0.1221 B(  7-C , 11-H ) :   0.3657 B(  8-C ,  9-C ) :   0.7794

MP2 TOTAL ENERGY:     -506.071315716 Eh
FINAL SINGLE POINT ENERGY      -506.071315715852

DIPOLE MOMENT
-------------
                                X             Y             Z
Electronic contribution:      0.53561      -0.85251      -0.00000
Nuclear contribution   :     -1.05553       2.41047       0.00001
                        -----------------------------------------
Total Dipole Moment    :     -0.51992       1.55796       0.00000
                        -----------------------------------------
Magnitude (a.u.)       :      1.64243
Magnitude (Debye)      :      4.17472

Rotational constants in cm-1:     0.143033     0.025228     0.021445
Rotational constants in MHz :  4288.006814   756.303518   642.909422

                             ****ORCA TERMINATED NORMALLY****
TOTAL RUN TIME: 0 days 0 hours 5 minutes 57 seconds 387 msec
