                         Program Version 5.0.3 -  RELEASE  -
|  1> !ri-mp2 aug-cc-pvtz aug-cc-pvtz/c tightscf
|  2> %pal nprocs 16 end
|  3>
|  4> * xyz 0 1
|  5> C     -0.005988    2.507272        0.000000
|  6> C     -1.204001    0.369123        0.000000
|  7> C      1.211150    0.375851        0.000000
|  8> C     -1.197969   -1.015172        0.000000
|  9> C      1.219241   -1.005857        0.000000
| 10> C      0.000000    1.080084        0.000000
| 11> C      0.013220   -1.706493        0.000000
| 12> N     -0.011295    3.660282        0.000000
| 13> O      0.081551   -3.064394        0.000000
| 14> H     -2.141968    0.905432        0.000000
| 15> H      2.144005    0.921085        0.000000
| 16> H     -2.133901   -1.560076        0.000000
| 17> H      2.147877   -1.558073        0.000000
| 18> H     -0.803265   -3.444050        0.000000
| 19> *
| 20>
| 21>                          ****END OF INPUT****

CARTESIAN COORDINATES (ANGSTROEM)
---------------------------------
  C     -0.005988    2.507272    0.000000
  C     -1.204001    0.369123    0.000000
  C      1.211150    0.375851    0.000000
  C     -1.197969   -1.015172    0.000000
  C      1.219241   -1.005857    0.000000
  C      0.000000    1.080084    0.000000
  C      0.013220   -1.706493    0.000000
  N     -0.011295    3.660282    0.000000
  O      0.081551   -3.064394    0.000000
  H     -2.141968    0.905432    0.000000
  H      2.144005    0.921085    0.000000
  H     -2.133901   -1.560076    0.000000
  H      2.147877   -1.558073    0.000000
  H     -0.803265   -3.444050    0.000000

 Total Charge           Charge          ....    0
 Multiplicity           Mult            ....    1
 Number of Electrons    NEL             ....   62
 Basis Dimension        Dim             ....  529

ORBITAL ENERGIES
----------------

  NO   OCC          E(Eh)            E(eV)
   0   2.0000     -20.619237      -561.0780
   1   2.0000     -15.567305      -423.6079
   2   2.0000     -11.338392      -308.5333
   3   2.0000     -11.282373      -307.0090
   4   2.0000     -11.279594      -306.9334
   5   2.0000     -11.277085      -306.8651
   6   2.0000     -11.272985      -306.7535
   7   2.0000     -11.261471      -306.4402
   8   2.0000     -11.255333      -306.2732
   9   2.0000      -1.436283       -39.0833
  10   2.0000      -1.223541       -33.2942
  11   2.0000      -1.182660       -32.1818
  12   2.0000      -1.056368       -28.7452
  13   2.0000      -1.055182       -28.7130
  14   2.0000      -0.892549       -24.2875
  15   2.0000      -0.874960       -23.8089
  16   2.0000      -0.769470       -20.9384
  17   2.0000      -0.764106       -20.7924
  18   2.0000      -0.696885       -18.9632
  19   2.0000      -0.646593       -17.5947
  20   2.0000      -0.625030       -17.0079
  21   2.0000      -0.620203       -16.8766
  22   2.0000      -0.611218       -16.6321
  23   2.0000      -0.583503       -15.8779
  24   2.0000      -0.549370       -14.9491
  25   2.0000      -0.544316       -14.8116
  26   2.0000      -0.528758       -14.3882
  27   2.0000      -0.471203       -12.8221
  28   2.0000      -0.465585       -12.6692
  29   2.0000      -0.375230       -10.2105
  30   2.0000      -0.340017        -9.2523
  31   0.0000       0.017213         0.4684
  32   0.0000       0.030320         0.8251
  33   0.0000       0.035059         0.9540
  34   0.0000       0.048746         1.3264
  35   0.0000       0.054432         1.4812

MULLIKEN ATOMIC CHARGES
-----------------------
   0 C :    0.381219
   1 C :   -1.061626
   2 C :   -0.806495
   3 C :   -0.696528
   4 C :   -0.764824
   5 C :    1.987532
   6 C :    0.991293
   7 N :   -0.846054
   8 O :   -0.797727
   9 H :    0.096530
  10 H :    0.128183
  11 H :    0.566978
  12 H :    0.657389
  13 H :    0.164130
Sum of atomic charges:    0.0000000

LOEWDIN ATOMIC CHARGES
----------------------
   0 C :   -0.248667
   1 C :    0.202497
   2 C :    0.204269
   3 C :    0.228887
   4 C :    0.229348
   5 C :   -0.201877
   6 C :   -0.364074
   7 N :    0.262299
   8 O :    0.850228
   9 H :   -0.166372
  10 H :   -0.166217
  11 H :   -0.181595
  12 H :   -0.178440
  13 H :   -0.470286

  Mayer bond orders larger than 0.100000
B(  0-C ,  1-C ) :   0.5178 B(  0-C ,  2-C ) :   0.3518 B(  0-C ,  5-C ) :   0.3467
B(  0-C ,  7-N ) :   1.7489 B(  0-C , 11-H ) :   0.1574 B(  0-C , 12-H ) :   0.1255
B(  1-C ,  2-C ) :  -0.2534 B(  1-C ,  3-C ) :   1.3653 B(  1-C ,  9-H ) :   1.4759
B(  1-C , 10-H ) :   0.2002 B(  2-C ,  4-C ) :   1.4105 B(  2-C ,  5-C ) :   0.4022
B(  2-C ,  6-C ) :  -0.2895 B(  2-C ,  7-N ) :   0.1258 B(  2-C ,  9-H ) :   0.1621
B(  2-C , 10-H ) :   1.3742 B(  3-C ,  4-C ) :   0.2244 B(  3-C ,  5-C ) :   0.1021
B(  3-C ,  6-C ) :   1.0786 B(  3-C , 11-H ) :   0.5360 B(  4-C ,  5-C ) :   0.2157
B(  4-C ,  6-C ) :   1.0682 B(  4-C ,  8-O ) :   0.1128 B(  4-C , 12-H ) :   0.3837
B(  5-C ,  9-H ) :  -0.2808 B(  5-C , 10-H ) :  -0.2928 B(  6-C ,  8-O ) :   0.5543
B(  6-C , 11-H ) :   0.1165 B(  8-O , 13-H ) :   1.0505 B(  9-H , 10-H ) :   0.1443

MP2 TOTAL ENERGY:     -398.967442532 Eh
FINAL SINGLE POINT ENERGY      -398.967442532188

DIPOLE MOMENT
-------------
                                X             Y             Z
Electronic contribution:      0.23904       2.63817      -0.00000
Nuclear contribution   :     -0.76833      -4.65526       0.00000
                        -----------------------------------------
Total Dipole Moment    :     -0.52929      -2.01709      -0.00000
                        -----------------------------------------
Magnitude (a.u.)       :      2.08537
Magnitude (Debye)      :      5.30060

Rotational constants in cm-1:     0.188638     0.033144     0.028191
Rotational constants in MHz :  5655.237441   993.626792   845.136138

                             ****ORCA TERMINATED NORMALLY****
TOTAL RUN TIME: 0 days 0 hours 5 minutes 47 seconds 348 msec
