                         Program Version 5.0.3 -  RELEASE  -
|  1> !ri-mp2 aug-cc-pvtz aug-cc-pvtz/c tightscf
|  2> %pal nprocs 16 end
|  3>
|  4> * xyz 0 1
|  5> H      0.028003   -2.438976    1.284839
|  6> C     -0.009038   -1.553163    0.664724
|  7> H      0.028003   -2.438976   -1.284839
|  8> C     -0.009038   -1.553163   -0.664724
|  9> H      0.979678    0.096300    1.630209
| 10> H     -0.717848   -0.020955    2.047210
| 11> C     -0.009038   -0.154824    1.227012
| 12> H     -0.717848   -0.020955   -2.047210
| 13> H      0.979678    0.096300   -1.630209
| 14> C     -0.009038   -0.154824   -1.227012
| 15> H     -1.442190    0.863921    0.000000
| 16> C     -0.357295    0.727796    0.000000
| 17> H      0.014739    2.680869    0.880857
| 18> H      0.014739    2.680869   -0.880857
| 19> H      1.389603    2.014165    0.000000
| 20> C      0.300687    2.102752    0.000000
| 21> *
| 22>
| 23>                          ****END OF INPUT****

CARTESIAN COORDINATES (ANGSTROEM)
---------------------------------
  H      0.028003   -2.438976    1.284839
  C     -0.009038   -1.553163    0.664724
  H      0.028003   -2.438976   -1.284839
  C     -0.009038   -1.553163   -0.664724
  H      0.979678    0.096300    1.630209
  H     -0.717848   -0.020955    2.047210
  C     -0.009038   -0.154824    1.227012
  H     -0.717848   -0.020955   -2.047210
  H      0.979678    0.096300   -1.630209
  C     -0.009038   -0.154824   -1.227012
  H     -1.442190    0.863921    0.000000
  C     -0.357295    0.727796    0.000000
  H      0.014739    2.680869    0.880857
  H      0.014739    2.680869   -0.880857
  H      1.389603    2.014165    0.000000
  C      0.300687    2.102752    0.000000

 Total Charge           Charge          ....    0
 Multiplicity           Mult            ....    1
 Number of Electrons    NEL             ....   46
 Basis Dimension        Dim             ....  506

ORBITAL ENERGIES
----------------

  NO   OCC          E(Eh)            E(eV)
   0   2.0000     -11.224270      -305.4279
   1   2.0000     -11.219012      -305.2848
   2   2.0000     -11.218175      -305.2621
   3   2.0000     -11.217912      -305.2549
   4   2.0000     -11.217022      -305.2307
   5   2.0000     -11.210516      -305.0536
   6   2.0000      -1.133348       -30.8400
   7   2.0000      -1.009778       -27.4775
   8   2.0000      -0.954487       -25.9729
   9   2.0000      -0.892632       -24.2897
  10   2.0000      -0.763694       -20.7812
  11   2.0000      -0.724900       -19.7255
  12   2.0000      -0.668824       -18.1996
  13   2.0000      -0.626046       -17.0356
  14   2.0000      -0.563006       -15.3202
  15   2.0000      -0.549545       -14.9539
  16   2.0000      -0.548612       -14.9285
  17   2.0000      -0.529674       -14.4132
  18   2.0000      -0.487733       -13.2719
  19   2.0000      -0.472941       -12.8694
  20   2.0000      -0.463191       -12.6041
  21   2.0000      -0.448352       -12.2003
  22   2.0000      -0.340183        -9.2568
  23   0.0000       0.030894         0.8407
  24   0.0000       0.035876         0.9762
  25   0.0000       0.037477         1.0198
  26   0.0000       0.040636         1.1058
  27   0.0000       0.049503         1.3470

MULLIKEN ATOMIC CHARGES
-----------------------
   0 H :    0.481576
   1 C :   -0.735926
   2 H :    0.481576
   3 C :   -0.735926
   4 H :    0.228682
   5 H :    0.282850
   6 C :   -0.487406
   7 H :    0.282850
   8 H :    0.228682
   9 C :   -0.487406
  10 H :    0.269711
  11 C :    0.309788
  12 H :    0.266890
  13 H :    0.266890
  14 H :    0.274421
  15 C :   -0.927250
Sum of atomic charges:   -0.0000000

LOEWDIN ATOMIC CHARGES
----------------------
   0 H :   -0.180561
   1 C :    0.236479
   2 H :   -0.180561
   3 C :    0.236479
   4 H :   -0.149063
   5 H :   -0.148417
   6 C :    0.277099
   7 H :   -0.148417
   8 H :   -0.149063
   9 C :    0.277099
  10 H :   -0.135217
  11 C :   -0.027405
  12 H :   -0.164642
  13 H :   -0.164642
  14 H :   -0.167857
  15 C :    0.588687

  Mayer bond orders larger than 0.100000
B(  0-H ,  1-C ) :   0.7725 B(  1-C ,  3-C ) :   1.5642 B(  1-C ,  6-C ) :   0.9666
B(  1-C , 11-C ) :  -0.1366 B(  2-H ,  3-C ) :   0.7725 B(  3-C ,  9-C ) :   0.9666
B(  3-C , 11-C ) :  -0.1366 B(  4-H ,  6-C ) :   0.9476 B(  5-H ,  6-C ) :   0.9692
B(  6-C ,  9-C ) :   0.1967 B(  6-C , 11-C ) :   0.9396 B(  7-H ,  9-C ) :   0.9692
B(  8-H ,  9-C ) :   0.9476 B(  9-C , 11-C ) :   0.9396 B( 10-H , 11-C ) :   0.9298
B( 11-C , 15-C ) :   0.6990 B( 12-H , 15-C ) :   0.9878 B( 13-H , 15-C ) :   0.9878
B( 14-H , 15-C ) :   0.9640

MP2 TOTAL ENERGY:     -234.117849811 Eh
FINAL SINGLE POINT ENERGY      -234.117849810784

DIPOLE MOMENT
-------------
                                X             Y             Z
Electronic contribution:     -0.58820      -3.60274      -0.00000
Nuclear contribution   :      0.58532       3.69409      -0.00000
                        -----------------------------------------
Total Dipole Moment    :     -0.00288       0.09135      -0.00000
                        -----------------------------------------
Magnitude (a.u.)       :      0.09140
Magnitude (Debye)      :      0.23231

Rotational constants in cm-1:     0.225334     0.106139     0.078417
Rotational constants in MHz :  6755.342207  3181.958180  2350.878795

                             ****ORCA TERMINATED NORMALLY****
TOTAL RUN TIME: 0 days 0 hours 4 minutes 21 seconds 857 msec
