                         Program Version 5.0.3 -  RELEASE  -
|  1> !ri-mp2 aug-cc-pvtz aug-cc-pvtz/c tightscf
|  2> %pal nprocs 16 end
|  3>
|  4> * xyz 0 1
|  5> C      0.000000    1.224565    0.305825
|  6> C      0.000000   -1.224565    0.305825
|  7> C      0.000000    1.188942   -1.044134
|  8> C      0.000000   -1.188942   -1.044134
|  9> C      0.000000    0.000000    1.104808
| 10> N      0.000000    0.000000   -1.722199
| 11> O      0.000000    0.000000    2.335063
| 12> H      0.000000    2.171811    0.824427
| 13> H      0.000000   -2.171811    0.824427
| 14> H      0.000000    2.077841   -1.658455
| 15> H      0.000000   -2.077841   -1.658455
| 16> H      0.000000    0.000000   -2.726202
| 17> *
| 18>
| 19>                          ****END OF INPUT****

CARTESIAN COORDINATES (ANGSTROEM)
---------------------------------
  C      0.000000    1.224565    0.305825
  C      0.000000   -1.224565    0.305825
  C      0.000000    1.188942   -1.044134
  C      0.000000   -1.188942   -1.044134
  C      0.000000    0.000000    1.104808
  N      0.000000    0.000000   -1.722199
  O      0.000000    0.000000    2.335063
  H      0.000000    2.171811    0.824427
  H      0.000000   -2.171811    0.824427
  H      0.000000    2.077841   -1.658455
  H      0.000000   -2.077841   -1.658455
  H      0.000000    0.000000   -2.726202

 Total Charge           Charge          ....    0
 Multiplicity           Mult            ....    1
 Number of Electrons    NEL             ....   50
 Basis Dimension        Dim             ....  437

ORBITAL ENERGIES
----------------

  NO   OCC          E(Eh)            E(eV)
   0   2.0000     -20.500947      -557.8591
   1   2.0000     -15.638459      -425.5441
   2   2.0000     -11.312489      -307.8285
   3   2.0000     -11.309788      -307.7550
   4   2.0000     -11.309763      -307.7543
   5   2.0000     -11.232943      -305.6639
   6   2.0000     -11.232930      -305.6636
   7   2.0000      -1.343652       -36.5626
   8   2.0000      -1.314826       -35.7782
   9   2.0000      -1.068554       -29.0768
  10   2.0000      -1.065999       -29.0073
  11   2.0000      -0.878069       -23.8935
  12   2.0000      -0.855011       -23.2660
  13   2.0000      -0.785573       -21.3765
  14   2.0000      -0.695548       -18.9268
  15   2.0000      -0.671969       -18.2852
  16   2.0000      -0.632616       -17.2144
  17   2.0000      -0.620390       -16.8817
  18   2.0000      -0.601969       -16.3804
  19   2.0000      -0.564109       -15.3502
  20   2.0000      -0.544683       -14.8216
  21   2.0000      -0.510099       -13.8805
  22   2.0000      -0.397137       -10.8067
  23   2.0000      -0.389411       -10.5964
  24   2.0000      -0.326509        -8.8848
  25   0.0000       0.012029         0.3273
  26   0.0000       0.027128         0.7382
  27   0.0000       0.038068         1.0359
  28   0.0000       0.050111         1.3636
  29   0.0000       0.057084         1.5533

MULLIKEN ATOMIC CHARGES
-----------------------
   0 C :   -0.284347
   1 C :   -0.284347
   2 C :   -0.504567
   3 C :   -0.504567
   4 C :    0.470363
   5 N :   -0.057257
   6 O :   -0.970916
   7 H :    0.323972
   8 H :    0.323972
   9 H :    0.710450
  10 H :    0.710450
  11 H :    0.066792
Sum of atomic charges:    0.0000000

LOEWDIN ATOMIC CHARGES
----------------------
   0 C :    0.216400
   1 C :    0.216400
   2 C :    0.127803
   3 C :    0.127803
   4 C :   -0.621463
   5 N :    0.516758
   6 O :    0.396127
   7 H :   -0.198963
   8 H :   -0.198963
   9 H :   -0.159600
  10 H :   -0.159600
  11 H :   -0.262701

  Mayer bond orders larger than 0.100000
B(  0-C ,  1-C ) :   0.2032 B(  0-C ,  2-C ) :   1.0867 B(  0-C ,  3-C ) :  -0.2119
B(  0-C ,  4-C ) :   1.0284 B(  0-C ,  5-N ) :  -0.1367 B(  0-C ,  7-H ) :   1.0077
B(  1-C ,  2-C ) :  -0.2119 B(  1-C ,  3-C ) :   1.0867 B(  1-C ,  4-C ) :   1.0284
B(  1-C ,  5-N ) :  -0.1367 B(  1-C ,  8-H ) :   1.0077 B(  2-C ,  3-C ) :   0.2839
B(  2-C ,  4-C ) :   0.1878 B(  2-C ,  5-N ) :   1.1538 B(  2-C ,  9-H ) :   0.3323
B(  3-C ,  4-C ) :   0.1878 B(  3-C ,  5-N ) :   1.1538 B(  3-C , 10-H ) :   0.3323
B(  4-C ,  6-O ) :   1.1563 B(  5-N , 11-H ) :   1.1269

MP2 TOTAL ENERGY:     -322.903939347 Eh
FINAL SINGLE POINT ENERGY      -322.903939346809

DIPOLE MOMENT
-------------
                                X             Y             Z
Electronic contribution:     -0.00000      -0.00000       1.39582
Nuclear contribution   :      0.00000       0.00000      -4.31257
                        -----------------------------------------
Total Dipole Moment    :     -0.00000      -0.00000      -2.91674
                        -----------------------------------------
Magnitude (a.u.)       :      2.91674
Magnitude (Debye)      :      7.41377

Rotational constants in cm-1:     0.191146     0.090591     0.061462
Rotational constants in MHz :  5730.417964  2715.860918  1842.588720

                             ****ORCA TERMINATED NORMALLY****
TOTAL RUN TIME: 0 days 0 hours 3 minutes 47 seconds 691 msec
