                         Program Version 5.0.3 -  RELEASE  -
|  1> !ri-mp2 aug-cc-pvtz aug-cc-pvtz/c tightscf
|  2> %pal nprocs 16 end
|  3>
|  4> * xyz 0 1
|  5> C      0.233751   -0.248858    1.186174
|  6> C      0.233751   -0.248858   -1.186174
|  7> C      0.233751   -1.636587    1.135286
|  8> C      0.233751   -1.636587   -1.135286
|  9> C      0.232164    0.482399    0.000000
| 10> C     -1.236306    2.546240    0.000000
| 11> C      0.194870    1.988942    0.000000
| 12> N      0.233121   -2.335890    0.000000
| 13> H      0.240621    0.255199    2.144492
| 14> H      0.240621    0.255199   -2.144492
| 15> H      0.238122   -2.214612    2.053040
| 16> H      0.238122   -2.214612   -2.053040
| 17> H     -1.786360    2.212834   -0.880654
| 18> H     -1.225706    3.636797    0.000000
| 19> H     -1.786360    2.212834    0.880654
| 20> H      0.727349    2.363720    0.876427
| 21> H      0.727349    2.363720   -0.876427
| 22> *
| 23>
| 24>                          ****END OF INPUT****

CARTESIAN COORDINATES (ANGSTROEM)
---------------------------------
  C      0.233751   -0.248858    1.186174
  C      0.233751   -0.248858   -1.186174
  C      0.233751   -1.636587    1.135286
  C      0.233751   -1.636587   -1.135286
  C      0.232164    0.482399    0.000000
  C     -1.236306    2.546240    0.000000
  C      0.194870    1.988942    0.000000
  N      0.233121   -2.335890    0.000000
  H      0.240621    0.255199    2.144492
  H      0.240621    0.255199   -2.144492
  H      0.238122   -2.214612    2.053040
  H      0.238122   -2.214612   -2.053040
  H     -1.786360    2.212834   -0.880654
  H     -1.225706    3.636797    0.000000
  H     -1.786360    2.212834    0.880654
  H      0.727349    2.363720    0.876427
  H      0.727349    2.363720   -0.876427

 Total Charge           Charge          ....    0
 Multiplicity           Mult            ....    1
 Number of Electrons    NEL             ....   58
 Basis Dimension        Dim             ....  575

ORBITAL ENERGIES
----------------

  NO   OCC          E(Eh)            E(eV)
   0   2.0000     -15.557891      -423.3517
   1   2.0000     -11.270015      -306.6727
   2   2.0000     -11.269999      -306.6723
   3   2.0000     -11.260643      -306.4177
   4   2.0000     -11.240342      -305.8652
   5   2.0000     -11.233407      -305.6766
   6   2.0000     -11.233371      -305.6756
   7   2.0000     -11.226593      -305.4911
   8   2.0000      -1.255581       -34.1661
   9   2.0000      -1.115953       -30.3666
  10   2.0000      -1.029698       -28.0195
  11   2.0000      -1.020767       -27.7765
  12   2.0000      -0.888578       -24.1794
  13   2.0000      -0.855308       -23.2741
  14   2.0000      -0.809573       -22.0296
  15   2.0000      -0.694520       -18.8989
  16   2.0000      -0.675162       -18.3721
  17   2.0000      -0.648084       -17.6353
  18   2.0000      -0.604429       -16.4474
  19   2.0000      -0.599179       -16.3045
  20   2.0000      -0.589527       -16.0419
  21   2.0000      -0.550728       -14.9861
  22   2.0000      -0.521350       -14.1867
  23   2.0000      -0.519672       -14.1410
  24   2.0000      -0.508789       -13.8448
  25   2.0000      -0.492206       -13.3936
  26   2.0000      -0.412780       -11.2323
  27   2.0000      -0.368220       -10.0198
  28   2.0000      -0.344801        -9.3825
  29   0.0000       0.025891         0.7045
  30   0.0000       0.032300         0.8789
  31   0.0000       0.034712         0.9446
  32   0.0000       0.038985         1.0608
  33   0.0000       0.048153         1.3103

MULLIKEN ATOMIC CHARGES
-----------------------
   0 C :   -0.749515
   1 C :   -0.749515
   2 C :   -0.487748
   3 C :   -0.487748
   4 C :    1.344236
   5 C :   -0.909209
   6 C :   -0.406337
   7 N :   -0.639668
   8 H :    0.162371
   9 H :    0.162371
  10 H :    0.710229
  11 H :    0.710229
  12 H :    0.286078
  13 H :    0.290671
  14 H :    0.286079
  15 H :    0.238737
  16 H :    0.238737
Sum of atomic charges:    0.0000000

LOEWDIN ATOMIC CHARGES
----------------------
   0 C :    0.218748
   1 C :    0.218748
   2 C :    0.010261
   3 C :    0.010261
   4 C :   -0.125361
   5 C :    0.592860
   6 C :    0.266053
   7 N :    0.365199
   8 H :   -0.180116
   9 H :   -0.180116
  10 H :   -0.192454
  11 H :   -0.192454
  12 H :   -0.167800
  13 H :   -0.169684
  14 H :   -0.167800
  15 H :   -0.153171
  16 H :   -0.153171

  Mayer bond orders larger than 0.100000
B(  0-C ,  1-C ) :  -0.1050 B(  0-C ,  2-C ) :   1.1824 B(  0-C ,  4-C ) :   0.7583
B(  0-C ,  8-H ) :   1.2354 B(  1-C ,  3-C ) :   1.1824 B(  1-C ,  4-C ) :   0.7583
B(  1-C ,  9-H ) :   1.2354 B(  2-C ,  7-N ) :   1.0690 B(  2-C , 10-H ) :   0.3591
B(  3-C ,  7-N ) :   1.0690 B(  3-C , 11-H ) :   0.3591 B(  4-C ,  6-C ) :   0.8077
B(  4-C ,  8-H ) :  -0.1671 B(  4-C ,  9-H ) :  -0.1671 B(  5-C ,  6-C ) :   0.8661
B(  5-C , 12-H ) :   0.9462 B(  5-C , 13-H ) :   0.9497 B(  5-C , 14-H ) :   0.9462
B(  6-C , 15-H ) :   0.9985 B(  6-C , 16-H ) :   0.9985 B(  7-N , 10-H ) :  -0.1367
B(  7-N , 11-H ) :  -0.1367

MP2 TOTAL ENERGY:     -326.233821251 Eh
FINAL SINGLE POINT ENERGY      -326.233821250928

DIPOLE MOMENT
-------------
                                X             Y             Z
Electronic contribution:      2.37740      -7.86656      -0.00000
Nuclear contribution   :     -2.42432       9.00386       0.00000
                        -----------------------------------------
Total Dipole Moment    :     -0.04691       1.13730      -0.00000
                        -----------------------------------------
Magnitude (a.u.)       :      1.13827
Magnitude (Debye)      :      2.89324

Rotational constants in cm-1:     0.159720     0.048688     0.040919
Rotational constants in MHz :  4788.279056  1459.618881  1226.714672

                             ****ORCA TERMINATED NORMALLY****
TOTAL RUN TIME: 0 days 0 hours 7 minutes 1 seconds 776 msec
