                         Program Version 5.0.3 -  RELEASE  -
|  1> !ri-mp2 aug-cc-pvtz aug-cc-pvtz/c tightscf
|  2> %pal nprocs 16 end
|  3>
|  4> * xyz 0 1
|  5> S     3.132710   -0.028210    0.000007
|  6> O    -1.337989    2.079383   -0.000019
|  7> N     0.658787    0.991064   -0.000007
|  8> N     0.797722   -1.297239    0.000012
|  9> N    -3.917479   -0.575246   -0.000004
| 10> C    -1.360122   -0.311158    0.000000
| 11> C    -0.749660    1.025767   -0.000010
| 12> C    -0.554818   -1.403788    0.000010
| 13> C     1.482361   -0.097815    0.000004
| 14> C    -2.773022   -0.442707   -0.000002
| 15> H     1.112595    1.894358   -0.000013
| 16> H    -0.951396   -2.408389    0.000017
| 17> H     1.377708   -2.121519    0.000020
| 18> *
| 19>
| 20>                          ****END OF INPUT****

CARTESIAN COORDINATES (ANGSTROEM)
---------------------------------
  S      3.132710   -0.028210    0.000007
  O     -1.337989    2.079383   -0.000019
  N      0.658787    0.991064   -0.000007
  N      0.797722   -1.297239    0.000012
  N     -3.917479   -0.575246   -0.000004
  C     -1.360122   -0.311158    0.000000
  C     -0.749660    1.025767   -0.000010
  C     -0.554818   -1.403788    0.000010
  C      1.482361   -0.097815    0.000004
  C     -2.773022   -0.442707   -0.000002
  H      1.112595    1.894358   -0.000013
  H     -0.951396   -2.408389    0.000017
  H      1.377708   -2.121519    0.000020

 Total Charge           Charge          ....    0
 Multiplicity           Mult            ....    1
 Number of Electrons    NEL             ....   78
 Basis Dimension        Dim             ....  533

ORBITAL ENERGIES
----------------

  NO   OCC          E(Eh)            E(eV)
   0   2.0000     -91.941800     -2501.8636
   1   2.0000     -20.575315      -559.8828
   2   2.0000     -15.688991      -426.9192
   3   2.0000     -15.666926      -426.3187
   4   2.0000     -15.589788      -424.2197
   5   2.0000     -11.436234      -311.1957
   6   2.0000     -11.416662      -310.6632
   7   2.0000     -11.387272      -309.8634
   8   2.0000     -11.318201      -307.9839
   9   2.0000     -11.295360      -307.3624
  10   2.0000      -8.944970      -243.4050
  11   2.0000      -6.626430      -180.3143
  12   2.0000      -6.624521      -180.2624
  13   2.0000      -6.623778      -180.2422
  14   2.0000      -1.447895       -39.3992
  15   2.0000      -1.393366       -37.9154
  16   2.0000      -1.287278       -35.0286
  17   2.0000      -1.241587       -33.7853
  18   2.0000      -1.157314       -31.4921
  19   2.0000      -1.046671       -28.4814
  20   2.0000      -0.963700       -26.2236
  21   2.0000      -0.908761       -24.7286
  22   2.0000      -0.878594       -23.9078
  23   2.0000      -0.801809       -21.8183
  24   2.0000      -0.752284       -20.4707
  25   2.0000      -0.727944       -19.8084
  26   2.0000      -0.699885       -19.0448
  27   2.0000      -0.690558       -18.7910
  28   2.0000      -0.645656       -17.5692
  29   2.0000      -0.598304       -16.2807
  30   2.0000      -0.576409       -15.6849
  31   2.0000      -0.570850       -15.5336
  32   2.0000      -0.553243       -15.0545
  33   2.0000      -0.497089       -13.5265
  34   2.0000      -0.494586       -13.4584
  35   2.0000      -0.481288       -13.0965
  36   2.0000      -0.413648       -11.2559
  37   2.0000      -0.374185       -10.1821
  38   2.0000      -0.359724        -9.7886
  39   0.0000       0.009403         0.2559
  40   0.0000       0.025442         0.6923
  41   0.0000       0.034778         0.9463
  42   0.0000       0.039635         1.0785
  43   0.0000       0.054195         1.4747

MULLIKEN ATOMIC CHARGES
-----------------------
   0 S :   -0.513466
   1 O :   -0.856530
   2 N :    0.120410
   3 N :   -0.038299
   4 N :   -0.845498
   5 C :    1.317211
   6 C :    0.100983
   7 C :   -0.813867
   8 C :    0.025188
   9 C :    0.665827
  10 H :    0.153956
  11 H :    0.582434
  12 H :    0.101650
Sum of atomic charges:    0.0000000

LOEWDIN ATOMIC CHARGES
----------------------
   0 S :    0.912131
   1 O :    0.476858
   2 N :    0.490551
   3 N :    0.480649
   4 N :    0.282235
   5 C :   -0.164679
   6 C :   -0.657984
   7 C :    0.162064
   8 C :   -1.015712
   9 C :   -0.257127
  10 H :   -0.291717
  11 H :   -0.128803
  12 H :   -0.288467

  Mayer bond orders larger than 0.100000
B(  0-S ,  8-C ) :   1.5703 B(  1-O ,  2-N ) :  -0.1190 B(  1-O ,  6-C ) :   1.3419
B(  2-N ,  3-N ) :  -0.1340 B(  2-N ,  6-C ) :   0.9759 B(  2-N ,  8-C ) :   1.0771
B(  2-N , 10-H ) :   1.0393 B(  3-N ,  5-C ) :  -0.3252 B(  3-N ,  7-C ) :   1.0898
B(  3-N ,  8-C ) :   1.1743 B(  3-N , 12-H ) :   1.1043 B(  4-N ,  5-C ) :   0.1676
B(  4-N ,  9-C ) :   1.6582 B(  5-C ,  6-C ) :   0.2989 B(  5-C ,  7-C ) :   0.7544
B(  5-C ,  9-C ) :   0.8316 B(  6-C ,  7-C ) :   0.3840 B(  6-C ,  8-C ) :  -0.1767
B(  6-C ,  9-C ) :   0.1540 B(  7-C ,  8-C ) :  -0.2390 B(  7-C , 11-H ) :   0.5606

MP2 TOTAL ENERGY:     -828.785355132 Eh
FINAL SINGLE POINT ENERGY      -828.785355132490

DIPOLE MOMENT
-------------
                                X             Y             Z
Electronic contribution:     -0.13514       0.83811      -0.00001
Nuclear contribution   :      1.34545      -2.49355       0.00002
                        -----------------------------------------
Total Dipole Moment    :      1.21031      -1.65543       0.00002
                        -----------------------------------------
Magnitude (a.u.)       :      2.05069
Magnitude (Debye)      :      5.21243

Rotational constants in cm-1:     0.102131     0.023133     0.018861
Rotational constants in MHz :  3061.808098   693.524586   565.446359

                             ****ORCA TERMINATED NORMALLY****
TOTAL RUN TIME: 0 days 0 hours 6 minutes 57 seconds 534 msec
