                         Program Version 5.0.3 -  RELEASE  -
|  1> !ri-mp2 aug-cc-pvtz aug-cc-pvtz/c tightscf
|  2> %pal nprocs 16 end
|  3>
|  4> * xyz 0 1
|  5> Cl   -2.280642   -0.628707   -0.145550
|  6> O     1.092025    1.391278    0.220496
|  7> O    -0.955684    2.323645   -0.050493
|  8> O     2.553373   -0.218210   -0.655230
|  9> N     0.574476   -2.183960    0.238082
| 10> C    -0.663800   -0.075616    0.058842
| 11> C     0.431472   -0.842507    0.189010
| 12> C    -0.290734    1.338463    0.058027
| 13> C     1.619020    0.075759    0.341980
| 14> H     3.324738    0.348497   -0.543164
| 15> H    -0.217906   -2.752537   -0.012740
| 16> H     1.479328   -2.567370    0.021871
| 17> H     2.069968   -0.003146    1.336481
| 18> *
| 19>
| 20>                          ****END OF INPUT****

CARTESIAN COORDINATES (ANGSTROEM)
---------------------------------
  Cl    -2.280642   -0.628707   -0.145550
  O      1.092025    1.391278    0.220496
  O     -0.955684    2.323645   -0.050493
  O      2.553373   -0.218210   -0.655230
  N      0.574476   -2.183960    0.238082
  C     -0.663800   -0.075616    0.058842
  C      0.431472   -0.842507    0.189010
  C     -0.290734    1.338463    0.058027
  C      1.619020    0.075759    0.341980
  H      3.324738    0.348497   -0.543164
  H     -0.217906   -2.752537   -0.012740
  H      1.479328   -2.567370    0.021871
  H      2.069968   -0.003146    1.336481

 Total Charge           Charge          ....    0
 Multiplicity           Mult            ....    1
 Number of Electrons    NEL             ....   76
 Basis Dimension        Dim             ....  510

ORBITAL ENERGIES
----------------

  NO   OCC          E(Eh)            E(eV)
   0   2.0000    -104.858672     -2853.3495
   1   2.0000     -20.613527      -560.9226
   2   2.0000     -20.610945      -560.8523
   3   2.0000     -20.547240      -559.1188
   4   2.0000     -15.618647      -425.0050
   5   2.0000     -11.392100      -309.9948
   6   2.0000     -11.389210      -309.9162
   7   2.0000     -11.337530      -308.5099
   8   2.0000     -11.299638      -307.4788
   9   2.0000     -10.581784      -287.9450
  10   2.0000      -8.048788      -219.0187
  11   2.0000      -8.046776      -218.9639
  12   2.0000      -8.046704      -218.9619
  13   2.0000      -1.481508       -40.3139
  14   2.0000      -1.417557       -38.5737
  15   2.0000      -1.367295       -37.2060
  16   2.0000      -1.280611       -34.8472
  17   2.0000      -1.168075       -31.7849
  18   2.0000      -1.061234       -28.8776
  19   2.0000      -0.975054       -26.5326
  20   2.0000      -0.844070       -22.9683
  21   2.0000      -0.820061       -22.3150
  22   2.0000      -0.764010       -20.7898
  23   2.0000      -0.735066       -20.0022
  24   2.0000      -0.722377       -19.6569
  25   2.0000      -0.692188       -18.8354
  26   2.0000      -0.651268       -17.7219
  27   2.0000      -0.639879       -17.4120
  28   2.0000      -0.599939       -16.3252
  29   2.0000      -0.584381       -15.9018
  30   2.0000      -0.566553       -15.4167
  31   2.0000      -0.546841       -14.8803
  32   2.0000      -0.526517       -14.3273
  33   2.0000      -0.497239       -13.5306
  34   2.0000      -0.479247       -13.0410
  35   2.0000      -0.475697       -12.9444
  36   2.0000      -0.449664       -12.2360
  37   2.0000      -0.352340        -9.5877
  38   0.0000       0.016129         0.4389
  39   0.0000       0.027767         0.7556
  40   0.0000       0.038466         1.0467
  41   0.0000       0.047069         1.2808
  42   0.0000       0.068936         1.8758

MULLIKEN ATOMIC CHARGES
-----------------------
   0 Cl:   -0.418911
   1 O :   -0.404053
   2 O :   -0.724549
   3 O :   -0.566279
   4 N :   -0.524489
   5 C :    0.663949
   6 C :    0.262853
   7 C :    0.296457
   8 C :    0.753677
   9 H :    0.156357
  10 H :    0.065629
  11 H :    0.109544
  12 H :    0.329818
Sum of atomic charges:    0.0000000

LOEWDIN ATOMIC CHARGES
----------------------
   0 Cl:    0.997812
   1 O :    0.575829
   2 O :    0.419113
   3 O :    0.837411
   4 N :    0.871745
   5 C :   -0.781588
   6 C :   -0.320280
   7 C :   -0.908952
   8 C :   -0.509409
   9 H :   -0.463011
  10 H :   -0.295468
  11 H :   -0.287304
  12 H :   -0.135899

  Mayer bond orders larger than 0.100000
B(  0-Cl,  5-C ) :   0.4478 B(  0-Cl,  6-C ) :   0.2718 B(  1-O ,  2-O ) :  -0.1101
B(  1-O ,  7-C ) :   0.9989 B(  1-O ,  8-C ) :   0.6700 B(  2-O ,  7-C ) :   1.5459
B(  3-O ,  8-C ) :   0.7845 B(  3-O ,  9-H ) :   1.0231 B(  4-N ,  5-C ) :  -0.1558
B(  4-N ,  6-C ) :   0.8439 B(  4-N , 10-H ) :   1.1377 B(  4-N , 11-H ) :   1.0561
B(  5-C ,  6-C ) :   1.3163 B(  5-C ,  7-C ) :   0.8818 B(  6-C ,  8-C ) :   0.6545
B(  8-C , 12-H ) :   0.9624

MP2 TOTAL ENERGY:     -894.275859096 Eh
FINAL SINGLE POINT ENERGY      -894.275859096278

DIPOLE MOMENT
-------------
                                X             Y             Z
Electronic contribution:     -7.86661       1.80524      -0.60355
Nuclear contribution   :      9.51160      -3.84941       0.95876
                        -----------------------------------------
Total Dipole Moment    :      1.64500      -2.04417       0.35520
                        -----------------------------------------
Magnitude (a.u.)       :      2.64780
Magnitude (Debye)      :      6.73017

Rotational constants in cm-1:     0.065717     0.042411     0.026864
Rotational constants in MHz :  1970.154874  1271.436614   805.350556

                             ****ORCA TERMINATED NORMALLY****
TOTAL RUN TIME: 0 days 0 hours 4 minutes 50 seconds 881 msec
