                         Program Version 5.0.3 -  RELEASE  -
|  1> !ri-mp2 aug-cc-pvtz aug-cc-pvtz/c tightscf
|  2> %pal nprocs 16 end
|  3> %maxcore 3800
|  4>
|  5> * xyz 0 1
|  6> C     -0.550872    1.183343    1.818393
|  7> C      0.550872   -1.183343    1.818393
|  8> C     -0.290910    0.631581    0.558623
|  9> C      0.290910   -0.631581    0.558623
| 10> C      0.216434    3.129438   -2.389797
| 11> C     -0.216434   -3.129438   -2.389797
| 12> C     -0.608822    1.420841   -0.684182
| 13> C      0.608822   -1.420841   -0.684182
| 14> C      0.550872    2.327591   -1.134342
| 15> C     -0.550872   -2.327591   -1.134342
| 16> N     -0.282914    0.601718    2.979528
| 17> N      0.282914   -0.601718    2.979528
| 18> H     -1.012928    2.161604    1.897374
| 19> H      1.012928   -2.161604    1.897374
| 20> H     -0.012670    2.471736   -3.230631
| 21> H     -0.650384    3.773094   -2.228370
| 22> H      1.051528    3.765640   -2.684387
| 23> H      0.012670   -2.471736   -3.230631
| 24> H      0.650384   -3.773094   -2.228370
| 25> H     -1.051528   -3.765640   -2.684387
| 26> H     -0.878678    0.750885   -1.501953
| 27> H     -1.486647    2.042926   -0.493539
| 28> H      0.878678   -0.750885   -1.501953
| 29> H      1.486647   -2.042926   -0.493539
| 30> H      0.807198    3.006117   -0.317347
| 31> H      1.439842    1.716802   -1.310001
| 32> H     -0.807198   -3.006117   -0.317347
| 33> H     -1.439842   -1.716802   -1.310001
| 34> *
| 35>
| 36>                          ****END OF INPUT****

CARTESIAN COORDINATES (ANGSTROEM)
---------------------------------
  C     -0.550872    1.183343    1.818393
  C      0.550872   -1.183343    1.818393
  C     -0.290910    0.631581    0.558623
  C      0.290910   -0.631581    0.558623
  C      0.216434    3.129438   -2.389797
  C     -0.216434   -3.129438   -2.389797
  C     -0.608822    1.420841   -0.684182
  C      0.608822   -1.420841   -0.684182
  C      0.550872    2.327591   -1.134342
  C     -0.550872   -2.327591   -1.134342
  N     -0.282914    0.601718    2.979528
  N      0.282914   -0.601718    2.979528
  H     -1.012928    2.161604    1.897374
  H      1.012928   -2.161604    1.897374
  H     -0.012670    2.471736   -3.230631
  H     -0.650384    3.773094   -2.228370
  H      1.051528    3.765640   -2.684387
  H      0.012670   -2.471736   -3.230631
  H      0.650384   -3.773094   -2.228370
  H     -1.051528   -3.765640   -2.684387
  H     -0.878678    0.750885   -1.501953
  H     -1.486647    2.042926   -0.493539
  H      0.878678   -0.750885   -1.501953
  H      1.486647   -2.042926   -0.493539
  H      0.807198    3.006117   -0.317347
  H      1.439842    1.716802   -1.310001
  H     -0.807198   -3.006117   -0.317347
  H     -1.439842   -1.716802   -1.310001

 Total Charge           Charge          ....    0
 Multiplicity           Mult            ....    1
 Number of Electrons    NEL             ....   90
 Basis Dimension        Dim             ....  920

ORBITAL ENERGIES
----------------

  NO   OCC          E(Eh)            E(eV)
   0   2.0000     -15.597673      -424.4343
   1   2.0000     -15.596846      -424.4118
   2   2.0000     -11.269331      -306.6541
   3   2.0000     -11.269313      -306.6536
   4   2.0000     -11.262917      -306.4796
   5   2.0000     -11.261663      -306.4454
   6   2.0000     -11.244803      -305.9866
   7   2.0000     -11.244798      -305.9865
   8   2.0000     -11.237675      -305.7927
   9   2.0000     -11.237675      -305.7927
  10   2.0000     -11.225351      -305.4573
  11   2.0000     -11.225351      -305.4573
  12   2.0000      -1.336654       -36.3722
  13   2.0000      -1.143909       -31.1273
  14   2.0000      -1.112897       -30.2835
  15   2.0000      -1.075375       -29.2625
  16   2.0000      -1.052946       -28.6521
  17   2.0000      -0.974966       -26.5302
  18   2.0000      -0.945575       -25.7304
  19   2.0000      -0.867614       -23.6090
  20   2.0000      -0.859479       -23.3876
  21   2.0000      -0.819874       -22.3099
  22   2.0000      -0.809082       -22.0162
  23   2.0000      -0.717725       -19.5303
  24   2.0000      -0.684354       -18.6222
  25   2.0000      -0.649547       -17.6751
  26   2.0000      -0.637249       -17.3404
  27   2.0000      -0.635067       -17.2810
  28   2.0000      -0.599175       -16.3044
  29   2.0000      -0.595823       -16.2132
  30   2.0000      -0.593322       -16.1451
  31   2.0000      -0.572628       -15.5820
  32   2.0000      -0.555024       -15.1030
  33   2.0000      -0.549067       -14.9409
  34   2.0000      -0.545473       -14.8431
  35   2.0000      -0.506123       -13.7723
  36   2.0000      -0.505666       -13.7599
  37   2.0000      -0.499774       -13.5995
  38   2.0000      -0.498300       -13.5594
  39   2.0000      -0.491507       -13.3746
  40   2.0000      -0.488293       -13.2871
  41   2.0000      -0.461765       -12.5653
  42   2.0000      -0.392743       -10.6871
  43   2.0000      -0.370485       -10.0814
  44   2.0000      -0.369960       -10.0671
  45   0.0000       0.022579         0.6144
  46   0.0000       0.027343         0.7440
  47   0.0000       0.029327         0.7980
  48   0.0000       0.035379         0.9627
  49   0.0000       0.042031         1.1437

MULLIKEN ATOMIC CHARGES
-----------------------
   0 C :   -0.750546
   1 C :   -0.750542
   2 C :    1.016350
   3 C :    1.016344
   4 C :   -1.005148
   5 C :   -1.005147
   6 C :   -0.425800
   7 C :   -0.425806
   8 C :   -0.417770
   9 C :   -0.417770
  10 N :   -0.636368
  11 N :   -0.636367
  12 H :    0.504615
  13 H :    0.504616
  14 H :    0.269800
  15 H :    0.255011
  16 H :    0.272473
  17 H :    0.269800
  18 H :    0.255011
  19 H :    0.272472
  20 H :    0.166062
  21 H :    0.190505
  22 H :    0.166062
  23 H :    0.190504
  24 H :    0.281386
  25 H :    0.279434
  26 H :    0.281386
  27 H :    0.279433
Sum of atomic charges:    0.0000000

LOEWDIN ATOMIC CHARGES
----------------------
   0 C :    0.024099
   1 C :    0.024099
   2 C :   -0.076665
   3 C :   -0.076665
   4 C :    0.588332
   5 C :    0.588332
   6 C :    0.280203
   7 C :    0.280203
   8 C :    0.275282
   9 C :    0.275282
  10 N :    0.196695
  11 N :    0.196695
  12 H :   -0.187954
  13 H :   -0.187954
  14 H :   -0.168470
  15 H :   -0.168086
  16 H :   -0.170130
  17 H :   -0.168470
  18 H :   -0.168086
  19 H :   -0.170130
  20 H :   -0.158771
  21 H :   -0.144590
  22 H :   -0.158771
  23 H :   -0.144590
  24 H :   -0.143113
  25 H :   -0.146831
  26 H :   -0.143113
  27 H :   -0.146831

  Mayer bond orders larger than 0.100000
B(  0-C ,  1-C ) :   0.1310 B(  0-C ,  2-C ) :   0.3536 B(  0-C ,  6-C ) :  -0.1816
B(  0-C , 10-N ) :   0.8557 B(  0-C , 12-H ) :   0.6612 B(  1-C ,  3-C ) :   0.3536
B(  1-C ,  7-C ) :  -0.1816 B(  1-C , 11-N ) :   0.8556 B(  1-C , 13-H ) :   0.6612
B(  2-C ,  3-C ) :   1.2544 B(  2-C ,  6-C ) :   0.8385 B(  2-C , 10-N ) :   0.1142
B(  3-C ,  7-C ) :   0.8385 B(  3-C , 11-N ) :   0.1142 B(  4-C ,  8-C ) :   0.8827
B(  4-C , 14-H ) :   0.9657 B(  4-C , 15-H ) :   0.9820 B(  4-C , 16-H ) :   0.9794
B(  5-C ,  9-C ) :   0.8827 B(  5-C , 17-H ) :   0.9657 B(  5-C , 18-H ) :   0.9820
B(  5-C , 19-H ) :   0.9794 B(  6-C ,  8-C ) :   0.8738 B(  6-C , 20-H ) :   1.0642
B(  6-C , 21-H ) :   1.0740 B(  7-C ,  9-C ) :   0.8739 B(  7-C , 22-H ) :   1.0642
B(  7-C , 23-H ) :   1.0740 B(  8-C , 24-H ) :   0.9514 B(  8-C , 25-H ) :   0.9552
B(  9-C , 26-H ) :   0.9514 B(  9-C , 27-H ) :   0.9552 B( 10-N , 11-N ) :   0.3893

MP2 TOTAL ENERGY:     -499.144129713 Eh
FINAL SINGLE POINT ENERGY      -499.144129713328

DIPOLE MOMENT
-------------
                                X             Y             Z
Electronic contribution:      0.00000      -0.00000      18.12721
Nuclear contribution   :     -0.00000      -0.00000     -20.27546
                        -----------------------------------------
Total Dipole Moment    :      0.00000      -0.00000      -2.14825
                        -----------------------------------------
Magnitude (a.u.)       :      2.14825
Magnitude (Debye)      :      5.46042

Rotational constants in cm-1:     0.027203     0.026949     0.014606
Rotational constants in MHz :   815.518980   807.918462   437.869545

                             ****ORCA TERMINATED NORMALLY****
TOTAL RUN TIME: 0 days 0 hours 28 minutes 53 seconds 792 msec
