                         Program Version 5.0.3 -  RELEASE  -
|  1> !ri-mp2 aug-cc-pvtz aug-cc-pvtz/c tightscf
|  2> %pal nprocs 16 end
|  3>
|  4> * xyz 0 1
|  5> Cl     2.401410   -0.258167   -0.000042
|  6> O     -2.704169   -0.697729    0.000040
|  7> N     -1.435056   -0.167750    0.000025
|  8> N     -1.265034    1.139232    0.000023
|  9> C      0.703455    0.056232   -0.000012
| 10> C     -0.307179   -0.895635    0.000004
| 11> C      0.067053    1.299981    0.000002
| 12> H     -3.268039    0.091657    0.000098
| 13> H     -0.301932   -1.969154    0.000002
| 14> H      0.500000    2.284319   -0.000003
| 15> *
| 16>
| 17>                          ****END OF INPUT****

CARTESIAN COORDINATES (ANGSTROEM)
---------------------------------
  Cl     2.401410   -0.258167   -0.000042
  O     -2.704169   -0.697729    0.000040
  N     -1.435056   -0.167750    0.000025
  N     -1.265034    1.139232    0.000023
  C      0.703455    0.056232   -0.000012
  C     -0.307179   -0.895635    0.000004
  C      0.067053    1.299981    0.000002
  H     -3.268039    0.091657    0.000098
  H     -0.301932   -1.969154    0.000002
  H      0.500000    2.284319   -0.000003

 Total Charge           Charge          ....    0
 Multiplicity           Mult            ....    1
 Number of Electrons    NEL             ....   60
 Basis Dimension        Dim             ....  395

ORBITAL ENERGIES
----------------

  NO   OCC          E(Eh)            E(eV)
   0   2.0000    -104.852087     -2853.1703
   1   2.0000     -20.653484      -562.0099
   2   2.0000     -15.726772      -427.9472
   3   2.0000     -15.615734      -424.9257
   4   2.0000     -11.300623      -307.5056
   5   2.0000     -11.296649      -307.3975
   6   2.0000     -11.276979      -306.8622
   7   2.0000     -10.575352      -287.7700
   8   2.0000      -8.042374      -218.8441
   9   2.0000      -8.040380      -218.7899
  10   2.0000      -8.040295      -218.7876
  11   2.0000      -1.515193       -41.2305
  12   2.0000      -1.353406       -36.8281
  13   2.0000      -1.160495       -31.5787
  14   2.0000      -1.109888       -30.2016
  15   2.0000      -1.025237       -27.8981
  16   2.0000      -0.853086       -23.2136
  17   2.0000      -0.818496       -22.2724
  18   2.0000      -0.754278       -20.5250
  19   2.0000      -0.702180       -19.1073
  20   2.0000      -0.701405       -19.0862
  21   2.0000      -0.621905       -16.9229
  22   2.0000      -0.605509       -16.4767
  23   2.0000      -0.586767       -15.9667
  24   2.0000      -0.566577       -15.4174
  25   2.0000      -0.504987       -13.7414
  26   2.0000      -0.498715       -13.5707
  27   2.0000      -0.456880       -12.4323
  28   2.0000      -0.372787       -10.1440
  29   2.0000      -0.348022        -9.4702
  30   0.0000       0.028528         0.7763
  31   0.0000       0.036166         0.9841
  32   0.0000       0.041543         1.1304
  33   0.0000       0.072165         1.9637
  34   0.0000       0.074624         2.0306

MULLIKEN ATOMIC CHARGES
-----------------------
   0 Cl:   -0.369271
   1 O :   -0.535494
   2 N :    0.822214
   3 N :   -0.825859
   4 C :    0.784335
   5 C :   -0.961749
   6 C :   -0.379811
   7 H :    0.228312
   8 H :    0.606347
   9 H :    0.630974
Sum of atomic charges:   -0.0000000

LOEWDIN ATOMIC CHARGES
----------------------
   0 Cl:    0.941648
   1 O :    0.779846
   2 N :   -0.271870
   3 N :    0.294344
   4 C :   -0.842415
   5 C :    0.048392
   6 C :   -0.080070
   7 H :   -0.492107
   8 H :   -0.171883
   9 H :   -0.205884

  Mayer bond orders larger than 0.100000
B(  0-Cl,  4-C ) :   0.6741 B(  1-O ,  2-N ) :   0.7322 B(  1-O ,  7-H ) :   0.9802
B(  2-N ,  3-N ) :   0.2650 B(  2-N ,  4-C ) :  -0.2232 B(  2-N ,  5-C ) :   1.3837
B(  3-N ,  6-C ) :   1.2574 B(  4-C ,  5-C ) :   1.0413 B(  4-C ,  6-C ) :   1.0866
B(  5-C ,  6-C ) :   0.1656 B(  5-C ,  8-H ) :   0.6215 B(  6-C ,  9-H ) :   0.6001

MP2 TOTAL ENERGY:     -759.962152119 Eh
FINAL SINGLE POINT ENERGY      -759.962152118525

DIPOLE MOMENT
-------------
                                X             Y             Z
Electronic contribution:      5.72181      -0.88060      -0.00011
Nuclear contribution   :     -6.24068       0.73290       0.00015
                        -----------------------------------------
Total Dipole Moment    :     -0.51887      -0.14770       0.00004
                        -----------------------------------------
Magnitude (a.u.)       :      0.53948
Magnitude (Debye)      :      1.37126

Rotational constants in cm-1:     0.248450     0.043158     0.036771
Rotational constants in MHz :  7448.342655  1293.849570  1102.359076

                             ****ORCA TERMINATED NORMALLY****
TOTAL RUN TIME: 0 days 0 hours 2 minutes 26 seconds 395 msec
