                         Program Version 5.0.3 -  RELEASE  -
|  1> !ri-mp2 aug-cc-pvtz aug-cc-pvtz/c tightscf
|  2> %pal nprocs 16 end
|  3>
|  4> * xyz 0 1
|  5> C      0.170112    1.186351   -0.008143
|  6> C      0.170422   -1.186190   -0.008142
|  7> C     -1.217953    1.135555    0.002250
|  8> C     -1.217513   -1.135808    0.002253
|  9> C      0.901466    0.000262   -0.011063
| 10> C      2.404775    0.000161    0.007281
| 11> N     -1.916745   -0.000180    0.008110
| 12> H      0.673396    2.144679   -0.017182
| 13> H      0.673970   -2.144393   -0.017199
| 14> H     -1.795666    2.053142    0.003167
| 15> H     -1.794994   -2.053533    0.003164
| 16> H      2.808502   -0.876247   -0.498790
| 17> H      2.808455    0.891635   -0.471579
| 18> H      2.775701   -0.016004    1.035029
| 19> *
| 20>
| 21>                          ****END OF INPUT****

CARTESIAN COORDINATES (ANGSTROEM)
---------------------------------
  C      0.170112    1.186351   -0.008143
  C      0.170422   -1.186190   -0.008142
  C     -1.217953    1.135555    0.002250
  C     -1.217513   -1.135808    0.002253
  C      0.901466    0.000262   -0.011063
  C      2.404775    0.000161    0.007281
  N     -1.916745   -0.000180    0.008110
  H      0.673396    2.144679   -0.017182
  H      0.673970   -2.144393   -0.017199
  H     -1.795666    2.053142    0.003167
  H     -1.794994   -2.053533    0.003164
  H      2.808502   -0.876247   -0.498790
  H      2.808455    0.891635   -0.471579
  H      2.775701   -0.016004    1.035029

 Total Charge           Charge          ....    0
 Multiplicity           Mult            ....    1
 Number of Electrons    NEL             ....   50
 Basis Dimension        Dim             ....  483

ORBITAL ENERGIES
----------------

  NO   OCC          E(Eh)            E(eV)
   0   2.0000     -15.558292      -423.3626
   1   2.0000     -11.270805      -306.6942
   2   2.0000     -11.270774      -306.6934
   3   2.0000     -11.264602      -306.5254
   4   2.0000     -11.236607      -305.7636
   5   2.0000     -11.233934      -305.6909
   6   2.0000     -11.233895      -305.6898
   7   2.0000      -1.255947       -34.1761
   8   2.0000      -1.109192       -30.1827
   9   2.0000      -1.030263       -28.0349
  10   2.0000      -0.970717       -26.4146
  11   2.0000      -0.855738       -23.2858
  12   2.0000      -0.824125       -22.4256
  13   2.0000      -0.695092       -18.9144
  14   2.0000      -0.671633       -18.2761
  15   2.0000      -0.647865       -17.6293
  16   2.0000      -0.593921       -16.1614
  17   2.0000      -0.591123       -16.0853
  18   2.0000      -0.560512       -15.2523
  19   2.0000      -0.550108       -14.9692
  20   2.0000      -0.529199       -14.4002
  21   2.0000      -0.506974       -13.7955
  22   2.0000      -0.413865       -11.2618
  23   2.0000      -0.368900       -10.0383
  24   2.0000      -0.345511        -9.4018
  25   0.0000       0.026015         0.7079
  26   0.0000       0.033015         0.8984
  27   0.0000       0.035754         0.9729
  28   0.0000       0.043099         1.1728
  29   0.0000       0.048544         1.3210

MULLIKEN ATOMIC CHARGES
-----------------------
   0 C :   -0.642257
   1 C :   -0.639773
   2 C :   -0.534535
   3 C :   -0.535899
   4 C :    1.162802
   5 C :   -0.926684
   6 N :   -0.592831
   7 H :    0.243729
   8 H :    0.248335
   9 H :    0.679786
  10 H :    0.677861
  11 H :    0.272512
  12 H :    0.272730
  13 H :    0.314227
Sum of atomic charges:    0.0000000

LOEWDIN ATOMIC CHARGES
----------------------
   0 C :    0.213252
   1 C :    0.213134
   2 C :    0.007793
   3 C :    0.007759
   4 C :   -0.133616
   5 C :    0.589424
   6 N :    0.363743
   7 H :   -0.184649
   8 H :   -0.184383
   9 H :   -0.192927
  10 H :   -0.192955
  11 H :   -0.172799
  12 H :   -0.173309
  13 H :   -0.160467

  Mayer bond orders larger than 0.100000
B(  0-C ,  2-C ) :   1.1088 B(  0-C ,  4-C ) :   0.9080 B(  0-C ,  7-H ) :   1.1068
B(  1-C ,  3-C ) :   1.1118 B(  1-C ,  4-C ) :   0.9108 B(  1-C ,  8-H ) :   1.0984
B(  2-C ,  3-C ) :   0.1205 B(  2-C ,  6-N ) :   1.1189 B(  2-C ,  9-H ) :   0.4048
B(  3-C ,  6-N ) :   1.1148 B(  3-C , 10-H ) :   0.4075 B(  4-C ,  5-C ) :   0.6309
B(  4-C ,  7-H ) :  -0.1101 B(  4-C ,  8-H ) :  -0.1093 B(  5-C , 11-H ) :   1.0030
B(  5-C , 12-H ) :   1.0010 B(  5-C , 13-H ) :   0.9459 B(  6-N ,  9-H ) :  -0.1090
B(  6-N , 10-H ) :  -0.1085

MP2 TOTAL ENERGY:     -287.008015681 Eh
FINAL SINGLE POINT ENERGY      -287.008015680681

DIPOLE MOMENT
-------------
                                X             Y             Z
Electronic contribution:     -5.07819       0.00046      -0.02688
Nuclear contribution   :      6.18917      -0.00073       0.03696
                        -----------------------------------------
Total Dipole Moment    :      1.11098      -0.00026       0.01008
                        -----------------------------------------
Magnitude (a.u.)       :      1.11102
Magnitude (Debye)      :      2.82400

Rotational constants in cm-1:     0.196717     0.084610     0.059818
Rotational constants in MHz :  5897.438347  2536.548825  1793.311200

                             ****ORCA TERMINATED NORMALLY****
TOTAL RUN TIME: 0 days 0 hours 4 minutes 8 seconds 488 msec
