                         Program Version 5.0.3 -  RELEASE  -
|  1> !ri-mp2 aug-cc-pvtz aug-cc-pvtz/c tightscf
|  2> %pal nprocs 16 end
|  3>
|  4> * xyz 0 1
|  5> F    -1.348626   -0.049956    1.364939
|  6> F    -2.375705   -0.844928   -0.412965
|  7> O     0.433224   -0.723724   -0.682853
|  8> O     1.618313    0.882499    0.312093
|  9> O     2.419188   -1.228012    0.268661
| 10> C    -0.406254    0.422707   -0.759710
| 11> C     1.578879   -0.436900    0.000770
| 12> C    -1.668924    0.213355    0.065480
| 13> C     0.485739    1.562976   -0.229668
| 14> H    -0.703392    0.567543   -1.797832
| 15> H    -2.315882    1.094850    0.045598
| 16> H     0.016202    2.142547    0.562716
| 17> H     0.819614    2.230086   -1.022680
| 18> *
| 19>
| 20>                          ****END OF INPUT****

CARTESIAN COORDINATES (ANGSTROEM)
---------------------------------
  F     -1.348626   -0.049956    1.364939
  F     -2.375705   -0.844928   -0.412965
  O      0.433224   -0.723724   -0.682853
  O      1.618313    0.882499    0.312093
  O      2.419188   -1.228012    0.268661
  C     -0.406254    0.422707   -0.759710
  C      1.578879   -0.436900    0.000770
  C     -1.668924    0.213355    0.065480
  C      0.485739    1.562976   -0.229668
  H     -0.703392    0.567543   -1.797832
  H     -2.315882    1.094850    0.045598
  H      0.016202    2.142547    0.562716
  H      0.819614    2.230086   -1.022680

 Total Charge           Charge          ....    0
 Multiplicity           Mult            ....    1
 Number of Electrons    NEL             ....   70
 Basis Dimension        Dim             ....  506

ORBITAL ENERGIES
----------------

  NO   OCC          E(Eh)            E(eV)
   0   2.0000     -26.336423      -716.6505
   1   2.0000     -26.334328      -716.5935
   2   2.0000     -20.641729      -561.6900
   3   2.0000     -20.639170      -561.6204
   4   2.0000     -20.558252      -559.4185
   5   2.0000     -11.447425      -311.5003
   6   2.0000     -11.439705      -311.2902
   7   2.0000     -11.353322      -308.9396
   8   2.0000     -11.342329      -308.6405
   9   2.0000      -1.684342       -45.8333
  10   2.0000      -1.623422       -44.1756
  11   2.0000      -1.539353       -41.8879
  12   2.0000      -1.414420       -38.4883
  13   2.0000      -1.402255       -38.1573
  14   2.0000      -1.109629       -30.1945
  15   2.0000      -0.993223       -27.0270
  16   2.0000      -0.912246       -24.8235
  17   2.0000      -0.857492       -23.3335
  18   2.0000      -0.805992       -21.9322
  19   2.0000      -0.793454       -21.5910
  20   2.0000      -0.781983       -21.2788
  21   2.0000      -0.742449       -20.2031
  22   2.0000      -0.724049       -19.7024
  23   2.0000      -0.698177       -18.9984
  24   2.0000      -0.687353       -18.7038
  25   2.0000      -0.655785       -17.8448
  26   2.0000      -0.654916       -17.8212
  27   2.0000      -0.641864       -17.4660
  28   2.0000      -0.632403       -17.2086
  29   2.0000      -0.591643       -16.0994
  30   2.0000      -0.575722       -15.6662
  31   2.0000      -0.559810       -15.2332
  32   2.0000      -0.496808       -13.5188
  33   2.0000      -0.490267       -13.3408
  34   2.0000      -0.483901       -13.1676
  35   0.0000       0.014148         0.3850
  36   0.0000       0.029358         0.7989
  37   0.0000       0.032917         0.8957
  38   0.0000       0.048846         1.3292
  39   0.0000       0.058667         1.5964

MULLIKEN ATOMIC CHARGES
-----------------------
   0 F :   -0.478621
   1 F :   -0.451174
   2 O :   -0.374270
   3 O :   -0.328275
   4 O :   -0.643084
   5 C :    0.186259
   6 C :    0.457766
   7 C :    0.511807
   8 C :   -0.257148
   9 H :    0.379916
  10 H :    0.360281
  11 H :    0.329780
  12 H :    0.306762
Sum of atomic charges:   -0.0000000

LOEWDIN ATOMIC CHARGES
----------------------
   0 F :    0.498728
   1 F :    0.497497
   2 O :    0.586442
   3 O :    0.579872
   4 O :    0.420315
   5 C :   -0.241287
   6 C :   -1.075321
   7 C :   -0.754328
   8 C :    0.099141
   9 H :   -0.142425
  10 H :   -0.166715
  11 H :   -0.155142
  12 H :   -0.146776

  Mayer bond orders larger than 0.100000
B(  0-F ,  7-C ) :   0.7385 B(  1-F ,  7-C ) :   0.7414 B(  2-O ,  5-C ) :   0.5588
B(  2-O ,  6-C ) :   1.1471 B(  2-O ,  7-C ) :   0.1175 B(  3-O ,  6-C ) :   1.1101
B(  3-O ,  8-C ) :   0.6676 B(  4-O ,  6-C ) :   1.6931 B(  5-C ,  7-C ) :   0.8906
B(  5-C ,  8-C ) :   0.9571 B(  5-C ,  9-H ) :   0.8448 B(  7-C , 10-H ) :   0.9304
B(  8-C , 11-H ) :   0.9025 B(  8-C , 12-H ) :   0.9443

MP2 TOTAL ENERGY:     -579.368228799 Eh
FINAL SINGLE POINT ENERGY      -579.368228799039

DIPOLE MOMENT
-------------
                                X             Y             Z
Electronic contribution:     -2.78177      -4.39714       2.08147
Nuclear contribution   :      1.49027       6.57183      -3.00311
                        -----------------------------------------
Total Dipole Moment    :     -1.29150       2.17469      -0.92164
                        -----------------------------------------
Magnitude (a.u.)       :      2.69196
Magnitude (Debye)      :      6.84243

Rotational constants in cm-1:     0.102365     0.040526     0.036729
Rotational constants in MHz :  3068.812102  1214.932037  1101.105192

                             ****ORCA TERMINATED NORMALLY****
TOTAL RUN TIME: 0 days 0 hours 4 minutes 25 seconds 406 msec
