                         Program Version 5.0.3 -  RELEASE  -
|  1> !ri-mp2 aug-cc-pvtz aug-cc-pvtz/c tightscf
|  2> %pal nprocs 16 end
|  3>
|  4> * xyz 0 1
|  5> C      1.209009    0.686001        0.000000
|  6> C     -1.202025    0.675134        0.000000
|  7> C      1.216005   -0.701909        0.000000
|  8> C     -1.199895   -0.715998        0.000000
|  9> C      0.000000    1.377007        0.000000
| 10> C      0.010446   -1.381379        0.000000
| 11> O      0.057288    2.745374        0.000000
| 12> F      0.018013   -2.736527        0.000000
| 13> H      2.134342    1.243985        0.000000
| 14> H     -2.143868    1.210090        0.000000
| 15> H      2.143774   -1.255723        0.000000
| 16> H     -2.123419   -1.276673        0.000000
| 17> H     -0.832492    3.110943        0.000000
| 18> *
| 19>
| 20>                          ****END OF INPUT****

CARTESIAN COORDINATES (ANGSTROEM)
---------------------------------
  C      1.209009    0.686001    0.000000
  C     -1.202025    0.675134    0.000000
  C      1.216005   -0.701909    0.000000
  C     -1.199895   -0.715998    0.000000
  C      0.000000    1.377007    0.000000
  C      0.010446   -1.381379    0.000000
  O      0.057288    2.745374    0.000000
  F      0.018013   -2.736527    0.000000
  H      2.134342    1.243985    0.000000
  H     -2.143868    1.210090    0.000000
  H      2.143774   -1.255723    0.000000
  H     -2.123419   -1.276673    0.000000
  H     -0.832492    3.110943    0.000000

 Total Charge           Charge          ....    0
 Multiplicity           Mult            ....    1
 Number of Electrons    NEL             ....   58
 Basis Dimension        Dim             ....  483

ORBITAL ENERGIES
----------------

  NO   OCC          E(Eh)            E(eV)
   0   2.0000     -26.304372      -715.7783
   1   2.0000     -20.597457      -560.4853
   2   2.0000     -11.321503      -308.0737
   3   2.0000     -11.310397      -307.7716
   4   2.0000     -11.252660      -306.2004
   5   2.0000     -11.251087      -306.1576
   6   2.0000     -11.250207      -306.1337
   7   2.0000     -11.244745      -305.9851
   8   2.0000      -1.618767       -44.0489
   9   2.0000      -1.411741       -38.4154
  10   2.0000      -1.165735       -31.7213
  11   2.0000      -1.040394       -28.3106
  12   2.0000      -1.016040       -27.6479
  13   2.0000      -0.873640       -23.7730
  14   2.0000      -0.842585       -22.9279
  15   2.0000      -0.750955       -20.4345
  16   2.0000      -0.743092       -20.2206
  17   2.0000      -0.706216       -19.2171
  18   2.0000      -0.688725       -18.7412
  19   2.0000      -0.644124       -17.5275
  20   2.0000      -0.627081       -17.0637
  21   2.0000      -0.610309       -16.6073
  22   2.0000      -0.598589       -16.2884
  23   2.0000      -0.584326       -15.9003
  24   2.0000      -0.559890       -15.2354
  25   2.0000      -0.510143       -13.8817
  26   2.0000      -0.493200       -13.4207
  27   2.0000      -0.359504        -9.7826
  28   2.0000      -0.322222        -8.7681
  29   0.0000       0.023936         0.6513
  30   0.0000       0.034118         0.9284
  31   0.0000       0.036475         0.9925
  32   0.0000       0.048972         1.3326
  33   0.0000       0.055110         1.4996

MULLIKEN ATOMIC CHARGES
-----------------------
   0 C :   -0.869546
   1 C :   -0.629273
   2 C :   -0.607702
   3 C :   -0.572692
   4 C :    0.843732
   5 C :    0.765844
   6 O :   -0.726471
   7 F :   -0.513204
   8 H :    0.689038
   9 H :    0.615223
  10 H :    0.426021
  11 H :    0.423501
  12 H :    0.155529
Sum of atomic charges:    0.0000000

LOEWDIN ATOMIC CHARGES
----------------------
   0 C :    0.205590
   1 C :    0.203867
   2 C :    0.190084
   3 C :    0.187883
   4 C :   -0.379648
   5 C :   -0.516716
   6 O :    0.834604
   7 F :    0.480512
   8 H :   -0.180015
   9 H :   -0.183350
  10 H :   -0.179737
  11 H :   -0.180501
  12 H :   -0.482573

  Mayer bond orders larger than 0.100000
B(  0-C ,  1-C ) :   0.3318 B(  0-C ,  2-C ) :   1.3895 B(  0-C ,  4-C ) :   1.0385
B(  0-C ,  8-H ) :   0.3127 B(  1-C ,  3-C ) :   1.2135 B(  1-C ,  4-C ) :   1.0938
B(  1-C ,  6-O ) :  -0.1460 B(  1-C ,  9-H ) :   0.4370 B(  2-C ,  3-C ) :   0.1418
B(  2-C ,  4-C ) :  -0.2418 B(  2-C ,  5-C ) :   1.3067 B(  2-C ,  7-F ) :   0.1054
B(  2-C , 10-H ) :   0.7331 B(  3-C ,  4-C ) :  -0.1341 B(  3-C ,  5-C ) :   1.2514
B(  3-C ,  7-F ) :   0.1319 B(  3-C , 11-H ) :   0.7300 B(  4-C ,  6-O ) :   0.6648
B(  5-C ,  7-F ) :   0.2905 B(  6-O , 12-H ) :   1.0506 B(  7-F , 10-H ) :   0.1400
B(  7-F , 11-H ) :   0.1264

MP2 TOTAL ENERGY:     -406.012259005 Eh
FINAL SINGLE POINT ENERGY      -406.012259004658

DIPOLE MOMENT
-------------
                                X             Y             Z
Electronic contribution:      0.28526      -4.99139       0.00000
Nuclear contribution   :     -0.81480       5.61482       0.00000
                        -----------------------------------------
Total Dipole Moment    :     -0.52954       0.62343       0.00000
                        -----------------------------------------
Magnitude (a.u.)       :      0.81797
Magnitude (Debye)      :      2.07911

Rotational constants in cm-1:     0.189165     0.048514     0.038611
Rotational constants in MHz :  5671.024350  1454.405222  1157.539675

                             ****ORCA TERMINATED NORMALLY****
TOTAL RUN TIME: 0 days 0 hours 4 minutes 26 seconds 530 msec
