                         Program Version 5.0.3 -  RELEASE  -
|  1> !ri-mp2 aug-cc-pvtz aug-cc-pvtz/c tightscf
|  2> %pal nprocs 16 end
|  3>
|  4> * xyz 0 1
|  5> S     0.212246    1.503595    0.000013
|  6> S     2.374967   -0.597531   -0.000005
|  7> N    -0.270384   -1.016336   -0.000009
|  8> N    -2.558616   -1.309203   -0.000011
|  9> C     0.793728   -0.164480   -0.000001
| 10> C    -1.566028   -0.523204   -0.000005
| 11> C    -1.550107    0.995182    0.000009
| 12> H    -0.112586   -2.013711   -0.000018
| 13> H    -3.442358   -0.809316   -0.000007
| 14> H    -2.051518    1.379900   -0.885946
| 15> H    -2.051518    1.379884    0.885970
| 16> *
| 17>
| 18>                          ****END OF INPUT****

CARTESIAN COORDINATES (ANGSTROEM)
---------------------------------
  S      0.212246    1.503595    0.000013
  S      2.374967   -0.597531   -0.000005
  N     -0.270384   -1.016336   -0.000009
  N     -2.558616   -1.309203   -0.000011
  C      0.793728   -0.164480   -0.000001
  C     -1.566028   -0.523204   -0.000005
  C     -1.550107    0.995182    0.000009
  H     -0.112586   -2.013711   -0.000018
  H     -3.442358   -0.809316   -0.000007
  H     -2.051518    1.379900   -0.885946
  H     -2.051518    1.379884    0.885970

 Total Charge           Charge          ....    0
 Multiplicity           Mult            ....    1
 Number of Electrons    NEL             ....   68
 Basis Dimension        Dim             ....  422

ORBITAL ENERGIES
----------------

  NO   OCC          E(Eh)            E(eV)
   0   2.0000     -92.007705     -2503.6569
   1   2.0000     -91.925906     -2501.4311
   2   2.0000     -15.643414      -425.6789
   3   2.0000     -15.566969      -423.5988
   4   2.0000     -11.396057      -310.1025
   5   2.0000     -11.365428      -309.2690
   6   2.0000     -11.311341      -307.7972
   7   2.0000      -9.008091      -245.1226
   8   2.0000      -8.928908      -242.9679
   9   2.0000      -6.688969      -182.0161
  10   2.0000      -6.688040      -181.9908
  11   2.0000      -6.687035      -181.9635
  12   2.0000      -6.610252      -179.8741
  13   2.0000      -6.608598      -179.8291
  14   2.0000      -6.607672      -179.8039
  15   2.0000      -1.350436       -36.7472
  16   2.0000      -1.222984       -33.2791
  17   2.0000      -1.102820       -30.0092
  18   2.0000      -1.047544       -28.5051
  19   2.0000      -0.926240       -25.2043
  20   2.0000      -0.854709       -23.2578
  21   2.0000      -0.824930       -22.4475
  22   2.0000      -0.696435       -18.9510
  23   2.0000      -0.675486       -18.3809
  24   2.0000      -0.646720       -17.5981
  25   2.0000      -0.621878       -16.9221
  26   2.0000      -0.586150       -15.9500
  27   2.0000      -0.534769       -14.5518
  28   2.0000      -0.522007       -14.2045
  29   2.0000      -0.483974       -13.1696
  30   2.0000      -0.450530       -12.2595
  31   2.0000      -0.389708       -10.6045
  32   2.0000      -0.348020        -9.4701
  33   2.0000      -0.347059        -9.4439
  34   0.0000       0.018894         0.5141
  35   0.0000       0.036283         0.9873
  36   0.0000       0.039385         1.0717
  37   0.0000       0.044009         1.1975
  38   0.0000       0.060287         1.6405

MULLIKEN ATOMIC CHARGES
-----------------------
   0 S :   -0.096568
   1 S :   -0.460371
   2 N :    0.227659
   3 N :   -0.749864
   4 C :    0.202374
   5 C :    0.153990
   6 C :   -0.139406
   7 H :    0.140050
   8 H :    0.154442
   9 H :    0.283847
  10 H :    0.283847
Sum of atomic charges:    0.0000000

LOEWDIN ATOMIC CHARGES
----------------------
   0 S :    1.177177
   1 S :    0.807476
   2 N :    0.374033
   3 N :    0.665611
   4 C :   -1.381961
   5 C :   -0.486162
   6 C :   -0.010734
   7 H :   -0.282607
   8 H :   -0.431243
   9 H :   -0.215794
  10 H :   -0.215795

  Mayer bond orders larger than 0.100000
B(  0-S ,  4-C ) :   0.9532 B(  0-S ,  5-C ) :   0.1577 B(  0-S ,  6-C ) :   0.9060
B(  1-S ,  4-C ) :   1.6695 B(  2-N ,  3-N ) :  -0.1432 B(  2-N ,  4-C ) :   1.2263
B(  2-N ,  5-C ) :   0.7365 B(  2-N ,  7-H ) :   1.0477 B(  3-N ,  5-C ) :   1.4276
B(  3-N ,  8-H ) :   0.9579 B(  4-C ,  5-C ) :  -0.2055 B(  5-C ,  6-C ) :   0.7584
B(  6-C ,  9-H ) :   0.9342 B(  6-C , 10-H ) :   0.9342

MP2 TOTAL ENERGY:    -1021.248669978 Eh
FINAL SINGLE POINT ENERGY     -1021.248669978362

DIPOLE MOMENT
-------------
                                X             Y             Z
Electronic contribution:      5.86818       0.90955       0.00001
Nuclear contribution   :     -7.49104      -0.10129      -0.00000
                        -----------------------------------------
Total Dipole Moment    :     -1.62287       0.80827       0.00001
                        -----------------------------------------
Magnitude (a.u.)       :      1.81301
Magnitude (Debye)      :      4.60829

Rotational constants in cm-1:     0.113864     0.046505     0.033225
Rotational constants in MHz :  3413.554851  1394.194101   996.067774

                             ****ORCA TERMINATED NORMALLY****
TOTAL RUN TIME: 0 days 0 hours 3 minutes 18 seconds 916 msec
