                         Program Version 5.0.3 -  RELEASE  -
|  1> !ri-mp2 aug-cc-pvtz aug-cc-pvtz/c tightscf
|  2> %pal nprocs 16 end
|  3>
|  4> * xyz 0 1
|  5> C      1.363855    0.030075   -0.170042
|  6> C      2.606929   -0.557824    0.463532
|  7> C     -1.455280    1.225604    0.713644
|  8> C     -2.421092   -0.889332   -0.272124
|  9> C      0.061163   -0.705726    0.102479
| 10> C     -1.218410    0.057722   -0.248330
| 11> O      1.416645    1.020203   -0.864763
| 12> H      2.642224   -1.640680    0.332842
| 13> H      3.496393   -0.099039    0.039705
| 14> H      2.584875   -0.368191    1.539724
| 15> H     -2.352545    1.781025    0.436354
| 16> H     -1.594220    0.865028    1.736746
| 17> H     -0.618385    1.922898    0.706321
| 18> H     -3.332967   -0.354649   -0.542235
| 19> H     -2.584846   -1.345226    0.707862
| 20> H     -2.281272   -1.695729   -0.994592
| 21> H      0.119090   -1.634373   -0.479035
| 22> H      0.049131   -1.027199    1.149683
| 23> H     -1.083622    0.471398   -1.250224
| 24> *
| 25>
| 26>                          ****END OF INPUT****

CARTESIAN COORDINATES (ANGSTROEM)
---------------------------------
  C      1.363855    0.030075   -0.170042
  C      2.606929   -0.557824    0.463532
  C     -1.455280    1.225604    0.713644
  C     -2.421092   -0.889332   -0.272124
  C      0.061163   -0.705726    0.102479
  C     -1.218410    0.057722   -0.248330
  O      1.416645    1.020203   -0.864763
  H      2.642224   -1.640680    0.332842
  H      3.496393   -0.099039    0.039705
  H      2.584875   -0.368191    1.539724
  H     -2.352545    1.781025    0.436354
  H     -1.594220    0.865028    1.736746
  H     -0.618385    1.922898    0.706321
  H     -3.332967   -0.354649   -0.542235
  H     -2.584846   -1.345226    0.707862
  H     -2.281272   -1.695729   -0.994592
  H      0.119090   -1.634373   -0.479035
  H      0.049131   -1.027199    1.149683
  H     -1.083622    0.471398   -1.250224

 Total Charge           Charge          ....    0
 Multiplicity           Mult            ....    1
 Number of Electrons    NEL             ....   56
 Basis Dimension        Dim             ....  598

ORBITAL ENERGIES
----------------

  NO   OCC          E(Eh)            E(eV)
   0   2.0000     -20.543047      -559.0047
   1   2.0000     -11.329484      -308.2909
   2   2.0000     -11.235209      -305.7256
   3   2.0000     -11.233615      -305.6822
   4   2.0000     -11.228714      -305.5489
   5   2.0000     -11.214240      -305.1550
   6   2.0000     -11.208073      -304.9872
   7   2.0000      -1.386220       -37.7210
   8   2.0000      -1.095476       -29.8094
   9   2.0000      -1.024149       -27.8685
  10   2.0000      -0.949476       -25.8365
  11   2.0000      -0.930112       -25.3096
  12   2.0000      -0.790425       -21.5086
  13   2.0000      -0.731400       -19.9024
  14   2.0000      -0.660559       -17.9747
  15   2.0000      -0.638082       -17.3631
  16   2.0000      -0.627288       -17.0694
  17   2.0000      -0.600960       -16.3530
  18   2.0000      -0.581454       -15.8222
  19   2.0000      -0.567692       -15.4477
  20   2.0000      -0.552738       -15.0408
  21   2.0000      -0.537455       -14.6249
  22   2.0000      -0.522976       -14.2309
  23   2.0000      -0.491456       -13.3732
  24   2.0000      -0.479176       -13.0391
  25   2.0000      -0.466384       -12.6910
  26   2.0000      -0.465156       -12.6575
  27   2.0000      -0.406342       -11.0571
  28   0.0000       0.025658         0.6982
  29   0.0000       0.033006         0.8981
  30   0.0000       0.035974         0.9789
  31   0.0000       0.039869         1.0849
  32   0.0000       0.050796         1.3822

MULLIKEN ATOMIC CHARGES
-----------------------
   0 C :    0.499432
   1 C :   -0.886026
   2 C :   -1.099489
   3 C :   -1.128620
   4 C :   -0.330102
   5 C :    0.349825
   6 O :   -0.890783
   7 H :    0.301818
   8 H :    0.327387
   9 H :    0.304505
  10 H :    0.262322
  11 H :    0.248206
  12 H :    0.305411
  13 H :    0.268883
  14 H :    0.253312
  15 H :    0.246798
  16 H :    0.369257
  17 H :    0.268305
  18 H :    0.329559
Sum of atomic charges:   -0.0000000

LOEWDIN ATOMIC CHARGES
----------------------
   0 C :   -0.507532
   1 C :    0.592186
   2 C :    0.586377
   3 C :    0.585106
   4 C :    0.274838
   5 C :   -0.064496
   6 O :    0.481630
   7 H :   -0.173997
   8 H :   -0.181160
   9 H :   -0.169476
  10 H :   -0.162932
  11 H :   -0.162308
  12 H :   -0.173152
  13 H :   -0.164687
  14 H :   -0.161142
  15 H :   -0.166570
  16 H :   -0.144036
  17 H :   -0.145167
  18 H :   -0.143483

  Mayer bond orders larger than 0.100000
B(  0-C ,  1-C ) :   0.9198 B(  0-C ,  4-C ) :   0.7558 B(  0-C ,  6-O ) :   1.1645
B(  1-C ,  7-H ) :   0.9458 B(  1-C ,  8-H ) :   0.9415 B(  1-C ,  9-H ) :   0.9366
B(  2-C ,  3-C ) :   0.1404 B(  2-C ,  4-C ) :   0.1422 B(  2-C ,  5-C ) :   0.6960
B(  2-C , 10-H ) :   0.9844 B(  2-C , 11-H ) :   0.9830 B(  2-C , 12-H ) :   0.9487
B(  3-C ,  5-C ) :   0.6987 B(  3-C , 13-H ) :   1.0077 B(  3-C , 14-H ) :   0.9958
B(  3-C , 15-H ) :   1.0110 B(  4-C ,  5-C ) :   0.9481 B(  4-C , 16-H ) :   0.8626
B(  4-C , 17-H ) :   0.9455 B(  5-C , 18-H ) :   0.8545

MP2 TOTAL ENERGY:     -310.468076693 Eh
FINAL SINGLE POINT ENERGY      -310.468076693384

DIPOLE MOMENT
-------------
                                X             Y             Z
Electronic contribution:      5.09629       2.27985      -2.88155
Nuclear contribution   :     -5.18065      -3.26418       3.53810
                        -----------------------------------------
Total Dipole Moment    :     -0.08437      -0.98433       0.65655
                        -----------------------------------------
Magnitude (a.u.)       :      1.18621
Magnitude (Debye)      :      3.01510

Rotational constants in cm-1:     0.157667     0.049243     0.044132
Rotational constants in MHz :  4726.737481  1476.254154  1323.040304

                             ****ORCA TERMINATED NORMALLY****
TOTAL RUN TIME: 0 days 0 hours 7 minutes 4 seconds 91 msec
