                         Program Version 5.0.3 -  RELEASE  -
|  1> !ri-mp2 aug-cc-pvtz aug-cc-pvtz/c tightscf
|  2> %pal nprocs 16 end
|  3>
|  4> * xyz 0 1
|  5> C     2.045287    1.959573    0.000020
|  6> C     1.079023    0.821006    0.000009
|  7> C     1.317642   -0.506197    0.000000
|  8> C     2.614953   -1.243781    0.000000
|  9> S    -0.210914   -1.391881   -0.000010
| 10> C    -1.168018    0.085615   -0.000003
| 11> N    -0.281545    1.116807    0.000007
| 12> S    -2.819584    0.202116   -0.000008
| 13> H     1.909294    2.589853   -0.881908
| 14> H     3.071241    1.602683    0.000021
| 15> H     1.909289    2.589840    0.881956
| 16> H     2.709293   -1.883500   -0.879789
| 17> H     2.709288   -1.883511    0.879781
| 18> H     3.456495   -0.553476    0.000007
| 19> H    -0.639431    2.059413    0.000012
| 20> *
| 21>
| 22>                          ****END OF INPUT****

CARTESIAN COORDINATES (ANGSTROEM)
---------------------------------
  C      2.045287    1.959573    0.000020
  C      1.079023    0.821006    0.000009
  C      1.317642   -0.506197    0.000000
  C      2.614953   -1.243781    0.000000
  S     -0.210914   -1.391881   -0.000010
  C     -1.168018    0.085615   -0.000003
  N     -0.281545    1.116807    0.000007
  S     -2.819584    0.202116   -0.000008
  H      1.909294    2.589853   -0.881908
  H      3.071241    1.602683    0.000021
  H      1.909289    2.589840    0.881956
  H      2.709293   -1.883500   -0.879789
  H      2.709288   -1.883511    0.879781
  H      3.456495   -0.553476    0.000007
  H     -0.639431    2.059413    0.000012

 Total Charge           Charge          ....    0
 Multiplicity           Mult            ....    1
 Number of Electrons    NEL             ....   76
 Basis Dimension        Dim             ....  537

ORBITAL ENERGIES
----------------

  NO   OCC          E(Eh)            E(eV)
   0   2.0000     -91.998719     -2503.4124
   1   2.0000     -91.899959     -2500.7250
   2   2.0000     -15.636479      -425.4902
   3   2.0000     -11.373233      -309.4814
   4   2.0000     -11.306310      -307.6603
   5   2.0000     -11.281244      -306.9782
   6   2.0000     -11.261343      -306.4367
   7   2.0000     -11.253711      -306.2290
   8   2.0000      -8.998999      -244.8752
   9   2.0000      -8.902749      -242.2561
  10   2.0000      -6.679858      -181.7682
  11   2.0000      -6.679090      -181.7473
  12   2.0000      -6.678250      -181.7244
  13   2.0000      -6.584264      -179.1669
  14   2.0000      -6.582357      -179.1150
  15   2.0000      -6.581688      -179.0968
  16   2.0000      -1.329416       -36.1752
  17   2.0000      -1.117709       -30.4144
  18   2.0000      -1.084401       -29.5080
  19   2.0000      -1.000054       -27.2128
  20   2.0000      -0.979176       -26.6447
  21   2.0000      -0.898249       -24.4426
  22   2.0000      -0.812517       -22.1097
  23   2.0000      -0.776815       -21.1382
  24   2.0000      -0.682061       -18.5598
  25   2.0000      -0.641992       -17.4695
  26   2.0000      -0.619506       -16.8576
  27   2.0000      -0.594305       -16.1719
  28   2.0000      -0.590003       -16.0548
  29   2.0000      -0.578315       -15.7367
  30   2.0000      -0.571667       -15.5558
  31   2.0000      -0.562065       -15.2946
  32   2.0000      -0.505433       -13.7535
  33   2.0000      -0.487685       -13.2706
  34   2.0000      -0.421891       -11.4802
  35   2.0000      -0.396967       -10.8020
  36   2.0000      -0.325218        -8.8496
  37   2.0000      -0.291897        -7.9429
  38   0.0000       0.019168         0.5216
  39   0.0000       0.026509         0.7213
  40   0.0000       0.036211         0.9853
  41   0.0000       0.039056         1.0628
  42   0.0000       0.049743         1.3536

MULLIKEN ATOMIC CHARGES
-----------------------
   0 C :   -0.870553
   1 C :    0.021650
   2 C :    0.774993
   3 C :   -0.903027
   4 S :   -0.253796
   5 C :    0.044189
   6 N :   -0.021727
   7 S :   -0.571653
   8 H :    0.269758
   9 H :    0.321800
  10 H :    0.269758
  11 H :    0.266900
  12 H :    0.266900
  13 H :    0.335467
  14 H :    0.049341
Sum of atomic charges:    0.0000000

LOEWDIN ATOMIC CHARGES
----------------------
   0 C :    0.603148
   1 C :   -0.297508
   2 C :   -0.465212
   3 C :    0.510902
   4 S :    1.226776
   5 C :   -1.356950
   6 N :    0.371408
   7 S :    0.737178
   8 H :   -0.159921
   9 H :   -0.185014
  10 H :   -0.159922
  11 H :   -0.176455
  12 H :   -0.176456
  13 H :   -0.192344
  14 H :   -0.279630

  Mayer bond orders larger than 0.100000
B(  0-C ,  1-C ) :   0.6355 B(  0-C ,  8-H ) :   1.0141 B(  0-C ,  9-H ) :   0.9391
B(  0-C , 10-H ) :   1.0141 B(  1-C ,  2-C ) :   1.1663 B(  1-C ,  4-S ) :   0.3169
B(  1-C ,  6-N ) :   0.8389 B(  2-C ,  3-C ) :   0.7372 B(  2-C ,  4-S ) :   0.6483
B(  2-C ,  5-C ) :  -0.1264 B(  2-C ,  6-N ) :  -0.3761 B(  3-C , 11-H ) :   1.0160
B(  3-C , 12-H ) :   1.0160 B(  3-C , 13-H ) :   0.8532 B(  4-S ,  5-C ) :   1.0611
B(  5-C ,  6-N ) :   1.3986 B(  5-C ,  7-S ) :   1.6365 B(  6-N , 14-H ) :   1.1349

MP2 TOTAL ENERGY:    -1044.441924051 Eh
FINAL SINGLE POINT ENERGY     -1044.441924050935

DIPOLE MOMENT
-------------
                                X             Y             Z
Electronic contribution:    -12.38005      -3.74273      -0.00007
Nuclear contribution   :     14.95492       4.48586       0.00008
                        -----------------------------------------
Total Dipole Moment    :      2.57487       0.74313       0.00001
                        -----------------------------------------
Magnitude (a.u.)       :      2.67996
Magnitude (Debye)      :      6.81192

Rotational constants in cm-1:     0.089823     0.034637     0.025232
Rotational constants in MHz :  2692.812609  1038.402137   756.431794

                             ****ORCA TERMINATED NORMALLY****
TOTAL RUN TIME: 0 days 0 hours 6 minutes 44 seconds 199 msec
