                         Program Version 5.0.3 -  RELEASE  -
|  1> !ri-mp2 aug-cc-pvtz aug-cc-pvtz/c tightscf
|  2> %pal nprocs 16 end
|  3>
|  4> * xyz 0 1
|  5> C     -0.225569    1.332966   -0.000002
|  6> C     -0.455485   -1.064735   -0.000006
|  7> C      1.156764    1.200181   -0.000032
|  8> C      0.920244   -1.190395   -0.000036
|  9> C     -1.043674    0.204925    0.000012
| 10> C      1.751261   -0.060989   -0.000040
| 11> C     -2.509207    0.366017    0.000015
| 12> C      3.247030   -0.218201    0.000041
| 13> O     -3.310674   -0.540952    0.000015
| 14> H     -0.675329    2.318557   -0.000006
| 15> H     -1.096676   -1.935469   -0.000014
| 16> H      1.781369    2.084082   -0.000052
| 17> H      1.367447   -2.176702   -0.000067
| 18> H     -2.854814    1.419797    0.000014
| 19> H      3.582124   -0.775241   -0.877101
| 20> H      3.750856    0.746927   -0.001219
| 21> H      3.582235   -0.772949    0.878607
| 22> *
| 23>
| 24>                          ****END OF INPUT****

CARTESIAN COORDINATES (ANGSTROEM)
---------------------------------
  C     -0.225569    1.332966   -0.000002
  C     -0.455485   -1.064735   -0.000006
  C      1.156764    1.200181   -0.000032
  C      0.920244   -1.190395   -0.000036
  C     -1.043674    0.204925    0.000012
  C      1.751261   -0.060989   -0.000040
  C     -2.509207    0.366017    0.000015
  C      3.247030   -0.218201    0.000041
  O     -3.310674   -0.540952    0.000015
  H     -0.675329    2.318557   -0.000006
  H     -1.096676   -1.935469   -0.000014
  H      1.781369    2.084082   -0.000052
  H      1.367447   -2.176702   -0.000067
  H     -2.854814    1.419797    0.000014
  H      3.582124   -0.775241   -0.877101
  H      3.750856    0.746927   -0.001219
  H      3.582235   -0.772949    0.878607

 Total Charge           Charge          ....    0
 Multiplicity           Mult            ....    1
 Number of Electrons    NEL             ....   64
 Basis Dimension        Dim             ....  598

ORBITAL ENERGIES
----------------

  NO   OCC          E(Eh)            E(eV)
   0   2.0000     -20.551003      -559.2212
   1   2.0000     -11.331110      -308.3352
   2   2.0000     -11.264977      -306.5356
   3   2.0000     -11.258466      -306.3584
   4   2.0000     -11.251538      -306.1699
   5   2.0000     -11.245886      -306.0161
   6   2.0000     -11.243983      -305.9643
   7   2.0000     -11.242618      -305.9272
   8   2.0000     -11.237465      -305.7870
   9   2.0000      -1.387762       -37.7629
  10   2.0000      -1.175737       -31.9934
  11   2.0000      -1.074160       -29.2294
  12   2.0000      -1.032784       -28.1035
  13   2.0000      -0.968193       -26.3459
  14   2.0000      -0.865505       -23.5516
  15   2.0000      -0.845593       -23.0098
  16   2.0000      -0.786404       -21.3991
  17   2.0000      -0.707206       -19.2440
  18   2.0000      -0.671435       -18.2707
  19   2.0000      -0.649850       -17.6833
  20   2.0000      -0.622871       -16.9492
  21   2.0000      -0.606713       -16.5095
  22   2.0000      -0.601235       -16.3604
  23   2.0000      -0.591523       -16.0962
  24   2.0000      -0.553218       -15.0538
  25   2.0000      -0.549429       -14.9507
  26   2.0000      -0.519643       -14.1402
  27   2.0000      -0.501577       -13.6486
  28   2.0000      -0.491663       -13.3788
  29   2.0000      -0.425169       -11.5694
  30   2.0000      -0.353654        -9.6234
  31   2.0000      -0.342133        -9.3099
  32   0.0000       0.024039         0.6541
  33   0.0000       0.028999         0.7891
  34   0.0000       0.035616         0.9692
  35   0.0000       0.042268         1.1502
  36   0.0000       0.044423         1.2088

MULLIKEN ATOMIC CHARGES
-----------------------
   0 C :   -0.835404
   1 C :   -0.835120
   2 C :   -0.964520
   3 C :   -0.933169
   4 C :    1.738564
   5 C :    1.532924
   6 C :   -0.235303
   7 C :   -0.927446
   8 O :   -0.862733
   9 H :    0.273970
  10 H :    0.179390
  11 H :    0.160873
  12 H :    0.380604
  13 H :    0.525479
  14 H :    0.279300
  15 H :    0.243033
  16 H :    0.279561
Sum of atomic charges:   -0.0000000

LOEWDIN ATOMIC CHARGES
----------------------
   0 C :    0.203036
   1 C :    0.218092
   2 C :    0.228866
   3 C :    0.230054
   4 C :   -0.150692
   5 C :   -0.111351
   6 C :   -0.237761
   7 C :    0.586972
   8 O :    0.433880
   9 H :   -0.176993
  10 H :   -0.175300
  11 H :   -0.182136
  12 H :   -0.174111
  13 H :   -0.186465
  14 H :   -0.163872
  15 H :   -0.178387
  16 H :   -0.163832

  Mayer bond orders larger than 0.100000
B(  0-C ,  1-C ) :  -0.1382 B(  0-C ,  2-C ) :   1.4105 B(  0-C ,  4-C ) :   0.4059
B(  0-C ,  5-C ) :  -0.1177 B(  0-C ,  9-H ) :   1.2162 B(  1-C ,  2-C ) :   0.1648
B(  1-C ,  3-C ) :   1.3944 B(  1-C ,  4-C ) :   0.4545 B(  1-C ,  6-C ) :   0.1399
B(  1-C , 10-H ) :   1.1593 B(  1-C , 12-H ) :  -0.1066 B(  2-C ,  4-C ) :  -0.1397
B(  2-C ,  5-C ) :   0.6649 B(  2-C ,  6-C ) :  -0.1181 B(  2-C , 11-H ) :   1.3011
B(  3-C ,  5-C ) :   0.7874 B(  3-C , 12-H ) :   0.9061 B(  4-C ,  6-C ) :   0.4404
B(  4-C ,  7-C ) :   0.1032 B(  4-C ,  9-H ) :  -0.1344 B(  4-C , 10-H ) :  -0.1151
B(  5-C ,  6-C ) :   0.1590 B(  5-C ,  7-C ) :   0.3302 B(  5-C , 14-H ) :  -0.1144
B(  5-C , 16-H ) :  -0.1143 B(  6-C ,  8-O ) :   1.3486 B(  6-C , 13-H ) :   0.7302
B(  7-C , 14-H ) :   1.0221 B(  7-C , 15-H ) :   1.0310 B(  7-C , 16-H ) :   1.0218
B(  8-O , 10-H ) :   0.1287 B(  8-O , 13-H ) :  -0.1315

MP2 TOTAL ENERGY:     -384.127070637 Eh
FINAL SINGLE POINT ENERGY      -384.127070636911

DIPOLE MOMENT
-------------
                                X             Y             Z
Electronic contribution:     -7.83721      -0.24764      -0.00011
Nuclear contribution   :      9.38859       0.90082       0.00016
                        -----------------------------------------
Total Dipole Moment    :      1.55138       0.65317       0.00005
                        -----------------------------------------
Magnitude (a.u.)       :      1.68328
Magnitude (Debye)      :      4.27855

Rotational constants in cm-1:     0.168041     0.032874     0.027635
Rotational constants in MHz :  5037.748588   985.524657   828.472188

                             ****ORCA TERMINATED NORMALLY****
TOTAL RUN TIME: 0 days 0 hours 8 minutes 36 seconds 186 msec
