                         Program Version 5.0.3 -  RELEASE  -
|  1> !ri-mp2 aug-cc-pvtz aug-cc-pvtz/c tightscf
|  2> %pal nprocs 16 end
|  3>
|  4> * xyz 0 1
|  5> Cl    -2.003064   -0.016547   -0.000005
|  6> N      1.843891    0.756301    0.000005
|  7> N      1.813601   -0.586654    0.000004
|  8> C     -0.275304   -0.001147    0.000000
|  9> C      0.569529    1.124682    0.000002
| 10> C      0.559203   -1.094849    0.000001
| 11> H      2.680219   -1.094481    0.000006
| 12> H      0.296397    2.165829    0.000002
| 13> H      0.352459   -2.149705    0.000000
| 14> *
| 15>
| 16>                          ****END OF INPUT****

CARTESIAN COORDINATES (ANGSTROEM)
---------------------------------
  Cl    -2.003064   -0.016547   -0.000005
  N      1.843891    0.756301    0.000005
  N      1.813601   -0.586654    0.000004
  C     -0.275304   -0.001147    0.000000
  C      0.569529    1.124682    0.000002
  C      0.559203   -1.094849    0.000001
  H      2.680219   -1.094481    0.000006
  H      0.296397    2.165829    0.000002
  H      0.352459   -2.149705    0.000000

 Total Charge           Charge          ....    0
 Multiplicity           Mult            ....    1
 Number of Electrons    NEL             ....   52
 Basis Dimension        Dim             ....  349

ORBITAL ENERGIES
----------------

  NO   OCC          E(Eh)            E(eV)
   0   2.0000    -104.849329     -2853.0953
   1   2.0000     -15.657042      -426.0498
   2   2.0000     -15.605016      -424.6341
   3   2.0000     -11.295343      -307.3619
   4   2.0000     -11.290566      -307.2319
   5   2.0000     -11.270315      -306.6809
   6   2.0000     -10.572612      -287.6954
   7   2.0000      -8.039631      -218.7695
   8   2.0000      -8.037653      -218.7156
   9   2.0000      -8.037574      -218.7135
  10   2.0000      -1.395434       -37.9717
  11   2.0000      -1.158714       -31.5302
  12   2.0000      -1.115964       -30.3669
  13   2.0000      -1.033168       -28.1139
  14   2.0000      -0.841387       -22.8953
  15   2.0000      -0.804586       -21.8939
  16   2.0000      -0.753244       -20.4968
  17   2.0000      -0.632764       -17.2184
  18   2.0000      -0.630978       -17.1698
  19   2.0000      -0.598387       -16.2829
  20   2.0000      -0.588684       -16.0189
  21   2.0000      -0.504061       -13.7162
  22   2.0000      -0.490971       -13.3600
  23   2.0000      -0.448975       -12.2172
  24   2.0000      -0.379487       -10.3264
  25   2.0000      -0.347760        -9.4630
  26   0.0000       0.022661         0.6166
  27   0.0000       0.038290         1.0419
  28   0.0000       0.042020         1.1434
  29   0.0000       0.073841         2.0093
  30   0.0000       0.075349         2.0504

MULLIKEN ATOMIC CHARGES
-----------------------
   0 Cl:   -0.370931
   1 N :   -0.697626
   2 N :    0.191847
   3 C :    0.959559
   4 C :   -0.531947
   5 C :   -0.913841
   6 H :    0.153954
   7 H :    0.614172
   8 H :    0.594813
Sum of atomic charges:    0.0000000

LOEWDIN ATOMIC CHARGES
----------------------
   0 Cl:    0.935686
   1 N :    0.288254
   2 N :    0.303962
   3 C :   -0.835215
   4 C :   -0.088323
   5 C :    0.039406
   6 H :   -0.262629
   7 H :   -0.205354
   8 H :   -0.175786

  Mayer bond orders larger than 0.100000
B(  0-Cl,  3-C ) :   0.7139 B(  1-N ,  2-N ) :   0.5084 B(  1-N ,  4-C ) :   1.4099
B(  2-N ,  3-C ) :  -0.1391 B(  2-N ,  5-C ) :   1.2577 B(  2-N ,  6-H ) :   1.0826
B(  3-C ,  4-C ) :   0.7740 B(  3-C ,  5-C ) :   0.8506 B(  4-C ,  5-C ) :   0.3505
B(  4-C ,  7-H ) :   0.6161 B(  5-C ,  8-H ) :   0.6297

MP2 TOTAL ENERGY:     -684.894224873 Eh
FINAL SINGLE POINT ENERGY      -684.894224873057

DIPOLE MOMENT
-------------
                                X             Y             Z
Electronic contribution:     -5.48207       0.10956      -0.00001
Nuclear contribution   :      5.92131      -1.00370       0.00001
                        -----------------------------------------
Total Dipole Moment    :      0.43924      -0.89413       0.00000
                        -----------------------------------------
Magnitude (a.u.)       :      0.99619
Magnitude (Debye)      :      2.53212

Rotational constants in cm-1:     0.318271     0.066992     0.055343
Rotational constants in MHz :  9541.517979  2008.381679  1659.149470

                             ****ORCA TERMINATED NORMALLY****
TOTAL RUN TIME: 0 days 0 hours 1 minutes 56 seconds 996 msec
