                         Program Version 5.0.3 -  RELEASE  -
|  1> !ri-mp2 aug-cc-pvtz aug-cc-pvtz/c tightscf
|  2> %pal nprocs 16 end
|  3>
|  4> * xyz 0 1
|  5> N      0.022052   -1.868589        0.000000
|  6> C     -1.118779   -1.180044        0.000000
|  7> C     -1.190003    0.206824        0.000000
|  8> C      0.000000    0.928441        0.000000
|  9> C      1.202363    0.228588        0.000000
| 10> C      1.152339   -1.156758        0.000000
| 11> O      0.047471    2.286339        0.000000
| 12> H     -2.032661   -1.763240        0.000000
| 13> H     -2.150092    0.708021        0.000000
| 14> H      2.143131    0.759763        0.000000
| 15> H      2.074927   -1.725725        0.000000
| 16> H     -0.844958    2.648295        0.000000
| 17> *
| 18>
| 19>                          ****END OF INPUT****

CARTESIAN COORDINATES (ANGSTROEM)
---------------------------------
  N      0.022052   -1.868589    0.000000
  C     -1.118779   -1.180044    0.000000
  C     -1.190003    0.206824    0.000000
  C      0.000000    0.928441    0.000000
  C      1.202363    0.228588    0.000000
  C      1.152339   -1.156758    0.000000
  O      0.047471    2.286339    0.000000
  H     -2.032661   -1.763240    0.000000
  H     -2.150092    0.708021    0.000000
  H      2.143131    0.759763    0.000000
  H      2.074927   -1.725725    0.000000
  H     -0.844958    2.648295    0.000000

 Total Charge           Charge          ....    0
 Multiplicity           Mult            ....    1
 Number of Electrons    NEL             ....   50
 Basis Dimension        Dim             ....  437

ORBITAL ENERGIES
----------------

  NO   OCC          E(Eh)            E(eV)
   0   2.0000     -20.611664      -560.8719
   1   2.0000     -15.557747      -423.3478
   2   2.0000     -11.328958      -308.2766
   3   2.0000     -11.281410      -306.9828
   4   2.0000     -11.278749      -306.9104
   5   2.0000     -11.241286      -305.8910
   6   2.0000     -11.235033      -305.7208
   7   2.0000      -1.428302       -38.8661
   8   2.0000      -1.259006       -34.2593
   9   2.0000      -1.081563       -29.4308
  10   2.0000      -1.040550       -28.3148
  11   2.0000      -0.878033       -23.8925
  12   2.0000      -0.857993       -23.3472
  13   2.0000      -0.759792       -20.6750
  14   2.0000      -0.701919       -19.1002
  15   2.0000      -0.665957       -18.1216
  16   2.0000      -0.633624       -17.2418
  17   2.0000      -0.611818       -16.6484
  18   2.0000      -0.603203       -16.4140
  19   2.0000      -0.591443       -16.0940
  20   2.0000      -0.527798       -14.3621
  21   2.0000      -0.517560       -14.0835
  22   2.0000      -0.421140       -11.4598
  23   2.0000      -0.361419        -9.8347
  24   2.0000      -0.355224        -9.6661
  25   0.0000       0.022087         0.6010
  26   0.0000       0.034207         0.9308
  27   0.0000       0.037393         1.0175
  28   0.0000       0.049508         1.3472
  29   0.0000       0.055018         1.4971

MULLIKEN ATOMIC CHARGES
-----------------------
   0 N :   -0.462536
   1 C :   -0.579136
   2 C :   -0.424975
   3 C :    0.746825
   4 C :   -0.388149
   5 C :   -0.602469
   6 O :   -0.671402
   7 H :    0.685331
   8 H :    0.367177
   9 H :    0.445173
  10 H :    0.687639
  11 H :    0.196522
Sum of atomic charges:   -0.0000000

LOEWDIN ATOMIC CHARGES
----------------------
   0 N :    0.358682
   1 C :   -0.005239
   2 C :    0.211014
   3 C :   -0.390578
   4 C :    0.211695
   5 C :   -0.002732
   6 O :    0.849087
   7 H :   -0.190435
   8 H :   -0.191364
   9 H :   -0.188243
  10 H :   -0.190454
  11 H :   -0.471433

  Mayer bond orders larger than 0.100000
B(  0-N ,  1-C ) :   1.1868 B(  0-N ,  5-C ) :   1.2264 B(  1-C ,  2-C ) :   1.0712
B(  1-C ,  5-C ) :   0.1481 B(  1-C ,  7-H ) :   0.3580 B(  2-C ,  3-C ) :   1.0781
B(  2-C ,  8-H ) :   0.8993 B(  3-C ,  4-C ) :   1.0627 B(  3-C ,  6-O ) :   0.7508
B(  4-C ,  5-C ) :   1.1148 B(  4-C ,  9-H ) :   0.8225 B(  5-C , 10-H ) :   0.3785
B(  6-O , 11-H ) :   1.0050

MP2 TOTAL ENERGY:     -322.911475357 Eh
FINAL SINGLE POINT ENERGY      -322.911475356992

DIPOLE MOMENT
-------------
                                X             Y             Z
Electronic contribution:      0.24756       0.20954      -0.00000
Nuclear contribution   :     -0.79859       0.64398       0.00000
                        -----------------------------------------
Total Dipole Moment    :     -0.55104       0.85351      -0.00000
                        -----------------------------------------
Magnitude (a.u.)       :      1.01594
Magnitude (Debye)      :      2.58231

Rotational constants in cm-1:     0.200926     0.088202     0.061295
Rotational constants in MHz :  6023.595181  2644.228179  1837.573224

                             ****ORCA TERMINATED NORMALLY****
TOTAL RUN TIME: 0 days 0 hours 3 minutes 29 seconds 42 msec
