                         Program Version 5.0.3 -  RELEASE  -
|  1> !ri-mp2 aug-cc-pvtz aug-cc-pvtz/c tightscf
|  2> %pal nprocs 16 end
|  3>
|  4> * xyz 0 1
|  5> F      2.506325    1.085625   -0.291206
|  6> F      2.521596   -0.878303    0.707492
|  7> O     -2.800863   -1.049313   -0.310556
|  8> O     -2.668371    1.055585    0.407816
|  9> C      1.976955   -0.173421   -0.324959
| 10> C      0.523022   -0.117121   -0.183650
| 11> C     -0.674290   -0.101787   -0.111486
| 12> C     -2.125829   -0.103987   -0.024120
| 13> H     -1.980086    1.705683    0.601006
| 14> H      2.283524   -0.643865   -1.260372
| 15> *
| 16>
| 17>                          ****END OF INPUT****

CARTESIAN COORDINATES (ANGSTROEM)
---------------------------------
  F      2.506325    1.085625   -0.291206
  F      2.521596   -0.878303    0.707492
  O     -2.800863   -1.049313   -0.310556
  O     -2.668371    1.055585    0.407816
  C      1.976955   -0.173421   -0.324959
  C      0.523022   -0.117121   -0.183650
  C     -0.674290   -0.101787   -0.111486
  C     -2.125829   -0.103987   -0.024120
  H     -1.980086    1.705683    0.601006
  H      2.283524   -0.643865   -1.260372

 Total Charge           Charge          ....    0
 Multiplicity           Mult            ....    1
 Number of Electrons    NEL             ....   60
 Basis Dimension        Dim             ....  414

ORBITAL ENERGIES
----------------

  NO   OCC          E(Eh)            E(eV)
   0   2.0000     -26.344385      -716.8672
   1   2.0000     -26.343947      -716.8552
   2   2.0000     -20.643458      -561.7370
   3   2.0000     -20.581812      -560.0596
   4   2.0000     -11.469338      -312.0965
   5   2.0000     -11.437710      -311.2359
   6   2.0000     -11.304440      -307.6095
   7   2.0000     -11.299124      -307.4648
   8   2.0000      -1.691881       -46.0384
   9   2.0000      -1.630665       -44.3727
  10   2.0000      -1.493827       -40.6491
  11   2.0000      -1.400205       -38.1015
  12   2.0000      -1.124741       -30.6057
  13   2.0000      -1.024004       -27.8646
  14   2.0000      -0.919199       -25.0127
  15   2.0000      -0.842196       -22.9173
  16   2.0000      -0.817869       -22.2554
  17   2.0000      -0.807895       -21.9839
  18   2.0000      -0.788562       -21.4579
  19   2.0000      -0.698065       -18.9953
  20   2.0000      -0.694853       -18.9079
  21   2.0000      -0.673274       -18.3207
  22   2.0000      -0.664164       -18.0728
  23   2.0000      -0.661550       -18.0017
  24   2.0000      -0.631469       -17.1831
  25   2.0000      -0.596227       -16.2242
  26   2.0000      -0.518390       -14.1061
  27   2.0000      -0.506707       -13.7882
  28   2.0000      -0.461385       -12.5549
  29   2.0000      -0.457958       -12.4617
  30   0.0000       0.022180         0.6036
  31   0.0000       0.030107         0.8193
  32   0.0000       0.057069         1.5529
  33   0.0000       0.062551         1.7021
  34   0.0000       0.071600         1.9483

MULLIKEN ATOMIC CHARGES
-----------------------
   0 F :   -0.407092
   1 F :   -0.398256
   2 O :   -0.592633
   3 O :   -0.347129
   4 C :    0.416945
   5 C :   -0.212070
   6 C :    0.863401
   7 C :    0.097140
   8 H :    0.228244
   9 H :    0.351450
Sum of atomic charges:    0.0000000

LOEWDIN ATOMIC CHARGES
----------------------
   0 F :    0.469522
   1 F :    0.475852
   2 O :    0.437894
   3 O :    0.824672
   4 C :   -0.818323
   5 C :    0.083206
   6 C :    0.063926
   7 C :   -0.866625
   8 H :   -0.481344
   9 H :   -0.188779

  Mayer bond orders larger than 0.100000
B(  0-F ,  4-C ) :   0.7555 B(  1-F ,  4-C ) :   0.7544 B(  2-O ,  6-C ) :  -0.2088
B(  2-O ,  7-C ) :   1.7909 B(  3-O ,  6-C ) :  -0.1259 B(  3-O ,  7-C ) :   1.0831
B(  3-O ,  8-H ) :   0.9419 B(  4-C ,  5-C ) :   1.3498 B(  4-C ,  7-C ) :   0.1321
B(  4-C ,  9-H ) :   0.9547 B(  5-C ,  6-C ) :   2.2232 B(  6-C ,  7-C ) :   0.4384

MP2 TOTAL ENERGY:     -502.969308045 Eh
FINAL SINGLE POINT ENERGY      -502.969308045473

DIPOLE MOMENT
-------------
                                X             Y             Z
Electronic contribution:      5.33527      -0.09802       0.70712
Nuclear contribution   :     -4.45682       0.80455      -1.00333
                        -----------------------------------------
Total Dipole Moment    :      0.87845       0.70653      -0.29621
                        -----------------------------------------
Magnitude (a.u.)       :      1.16559
Magnitude (Debye)      :      2.96269

Rotational constants in cm-1:     0.176288     0.027296     0.024961
Rotational constants in MHz :  5284.983863   818.318106   748.324762

                             ****ORCA TERMINATED NORMALLY****
TOTAL RUN TIME: 0 days 0 hours 2 minutes 11 seconds 657 msec
