                         Program Version 5.0.3 -  RELEASE  -
|  1> !ri-mp2 aug-cc-pvtz aug-cc-pvtz/c tightscf
|  2> %pal nprocs 16 end
|  3>
|  4> * xyz 0 1
|  5> Cl     2.035348   -0.011575   -0.003987
|  6> O     -1.801008   -0.820277    0.011276
|  7> O     -1.875262    0.660254   -0.028353
|  8> C      0.315681   -0.055902   -0.001214
|  9> C     -0.477853   -1.114474    0.001648
| 10> C     -0.531551    1.179920    0.019645
| 11> H     -0.253678   -2.168788    0.002003
| 12> H     -0.374491    1.821150   -0.853262
| 13> H     -0.400253    1.767328    0.935181
| 14> *
| 15>
| 16>                          ****END OF INPUT****

CARTESIAN COORDINATES (ANGSTROEM)
---------------------------------
  Cl     2.035348   -0.011575   -0.003987
  O     -1.801008   -0.820277    0.011276
  O     -1.875262    0.660254   -0.028353
  C      0.315681   -0.055902   -0.001214
  C     -0.477853   -1.114474    0.001648
  C     -0.531551    1.179920    0.019645
  H     -0.253678   -2.168788    0.002003
  H     -0.374491    1.821150   -0.853262
  H     -0.400253    1.767328    0.935181

 Total Charge           Charge          ....    0
 Multiplicity           Mult            ....    1
 Number of Electrons    NEL             ....   54
 Basis Dimension        Dim             ....  349

ORBITAL ENERGIES
----------------

  NO   OCC          E(Eh)            E(eV)
   0   2.0000    -104.865871     -2853.5454
   1   2.0000     -20.660750      -562.2076
   2   2.0000     -20.647851      -561.8566
   3   2.0000     -11.323128      -308.1180
   4   2.0000     -11.318417      -307.9898
   5   2.0000     -11.305395      -307.6354
   6   2.0000     -10.589073      -288.1433
   7   2.0000      -8.056099      -219.2176
   8   2.0000      -8.054049      -219.1618
   9   2.0000      -8.053984      -219.1601
  10   2.0000      -1.508380       -41.0451
  11   2.0000      -1.278555       -34.7913
  12   2.0000      -1.181796       -32.1583
  13   2.0000      -1.052075       -28.6284
  14   2.0000      -0.910665       -24.7805
  15   2.0000      -0.813887       -22.1470
  16   2.0000      -0.726287       -19.7633
  17   2.0000      -0.709752       -19.3133
  18   2.0000      -0.628980       -17.1154
  19   2.0000      -0.604026       -16.4364
  20   2.0000      -0.598366       -16.2824
  21   2.0000      -0.586521       -15.9600
  22   2.0000      -0.553198       -15.0533
  23   2.0000      -0.536069       -14.5872
  24   2.0000      -0.475622       -12.9423
  25   2.0000      -0.470528       -12.8037
  26   2.0000      -0.350501        -9.5376
  27   0.0000       0.030435         0.8282
  28   0.0000       0.035011         0.9527
  29   0.0000       0.044305         1.2056
  30   0.0000       0.062730         1.7070
  31   0.0000       0.084154         2.2900

MULLIKEN ATOMIC CHARGES
-----------------------
   0 Cl:   -0.338695
   1 O :   -0.447452
   2 O :   -0.394385
   3 C :    0.402899
   4 C :   -0.478536
   5 C :   -0.043425
   6 H :    0.674539
   7 H :    0.316082
   8 H :    0.308973
Sum of atomic charges:    0.0000000

LOEWDIN ATOMIC CHARGES
----------------------
   0 Cl:    0.969770
   1 O :    0.335748
   2 O :    0.368474
   3 C :   -0.837196
   4 C :   -0.200952
   5 C :   -0.088400
   6 H :   -0.197172
   7 H :   -0.176153
   8 H :   -0.174118

  Mayer bond orders larger than 0.100000
B(  0-Cl,  3-C ) :   0.8271 B(  1-O ,  2-O ) :   0.7641 B(  1-O ,  4-C ) :   1.0950
B(  2-O ,  3-C ) :   0.1172 B(  2-O ,  5-C ) :   0.6397 B(  3-C ,  4-C ) :   1.5238
B(  3-C ,  5-C ) :   0.8441 B(  4-C ,  6-H ) :   0.4719 B(  5-C ,  7-H ) :   0.9283
B(  5-C ,  8-H ) :   0.9283

MP2 TOTAL ENERGY:     -725.700408084 Eh
FINAL SINGLE POINT ENERGY      -725.700408083640

DIPOLE MOMENT
-------------
                                X             Y             Z
Electronic contribution:      4.33081      -1.36246      -0.06078
Nuclear contribution   :     -3.80710       1.36518       0.08508
                        -----------------------------------------
Total Dipole Moment    :      0.52371       0.00273       0.02430
                        -----------------------------------------
Magnitude (a.u.)       :      0.52428
Magnitude (Debye)      :      1.33261

Rotational constants in cm-1:     0.270729     0.063802     0.052156
Rotational constants in MHz :  8116.245433  1912.738443  1563.603014

                             ****ORCA TERMINATED NORMALLY****
TOTAL RUN TIME: 0 days 0 hours 1 minutes 53 seconds 541 msec
