                         Program Version 5.0.3 -  RELEASE  -
|  1> !ri-mp2 aug-cc-pvtz aug-cc-pvtz/c tightscf
|  2> %pal nprocs 16 end
|  3>
|  4> * xyz 0 1
|  5> S     0.234585    1.466163    0.000019
|  6> O    -2.496898   -1.266018   -0.000007
|  7> N    -0.187033   -1.159171   -0.000015
|  8> N     3.238743   -0.724713   -0.000024
|  9> C    -1.499104    0.930285    0.000020
| 10> C    -1.494441   -0.611498   -0.000002
| 11> C     0.703863   -0.238954   -0.000007
| 12> C     2.103888   -0.535976   -0.000017
| 13> H    -2.012693    1.296805   -0.885980
| 14> H    -2.012684    1.296780    0.886036
| 15> *
| 16>
| 17>                          ****END OF INPUT****

CARTESIAN COORDINATES (ANGSTROEM)
---------------------------------
  S      0.234585    1.466163    0.000019
  O     -2.496898   -1.266018   -0.000007
  N     -0.187033   -1.159171   -0.000015
  N      3.238743   -0.724713   -0.000024
  C     -1.499104    0.930285    0.000020
  C     -1.494441   -0.611498   -0.000002
  C      0.703863   -0.238954   -0.000007
  C      2.103888   -0.535976   -0.000017
  H     -2.012693    1.296805   -0.885980
  H     -2.012684    1.296780    0.886036

 Total Charge           Charge          ....    0
 Multiplicity           Mult            ....    1
 Number of Electrons    NEL             ....   64
 Basis Dimension        Dim             ....  418

ORBITAL ENERGIES
----------------

  NO   OCC          E(Eh)            E(eV)
   0   2.0000     -92.031945     -2504.3165
   1   2.0000     -20.583694      -560.1108
   2   2.0000     -15.628276      -425.2670
   3   2.0000     -15.625665      -425.1960
   4   2.0000     -11.413142      -310.5674
   5   2.0000     -11.399822      -310.2049
   6   2.0000     -11.320056      -308.0344
   7   2.0000     -11.318637      -307.9958
   8   2.0000      -9.032523      -245.7875
   9   2.0000      -6.713471      -182.6828
  10   2.0000      -6.712484      -182.6560
  11   2.0000      -6.711519      -182.6297
  12   2.0000      -1.441363       -39.2215
  13   2.0000      -1.326245       -36.0890
  14   2.0000      -1.265235       -34.4288
  15   2.0000      -1.112347       -30.2685
  16   2.0000      -1.043411       -28.3927
  17   2.0000      -0.911836       -24.8123
  18   2.0000      -0.822117       -22.3709
  19   2.0000      -0.747656       -20.3447
  20   2.0000      -0.686166       -18.6715
  21   2.0000      -0.682588       -18.5742
  22   2.0000      -0.626611       -17.0510
  23   2.0000      -0.601953       -16.3800
  24   2.0000      -0.595700       -16.2098
  25   2.0000      -0.578481       -15.7413
  26   2.0000      -0.555685       -15.1210
  27   2.0000      -0.515534       -14.0284
  28   2.0000      -0.491067       -13.3626
  29   2.0000      -0.486342       -13.2340
  30   2.0000      -0.458673       -12.4811
  31   2.0000      -0.404176       -10.9982
  32   0.0000       0.011595         0.3155
  33   0.0000       0.019876         0.5409
  34   0.0000       0.035874         0.9762
  35   0.0000       0.047441         1.2909
  36   0.0000       0.053603         1.4586

MULLIKEN ATOMIC CHARGES
-----------------------
   0 S :   -0.192206
   1 O :   -0.677818
   2 N :   -0.258244
   3 N :   -0.572175
   4 C :   -0.225138
   5 C :    0.293561
   6 C :    0.752023
   7 C :    0.326365
   8 H :    0.276816
   9 H :    0.276816
Sum of atomic charges:    0.0000000

LOEWDIN ATOMIC CHARGES
----------------------
   0 S :    1.258724
   1 O :    0.452853
   2 N :    0.321125
   3 N :    0.292127
   4 C :   -0.038224
   5 C :   -0.770949
   6 C :   -0.771754
   7 C :   -0.303788
   8 H :   -0.220057
   9 H :   -0.220057

  Mayer bond orders larger than 0.100000
B(  0-S ,  2-N ) :   0.1354 B(  0-S ,  4-C ) :   0.9896 B(  0-S ,  6-C ) :   0.9398
B(  1-O ,  2-N ) :  -0.1591 B(  1-O ,  5-C ) :   1.5946 B(  2-N ,  5-C ) :   0.8584
B(  2-N ,  6-C ) :   1.4393 B(  2-N ,  7-C ) :  -0.1392 B(  3-N ,  7-C ) :   2.2011
B(  4-C ,  5-C ) :   0.7921 B(  4-C ,  8-H ) :   0.9262 B(  4-C ,  9-H ) :   0.9262
B(  5-C ,  6-C ) :  -0.1021 B(  6-C ,  7-C ) :   0.8890

MP2 TOTAL ENERGY:     -735.452939710 Eh
FINAL SINGLE POINT ENERGY      -735.452939710396

DIPOLE MOMENT
-------------
                                X             Y             Z
Electronic contribution:      3.32268      -0.71993      -0.00003
Nuclear contribution   :     -3.86326       2.39885       0.00005
                        -----------------------------------------
Total Dipole Moment    :     -0.54059       1.67892       0.00003
                        -----------------------------------------
Magnitude (a.u.)       :      1.76380
Magnitude (Debye)      :      4.48323

Rotational constants in cm-1:     0.116612     0.045365     0.032861
Rotational constants in MHz :  3495.928680  1360.009191   985.150594

                             ****ORCA TERMINATED NORMALLY****
TOTAL RUN TIME: 0 days 0 hours 3 minutes 31 seconds 574 msec
