                         Program Version 5.0.3 -  RELEASE  -
|  1> !ri-mp2 aug-cc-pvtz aug-cc-pvtz/c tightscf
|  2> %pal nprocs 16 end
|  3>
|  4> * xyz 0 1
|  5> C      0.106519    0.321839    1.198642
|  6> C      0.106519    0.321839   -1.198642
|  7> C      0.106519   -1.199020    1.172521
|  8> C      0.106519   -1.199020   -1.172521
|  9> C     -0.609708    2.294708    0.000000
| 10> N     -0.539239    0.845250    0.000000
| 11> O      0.737364   -1.697303    0.000000
| 12> H     -0.440093    0.670990    2.077415
| 13> H      1.146930    0.681983    1.286343
| 14> H      1.146930    0.681983   -1.286343
| 15> H     -0.440093    0.670990   -2.077415
| 16> H      0.665003   -1.599068    2.017754
| 17> H     -0.925754   -1.568194    1.224034
| 18> H     -0.925754   -1.568194   -1.224034
| 19> H      0.665003   -1.599068   -2.017754
| 20> H      0.384828    2.772550    0.000000
| 21> H     -1.149724    2.637811    0.883102
| 22> H     -1.149724    2.637811   -0.883102
| 23> *
| 24>
| 25>                          ****END OF INPUT****

CARTESIAN COORDINATES (ANGSTROEM)
---------------------------------
  C      0.106519    0.321839    1.198642
  C      0.106519    0.321839   -1.198642
  C      0.106519   -1.199020    1.172521
  C      0.106519   -1.199020   -1.172521
  C     -0.609708    2.294708    0.000000
  N     -0.539239    0.845250    0.000000
  O      0.737364   -1.697303    0.000000
  H     -0.440093    0.670990    2.077415
  H      1.146930    0.681983    1.286343
  H      1.146930    0.681983   -1.286343
  H     -0.440093    0.670990   -2.077415
  H      0.665003   -1.599068    2.017754
  H     -0.925754   -1.568194    1.224034
  H     -0.925754   -1.568194   -1.224034
  H      0.665003   -1.599068   -2.017754
  H      0.384828    2.772550    0.000000
  H     -1.149724    2.637811    0.883102
  H     -1.149724    2.637811   -0.883102

 Total Charge           Charge          ....    0
 Multiplicity           Mult            ....    1
 Number of Electrons    NEL             ....   56
 Basis Dimension        Dim             ....  575

ORBITAL ENERGIES
----------------

  NO   OCC          E(Eh)            E(eV)
   0   2.0000     -20.552258      -559.2554
   1   2.0000     -15.550547      -423.1519
   2   2.0000     -11.270214      -306.6781
   3   2.0000     -11.270197      -306.6776
   4   2.0000     -11.248704      -306.0928
   5   2.0000     -11.248691      -306.0925
   6   2.0000     -11.244765      -305.9856
   7   2.0000      -1.372944       -37.3597
   8   2.0000      -1.230021       -33.4706
   9   2.0000      -1.035159       -28.1681
  10   2.0000      -0.980644       -26.6847
  11   2.0000      -0.878205       -23.8972
  12   2.0000      -0.869132       -23.6503
  13   2.0000      -0.772646       -21.0248
  14   2.0000      -0.679462       -18.4891
  15   2.0000      -0.643690       -17.5157
  16   2.0000      -0.638644       -17.3784
  17   2.0000      -0.632959       -17.2237
  18   2.0000      -0.626473       -17.0472
  19   2.0000      -0.571302       -15.5459
  20   2.0000      -0.555049       -15.1036
  21   2.0000      -0.538573       -14.6553
  22   2.0000      -0.527403       -14.3514
  23   2.0000      -0.501560       -13.6481
  24   2.0000      -0.483690       -13.1619
  25   2.0000      -0.456418       -12.4198
  26   2.0000      -0.414601       -11.2819
  27   2.0000      -0.358765        -9.7625
  28   0.0000       0.029682         0.8077
  29   0.0000       0.036027         0.9804
  30   0.0000       0.038852         1.0572
  31   0.0000       0.039650         1.0789
  32   0.0000       0.052066         1.4168

MULLIKEN ATOMIC CHARGES
-----------------------
   0 C :   -0.451534
   1 C :   -0.451534
   2 C :   -0.313203
   3 C :   -0.313203
   4 C :   -1.121844
   5 N :   -0.151949
   6 O :   -0.730858
   7 H :    0.434935
   8 H :    0.242777
   9 H :    0.242777
  10 H :    0.434935
  11 H :    0.351714
  12 H :    0.261426
  13 H :    0.261426
  14 H :    0.351714
  15 H :    0.315769
  16 H :    0.318326
  17 H :    0.318326
Sum of atomic charges:    0.0000000

LOEWDIN ATOMIC CHARGES
----------------------
   0 C :    0.148493
   1 C :    0.148493
   2 C :    0.045106
   3 C :    0.045106
   4 C :    0.447170
   5 N :    0.251270
   6 O :    0.568931
   7 H :   -0.145008
   8 H :   -0.130965
   9 H :   -0.130965
  10 H :   -0.145008
  11 H :   -0.157601
  12 H :   -0.149436
  13 H :   -0.149436
  14 H :   -0.157601
  15 H :   -0.152078
  16 H :   -0.168235
  17 H :   -0.168235

  Mayer bond orders larger than 0.100000
B(  0-C ,  2-C ) :   0.9791 B(  0-C ,  5-N ) :   0.8654 B(  0-C ,  7-H ) :   0.7917
B(  0-C ,  8-H ) :   0.9865 B(  1-C ,  3-C ) :   0.9791 B(  1-C ,  5-N ) :   0.8654
B(  1-C ,  9-H ) :   0.9865 B(  1-C , 10-H ) :   0.7917 B(  2-C ,  6-O ) :   0.8330
B(  2-C , 11-H ) :   0.9222 B(  2-C , 12-H ) :   0.9972 B(  3-C ,  6-O ) :   0.8330
B(  3-C , 13-H ) :   0.9972 B(  3-C , 14-H ) :   0.9222 B(  4-C ,  5-N ) :   1.0531
B(  4-C , 15-H ) :   0.9285 B(  4-C , 16-H ) :   0.9417 B(  4-C , 17-H ) :   0.9417

MP2 TOTAL ENERGY:     -326.476345643 Eh
FINAL SINGLE POINT ENERGY      -326.476345642847

DIPOLE MOMENT
-------------
                                X             Y             Z
Electronic contribution:      0.85590      -4.03567      -0.00000
Nuclear contribution   :     -1.05432       4.57272      -0.00000
                        -----------------------------------------
Total Dipole Moment    :     -0.19842       0.53704      -0.00000
                        -----------------------------------------
Magnitude (a.u.)       :      0.57253
Magnitude (Debye)      :      1.45524

Rotational constants in cm-1:     0.160190     0.077987     0.057014
Rotational constants in MHz :  4802.386395  2337.986611  1709.231312

                             ****ORCA TERMINATED NORMALLY****
TOTAL RUN TIME: 0 days 0 hours 6 minutes 35 seconds 627 msec
