                         Program Version 5.0.3 -  RELEASE  -
|  1> !ri-mp2 aug-cc-pvtz aug-cc-pvtz/c tightscf
|  2> %pal nprocs 16 end
|  3>
|  4> * xyz 0 1
|  5> Cl    -2.010456   -0.590268   -0.599839
|  6> S      1.409201   -1.226558   -0.189113
|  7> S      1.477785    0.867297   -0.404520
|  8> O     -0.613216    2.315389    0.315501
|  9> C     -0.892502   -0.061929    0.726505
| 10> C      0.101019   -1.136073    1.098478
| 11> C     -0.172173    1.206202    0.240534
| 12> H     -1.528841    0.214376    1.562461
| 13> H      0.561916   -0.885355    2.054656
| 14> H     -0.359432   -2.118613    1.161173
| 15> *
| 16>
| 17>                          ****END OF INPUT****

CARTESIAN COORDINATES (ANGSTROEM)
---------------------------------
  Cl    -2.010456   -0.590268   -0.599839
  S      1.409201   -1.226558   -0.189113
  S      1.477785    0.867297   -0.404520
  O     -0.613216    2.315389    0.315501
  C     -0.892502   -0.061929    0.726505
  C      0.101019   -1.136073    1.098478
  C     -0.172173    1.206202    0.240534
  H     -1.528841    0.214376    1.562461
  H      0.561916   -0.885355    2.054656
  H     -0.359432   -2.118613    1.161173

 Total Charge           Charge          ....    0
 Multiplicity           Mult            ....    1
 Number of Electrons    NEL             ....   78
 Basis Dimension        Dim             ....  403

ORBITAL ENERGIES
----------------

  NO   OCC          E(Eh)            E(eV)
   0   2.0000    -104.855103     -2853.2524
   1   2.0000     -92.012932     -2503.7992
   2   2.0000     -92.005907     -2503.6080
   3   2.0000     -20.589689      -560.2739
   4   2.0000     -11.397942      -310.1538
   5   2.0000     -11.347395      -308.7783
   6   2.0000     -11.310342      -307.7701
   7   2.0000     -10.578775      -287.8631
   8   2.0000      -9.011973      -245.2283
   9   2.0000      -9.004293      -245.0193
  10   2.0000      -8.045557      -218.9307
  11   2.0000      -8.043628      -218.8782
  12   2.0000      -8.043579      -218.8769
  13   2.0000      -6.692583      -182.1144
  14   2.0000      -6.691769      -182.0923
  15   2.0000      -6.690558      -182.0593
  16   2.0000      -6.685134      -181.9117
  17   2.0000      -6.684113      -181.8840
  18   2.0000      -6.682743      -181.8467
  19   2.0000      -1.438584       -39.1459
  20   2.0000      -1.193753       -32.4837
  21   2.0000      -1.104780       -30.0626
  22   2.0000      -1.015985       -27.6463
  23   2.0000      -0.972997       -26.4766
  24   2.0000      -0.841476       -22.8977
  25   2.0000      -0.765261       -20.8238
  26   2.0000      -0.697393       -18.9770
  27   2.0000      -0.680043       -18.5049
  28   2.0000      -0.641639       -17.4599
  29   2.0000      -0.612211       -16.6591
  30   2.0000      -0.595844       -16.2138
  31   2.0000      -0.547277       -14.8922
  32   2.0000      -0.516852       -14.0642
  33   2.0000      -0.486959       -13.2508
  34   2.0000      -0.477230       -12.9861
  35   2.0000      -0.460717       -12.5367
  36   2.0000      -0.454700       -12.3730
  37   2.0000      -0.425790       -11.5863
  38   2.0000      -0.350848        -9.5471
  39   0.0000       0.023605         0.6423
  40   0.0000       0.037467         1.0195
  41   0.0000       0.042119         1.1461
  42   0.0000       0.054163         1.4739
  43   0.0000       0.061427         1.6715

MULLIKEN ATOMIC CHARGES
-----------------------
   0 Cl:   -0.362618
   1 S :   -0.199856
   2 S :   -0.065070
   3 O :   -0.736053
   4 C :    0.237446
   5 C :   -0.378626
   6 C :    0.598992
   7 H :    0.276326
   8 H :    0.286130
   9 H :    0.343329
Sum of atomic charges:   -0.0000000

LOEWDIN ATOMIC CHARGES
----------------------
   0 Cl:    0.938845
   1 S :    0.704696
   2 S :    0.723727
   3 O :    0.372944
   4 C :   -0.715179
   5 C :   -0.228163
   6 C :   -1.087281
   7 H :   -0.239484
   8 H :   -0.227932
   9 H :   -0.242172

  Mayer bond orders larger than 0.100000
B(  0-Cl,  4-C ) :   0.7460 B(  1-S ,  2-S ) :   1.0072 B(  1-S ,  5-C ) :   0.9829
B(  2-S ,  6-C ) :   1.0567 B(  3-O ,  6-C ) :   1.3823 B(  4-C ,  5-C ) :   1.0394
B(  4-C ,  6-C ) :   0.8865 B(  4-C ,  7-H ) :   0.8664 B(  5-C ,  8-H ) :   0.9104
B(  5-C ,  9-H ) :   0.9022

MP2 TOTAL ENERGY:    -1446.164742429 Eh
FINAL SINGLE POINT ENERGY     -1446.164742429314

DIPOLE MOMENT
-------------
                                X             Y             Z
Electronic contribution:     -1.21861       0.74755      -4.40898
Nuclear contribution   :      1.37478      -1.79765       5.36183
                        -----------------------------------------
Total Dipole Moment    :      0.15616      -1.05010       0.95285
                        -----------------------------------------
Magnitude (a.u.)       :      1.42654
Magnitude (Debye)      :      3.62598

Rotational constants in cm-1:     0.065115     0.048738     0.033392
Rotational constants in MHz :  1952.100844  1461.114743  1001.080779

                             ****ORCA TERMINATED NORMALLY****
TOTAL RUN TIME: 0 days 0 hours 3 minutes 1 seconds 564 msec
