                         Program Version 5.0.3 -  RELEASE  -
|  1> !ri-mp2 aug-cc-pvtz aug-cc-pvtz/c tightscf
|  2> %pal nprocs 16 end
|  3>
|  4> * xyz 0 1
|  5> S    -0.844455   -1.432131   -0.001735
|  6> N    -1.485615    1.063138    0.005370
|  7> N     0.565464    2.204052   -0.054581
|  8> N     2.937529   -0.771304    0.008341
|  9> C    -0.117671    1.028945   -0.005236
| 10> C     0.435762   -0.243451   -0.005215
| 11> C    -1.980824   -0.136886    0.007729
| 12> C     1.800797   -0.558509   -0.000399
| 13> H    -3.040901   -0.340536    0.015885
| 14> H     0.051496    3.036922    0.173244
| 15> H     1.550661    2.205914    0.143440
| 16> *
| 17>
| 18>                          ****END OF INPUT****

CARTESIAN COORDINATES (ANGSTROEM)
---------------------------------
  S     -0.844455   -1.432131   -0.001735
  N     -1.485615    1.063138    0.005370
  N      0.565464    2.204052   -0.054581
  N      2.937529   -0.771304    0.008341
  C     -0.117671    1.028945   -0.005236
  C      0.435762   -0.243451   -0.005215
  C     -1.980824   -0.136886    0.007729
  C      1.800797   -0.558509   -0.000399
  H     -3.040901   -0.340536    0.015885
  H      0.051496    3.036922    0.173244
  H      1.550661    2.205914    0.143440

 Total Charge           Charge          ....    0
 Multiplicity           Mult            ....    1
 Number of Electrons    NEL             ....   64
 Basis Dimension        Dim             ....  441

ORBITAL ENERGIES
----------------

  NO   OCC          E(Eh)            E(eV)
   0   2.0000     -92.023092     -2504.0757
   1   2.0000     -15.602007      -424.5522
   2   2.0000     -15.598777      -424.4643
   3   2.0000     -15.572133      -423.7393
   4   2.0000     -11.358453      -309.0792
   5   2.0000     -11.350420      -308.8606
   6   2.0000     -11.290160      -307.2209
   7   2.0000     -11.282421      -307.0103
   8   2.0000      -9.022905      -245.5257
   9   2.0000      -6.703785      -182.4193
  10   2.0000      -6.703185      -182.4029
  11   2.0000      -6.702296      -182.3787
  12   2.0000      -1.336839       -36.3772
  13   2.0000      -1.235309       -33.6145
  14   2.0000      -1.222540       -33.2670
  15   2.0000      -1.101568       -29.9752
  16   2.0000      -1.018181       -27.7061
  17   2.0000      -0.887284       -24.1442
  18   2.0000      -0.820146       -22.3173
  19   2.0000      -0.774460       -21.0741
  20   2.0000      -0.704829       -19.1794
  21   2.0000      -0.657266       -17.8851
  22   2.0000      -0.628280       -17.0964
  23   2.0000      -0.620276       -16.8786
  24   2.0000      -0.559303       -15.2194
  25   2.0000      -0.556917       -15.1545
  26   2.0000      -0.508614       -13.8401
  27   2.0000      -0.498035       -13.5522
  28   2.0000      -0.473784       -12.8923
  29   2.0000      -0.454025       -12.3546
  30   2.0000      -0.408313       -11.1108
  31   2.0000      -0.326906        -8.8956
  32   0.0000       0.022562         0.6139
  33   0.0000       0.028054         0.7634
  34   0.0000       0.049859         1.3567
  35   0.0000       0.059172         1.6102
  36   0.0000       0.061568         1.6753

MULLIKEN ATOMIC CHARGES
-----------------------
   0 S :   -0.222048
   1 N :   -0.284768
   2 N :   -0.453461
   3 N :   -0.789100
   4 C :   -0.055547
   5 C :    1.079351
   6 C :   -0.377849
   7 C :    0.305936
   8 H :    0.560685
   9 H :    0.115246
  10 H :    0.121556
Sum of atomic charges:    0.0000000

LOEWDIN ATOMIC CHARGES
----------------------
   0 S :    1.267043
   1 N :    0.317184
   2 N :    0.864303
   3 N :    0.244736
   4 C :   -0.552368
   5 C :   -0.588889
   6 C :   -0.357536
   7 C :   -0.356032
   8 H :   -0.250039
   9 H :   -0.294528
  10 H :   -0.293873

  Mayer bond orders larger than 0.100000
B(  0-S ,  4-C ) :   0.2340 B(  0-S ,  5-C ) :   0.7507 B(  0-S ,  6-C ) :   1.2864
B(  1-N ,  2-N ) :  -0.1346 B(  1-N ,  4-C ) :   0.4826 B(  1-N ,  6-C ) :   1.5897
B(  2-N ,  4-C ) :   0.9087 B(  2-N ,  9-H ) :   1.0577 B(  2-N , 10-H ) :   1.0661
B(  3-N ,  7-C ) :   1.9154 B(  4-C ,  5-C ) :   0.6504 B(  4-C ,  7-C ) :   0.2906
B(  5-C ,  6-C ) :  -0.1519 B(  5-C ,  7-C ) :   0.7193 B(  6-C ,  8-H ) :   0.6384

MP2 TOTAL ENERGY:     -715.610704643 Eh
FINAL SINGLE POINT ENERGY      -715.610704642872

DIPOLE MOMENT
-------------
                                X             Y             Z
Electronic contribution:     -0.16715      -4.10870      -0.07614
Nuclear contribution   :     -1.34541       4.76482       0.31923
                        -----------------------------------------
Total Dipole Moment    :     -1.51256       0.65613       0.24309
                        -----------------------------------------
Magnitude (a.u.)       :      1.66656
Magnitude (Debye)      :      4.23607

Rotational constants in cm-1:     0.089024     0.060272     0.035954
Rotational constants in MHz :  2668.881103  1806.911918  1077.866202

                             ****ORCA TERMINATED NORMALLY****
TOTAL RUN TIME: 0 days 0 hours 3 minutes 51 seconds 525 msec
