                         Program Version 5.0.3 -  RELEASE  -
|  1> !ri-mp2 aug-cc-pvtz aug-cc-pvtz/c tightscf
|  2> %pal nprocs 16 end
|  3>
|  4> * xyz 0 1
|  5> C     0.000000     0.000000    1.088734
|  6> C     0.000000     1.198351    0.149259
|  7> C     0.000000    -1.198351    0.149259
|  8> C     0.000000     0.669044   -1.243983
|  9> C     0.000000    -0.669044   -1.243983
| 10> O     0.000000     2.365037    0.458652
| 11> O     0.000000    -2.365037    0.458652
| 12> H     0.878958     0.000000    1.734426
| 13> H    -0.878958     0.000000    1.734426
| 14> H     0.000000     1.326391   -2.101506
| 15> H     0.000000    -1.326391   -2.101506
| 16> *
| 17>
| 18>                          ****END OF INPUT****

CARTESIAN COORDINATES (ANGSTROEM)
---------------------------------
  C      0.000000    0.000000    1.088734
  C      0.000000    1.198351    0.149259
  C      0.000000   -1.198351    0.149259
  C      0.000000    0.669044   -1.243983
  C      0.000000   -0.669044   -1.243983
  O      0.000000    2.365037    0.458652
  O      0.000000   -2.365037    0.458652
  H      0.878958    0.000000    1.734426
  H     -0.878958    0.000000    1.734426
  H      0.000000    1.326391   -2.101506
  H      0.000000   -1.326391   -2.101506

 Total Charge           Charge          ....    0
 Multiplicity           Mult            ....    1
 Number of Electrons    NEL             ....   50
 Basis Dimension        Dim             ....  414

ORBITAL ENERGIES
----------------

  NO   OCC          E(Eh)            E(eV)
   0   2.0000     -20.573701      -559.8389
   1   2.0000     -20.573701      -559.8389
   2   2.0000     -11.360088      -309.1237
   3   2.0000     -11.360078      -309.1234
   4   2.0000     -11.288792      -307.1836
   5   2.0000     -11.287094      -307.1374
   6   2.0000     -11.265574      -306.5519
   7   2.0000      -1.416440       -38.5433
   8   2.0000      -1.411571       -38.4108
   9   2.0000      -1.172060       -31.8934
  10   2.0000      -1.026026       -27.9196
  11   2.0000      -0.918979       -25.0067
  12   2.0000      -0.794595       -21.6220
  13   2.0000      -0.764900       -20.8140
  14   2.0000      -0.709678       -19.3113
  15   2.0000      -0.656206       -17.8563
  16   2.0000      -0.647780       -17.6270
  17   2.0000      -0.641673       -17.4608
  18   2.0000      -0.614490       -16.7211
  19   2.0000      -0.604319       -16.4444
  20   2.0000      -0.551957       -15.0195
  21   2.0000      -0.527360       -14.3502
  22   2.0000      -0.462362       -12.5815
  23   2.0000      -0.423565       -11.5258
  24   2.0000      -0.421694       -11.4749
  25   0.0000       0.023593         0.6420
  26   0.0000       0.035525         0.9667
  27   0.0000       0.037726         1.0266
  28   0.0000       0.038637         1.0514
  29   0.0000       0.042604         1.1593

MULLIKEN ATOMIC CHARGES
-----------------------
   0 C :   -0.302443
   1 C :    0.719581
   2 C :    0.719581
   3 C :   -0.624275
   4 C :   -0.624275
   5 O :   -0.829616
   6 O :   -0.829616
   7 H :    0.333117
   8 H :    0.333117
   9 H :    0.552415
  10 H :    0.552415
Sum of atomic charges:   -0.0000000

LOEWDIN ATOMIC CHARGES
----------------------
   0 C :    0.298070
   1 C :   -0.541543
   2 C :   -0.541543
   3 C :    0.250602
   4 C :    0.250602
   5 O :    0.455972
   6 O :    0.455972
   7 H :   -0.144696
   8 H :   -0.144696
   9 H :   -0.169369
  10 H :   -0.169369

  Mayer bond orders larger than 0.100000
B(  0-C ,  1-C ) :   0.8615 B(  0-C ,  2-C ) :   0.8615 B(  0-C ,  7-H ) :   0.9067
B(  0-C ,  8-H ) :   0.9067 B(  1-C ,  3-C ) :   0.9228 B(  1-C ,  5-O ) :   1.2643
B(  2-C ,  4-C ) :   0.9228 B(  2-C ,  6-O ) :   1.2643 B(  3-C ,  4-C ) :   1.7146
B(  3-C ,  9-H ) :   0.6291 B(  4-C , 10-H ) :   0.6291

MP2 TOTAL ENERGY:     -342.754523637 Eh
FINAL SINGLE POINT ENERGY      -342.754523636986

DIPOLE MOMENT
-------------
                                X             Y             Z
Electronic contribution:      0.00000      -0.00000      -0.07424
Nuclear contribution   :      0.00000       0.00000      -0.70336
                        -----------------------------------------
Total Dipole Moment    :      0.00000      -0.00000      -0.77760
                        -----------------------------------------
Magnitude (a.u.)       :      0.77760
Magnitude (Debye)      :      1.97649

Rotational constants in cm-1:     0.224178     0.073508     0.055929
Rotational constants in MHz :  6720.700600  2203.709278  1676.696922

                             ****ORCA TERMINATED NORMALLY****
TOTAL RUN TIME: 0 days 0 hours 2 minutes 56 seconds 612 msec
