                         Program Version 5.0.3 -  RELEASE  -
|  1> !ri-mp2 aug-cc-pvtz aug-cc-pvtz/c tightscf
|  2> %pal nprocs 16 end
|  3>
|  4> * xyz 0 1
|  5> C      1.214937   -1.114720        0.000000
|  6> C     -1.194532   -1.123734        0.000000
|  7> C      1.208906    0.272121        0.000000
|  8> C     -1.202251    0.266088        0.000000
|  9> C      0.012562   -1.816947        0.000000
| 10> C      0.000000    0.956110        0.000000
| 11> O      0.080600   -3.181991        0.000000
| 12> Cl    -0.005372    2.710582        0.000000
| 13> H      2.146145   -1.663099        0.000000
| 14> H     -2.133071   -1.664730        0.000000
| 15> H      2.139489    0.820428        0.000000
| 16> H     -2.137764    0.805811        0.000000
| 17> H     -0.805998   -3.555873        0.000000
| 18> *
| 19>
| 20>                          ****END OF INPUT****

CARTESIAN COORDINATES (ANGSTROEM)
---------------------------------
  C      1.214937   -1.114720    0.000000
  C     -1.194532   -1.123734    0.000000
  C      1.208906    0.272121    0.000000
  C     -1.202251    0.266088    0.000000
  C      0.012562   -1.816947    0.000000
  C      0.000000    0.956110    0.000000
  O      0.080600   -3.181991    0.000000
  Cl    -0.005372    2.710582    0.000000
  H      2.146145   -1.663099    0.000000
  H     -2.133071   -1.664730    0.000000
  H      2.139489    0.820428    0.000000
  H     -2.137764    0.805811    0.000000
  H     -0.805998   -3.555873    0.000000

 Total Charge           Charge          ....    0
 Multiplicity           Mult            ....    1
 Number of Electrons    NEL             ....   66
 Basis Dimension        Dim             ....  487

ORBITAL ENERGIES
----------------

  NO   OCC          E(Eh)            E(eV)
   0   2.0000    -104.839053     -2852.8157
   1   2.0000     -20.602053      -560.6104
   2   2.0000     -11.316354      -307.9336
   3   2.0000     -11.297957      -307.4330
   4   2.0000     -11.258781      -306.3670
   5   2.0000     -11.256924      -306.3165
   6   2.0000     -11.249945      -306.1266
   7   2.0000     -11.244176      -305.9696
   8   2.0000     -10.562587      -287.4226
   9   2.0000      -8.029479      -218.4932
  10   2.0000      -8.027642      -218.4433
  11   2.0000      -8.027600      -218.4421
  12   2.0000      -1.417007       -38.5587
  13   2.0000      -1.189490       -32.3677
  14   2.0000      -1.114511       -30.3274
  15   2.0000      -1.040574       -28.3155
  16   2.0000      -0.991813       -26.9886
  17   2.0000      -0.867714       -23.6117
  18   2.0000      -0.827136       -22.5075
  19   2.0000      -0.750694       -20.4274
  20   2.0000      -0.690100       -18.7786
  21   2.0000      -0.659971       -17.9587
  22   2.0000      -0.626923       -17.0595
  23   2.0000      -0.609724       -16.5914
  24   2.0000      -0.604066       -16.4375
  25   2.0000      -0.585329       -15.9276
  26   2.0000      -0.534479       -14.5439
  27   2.0000      -0.531047       -14.4505
  28   2.0000      -0.516138       -14.0448
  29   2.0000      -0.457524       -12.4499
  30   2.0000      -0.453722       -12.3464
  31   2.0000      -0.360363        -9.8060
  32   2.0000      -0.320877        -8.7315
  33   0.0000       0.023202         0.6314
  34   0.0000       0.034180         0.9301
  35   0.0000       0.037649         1.0245
  36   0.0000       0.049625         1.3504
  37   0.0000       0.055403         1.5076

MULLIKEN ATOMIC CHARGES
-----------------------
   0 C :   -0.731761
   1 C :   -0.502067
   2 C :   -0.739520
   3 C :   -0.791236
   4 C :    0.869490
   5 C :    0.763284
   6 O :   -0.739415
   7 Cl:   -0.493698
   8 H :    0.590966
   9 H :    0.507239
  10 H :    0.538682
  11 H :    0.564970
  12 H :    0.163067
Sum of atomic charges:   -0.0000000

LOEWDIN ATOMIC CHARGES
----------------------
   0 C :    0.205167
   1 C :    0.203801
   2 C :    0.101133
   3 C :    0.098650
   4 C :   -0.378300
   5 C :   -0.767875
   6 O :    0.839124
   7 Cl:    0.941246
   8 H :   -0.181096
   9 H :   -0.184341
  10 H :   -0.198773
  11 H :   -0.199274
  12 H :   -0.479461

  Mayer bond orders larger than 0.100000
B(  0-C ,  1-C ) :   0.2526 B(  0-C ,  2-C ) :   1.3550 B(  0-C ,  4-C ) :   1.0482
B(  0-C ,  8-H ) :   0.5165 B(  1-C ,  2-C ) :   0.1008 B(  1-C ,  3-C ) :   1.1939
B(  1-C ,  4-C ) :   1.0975 B(  1-C ,  5-C ) :  -0.1472 B(  1-C ,  6-O ) :  -0.1663
B(  1-C ,  9-H ) :   0.6604 B(  2-C ,  3-C ) :   0.2003 B(  2-C ,  4-C ) :  -0.2074
B(  2-C ,  5-C ) :   1.1715 B(  2-C , 10-H ) :   0.6751 B(  3-C ,  5-C ) :   1.1082
B(  3-C , 11-H ) :   0.6265 B(  4-C ,  6-O ) :   0.6105 B(  5-C ,  7-Cl) :   0.6122
B(  6-O , 12-H ) :   1.0432

MP2 TOTAL ENERGY:     -765.999489307 Eh
FINAL SINGLE POINT ENERGY      -765.999489306517

DIPOLE MOMENT
-------------
                                X             Y             Z
Electronic contribution:      0.22716       8.11483      -0.00000
Nuclear contribution   :     -0.75422      -8.85649       0.00000
                        -----------------------------------------
Total Dipole Moment    :     -0.52707      -0.74166      -0.00000
                        -----------------------------------------
Magnitude (a.u.)       :      0.90986
Magnitude (Debye)      :      2.31269

Rotational constants in cm-1:     0.189457     0.032174     0.027503
Rotational constants in MHz :  5679.772561   964.541220   824.520776

                             ****ORCA TERMINATED NORMALLY****
TOTAL RUN TIME: 0 days 0 hours 4 minutes 11 seconds 812 msec
