                         Program Version 5.0.3 -  RELEASE  -
|  1> !ri-mp2 aug-cc-pvtz aug-cc-pvtz/c tightscf
|  2> %pal nprocs 16 end
|  3>
|  4> * xyz 0 1
|  5> Cl     2.032090   -0.194629   -0.000258
|  6> O     -1.737574   -1.136233    0.004416
|  7> N     -1.857611    0.269811    0.007343
|  8> N     -0.338436    2.066229   -0.073485
|  9> C      0.315301   -0.344216   -0.003266
| 10> C     -0.628792    0.728757   -0.004720
| 11> C     -0.442310   -1.462994    0.002464
| 12> H      0.555469    2.341498    0.298227
| 13> H     -1.096227    2.686160    0.162543
| 14> H     -0.197051   -2.510661    0.004428
| 15> *
| 16>
| 17>                          ****END OF INPUT****

CARTESIAN COORDINATES (ANGSTROEM)
---------------------------------
  Cl     2.032090   -0.194629   -0.000258
  O     -1.737574   -1.136233    0.004416
  N     -1.857611    0.269811    0.007343
  N     -0.338436    2.066229   -0.073485
  C      0.315301   -0.344216   -0.003266
  C     -0.628792    0.728757   -0.004720
  C     -0.442310   -1.462994    0.002464
  H      0.555469    2.341498    0.298227
  H     -1.096227    2.686160    0.162543
  H     -0.197051   -2.510661    0.004428

 Total Charge           Charge          ....    0
 Multiplicity           Mult            ....    1
 Number of Electrons    NEL             ....   60
 Basis Dimension        Dim             ....  395

ORBITAL ENERGIES
----------------

  NO   OCC          E(Eh)            E(eV)
   0   2.0000    -104.868691     -2853.6222
   1   2.0000     -20.649885      -561.9119
   2   2.0000     -15.611660      -424.8149
   3   2.0000     -15.594722      -424.3540
   4   2.0000     -11.335414      -308.4523
   5   2.0000     -11.333367      -308.3966
   6   2.0000     -11.304482      -307.6106
   7   2.0000     -10.591843      -288.2187
   8   2.0000      -8.058867      -219.2929
   9   2.0000      -8.056862      -219.2384
  10   2.0000      -8.056747      -219.2352
  11   2.0000      -1.495206       -40.6866
  12   2.0000      -1.269463       -34.5439
  13   2.0000      -1.175147       -31.9774
  14   2.0000      -1.132578       -30.8190
  15   2.0000      -1.044363       -28.4186
  16   2.0000      -0.848620       -23.0921
  17   2.0000      -0.818933       -22.2843
  18   2.0000      -0.737274       -20.0623
  19   2.0000      -0.705933       -19.2094
  20   2.0000      -0.671393       -18.2695
  21   2.0000      -0.648491       -17.6463
  22   2.0000      -0.605363       -16.4728
  23   2.0000      -0.573735       -15.6121
  24   2.0000      -0.542802       -14.7704
  25   2.0000      -0.514268       -13.9940
  26   2.0000      -0.501992       -13.6599
  27   2.0000      -0.464911       -12.6509
  28   2.0000      -0.375096       -10.2069
  29   2.0000      -0.368479       -10.0268
  30   0.0000       0.025810         0.7023
  31   0.0000       0.032044         0.8720
  32   0.0000       0.049289         1.3412
  33   0.0000       0.070110         1.9078
  34   0.0000       0.073485         1.9996

MULLIKEN ATOMIC CHARGES
-----------------------
   0 Cl:   -0.357027
   1 O :   -0.446832
   2 N :   -0.444788
   3 N :   -0.414041
   4 C :    0.941350
   5 C :    0.403453
   6 C :   -0.681343
   7 H :    0.103170
   8 H :    0.189359
   9 H :    0.706699
Sum of atomic charges:    0.0000000

LOEWDIN ATOMIC CHARGES
----------------------
   0 Cl:    0.972385
   1 O :    0.385874
   2 N :    0.175620
   3 N :    0.838355
   4 C :   -0.812027
   5 C :   -0.607660
   6 C :   -0.144410
   7 H :   -0.325380
   8 H :   -0.299310
   9 H :   -0.183447

  Mayer bond orders larger than 0.100000
B(  0-Cl,  4-C ) :   0.6566 B(  0-Cl,  5-C ) :   0.1176 B(  1-O ,  2-N ) :   0.7121
B(  1-O ,  6-C ) :   1.1472 B(  2-N ,  5-C ) :   0.9946 B(  3-N ,  5-C ) :   0.8187
B(  3-N ,  7-H ) :   1.0793 B(  3-N ,  8-H ) :   0.9740 B(  4-C ,  5-C ) :   0.5657
B(  4-C ,  6-C ) :   0.8670 B(  5-C ,  6-C ) :   0.4702 B(  6-C ,  9-H ) :   0.4524

MP2 TOTAL ENERGY:     -759.990171501 Eh
FINAL SINGLE POINT ENERGY      -759.990171501270

DIPOLE MOMENT
-------------
                                X             Y             Z
Electronic contribution:      4.34256      -2.42628      -0.09560
Nuclear contribution   :     -3.50377       2.65374       0.44233
                        -----------------------------------------
Total Dipole Moment    :      0.83879       0.22746       0.34673
                        -----------------------------------------
Magnitude (a.u.)       :      0.93570
Magnitude (Debye)      :      2.37836

Rotational constants in cm-1:     0.124315     0.066221     0.043246
Rotational constants in MHz :  3726.865314  1985.241651  1296.482713

                             ****ORCA TERMINATED NORMALLY****
TOTAL RUN TIME: 0 days 0 hours 2 minutes 28 seconds 114 msec
