                         Program Version 5.0.3 -  RELEASE  -
|  1> !ri-mp2 aug-cc-pvtz aug-cc-pvtz/c tightscf
|  2> %pal nprocs 16 end
|  3>
|  4> * xyz 0 1
|  5> C      1.232892    0.302834        0.000000
|  6> C      1.206555   -1.054025        0.000000
|  7> C     -1.049356   -1.149467        0.000000
|  8> C      0.000000    1.055988        0.000000
|  9> N      0.061359   -1.812046        0.000000
| 10> N     -1.126414    0.202125        0.000000
| 11> O     -0.144293    2.264784        0.000000
| 12> H      2.159160    0.856946        0.000000
| 13> H      2.129679   -1.620129        0.000000
| 14> H     -1.994198   -1.680952        0.000000
| 15> H     -2.025462    0.663333        0.000000
| 16> *
| 17>
| 18>                          ****END OF INPUT****

CARTESIAN COORDINATES (ANGSTROEM)
---------------------------------
  C      1.232892    0.302834    0.000000
  C      1.206555   -1.054025    0.000000
  C     -1.049356   -1.149467    0.000000
  C      0.000000    1.055988    0.000000
  N      0.061359   -1.812046    0.000000
  N     -1.126414    0.202125    0.000000
  O     -0.144293    2.264784    0.000000
  H      2.159160    0.856946    0.000000
  H      2.129679   -1.620129    0.000000
  H     -1.994198   -1.680952    0.000000
  H     -2.025462    0.663333    0.000000

 Total Charge           Charge          ....    0
 Multiplicity           Mult            ....    1
 Number of Electrons    NEL             ....   50
 Basis Dimension        Dim             ....  414

ORBITAL ENERGIES
----------------

  NO   OCC          E(Eh)            E(eV)
   0   2.0000     -20.531185      -558.6819
   1   2.0000     -15.642524      -425.6547
   2   2.0000     -15.576192      -423.8497
   3   2.0000     -11.371234      -309.4270
   4   2.0000     -11.359305      -309.1024
   5   2.0000     -11.305197      -307.6300
   6   2.0000     -11.245337      -306.0012
   7   2.0000      -1.401395       -38.1339
   8   2.0000      -1.328320       -36.1454
   9   2.0000      -1.221435       -33.2369
  10   2.0000      -1.077792       -29.3282
  11   2.0000      -0.920955       -25.0604
  12   2.0000      -0.894439       -24.3389
  13   2.0000      -0.779195       -21.2030
  14   2.0000      -0.726588       -19.7715
  15   2.0000      -0.707881       -19.2624
  16   2.0000      -0.646405       -17.5896
  17   2.0000      -0.633704       -17.2440
  18   2.0000      -0.623559       -16.9679
  19   2.0000      -0.573476       -15.6051
  20   2.0000      -0.525677       -14.3044
  21   2.0000      -0.458631       -12.4800
  22   2.0000      -0.456387       -12.4189
  23   2.0000      -0.443291       -12.0626
  24   2.0000      -0.352250        -9.5852
  25   0.0000       0.020665         0.5623
  26   0.0000       0.031904         0.8682
  27   0.0000       0.042608         1.1594
  28   0.0000       0.050015         1.3610
  29   0.0000       0.059226         1.6116

MULLIKEN ATOMIC CHARGES
-----------------------
   0 C :   -0.279265
   1 C :   -0.249734
   2 C :   -0.510030
   3 C :    0.418418
   4 N :   -0.415138
   5 N :    0.138114
   6 O :   -0.837708
   7 H :    0.289840
   8 H :    0.695203
   9 H :    0.606186
  10 H :    0.144112
Sum of atomic charges:   -0.0000000

LOEWDIN ATOMIC CHARGES
----------------------
   0 C :    0.213161
   1 C :    0.009993
   2 C :   -0.064505
   3 C :   -0.684189
   4 N :    0.359761
   5 N :    0.553548
   6 O :    0.418301
   7 H :   -0.197793
   8 H :   -0.184231
   9 H :   -0.161267
  10 H :   -0.262779

  Mayer bond orders larger than 0.100000
B(  0-C ,  1-C ) :   1.2738 B(  0-C ,  3-C ) :   0.7482 B(  0-C ,  7-H ) :   0.9837
B(  1-C ,  2-C ) :  -0.2100 B(  1-C ,  3-C ) :   0.2230 B(  1-C ,  4-N ) :   0.8723
B(  1-C ,  8-H ) :   0.4138 B(  2-C ,  3-C ) :  -0.1624 B(  2-C ,  4-N ) :   1.5103
B(  2-C ,  5-N ) :   1.0896 B(  2-C ,  9-H ) :   0.5752 B(  3-C ,  5-N ) :   0.9422
B(  3-C ,  6-O ) :   1.3526 B(  5-N , 10-H ) :   1.0456

MP2 TOTAL ENERGY:     -338.959840410 Eh
FINAL SINGLE POINT ENERGY      -338.959840409892

DIPOLE MOMENT
-------------
                                X             Y             Z
Electronic contribution:     -0.85190       0.75955       0.00000
Nuclear contribution   :      0.25473      -1.71465       0.00000
                        -----------------------------------------
Total Dipole Moment    :     -0.59718      -0.95510       0.00000
                        -----------------------------------------
Magnitude (a.u.)       :      1.12643
Magnitude (Debye)      :      2.86315

Rotational constants in cm-1:     0.200261     0.093996     0.063970
Rotational constants in MHz :  6003.683555  2817.926347  1917.783518

                             ****ORCA TERMINATED NORMALLY****
TOTAL RUN TIME: 0 days 0 hours 3 minutes 1 seconds 789 msec
