                         Program Version 5.0.3 -  RELEASE  -
|  1> !ri-mp2 aug-cc-pvtz aug-cc-pvtz/c tightscf
|  2> %pal nprocs 16 end
|  3>
|  4> * xyz 0 1
|  5> Cl   -2.893971   -0.323448   -0.516915
|  6> S     1.947247    0.982404   -0.300395
|  7> F     2.454522   -1.612150   -0.075441
|  8> N     0.331438   -0.906310    0.410222
|  9> C    -0.387056    0.275290    0.443852
| 10> C     1.530280   -0.673246    0.042767
| 11> C     0.310052    1.391096    0.099770
| 12> C    -1.816007    0.247130    0.843769
| 13> H    -0.036503    2.408900    0.047814
| 14> H    -2.175019    1.233905    1.114544
| 15> H    -1.981283   -0.450741    1.657975
| 16> *
| 17>
| 18>                          ****END OF INPUT****

CARTESIAN COORDINATES (ANGSTROEM)
---------------------------------
  Cl    -2.893971   -0.323448   -0.516915
  S      1.947247    0.982404   -0.300395
  F      2.454522   -1.612150   -0.075441
  N      0.331438   -0.906310    0.410222
  C     -0.387056    0.275290    0.443852
  C      1.530280   -0.673246    0.042767
  C      0.310052    1.391096    0.099770
  C     -1.816007    0.247130    0.843769
  H     -0.036503    2.408900    0.047814
  H     -2.175019    1.233905    1.114544
  H     -1.981283   -0.450741    1.657975

 Total Charge           Charge          ....    0
 Multiplicity           Mult            ....    1
 Number of Electrons    NEL             ....   76
 Basis Dimension        Dim             ....  445

ORBITAL ENERGIES
----------------

  NO   OCC          E(Eh)            E(eV)
   0   2.0000    -104.830262     -2852.5764
   1   2.0000     -92.025340     -2504.1368
   2   2.0000     -26.356798      -717.2049
   3   2.0000     -15.592371      -424.2900
   4   2.0000     -11.416084      -310.6474
   5   2.0000     -11.314916      -307.8945
   6   2.0000     -11.306312      -307.6604
   7   2.0000     -11.289379      -307.1996
   8   2.0000     -10.554018      -287.1894
   9   2.0000      -9.025572      -245.5983
  10   2.0000      -8.020776      -218.2564
  11   2.0000      -8.018975      -218.2074
  12   2.0000      -8.018926      -218.2061
  13   2.0000      -6.706481      -182.4926
  14   2.0000      -6.705899      -182.4768
  15   2.0000      -6.704986      -182.4520
  16   2.0000      -1.679378       -45.6982
  17   2.0000      -1.318441       -35.8766
  18   2.0000      -1.140301       -31.0292
  19   2.0000      -1.098516       -29.8921
  20   2.0000      -1.037462       -28.2308
  21   2.0000      -0.923994       -25.1432
  22   2.0000      -0.858708       -23.3666
  23   2.0000      -0.811863       -22.0919
  24   2.0000      -0.741622       -20.1806
  25   2.0000      -0.740029       -20.1372
  26   2.0000      -0.709988       -19.3198
  27   2.0000      -0.656556       -17.8658
  28   2.0000      -0.620527       -16.8854
  29   2.0000      -0.595576       -16.2064
  30   2.0000      -0.580498       -15.7962
  31   2.0000      -0.545276       -14.8377
  32   2.0000      -0.528290       -14.3755
  33   2.0000      -0.469332       -12.7712
  34   2.0000      -0.445374       -12.1192
  35   2.0000      -0.441364       -12.0101
  36   2.0000      -0.419263       -11.4087
  37   2.0000      -0.357350        -9.7240
  38   0.0000       0.024577         0.6688
  39   0.0000       0.035031         0.9532
  40   0.0000       0.045222         1.2306
  41   0.0000       0.058429         1.5899
  42   0.0000       0.064991         1.7685

MULLIKEN ATOMIC CHARGES
-----------------------
   0 Cl:   -0.313252
   1 S :   -0.034860
   2 F :   -0.349267
   3 N :   -0.250235
   4 C :    0.537517
   5 C :    0.289758
   6 C :   -0.609996
   7 C :   -0.220969
   8 H :    0.429475
   9 H :    0.272374
  10 H :    0.249455
Sum of atomic charges:   -0.0000000

LOEWDIN ATOMIC CHARGES
----------------------
   0 Cl:    0.852571
   1 S :    1.247283
   2 F :    0.459855
   3 N :    0.285233
   4 C :   -0.551626
   5 C :   -1.099309
   6 C :   -0.188434
   7 C :   -0.259451
   8 H :   -0.254070
   9 H :   -0.248511
  10 H :   -0.243541

  Mayer bond orders larger than 0.100000
B(  0-Cl,  7-C ) :   0.7810 B(  1-S ,  5-C ) :   1.1547 B(  1-S ,  6-C ) :   1.0795
B(  2-F ,  5-C ) :   0.8211 B(  3-N ,  4-C ) :   0.7371 B(  3-N ,  5-C ) :   1.7295
B(  3-N ,  6-C ) :  -0.1657 B(  4-C ,  6-C ) :   1.3830 B(  4-C ,  7-C ) :   0.8590
B(  6-C ,  8-H ) :   0.9009 B(  7-C ,  9-H ) :   0.9776 B(  7-C , 10-H ) :   0.9816

MP2 TOTAL ENERGY:    -1165.731682222 Eh
FINAL SINGLE POINT ENERGY     -1165.731682222053

DIPOLE MOMENT
-------------
                                X             Y             Z
Electronic contribution:      2.71333      -3.63692      -2.94503
Nuclear contribution   :     -2.38671       4.90698       3.43312
                        -----------------------------------------
Total Dipole Moment    :      0.32662       1.27006       0.48808
                        -----------------------------------------
Magnitude (a.u.)       :      1.39927
Magnitude (Debye)      :      3.55667

Rotational constants in cm-1:     0.103419     0.026189     0.022560
Rotational constants in MHz :  3100.431744   785.135056   676.332078

                             ****ORCA TERMINATED NORMALLY****
TOTAL RUN TIME: 0 days 0 hours 3 minutes 22 seconds 528 msec
