                         Program Version 5.0.3 -  RELEASE  -
|  1> !ri-mp2 aug-cc-pvtz aug-cc-pvtz/c tightscf
|  2> %pal nprocs 16 end
|  3>
|  4> * xyz 0 1
|  5> C    -1.612174    0.568511    0.325815
|  6> C    -1.359474   -0.903273    0.131974
|  7> C    -0.398399    1.283143   -0.255369
|  8> N    -0.231575   -1.335367   -0.251174
|  9> O     1.735392    0.014128    0.833141
| 10> S     0.935671   -0.012414   -0.425050
| 11> H    -2.539917    0.860498   -0.169257
| 12> H    -1.752446    0.764996    1.391742
| 13> H    -2.153498   -1.621061    0.337364
| 14> H    -0.586582    1.674298   -1.253682
| 15> H     0.019870    2.064161    0.373207
| 16> *
| 17>
| 18>                          ****END OF INPUT****

CARTESIAN COORDINATES (ANGSTROEM)
---------------------------------
  C     -1.612174    0.568511    0.325815
  C     -1.359474   -0.903273    0.131974
  C     -0.398399    1.283143   -0.255369
  N     -0.231575   -1.335367   -0.251174
  O      1.735392    0.014128    0.833141
  S      0.935671   -0.012414   -0.425050
  H     -2.539917    0.860498   -0.169257
  H     -1.752446    0.764996    1.391742
  H     -2.153498   -1.621061    0.337364
  H     -0.586582    1.674298   -1.253682
  H      0.019870    2.064161    0.373207

 Total Charge           Charge          ....    0
 Multiplicity           Mult            ....    1
 Number of Electrons    NEL             ....   54
 Basis Dimension        Dim             ....  395

ORBITAL ENERGIES
----------------

  NO   OCC          E(Eh)            E(eV)
   0   2.0000     -92.096116     -2506.0627
   1   2.0000     -20.518067      -558.3250
   2   2.0000     -15.597040      -424.4170
   3   2.0000     -11.319779      -308.0269
   4   2.0000     -11.278835      -306.9127
   5   2.0000     -11.274405      -306.7921
   6   2.0000      -9.079096      -247.0548
   7   2.0000      -6.760563      -183.9643
   8   2.0000      -6.759996      -183.9488
   9   2.0000      -6.758617      -183.9113
  10   2.0000      -1.355836       -36.8942
  11   2.0000      -1.255880       -34.1742
  12   2.0000      -1.078210       -29.3396
  13   2.0000      -0.986758       -26.8510
  14   2.0000      -0.844703       -22.9855
  15   2.0000      -0.782124       -21.2827
  16   2.0000      -0.693659       -18.8754
  17   2.0000      -0.676783       -18.4162
  18   2.0000      -0.623462       -16.9653
  19   2.0000      -0.578761       -15.7489
  20   2.0000      -0.570123       -15.5138
  21   2.0000      -0.555567       -15.1177
  22   2.0000      -0.550651       -14.9840
  23   2.0000      -0.482460       -13.1284
  24   2.0000      -0.455022       -12.3818
  25   2.0000      -0.412071       -11.2130
  26   2.0000      -0.379131       -10.3167
  27   0.0000       0.019585         0.5329
  28   0.0000       0.031632         0.8607
  29   0.0000       0.037181         1.0117
  30   0.0000       0.043617         1.1869
  31   0.0000       0.055804         1.5185

MULLIKEN ATOMIC CHARGES
-----------------------
   0 C :   -0.288152
   1 C :   -0.361659
   2 C :   -0.472559
   3 N :   -0.550429
   4 O :   -0.886113
   5 S :    0.810838
   6 H :    0.304673
   7 H :    0.302056
   8 H :    0.569735
   9 H :    0.283329
  10 H :    0.288280
Sum of atomic charges:    0.0000000

LOEWDIN ATOMIC CHARGES
----------------------
   0 C :    0.223324
   1 C :   -0.090180
   2 C :    0.134553
   3 N :    0.127971
   4 O :   -0.198122
   5 S :    0.715538
   6 H :   -0.157408
   7 H :   -0.150354
   8 H :   -0.180908
   9 H :   -0.213971
  10 H :   -0.210442

  Mayer bond orders larger than 0.100000
B(  0-C ,  1-C ) :   0.7378 B(  0-C ,  2-C ) :   1.0174 B(  0-C ,  6-H ) :   0.9059
B(  0-C ,  7-H ) :   0.9103 B(  1-C ,  3-N ) :   1.5022 B(  1-C ,  8-H ) :   0.6175
B(  2-C ,  5-S ) :   0.8510 B(  2-C ,  9-H ) :   0.9397 B(  2-C , 10-H ) :   0.9141
B(  3-N ,  5-S ) :   0.8724 B(  4-O ,  5-S ) :   1.4003

MP2 TOTAL ENERGY:     -644.530434900 Eh
FINAL SINGLE POINT ENERGY      -644.530434900339

DIPOLE MOMENT
-------------
                                X             Y             Z
Electronic contribution:      4.79790      -2.73209      -1.26178
Nuclear contribution   :     -6.89825       3.67325       0.69238
                        -----------------------------------------
Total Dipole Moment    :     -2.10035       0.94116      -0.56939
                        -----------------------------------------
Magnitude (a.u.)       :      2.37096
Magnitude (Debye)      :      6.02650

Rotational constants in cm-1:     0.180823     0.098965     0.078067
Rotational constants in MHz :  5420.928284  2966.895317  2340.389099

                             ****ORCA TERMINATED NORMALLY****
TOTAL RUN TIME: 0 days 0 hours 2 minutes 53 seconds 291 msec
