                         Program Version 5.0.3 -  RELEASE  -
|  1> !ri-mp2 aug-cc-pvtz aug-cc-pvtz/c tightscf
|  2> %pal nprocs 16 end
|  3>
|  4> * xyz 0 1
|  5> O    -1.905063    0.000000    0.000000
|  6> N     0.190297    1.107884    0.120754
|  7> N     0.190296   -1.107884   -0.120755
|  8> C    -0.714324    0.000000    0.000000
|  9> C     1.431605    0.685517   -0.183402
| 10> C     1.431604   -0.685518    0.183403
| 11> H    -0.158479    2.033494   -0.089560
| 12> H    -0.158482   -2.033493    0.089561
| 13> *
| 14>
| 15>                          ****END OF INPUT****

CARTESIAN COORDINATES (ANGSTROEM)
---------------------------------
  O     -1.905063    0.000000    0.000000
  N      0.190297    1.107884    0.120754
  N      0.190296   -1.107884   -0.120755
  C     -0.714324    0.000000    0.000000
  C      1.431605    0.685517   -0.183402
  C      1.431604   -0.685518    0.183403
  H     -0.158479    2.033494   -0.089560
  H     -0.158482   -2.033493    0.089561

 Total Charge           Charge          ....    0
 Multiplicity           Mult            ....    1
 Number of Electrons    NEL             ....   42
 Basis Dimension        Dim             ....  322

ORBITAL ENERGIES
----------------

  NO   OCC          E(Eh)            E(eV)
   0   2.0000     -20.597354      -560.4825
   1   2.0000     -15.657654      -426.0664
   2   2.0000     -15.657624      -426.0656
   3   2.0000     -11.441270      -311.3328
   4   2.0000     -11.300197      -307.4940
   5   2.0000     -11.299100      -307.4641
   6   2.0000      -1.471662       -40.0459
   7   2.0000      -1.370886       -37.3037
   8   2.0000      -1.249913       -34.0119
   9   2.0000      -1.002231       -27.2721
  10   2.0000      -0.890916       -24.2431
  11   2.0000      -0.835000       -22.7215
  12   2.0000      -0.723910       -19.6986
  13   2.0000      -0.717480       -19.5236
  14   2.0000      -0.670858       -18.2550
  15   2.0000      -0.661401       -17.9976
  16   2.0000      -0.544158       -14.8073
  17   2.0000      -0.512157       -13.9365
  18   2.0000      -0.509142       -13.8545
  19   2.0000      -0.412000       -11.2111
  20   2.0000      -0.378578       -10.3016
  21   0.0000       0.016336         0.4445
  22   0.0000       0.025514         0.6943
  23   0.0000       0.033854         0.9212
  24   0.0000       0.063125         1.7177
  25   0.0000       0.067658         1.8411

MULLIKEN ATOMIC CHARGES
-----------------------
   0 O :   -0.558092
   1 N :    0.147850
   2 N :    0.147850
   3 C :    0.382888
   4 C :   -0.218652
   5 C :   -0.218651
   6 H :    0.158404
   7 H :    0.158404
Sum of atomic charges:    0.0000000

LOEWDIN ATOMIC CHARGES
----------------------
   0 O :    0.460915
   1 N :    0.418141
   2 N :    0.418141
   3 C :   -0.745781
   4 C :    0.010714
   5 C :    0.010714
   6 H :   -0.286422
   7 H :   -0.286422

  Mayer bond orders larger than 0.100000
B(  0-O ,  3-C ) :   1.7654 B(  1-N ,  3-C ) :   0.9097 B(  1-N ,  4-C ) :   1.1344
B(  1-N ,  6-H ) :   1.0075 B(  2-N ,  3-C ) :   0.9097 B(  2-N ,  5-C ) :   1.1344
B(  2-N ,  7-H ) :   1.0075 B(  4-C ,  5-C ) :   0.5501

MP2 TOTAL ENERGY:     -299.551315726 Eh
FINAL SINGLE POINT ENERGY      -299.551315725741

DIPOLE MOMENT
-------------
                                X             Y             Z
Electronic contribution:     -0.17926      -0.00000      -0.00000
Nuclear contribution   :     -0.33139       0.00000       0.00000
                        -----------------------------------------
Total Dipole Moment    :     -0.51065       0.00000       0.00000
                        -----------------------------------------
Magnitude (a.u.)       :      0.51065
Magnitude (Debye)      :      1.29796

Rotational constants in cm-1:     0.305158     0.145676     0.100044
Rotational constants in MHz :  9148.403571  4367.257714  2999.248540

                             ****ORCA TERMINATED NORMALLY****
TOTAL RUN TIME: 0 days 0 hours 1 minutes 40 seconds 674 msec
