                         Program Version 5.0.3 -  RELEASE  -
|  1> !ri-mp2 aug-cc-pvtz aug-cc-pvtz/c tightscf
|  2> %pal nprocs 16 end
|  3> %maxcore 3800
|  4>
|  5> * xyz 0 1
|  6> C     -0.490195    1.181024    0.380923
|  7> C     -0.087273   -0.940362   -0.656437
|  8> C     -1.855971    0.926677    0.397595
|  9> C     -1.445482   -1.198966   -0.668128
| 10> C      0.414573    0.251972   -0.124372
| 11> C     -2.340707   -0.270667   -0.129777
| 12> C      1.862691    0.635548   -0.187993
| 13> C      4.207575    0.027914   -0.102161
| 14> C      2.582085   -1.485876    0.935530
| 15> C     -4.617266    0.290682    0.342564
| 16> N      2.808906   -0.316370    0.101874
| 17> O      2.178901    1.768129   -0.533865
| 18> O     -3.654834   -0.618058   -0.172296
| 19> H     -0.115377    2.122535    0.757231
| 20> H      0.588383   -1.664528   -1.090945
| 21> H     -2.526213    1.665397    0.809027
| 22> H     -1.837104   -2.111604   -1.095000
| 23> H      4.753810   -0.863416   -0.414276
| 24> H      4.664605    0.410445    0.816274
| 25> H      4.282830    0.793784   -0.866477
| 26> H      3.181135   -1.412773    1.848519
| 27> H      2.873534   -2.401982    0.415066
| 28> H      1.539541   -1.562042    1.221072
| 29> H     -4.602392    1.237341   -0.202758
| 30> H     -4.455250    0.481757    1.406130
| 31> H     -5.582559   -0.188564    0.205851
| 32> *
| 33>
| 34>                          ****END OF INPUT****

CARTESIAN COORDINATES (ANGSTROEM)
---------------------------------
  C     -0.490195    1.181024    0.380923
  C     -0.087273   -0.940362   -0.656437
  C     -1.855971    0.926677    0.397595
  C     -1.445482   -1.198966   -0.668128
  C      0.414573    0.251972   -0.124372
  C     -2.340707   -0.270667   -0.129777
  C      1.862691    0.635548   -0.187993
  C      4.207575    0.027914   -0.102161
  C      2.582085   -1.485876    0.935530
  C     -4.617266    0.290682    0.342564
  N      2.808906   -0.316370    0.101874
  O      2.178901    1.768129   -0.533865
  O     -3.654834   -0.618058   -0.172296
  H     -0.115377    2.122535    0.757231
  H      0.588383   -1.664528   -1.090945
  H     -2.526213    1.665397    0.809027
  H     -1.837104   -2.111604   -1.095000
  H      4.753810   -0.863416   -0.414276
  H      4.664605    0.410445    0.816274
  H      4.282830    0.793784   -0.866477
  H      3.181135   -1.412773    1.848519
  H      2.873534   -2.401982    0.415066
  H      1.539541   -1.562042    1.221072
  H     -4.602392    1.237341   -0.202758
  H     -4.455250    0.481757    1.406130
  H     -5.582559   -0.188564    0.205851

 Total Charge           Charge          ....    0
 Multiplicity           Mult            ....    1
 Number of Electrons    NEL             ....   96
 Basis Dimension        Dim             ....  897

ORBITAL ENERGIES
----------------

  NO   OCC          E(Eh)            E(eV)
   0   2.0000     -20.593933      -560.3894
   1   2.0000     -20.509067      -558.0801
   2   2.0000     -15.583420      -424.0464
   3   2.0000     -11.345566      -308.7285
   4   2.0000     -11.311877      -307.8118
   5   2.0000     -11.290621      -307.2334
   6   2.0000     -11.264273      -306.5165
   7   2.0000     -11.250862      -306.1515
   8   2.0000     -11.249800      -306.1226
   9   2.0000     -11.247587      -306.0624
  10   2.0000     -11.238903      -305.8261
  11   2.0000     -11.236284      -305.7548
  12   2.0000     -11.233878      -305.6894
  13   2.0000      -1.418689       -38.6045
  14   2.0000      -1.373377       -37.3715
  15   2.0000      -1.239384       -33.7254
  16   2.0000      -1.160771       -31.5862
  17   2.0000      -1.041236       -28.3335
  18   2.0000      -1.029811       -28.0226
  19   2.0000      -0.971764       -26.4430
  20   2.0000      -0.960818       -26.1452
  21   2.0000      -0.929550       -25.2943
  22   2.0000      -0.844507       -22.9802
  23   2.0000      -0.831536       -22.6272
  24   2.0000      -0.754647       -20.5350
  25   2.0000      -0.724770       -19.7220
  26   2.0000      -0.700131       -19.0515
  27   2.0000      -0.678151       -18.4534
  28   2.0000      -0.662612       -18.0306
  29   2.0000      -0.649588       -17.6762
  30   2.0000      -0.643763       -17.5177
  31   2.0000      -0.631723       -17.1901
  32   2.0000      -0.603324       -16.4173
  33   2.0000      -0.595837       -16.2135
  34   2.0000      -0.586664       -15.9639
  35   2.0000      -0.565025       -15.3751
  36   2.0000      -0.559539       -15.2258
  37   2.0000      -0.547730       -14.9045
  38   2.0000      -0.538991       -14.6667
  39   2.0000      -0.529671       -14.4131
  40   2.0000      -0.527345       -14.3498
  41   2.0000      -0.514004       -13.9868
  42   2.0000      -0.488302       -13.2874
  43   2.0000      -0.472264       -12.8510
  44   2.0000      -0.421256       -11.4630
  45   2.0000      -0.370464       -10.0808
  46   2.0000      -0.350093        -9.5265
  47   2.0000      -0.319994        -8.7075
  48   0.0000       0.025021         0.6809
  49   0.0000       0.028661         0.7799
  50   0.0000       0.033884         0.9220
  51   0.0000       0.038586         1.0500
  52   0.0000       0.041499         1.1293

MULLIKEN ATOMIC CHARGES
-----------------------
   0 C :   -1.266417
   1 C :   -0.455982
   2 C :   -0.243940
   3 C :   -1.077654
   4 C :    2.060510
   5 C :    1.433318
   6 C :    0.169774
   7 C :   -1.127357
   8 C :   -1.157377
   9 C :   -0.904978
  10 N :    0.290838
  11 O :   -0.931267
  12 O :   -0.839331
  13 H :   -0.001357
  14 H :    0.070740
  15 H :    0.191002
  16 H :    0.485740
  17 H :    0.300373
  18 H :    0.337662
  19 H :    0.406755
  20 H :    0.257894
  21 H :    0.380393
  22 H :    0.506183
  23 H :    0.372387
  24 H :    0.364120
  25 H :    0.377973
Sum of atomic charges:    0.0000000

LOEWDIN ATOMIC CHARGES
----------------------
   0 C :    0.215873
   1 C :    0.196853
   2 C :    0.224687
   3 C :    0.227259
   4 C :   -0.126706
   5 C :   -0.376931
   6 C :   -0.666886
   7 C :    0.477447
   8 C :    0.481591
   9 C :    0.347602
  10 N :    0.230513
  11 O :    0.459750
  12 O :    0.575797
  13 H :   -0.171956
  14 H :   -0.170344
  15 H :   -0.205738
  16 H :   -0.180948
  17 H :   -0.163442
  18 H :   -0.150948
  19 H :   -0.195375
  20 H :   -0.151879
  21 H :   -0.151565
  22 H :   -0.197009
  23 H :   -0.173092
  24 H :   -0.174150
  25 H :   -0.180404

  Mayer bond orders larger than 0.100000
B(  0-C ,  1-C ) :  -0.3633 B(  0-C ,  2-C ) :   0.9514 B(  0-C ,  3-C ) :   0.1760
B(  0-C ,  6-C ) :   0.2370 B(  0-C , 13-H ) :   1.6191 B(  0-C , 14-H ) :   0.2865
B(  0-C , 15-H ) :  -0.2307 B(  1-C ,  3-C ) :   1.4061 B(  1-C ,  4-C ) :   0.6902
B(  1-C ,  5-C ) :  -0.2313 B(  1-C ,  6-C ) :   0.3857 B(  1-C , 13-H ) :   0.1374
B(  1-C , 14-H ) :   1.3891 B(  2-C ,  3-C ) :   0.1585 B(  2-C ,  4-C ) :   0.3063
B(  2-C ,  5-C ) :   1.0926 B(  2-C , 12-O ) :  -0.3169 B(  2-C , 13-H ) :  -0.1640
B(  2-C , 15-H ) :   1.2125 B(  3-C ,  5-C ) :   0.8899 B(  3-C , 12-O ) :   0.2207
B(  3-C , 16-H ) :   0.6418 B(  4-C ,  6-C ) :  -0.2292 B(  4-C , 10-N ) :  -0.2065
B(  4-C , 13-H ) :  -0.3154 B(  4-C , 14-H ) :  -0.3329 B(  5-C , 12-O ) :   0.3457
B(  5-C , 16-H ) :   0.1001 B(  6-C ,  7-C ) :  -0.1166 B(  6-C , 10-N ) :   1.2043
B(  6-C , 11-O ) :   1.1569 B(  6-C , 16-H ) :   0.1003 B(  7-C , 10-N ) :   0.9169
B(  7-C , 17-H ) :   0.9542 B(  7-C , 18-H ) :   0.9281 B(  7-C , 19-H ) :   0.8635
B(  8-C , 10-N ) :   0.9344 B(  8-C , 20-H ) :   1.0211 B(  8-C , 21-H ) :   0.8715
B(  8-C , 22-H ) :   0.7709 B(  9-C , 12-O ) :   1.0212 B(  9-C , 15-H ) :  -0.1015
B(  9-C , 23-H ) :   0.8777 B(  9-C , 24-H ) :   0.8819 B(  9-C , 25-H ) :   0.9167
B( 10-N , 11-O ) :  -0.1044 B( 11-O , 13-H ) :   0.1337

MP2 TOTAL ENERGY:     -592.963915973 Eh
FINAL SINGLE POINT ENERGY      -592.963915972505

DIPOLE MOMENT
-------------
                                X             Y             Z
Electronic contribution:     -3.36601       2.52652      -3.04498
Nuclear contribution   :      2.77472      -3.49826       3.82199
                        -----------------------------------------
Total Dipole Moment    :     -0.59129      -0.97173       0.77701
                        -----------------------------------------
Magnitude (a.u.)       :      1.37754
Magnitude (Debye)      :      3.50143

Rotational constants in cm-1:     0.076998     0.012581     0.011470
Rotational constants in MHz :  2308.343669   377.164582   343.850742

                             ****ORCA TERMINATED NORMALLY****
TOTAL RUN TIME: 0 days 0 hours 29 minutes 53 seconds 105 msec
