                         Program Version 5.0.3 -  RELEASE  -
|  1> !ri-mp2 aug-cc-pvtz aug-cc-pvtz/c tightscf
|  2> %pal nprocs 16 end
|  3> %maxcore 3800
|  4>
|  5> * xyz 0 1
|  6> C     -1.115443   -0.498903    0.000000
|  7> C      1.250967   -0.260855    0.000000
|  8> C     -0.986607   -1.880476    0.000000
|  9> C      1.399896   -1.643053    0.000000
| 10> C     -0.004568    0.350470    0.000000
| 11> C      0.278520   -2.460677    0.000000
| 12> C     -0.986607    2.295203    1.257771
| 13> C     -0.986607    2.295203   -1.257771
| 14> C      1.138805    2.629595    0.000000
| 15> C     -0.198372    1.873754    0.000000
| 16> O      0.472057   -3.816729    0.000000
| 17> H     -2.113690   -0.082584    0.000000
| 18> H      2.147758    0.340453    0.000000
| 19> H     -1.871422   -2.506840    0.000000
| 20> H      2.382431   -2.094241    0.000000
| 21> H     -1.134610    3.376937    1.269176
| 22> H     -1.969239    1.825058    1.295308
| 23> H     -0.449010    2.016368    2.165116
| 24> H     -1.969239    1.825058   -1.295308
| 25> H     -1.134610    3.376937   -1.269176
| 26> H     -0.449010    2.016368   -2.165116
| 27> H      0.952247    3.704407    0.000000
| 28> H      1.735409    2.400064    0.883926
| 29> H      1.735409    2.400064   -0.883926
| 30> H     -0.378786   -4.265777    0.000000
| 31> *
| 32>
| 33>                          ****END OF INPUT****

CARTESIAN COORDINATES (ANGSTROEM)
---------------------------------
  C     -1.115443   -0.498903    0.000000
  C      1.250967   -0.260855    0.000000
  C     -0.986607   -1.880476    0.000000
  C      1.399896   -1.643053    0.000000
  C     -0.004568    0.350470    0.000000
  C      0.278520   -2.460677    0.000000
  C     -0.986607    2.295203    1.257771
  C     -0.986607    2.295203   -1.257771
  C      1.138805    2.629595    0.000000
  C     -0.198372    1.873754    0.000000
  O      0.472057   -3.816729    0.000000
  H     -2.113690   -0.082584    0.000000
  H      2.147758    0.340453    0.000000
  H     -1.871422   -2.506840    0.000000
  H      2.382431   -2.094241    0.000000
  H     -1.134610    3.376937    1.269176
  H     -1.969239    1.825058    1.295308
  H     -0.449010    2.016368    2.165116
  H     -1.969239    1.825058   -1.295308
  H     -1.134610    3.376937   -1.269176
  H     -0.449010    2.016368   -2.165116
  H      0.952247    3.704407    0.000000
  H      1.735409    2.400064    0.883926
  H      1.735409    2.400064   -0.883926
  H     -0.378786   -4.265777    0.000000

 Total Charge           Charge          ....    0
 Multiplicity           Mult            ....    1
 Number of Electrons    NEL             ....   82
 Basis Dimension        Dim             ....  828

ORBITAL ENERGIES
----------------

  NO   OCC          E(Eh)            E(eV)
   0   2.0000     -20.587538      -560.2154
   1   2.0000     -11.296499      -307.3934
   2   2.0000     -11.243186      -305.9426
   3   2.0000     -11.234937      -305.7182
   4   2.0000     -11.232197      -305.6436
   5   2.0000     -11.230946      -305.6096
   6   2.0000     -11.229218      -305.5625
   7   2.0000     -11.223468      -305.4061
   8   2.0000     -11.212305      -305.1023
   9   2.0000     -11.211758      -305.0874
  10   2.0000     -11.211743      -305.0870
  11   2.0000      -1.401149       -38.1272
  12   2.0000      -1.156072       -31.4583
  13   2.0000      -1.094946       -29.7950
  14   2.0000      -1.018030       -27.7020
  15   2.0000      -0.990945       -26.9650
  16   2.0000      -0.933778       -25.4094
  17   2.0000      -0.931504       -25.3475
  18   2.0000      -0.844937       -22.9919
  19   2.0000      -0.829657       -22.5761
  20   2.0000      -0.753447       -20.5023
  21   2.0000      -0.732437       -19.9306
  22   2.0000      -0.671820       -18.2812
  23   2.0000      -0.643968       -17.5233
  24   2.0000      -0.619905       -16.8685
  25   2.0000      -0.601168       -16.3586
  26   2.0000      -0.593054       -16.1378
  27   2.0000      -0.588184       -16.0053
  28   2.0000      -0.586856       -15.9692
  29   2.0000      -0.576861       -15.6972
  30   2.0000      -0.548089       -14.9143
  31   2.0000      -0.545605       -14.8467
  32   2.0000      -0.527997       -14.3675
  33   2.0000      -0.514879       -14.0106
  34   2.0000      -0.497747       -13.5444
  35   2.0000      -0.483955       -13.1691
  36   2.0000      -0.463270       -12.6062
  37   2.0000      -0.457920       -12.4606
  38   2.0000      -0.453027       -12.3275
  39   2.0000      -0.339842        -9.2476
  40   2.0000      -0.305533        -8.3140
  41   0.0000       0.025634         0.6975
  42   0.0000       0.030789         0.8378
  43   0.0000       0.034353         0.9348
  44   0.0000       0.039184         1.0663
  45   0.0000       0.042971         1.1693

MULLIKEN ATOMIC CHARGES
-----------------------
   0 C :   -0.666296
   1 C :   -0.456550
   2 C :   -1.147353
   3 C :   -0.792764
   4 C :    2.076646
   5 C :    1.012458
   6 C :   -1.189229
   7 C :   -1.189229
   8 C :   -1.278272
   9 C :    1.143309
  10 O :   -0.865797
  11 H :   -0.015735
  12 H :   -0.164800
  13 H :    0.361820
  14 H :    0.614764
  15 H :    0.179649
  16 H :    0.318119
  17 H :    0.309460
  18 H :    0.318119
  19 H :    0.179649
  20 H :    0.309459
  21 H :    0.222212
  22 H :    0.271584
  23 H :    0.271584
  24 H :    0.177194
Sum of atomic charges:    0.0000000

LOEWDIN ATOMIC CHARGES
----------------------
   0 C :    0.209449
   1 C :    0.220686
   2 C :    0.223967
   3 C :    0.224154
   4 C :   -0.074422
   5 C :   -0.375489
   6 C :    0.588427
   7 C :    0.588427
   8 C :    0.566772
   9 C :   -0.340396
  10 O :    0.834543
  11 H :   -0.183872
  12 H :   -0.199565
  13 H :   -0.183630
  14 H :   -0.181341
  15 H :   -0.158090
  16 H :   -0.169840
  17 H :   -0.151631
  18 H :   -0.169840
  19 H :   -0.158090
  20 H :   -0.151631
  21 H :   -0.157716
  22 H :   -0.158191
  23 H :   -0.158191
  24 H :   -0.484491

  Mayer bond orders larger than 0.100000
B(  0-C ,  1-C ) :  -0.5979 B(  0-C ,  2-C ) :   1.2787 B(  0-C ,  3-C ) :  -0.2519
B(  0-C ,  4-C ) :  -0.2603 B(  0-C ,  9-C ) :   0.4239 B(  0-C , 11-H ) :   1.5580
B(  0-C , 12-H ) :   0.1394 B(  1-C ,  2-C ) :  -0.2668 B(  1-C ,  3-C ) :   1.0672
B(  1-C ,  5-C ) :  -0.1946 B(  1-C ,  9-C ) :   0.2478 B(  1-C , 11-H ) :   0.3237
B(  1-C , 12-H ) :   1.9665 B(  2-C ,  3-C ) :   0.5069 B(  2-C ,  5-C ) :   1.1166
B(  2-C , 11-H ) :  -0.1898 B(  2-C , 12-H ) :  -0.1328 B(  2-C , 13-H ) :   0.8049
B(  3-C ,  4-C ) :   0.4500 B(  3-C ,  5-C ) :   0.9076 B(  3-C , 11-H ) :  -0.1547
B(  3-C , 12-H ) :  -0.1133 B(  3-C , 14-H ) :   0.4007 B(  4-C ,  5-C ) :   0.1062
B(  4-C ,  9-C ) :   0.8433 B(  4-C , 11-H ) :  -0.4314 B(  4-C , 12-H ) :  -0.4167
B(  5-C , 10-O ) :   0.3446 B(  5-C , 13-H ) :   0.1161 B(  6-C ,  7-C ) :   0.1303
B(  6-C ,  9-C ) :   0.5146 B(  6-C , 15-H ) :   1.1004 B(  6-C , 16-H ) :   0.9764
B(  6-C , 17-H ) :   0.9891 B(  7-C ,  9-C ) :   0.5146 B(  7-C , 18-H ) :   0.9764
B(  7-C , 19-H ) :   1.1004 B(  7-C , 20-H ) :   0.9891 B(  8-C ,  9-C ) :   0.3296
B(  8-C , 21-H ) :   1.0897 B(  8-C , 22-H ) :   1.0594 B(  8-C , 23-H ) :   1.0594
B(  9-C , 21-H ) :  -0.1061 B( 10-O , 24-H ) :   1.0589 B( 11-H , 12-H ) :   0.2102

MP2 TOTAL ENERGY:     -463.787751600 Eh
FINAL SINGLE POINT ENERGY      -463.787751600467

DIPOLE MOMENT
-------------
                                X             Y             Z
Electronic contribution:      2.01937     -14.43111       0.00000
Nuclear contribution   :     -2.57207      14.63132       0.00000
                        -----------------------------------------
Total Dipole Moment    :     -0.55270       0.20021       0.00000
                        -----------------------------------------
Magnitude (a.u.)       :      0.58784
Magnitude (Debye)      :      1.49418

Rotational constants in cm-1:     0.085273     0.021290     0.019196
Rotational constants in MHz :  2556.407227   638.261078   575.483676

                             ****ORCA TERMINATED NORMALLY****
TOTAL RUN TIME: 0 days 0 hours 23 minutes 43 seconds 80 msec
