                         Program Version 5.0.3 -  RELEASE  -
|  1> !ri-mp2 aug-cc-pvtz aug-cc-pvtz/c tightscf
|  2> %pal nprocs 16 end
|  3>
|  4> * xyz 0 1
|  5> S     0.849093   -1.404452   -0.001478
|  6> N     2.043738   -0.263167    0.010200
|  7> N    -0.588772    2.219969   -0.067972
|  8> N    -2.942184   -0.775655    0.010632
|  9> C    -0.440552   -0.233849   -0.006414
| 10> C     0.105987    1.037713   -0.005426
| 11> C     1.531170    0.941099    0.004087
| 12> C    -1.808893   -0.550499   -0.000160
| 13> H    -0.122155    3.047725    0.260526
| 14> H    -1.574094    2.192039    0.137048
| 15> H     2.195028    1.796650    0.003525
| 16> *
| 17>
| 18>                          ****END OF INPUT****

CARTESIAN COORDINATES (ANGSTROEM)
---------------------------------
  S      0.849093   -1.404452   -0.001478
  N      2.043738   -0.263167    0.010200
  N     -0.588772    2.219969   -0.067972
  N     -2.942184   -0.775655    0.010632
  C     -0.440552   -0.233849   -0.006414
  C      0.105987    1.037713   -0.005426
  C      1.531170    0.941099    0.004087
  C     -1.808893   -0.550499   -0.000160
  H     -0.122155    3.047725    0.260526
  H     -1.574094    2.192039    0.137048
  H      2.195028    1.796650    0.003525

 Total Charge           Charge          ....    0
 Multiplicity           Mult            ....    1
 Number of Electrons    NEL             ....   64
 Basis Dimension        Dim             ....  441

ORBITAL ENERGIES
----------------

  NO   OCC          E(Eh)            E(eV)
   0   2.0000     -92.034193     -2504.3777
   1   2.0000     -15.627690      -425.2511
   2   2.0000     -15.608630      -424.7324
   3   2.0000     -15.587013      -424.1442
   4   2.0000     -11.333810      -308.4087
   5   2.0000     -11.308675      -307.7247
   6   2.0000     -11.307331      -307.6881
   7   2.0000     -11.293185      -307.3032
   8   2.0000      -9.030948      -245.7446
   9   2.0000      -6.711855      -182.6389
  10   2.0000      -6.710865      -182.6119
  11   2.0000      -6.710043      -182.5895
  12   2.0000      -1.315319       -35.7917
  13   2.0000      -1.253947       -34.1216
  14   2.0000      -1.234244       -33.5855
  15   2.0000      -1.089408       -29.6443
  16   2.0000      -1.018579       -27.7169
  17   2.0000      -0.891446       -24.2575
  18   2.0000      -0.819660       -22.3041
  19   2.0000      -0.762928       -20.7603
  20   2.0000      -0.718707       -19.5570
  21   2.0000      -0.653856       -17.7923
  22   2.0000      -0.632575       -17.2132
  23   2.0000      -0.613809       -16.7026
  24   2.0000      -0.572206       -15.5705
  25   2.0000      -0.530566       -14.4374
  26   2.0000      -0.516746       -14.0614
  27   2.0000      -0.511457       -13.9175
  28   2.0000      -0.499060       -13.5801
  29   2.0000      -0.459624       -12.5070
  30   2.0000      -0.386981       -10.5303
  31   2.0000      -0.336162        -9.1474
  32   0.0000       0.016822         0.4578
  33   0.0000       0.034464         0.9378
  34   0.0000       0.045677         1.2429
  35   0.0000       0.049796         1.3550
  36   0.0000       0.063475         1.7272

MULLIKEN ATOMIC CHARGES
-----------------------
   0 S :    0.001703
   1 N :   -0.589267
   2 N :   -0.581299
   3 N :   -0.742983
   4 C :    1.003869
   5 C :    0.439957
   6 C :   -0.466765
   7 C :    0.121679
   8 H :    0.129477
   9 H :    0.086312
  10 H :    0.597317
Sum of atomic charges:   -0.0000000

LOEWDIN ATOMIC CHARGES
----------------------
   0 S :    1.102360
   1 N :   -0.060877
   2 N :    0.859961
   3 N :    0.259343
   4 C :   -0.572234
   5 C :   -0.356740
   6 C :   -0.112029
   7 C :   -0.333672
   8 H :   -0.296230
   9 H :   -0.297654
  10 H :   -0.192228

  Mayer bond orders larger than 0.100000
B(  0-S ,  1-N ) :   1.0935 B(  0-S ,  4-C ) :   0.7922 B(  0-S ,  5-C ) :   0.1694
B(  0-S ,  6-C ) :   0.1081 B(  1-N ,  6-C ) :   1.1951 B(  2-N ,  5-C ) :   0.8097
B(  2-N ,  6-C ) :  -0.1236 B(  2-N ,  8-H ) :   1.0405 B(  2-N ,  9-H ) :   1.0739
B(  3-N ,  4-C ) :  -0.1030 B(  3-N ,  5-C ) :   0.1028 B(  3-N ,  7-C ) :   2.0860
B(  4-C ,  5-C ) :   0.9965 B(  4-C ,  7-C ) :   0.4294 B(  5-C ,  6-C ) :   0.7722
B(  5-C ,  7-C ) :   0.4231 B(  6-C , 10-H ) :   0.5956

MP2 TOTAL ENERGY:     -715.601176348 Eh
FINAL SINGLE POINT ENERGY      -715.601176347915

DIPOLE MOMENT
-------------
                                X             Y             Z
Electronic contribution:      0.32262      -5.24900      -0.08995
Nuclear contribution   :      0.44549       6.80625       0.38501
                        -----------------------------------------
Total Dipole Moment    :      0.76812       1.55725       0.29505
                        -----------------------------------------
Magnitude (a.u.)       :      1.76127
Magnitude (Debye)      :      4.47681

Rotational constants in cm-1:     0.090268     0.059115     0.035744
Rotational constants in MHz :  2706.151700  1772.211939  1071.571396

                             ****ORCA TERMINATED NORMALLY****
TOTAL RUN TIME: 0 days 0 hours 4 minutes 9 seconds 65 msec
