                         Program Version 5.0.3 -  RELEASE  -
|  1> !ri-mp2 aug-cc-pvtz aug-cc-pvtz/c tightscf
|  2> %pal nprocs 16 end
|  3> %maxcore 3800
|  4>
|  5> * xyz 0 1
|  6> C     -0.358008   -1.192497   -0.280254
|  7> C     -0.343198    1.192831   -0.282150
|  8> C     -1.721958   -1.189747   -0.010477
|  9> C     -1.704067    1.215219   -0.013027
| 10> C      0.359997   -0.006025   -0.420220
| 11> C     -2.398815    0.017812    0.125458
| 12> C      4.192562   -0.004905    0.338317
| 13> C      1.847021   -0.015398   -0.674427
| 14> C      2.689971    0.002765    0.610921
| 15> O     -3.741651    0.088900    0.388088
| 16> H      0.152278   -2.141809   -0.388206
| 17> H      0.183030    2.133209   -0.392492
| 18> H     -2.257935   -2.126629    0.088883
| 19> H     -2.239210    2.149244    0.086996
| 20> H      4.489024   -0.895456   -0.219839
| 21> H      4.492677    0.865907   -0.248259
| 22> H      4.763947    0.008939    1.267358
| 23> H      2.112002   -0.900851   -1.258622
| 24> H      2.117837    0.849206   -1.286581
| 25> H      2.424357    0.886004    1.197601
| 26> H      2.420111   -0.860563    1.224708
| 27> H     -4.105938   -0.798727    0.458901
| 28> *
| 29>
| 30>                          ****END OF INPUT****

CARTESIAN COORDINATES (ANGSTROEM)
---------------------------------
  C     -0.358008   -1.192497   -0.280254
  C     -0.343198    1.192831   -0.282150
  C     -1.721958   -1.189747   -0.010477
  C     -1.704067    1.215219   -0.013027
  C      0.359997   -0.006025   -0.420220
  C     -2.398815    0.017812    0.125458
  C      4.192562   -0.004905    0.338317
  C      1.847021   -0.015398   -0.674427
  C      2.689971    0.002765    0.610921
  O     -3.741651    0.088900    0.388088
  H      0.152278   -2.141809   -0.388206
  H      0.183030    2.133209   -0.392492
  H     -2.257935   -2.126629    0.088883
  H     -2.239210    2.149244    0.086996
  H      4.489024   -0.895456   -0.219839
  H      4.492677    0.865907   -0.248259
  H      4.763947    0.008939    1.267358
  H      2.112002   -0.900851   -1.258622
  H      2.117837    0.849206   -1.286581
  H      2.424357    0.886004    1.197601
  H      2.420111   -0.860563    1.224708
  H     -4.105938   -0.798727    0.458901

 Total Charge           Charge          ....    0
 Multiplicity           Mult            ....    1
 Number of Electrons    NEL             ....   74
 Basis Dimension        Dim             ....  736

ORBITAL ENERGIES
----------------

  NO   OCC          E(Eh)            E(eV)
   0   2.0000     -20.587723      -560.2204
   1   2.0000     -11.297567      -307.4224
   2   2.0000     -11.235581      -305.7357
   3   2.0000     -11.233868      -305.6891
   4   2.0000     -11.231329      -305.6200
   5   2.0000     -11.229477      -305.5696
   6   2.0000     -11.225593      -305.4639
   7   2.0000     -11.223944      -305.4190
   8   2.0000     -11.219809      -305.3065
   9   2.0000     -11.212309      -305.1024
  10   2.0000      -1.401355       -38.1328
  11   2.0000      -1.152959       -31.3736
  12   2.0000      -1.070938       -29.1417
  13   2.0000      -1.018130       -27.7047
  14   2.0000      -1.007890       -27.4261
  15   2.0000      -0.920111       -25.0375
  16   2.0000      -0.845697       -23.0126
  17   2.0000      -0.822651       -22.3855
  18   2.0000      -0.789388       -21.4803
  19   2.0000      -0.732146       -19.9227
  20   2.0000      -0.674069       -18.3424
  21   2.0000      -0.648413       -17.6442
  22   2.0000      -0.625059       -17.0087
  23   2.0000      -0.604656       -16.4535
  24   2.0000      -0.588446       -16.0124
  25   2.0000      -0.586846       -15.9689
  26   2.0000      -0.576430       -15.6855
  27   2.0000      -0.565711       -15.3938
  28   2.0000      -0.543217       -14.7817
  29   2.0000      -0.525764       -14.3068
  30   2.0000      -0.492844       -13.4110
  31   2.0000      -0.489450       -13.3186
  32   2.0000      -0.474935       -12.9236
  33   2.0000      -0.468857       -12.7582
  34   2.0000      -0.461567       -12.5599
  35   2.0000      -0.340838        -9.2747
  36   2.0000      -0.305398        -8.3103
  37   0.0000       0.026554         0.7226
  38   0.0000       0.031284         0.8513
  39   0.0000       0.034773         0.9462
  40   0.0000       0.039082         1.0635
  41   0.0000       0.043311         1.1786

MULLIKEN ATOMIC CHARGES
-----------------------
   0 C :   -0.935874
   1 C :   -0.777174
   2 C :   -0.862731
   3 C :   -0.857195
   4 C :    1.652602
   5 C :    1.031455
   6 C :   -0.991072
   7 C :   -0.361592
   8 C :   -0.434483
   9 O :   -0.824341
  10 H :    0.181868
  11 H :    0.192044
  12 H :    0.453107
  13 H :    0.606805
  14 H :    0.270472
  15 H :    0.270302
  16 H :    0.264903
  17 H :    0.217854
  18 H :    0.203011
  19 H :    0.266241
  20 H :    0.264775
  21 H :    0.169023
Sum of atomic charges:   -0.0000000

LOEWDIN ATOMIC CHARGES
----------------------
   0 C :    0.212160
   1 C :    0.213567
   2 C :    0.214847
   3 C :    0.216488
   4 C :   -0.112232
   5 C :   -0.378174
   6 C :    0.579924
   7 C :    0.262726
   8 C :    0.264320
   9 O :    0.833546
  10 H :   -0.172254
  11 H :   -0.171344
  12 H :   -0.185969
  13 H :   -0.182861
  14 H :   -0.171032
  15 H :   -0.170944
  16 H :   -0.173433
  17 H :   -0.150640
  18 H :   -0.149974
  19 H :   -0.147012
  20 H :   -0.146957
  21 H :   -0.484751

  Mayer bond orders larger than 0.100000
B(  0-C ,  1-C ) :  -0.1651 B(  0-C ,  2-C ) :   1.3172 B(  0-C ,  4-C ) :   0.3222
B(  0-C ,  7-C ) :   0.1328 B(  0-C , 10-H ) :   1.2547 B(  0-C , 11-H ) :   0.1225
B(  1-C ,  3-C ) :   1.3829 B(  1-C ,  4-C ) :   0.4483 B(  1-C ,  5-C ) :  -0.1914
B(  1-C ,  7-C ) :   0.1669 B(  1-C , 10-H ) :   0.1497 B(  1-C , 11-H ) :   1.2174
B(  2-C ,  3-C ) :   0.3480 B(  2-C ,  4-C ) :   0.1265 B(  2-C ,  5-C ) :   1.0153
B(  2-C , 10-H ) :  -0.1023 B(  2-C , 12-H ) :   0.7110 B(  3-C ,  4-C ) :   0.1770
B(  3-C ,  5-C ) :   1.0244 B(  3-C , 13-H ) :   0.4617 B(  4-C ,  7-C ) :   0.4968
B(  4-C , 10-H ) :  -0.1501 B(  4-C , 11-H ) :  -0.1767 B(  5-C ,  9-O ) :   0.4637
B(  6-C ,  8-C ) :   0.8820 B(  6-C , 14-H ) :   0.9598 B(  6-C , 15-H ) :   0.9607
B(  6-C , 16-H ) :   0.9804 B(  7-C ,  8-C ) :   0.8759 B(  7-C , 17-H ) :   1.0510
B(  7-C , 18-H ) :   1.0587 B(  8-C , 19-H ) :   0.9589 B(  8-C , 20-H ) :   0.9642
B(  9-O , 21-H ) :   1.0541

MP2 TOTAL ENERGY:     -424.557130001 Eh
FINAL SINGLE POINT ENERGY      -424.557130000516

DIPOLE MOMENT
-------------
                                X             Y             Z
Electronic contribution:    -14.55491       0.32411      -0.54451
Nuclear contribution   :     14.78939      -0.84709       0.54753
                        -----------------------------------------
Total Dipole Moment    :      0.23448      -0.52298       0.00302
                        -----------------------------------------
Magnitude (a.u.)       :      0.57314
Magnitude (Debye)      :      1.45682

Rotational constants in cm-1:     0.141465     0.019982     0.018525
Rotational constants in MHz :  4241.025755   599.035012   555.376886

                             ****ORCA TERMINATED NORMALLY****
TOTAL RUN TIME: 0 days 0 hours 13 minutes 53 seconds 392 msec
