                         Program Version 5.0.3 -  RELEASE  -
|  1> !ri-mp2 aug-cc-pvtz aug-cc-pvtz/c tightscf
|  2> %pal nprocs 16 end
|  3>
|  4> * xyz 0 1
|  5> S    -1.983658   -0.378275   -0.077921
|  6> S     2.278646   -0.016762   -0.202915
|  7> N    -0.053374    1.287591    0.110852
|  8> N    -1.248787    1.259796   -0.126326
|  9> C     0.571612   -0.012113    0.475502
| 10> C    -0.332408   -1.149797   -0.006743
| 11> H     2.698054   -1.070500    0.520774
| 12> H     0.640671    0.011826    1.564772
| 13> H    -0.043820   -1.503899   -0.993521
| 14> H    -0.334803   -1.977092    0.697118
| 15> *
| 16>
| 17>                          ****END OF INPUT****

CARTESIAN COORDINATES (ANGSTROEM)
---------------------------------
  S     -1.983658   -0.378275   -0.077921
  S      2.278646   -0.016762   -0.202915
  N     -0.053374    1.287591    0.110852
  N     -1.248787    1.259796   -0.126326
  C      0.571612   -0.012113    0.475502
  C     -0.332408   -1.149797   -0.006743
  H      2.698054   -1.070500    0.520774
  H      0.640671    0.011826    1.564772
  H     -0.043820   -1.503899   -0.993521
  H     -0.334803   -1.977092    0.697118

 Total Charge           Charge          ....    0
 Multiplicity           Mult            ....    1
 Number of Electrons    NEL             ....   62
 Basis Dimension        Dim             ....  376

ORBITAL ENERGIES
----------------

  NO   OCC          E(Eh)            E(eV)
   0   2.0000     -91.997398     -2503.3765
   1   2.0000     -91.980164     -2502.9075
   2   2.0000     -15.674514      -426.5252
   3   2.0000     -15.649353      -425.8405
   4   2.0000     -11.331766      -308.3530
   5   2.0000     -11.289651      -307.2070
   6   2.0000      -8.995999      -244.7936
   7   2.0000      -8.980946      -244.3840
   8   2.0000      -6.676825      -181.6857
   9   2.0000      -6.675616      -181.6528
  10   2.0000      -6.674547      -181.6237
  11   2.0000      -6.662048      -181.2835
  12   2.0000      -6.661195      -181.2603
  13   2.0000      -6.659995      -181.2277
  14   2.0000      -1.406182       -38.2642
  15   2.0000      -1.116679       -30.3864
  16   2.0000      -1.059063       -28.8186
  17   2.0000      -0.955347       -25.9963
  18   2.0000      -0.864571       -23.5262
  19   2.0000      -0.782250       -21.2861
  20   2.0000      -0.699196       -19.0261
  21   2.0000      -0.659732       -17.9522
  22   2.0000      -0.607336       -16.5265
  23   2.0000      -0.589022       -16.0281
  24   2.0000      -0.548009       -14.9121
  25   2.0000      -0.543401       -14.7867
  26   2.0000      -0.514793       -14.0082
  27   2.0000      -0.465078       -12.6554
  28   2.0000      -0.398816       -10.8523
  29   2.0000      -0.382931       -10.4201
  30   2.0000      -0.369296       -10.0490
  31   0.0000       0.022657         0.6165
  32   0.0000       0.037685         1.0255
  33   0.0000       0.040465         1.1011
  34   0.0000       0.047953         1.3049
  35   0.0000       0.067854         1.8464

MULLIKEN ATOMIC CHARGES
-----------------------
   0 S :   -0.000223
   1 S :   -0.339289
   2 N :   -0.228421
   3 N :   -0.354798
   4 C :    0.362871
   5 C :   -0.446969
   6 H :    0.127287
   7 H :    0.281815
   8 H :    0.285312
   9 H :    0.312415
Sum of atomic charges:    0.0000000

LOEWDIN ATOMIC CHARGES
----------------------
   0 S :    1.006107
   1 S :    1.294183
   2 N :    0.001293
   3 N :   -0.199252
   4 C :   -0.652165
   5 C :   -0.158569
   6 H :   -0.572594
   7 H :   -0.231508
   8 H :   -0.252331
   9 H :   -0.235165

  Mayer bond orders larger than 0.100000
B(  0-S ,  3-N ) :   0.9496 B(  0-S ,  5-C ) :   0.9687 B(  1-S ,  2-N ) :   0.1098
B(  1-S ,  4-C ) :   0.8041 B(  1-S ,  6-H ) :   1.0405 B(  2-N ,  3-N ) :   0.9406
B(  2-N ,  4-C ) :   0.7051 B(  4-C ,  5-C ) :   0.9909 B(  4-C ,  7-H ) :   0.9186
B(  5-C ,  8-H ) :   0.9256 B(  5-C ,  9-H ) :   0.9239

MP2 TOTAL ENERGY:     -983.157544187 Eh
FINAL SINGLE POINT ENERGY      -983.157544186805

DIPOLE MOMENT
-------------
                                X             Y             Z
Electronic contribution:     -2.45123       2.99220      -1.20659
Nuclear contribution   :      2.85158      -4.37182       1.74166
                        -----------------------------------------
Total Dipole Moment    :      0.40035      -1.37962       0.53508
                        -----------------------------------------
Magnitude (a.u.)       :      1.53295
Magnitude (Debye)      :      3.89645

Rotational constants in cm-1:     0.205763     0.050114     0.042070
Rotational constants in MHz :  6168.614870  1502.367606  1261.230864

                             ****ORCA TERMINATED NORMALLY****
TOTAL RUN TIME: 0 days 0 hours 2 minutes 26 seconds 317 msec
