                         Program Version 5.0.3 -  RELEASE  -
|  1> !ri-mp2 aug-cc-pvtz aug-cc-pvtz/c tightscf
|  2> %pal nprocs 16 end
|  3>
|  4> * xyz 0 1
|  5> Cl     2.146887   -0.158355   -0.305057
|  6> S     -1.585845   -0.628523   -0.400452
|  7> O     -1.548273    1.014367    0.043950
|  8> N     -0.277672   -1.009832    0.627787
|  9> C      0.609969    0.131067    0.637735
| 10> C     -0.158865    1.344018    0.027468
| 11> H     -0.595129   -1.227421    1.564642
| 12> H      0.945527    0.317665    1.652134
| 13> H      0.182044    1.521159   -0.992647
| 14> H     -0.032741    2.240381    0.631744
| 15> *
| 16>
| 17>                          ****END OF INPUT****

CARTESIAN COORDINATES (ANGSTROEM)
---------------------------------
  Cl     2.146887   -0.158355   -0.305057
  S     -1.585845   -0.628523   -0.400452
  O     -1.548273    1.014367    0.043950
  N     -0.277672   -1.009832    0.627787
  C      0.609969    0.131067    0.637735
  C     -0.158865    1.344018    0.027468
  H     -0.595129   -1.227421    1.564642
  H      0.945527    0.317665    1.652134
  H      0.182044    1.521159   -0.992647
  H     -0.032741    2.240381    0.631744

 Total Charge           Charge          ....    0
 Multiplicity           Mult            ....    1
 Number of Electrons    NEL             ....   64
 Basis Dimension        Dim             ....  376

ORBITAL ENERGIES
----------------

  NO   OCC          E(Eh)            E(eV)
   0   2.0000    -104.832446     -2852.6359
   1   2.0000     -92.039482     -2504.5216
   2   2.0000     -20.606072      -560.7197
   3   2.0000     -15.612764      -424.8449
   4   2.0000     -11.355270      -308.9926
   5   2.0000     -11.311427      -307.7996
   6   2.0000     -10.556604      -287.2598
   7   2.0000      -9.031666      -245.7641
   8   2.0000      -8.023292      -218.3249
   9   2.0000      -8.021581      -218.2783
  10   2.0000      -8.021534      -218.2770
  11   2.0000      -6.712491      -182.6562
  12   2.0000      -6.711316      -182.6242
  13   2.0000      -6.709560      -182.5764
  14   2.0000      -1.410873       -38.3918
  15   2.0000      -1.252053       -34.0701
  16   2.0000      -1.119939       -30.4751
  17   2.0000      -1.006308       -27.3830
  18   2.0000      -0.893807       -24.3217
  19   2.0000      -0.843166       -22.9437
  20   2.0000      -0.733720       -19.9655
  21   2.0000      -0.682489       -18.5715
  22   2.0000      -0.655835       -17.8462
  23   2.0000      -0.621414       -16.9095
  24   2.0000      -0.593213       -16.1422
  25   2.0000      -0.534871       -14.5546
  26   2.0000      -0.517041       -14.0694
  27   2.0000      -0.498590       -13.5673
  28   2.0000      -0.456043       -12.4096
  29   2.0000      -0.448126       -12.1941
  30   2.0000      -0.443516       -12.0687
  31   2.0000      -0.363015        -9.8781
  32   0.0000       0.024888         0.6772
  33   0.0000       0.037918         1.0318
  34   0.0000       0.044024         1.1980
  35   0.0000       0.052563         1.4303
  36   0.0000       0.067989         1.8501

MULLIKEN ATOMIC CHARGES
-----------------------
   0 Cl:   -0.415247
   1 S :    0.210031
   2 O :   -0.698091
   3 N :   -0.439611
   4 C :    0.345562
   5 C :   -0.148272
   6 H :    0.087070
   7 H :    0.334965
   8 H :    0.357010
   9 H :    0.366583
Sum of atomic charges:    0.0000000

LOEWDIN ATOMIC CHARGES
----------------------
   0 Cl:    0.878037
   1 S :    0.882054
   2 O :    0.124419
   3 N :    0.092626
   4 C :   -0.760149
   5 C :   -0.164239
   6 H :   -0.410789
   7 H :   -0.241912
   8 H :   -0.223249
   9 H :   -0.176798

  Mayer bond orders larger than 0.100000
B(  0-Cl,  3-N ) :   0.1283 B(  0-Cl,  4-C ) :   0.6421 B(  1-S ,  2-O ) :   0.8508
B(  1-S ,  3-N ) :   0.9668 B(  2-O ,  5-C ) :   0.6550 B(  3-N ,  4-C ) :   0.7242
B(  3-N ,  6-H ) :   0.9710 B(  4-C ,  5-C ) :   1.0174 B(  4-C ,  7-H ) :   0.8520
B(  5-C ,  8-H ) :   0.9203 B(  5-C ,  9-H ) :   0.8763

MP2 TOTAL ENERGY:    -1065.627531758 Eh
FINAL SINGLE POINT ENERGY     -1065.627531757740

DIPOLE MOMENT
-------------
                                X             Y             Z
Electronic contribution:      2.33354      -2.68489      -2.34314
Nuclear contribution   :     -2.43973       2.97473       3.16736
                        -----------------------------------------
Total Dipole Moment    :     -0.10619       0.28985       0.82423
                        -----------------------------------------
Magnitude (a.u.)       :      0.88014
Magnitude (Debye)      :      2.23713

Rotational constants in cm-1:     0.167679     0.053540     0.046227
Rotational constants in MHz :  5026.897064  1605.076118  1385.857403

                             ****ORCA TERMINATED NORMALLY****
TOTAL RUN TIME: 0 days 0 hours 2 minutes 1 seconds 262 msec
