                         Program Version 5.0.3 -  RELEASE  -
|  1> !ri-mp2 aug-cc-pvtz aug-cc-pvtz/c tightscf
|  2> %pal nprocs 16 end
|  3>
|  4> * xyz 0 1
|  5> H      3.260702   -1.294214   -0.401232
|  6> C      1.438044   -0.423931    0.191330
|  7> H      3.206899    0.548451   -0.421234
|  8> C      2.695041   -0.387967   -0.232098
|  9> H      0.306468    0.824211    1.506818
| 10> C      0.591287    0.786117    0.451638
| 11> H     -1.211253    1.787841   -0.217654
| 12> H     -0.463260    0.753418   -1.450887
| 13> C     -0.675702    0.859133   -0.390868
| 14> H      0.963360   -1.382561    0.370238
| 15> H      1.169489    1.691325    0.243452
| 16> Cl    -1.854378   -0.466387    0.014735
| 17> *
| 18>
| 19>                          ****END OF INPUT****

CARTESIAN COORDINATES (ANGSTROEM)
---------------------------------
  H      3.260702   -1.294214   -0.401232
  C      1.438044   -0.423931    0.191330
  H      3.206899    0.548451   -0.421234
  C      2.695041   -0.387967   -0.232098
  H      0.306468    0.824211    1.506818
  C      0.591287    0.786117    0.451638
  H     -1.211253    1.787841   -0.217654
  H     -0.463260    0.753418   -1.450887
  C     -0.675702    0.859133   -0.390868
  H      0.963360   -1.382561    0.370238
  H      1.169489    1.691325    0.243452
  Cl    -1.854378   -0.466387    0.014735

 Total Charge           Charge          ....    0
 Multiplicity           Mult            ....    1
 Number of Electrons    NEL             ....   48
 Basis Dimension        Dim             ....  395

ORBITAL ENERGIES
----------------

  NO   OCC          E(Eh)            E(eV)
   0   2.0000    -104.822111     -2852.3546
   1   2.0000     -11.298919      -307.4592
   2   2.0000     -11.247080      -306.0486
   3   2.0000     -11.239489      -305.8420
   4   2.0000     -11.227855      -305.5255
   5   2.0000     -10.546211      -286.9770
   6   2.0000      -8.012985      -218.0444
   7   2.0000      -8.011306      -217.9987
   8   2.0000      -8.011272      -217.9978
   9   2.0000      -1.139698       -31.0128
  10   2.0000      -1.071746       -29.1637
  11   2.0000      -0.981285       -26.7021
  12   2.0000      -0.857589       -23.3362
  13   2.0000      -0.765402       -20.8277
  14   2.0000      -0.664798       -18.0901
  15   2.0000      -0.638978       -17.3875
  16   2.0000      -0.600491       -16.3402
  17   2.0000      -0.569796       -15.5049
  18   2.0000      -0.552990       -15.0476
  19   2.0000      -0.508537       -13.8380
  20   2.0000      -0.492607       -13.4045
  21   2.0000      -0.435709       -11.8562
  22   2.0000      -0.432270       -11.7627
  23   2.0000      -0.371847       -10.1185
  24   0.0000       0.028747         0.7822
  25   0.0000       0.034541         0.9399
  26   0.0000       0.041112         1.1187
  27   0.0000       0.043776         1.1912
  28   0.0000       0.054482         1.4825

MULLIKEN ATOMIC CHARGES
-----------------------
   0 H :    0.510161
   1 C :   -0.271236
   2 H :    0.258858
   3 C :   -1.107399
   4 H :    0.320679
   5 C :   -0.173528
   6 H :    0.268745
   7 H :    0.287273
   8 C :   -0.303093
   9 H :    0.352817
  10 H :    0.220743
  11 Cl:   -0.364018
Sum of atomic charges:    0.0000000

LOEWDIN ATOMIC CHARGES
----------------------
   0 H :   -0.226794
   1 C :    0.152926
   2 H :   -0.221412
   3 C :    0.524416
   4 H :   -0.165235
   5 C :    0.156874
   6 H :   -0.239793
   7 H :   -0.236550
   8 C :   -0.240856
   9 H :   -0.204598
  10 H :   -0.165869
  11 Cl:    0.866891

  Mayer bond orders larger than 0.100000
B(  0-H ,  3-C ) :   0.6529 B(  1-C ,  3-C ) :   1.4251 B(  1-C ,  5-C ) :   0.7977
B(  1-C ,  9-H ) :   0.9655 B(  2-H ,  3-C ) :   1.0740 B(  4-H ,  5-C ) :   0.8980
B(  5-C ,  8-C ) :   1.0074 B(  5-C , 10-H ) :   0.9501 B(  6-H ,  8-C ) :   0.9529
B(  7-H ,  8-C ) :   0.9344 B(  8-C , 11-Cl) :   0.7730

MP2 TOTAL ENERGY:     -615.980526169 Eh
FINAL SINGLE POINT ENERGY      -615.980526168734

DIPOLE MOMENT
-------------
                                X             Y             Z
Electronic contribution:     -9.27608      -2.91694       0.26958
Nuclear contribution   :      9.84111       3.57961      -0.38983
                        -----------------------------------------
Total Dipole Moment    :      0.56504       0.66267      -0.12025
                        -----------------------------------------
Magnitude (a.u.)       :      0.87912
Magnitude (Debye)      :      2.23455

Rotational constants in cm-1:     0.341423     0.060579     0.054928
Rotational constants in MHz : 10235.598716  1816.116375  1646.710475

                             ****ORCA TERMINATED NORMALLY****
TOTAL RUN TIME: 0 days 0 hours 1 minutes 58 seconds 926 msec
