                         Program Version 5.0.3 -  RELEASE  -
|  1> !ri-mp2 aug-cc-pvtz aug-cc-pvtz/c tightscf
|  2> %pal nprocs 16 end
|  3>
|  4> * xyz 0 1
|  5> S    -1.958243    0.228807    0.000000
|  6> S     2.220685   -0.683816    0.000001
|  7> N    -0.289940   -1.729567    0.000001
|  8> N     0.650712    2.984496    0.000000
|  9> C    -0.252301    0.588485    0.000000
| 10> C     0.464268   -0.591163    0.000000
| 11> C    -1.558175   -1.448494    0.000000
| 12> C     0.241588    1.904998    0.000000
| 13> H     2.237266   -2.028192    0.000001
| 14> H    -2.334026   -2.199110    0.000000
| 15> *
| 16>
| 17>                          ****END OF INPUT****

CARTESIAN COORDINATES (ANGSTROEM)
---------------------------------
  S     -1.958243    0.228807    0.000000
  S      2.220685   -0.683816    0.000001
  N     -0.289940   -1.729567    0.000001
  N      0.650712    2.984496    0.000000
  C     -0.252301    0.588485    0.000000
  C      0.464268   -0.591163    0.000000
  C     -1.558175   -1.448494    0.000000
  C      0.241588    1.904998    0.000000
  H      2.237266   -2.028192    0.000001
  H     -2.334026   -2.199110    0.000000

 Total Charge           Charge          ....    0
 Multiplicity           Mult            ....    1
 Number of Electrons    NEL             ....   72
 Basis Dimension        Dim             ....  422

ORBITAL ENERGIES
----------------

  NO   OCC          E(Eh)            E(eV)
   0   2.0000     -92.037223     -2504.4602
   1   2.0000     -91.998470     -2503.4056
   2   2.0000     -15.611703      -424.8160
   3   2.0000     -15.586002      -424.1167
   4   2.0000     -11.356070      -309.0144
   5   2.0000     -11.354142      -308.9619
   6   2.0000     -11.317685      -307.9699
   7   2.0000     -11.292060      -307.2726
   8   2.0000      -9.037084      -245.9116
   9   2.0000      -8.999499      -244.8888
  10   2.0000      -6.717860      -182.8023
  11   2.0000      -6.717291      -182.7868
  12   2.0000      -6.716464      -182.7643
  13   2.0000      -6.680740      -181.7922
  14   2.0000      -6.679758      -181.7655
  15   2.0000      -6.678689      -181.7364
  16   2.0000      -1.332033       -36.2465
  17   2.0000      -1.235194       -33.6113
  18   2.0000      -1.117394       -30.4058
  19   2.0000      -1.092092       -29.7173
  20   2.0000      -0.982747       -26.7419
  21   2.0000      -0.888676       -24.1821
  22   2.0000      -0.816833       -22.2271
  23   2.0000      -0.735441       -20.0124
  24   2.0000      -0.643358       -17.5067
  25   2.0000      -0.634581       -17.2678
  26   2.0000      -0.619408       -16.8549
  27   2.0000      -0.570403       -15.5215
  28   2.0000      -0.554548       -15.0900
  29   2.0000      -0.517791       -14.0898
  30   2.0000      -0.516258       -14.0481
  31   2.0000      -0.484523       -13.1845
  32   2.0000      -0.460866       -12.5408
  33   2.0000      -0.454959       -12.3801
  34   2.0000      -0.413213       -11.2441
  35   2.0000      -0.340991        -9.2788
  36   0.0000       0.021117         0.5746
  37   0.0000       0.033985         0.9248
  38   0.0000       0.044163         1.2017
  39   0.0000       0.053053         1.4436
  40   0.0000       0.066612         1.8126

MULLIKEN ATOMIC CHARGES
-----------------------
   0 S :   -0.185600
   1 S :   -0.374512
   2 N :   -0.437041
   3 N :   -0.730132
   4 C :    0.968067
   5 C :    0.254986
   6 C :   -0.423016
   7 C :    0.237896
   8 H :    0.124385
   9 H :    0.564968
Sum of atomic charges:    0.0000000

LOEWDIN ATOMIC CHARGES
----------------------
   0 S :    1.283919
   1 S :    1.347881
   2 N :    0.225943
   3 N :    0.256726
   4 C :   -0.685083
   5 C :   -0.887256
   6 C :   -0.361599
   7 C :   -0.370735
   8 H :   -0.558505
   9 H :   -0.251292

  Mayer bond orders larger than 0.100000
B(  0-S ,  4-C ) :   0.7943 B(  0-S ,  5-C ) :   0.2594 B(  0-S ,  6-C ) :   1.2818
B(  1-S ,  5-C ) :   0.6905 B(  1-S ,  8-H ) :   1.0894 B(  2-N ,  5-C ) :   0.6681
B(  2-N ,  6-C ) :   1.6200 B(  3-N ,  7-C ) :   1.9952 B(  4-C ,  5-C ) :   1.0137
B(  4-C ,  6-C ) :  -0.1793 B(  4-C ,  7-C ) :   0.7330 B(  5-C ,  7-C ) :   0.1532
B(  6-C ,  9-H ) :   0.6248

MP2 TOTAL ENERGY:    -1058.057347828 Eh
FINAL SINGLE POINT ENERGY     -1058.057347827528

DIPOLE MOMENT
-------------
                                X             Y             Z
Electronic contribution:     -0.90736       2.35782      -0.00000
Nuclear contribution   :     -0.09770      -3.99965       0.00000
                        -----------------------------------------
Total Dipole Moment    :     -1.00506      -1.64184      -0.00000
                        -----------------------------------------
Magnitude (a.u.)       :      1.92504
Magnitude (Debye)      :      4.89306

Rotational constants in cm-1:     0.062582     0.050790     0.028036
Rotational constants in MHz :  1876.147160  1522.634134   840.502951

                             ****ORCA TERMINATED NORMALLY****
TOTAL RUN TIME: 0 days 0 hours 3 minutes 33 seconds 557 msec
