                         Program Version 5.0.3 -  RELEASE  -
|  1> !ri-mp2 aug-cc-pvtz aug-cc-pvtz/c tightscf
|  2> %pal nprocs 16 end
|  3>
|  4> * xyz 0 1
|  5> C     -1.206951    0.001465        0.000000
|  6> C      1.216264    0.012824        0.000000
|  7> C     -1.196872   -1.382293        0.000000
|  8> C      1.225228   -1.368685        0.000000
|  9> C      0.000000    0.687846        0.000000
| 10> C      0.018081   -2.070366        0.000000
| 11> N     -0.009275    2.152677        0.000000
| 12> O     -1.096069    2.717197        0.000000
| 13> O      1.070131    2.730377        0.000000
| 14> O      0.088467   -3.425739        0.000000
| 15> H     -2.133281    0.554066        0.000000
| 16> H      2.135640    0.576959        0.000000
| 17> H     -2.130792   -1.930246        0.000000
| 18> H      2.153866   -1.920498        0.000000
| 19> H     -0.795242   -3.808449        0.000000
| 20> *
| 21>
| 22>                          ****END OF INPUT****

CARTESIAN COORDINATES (ANGSTROEM)
---------------------------------
  C     -1.206951    0.001465    0.000000
  C      1.216264    0.012824    0.000000
  C     -1.196872   -1.382293    0.000000
  C      1.225228   -1.368685    0.000000
  C      0.000000    0.687846    0.000000
  C      0.018081   -2.070366    0.000000
  N     -0.009275    2.152677    0.000000
  O     -1.096069    2.717197    0.000000
  O      1.070131    2.730377    0.000000
  O      0.088467   -3.425739    0.000000
  H     -2.133281    0.554066    0.000000
  H      2.135640    0.576959    0.000000
  H     -2.130792   -1.930246    0.000000
  H      2.153866   -1.920498    0.000000
  H     -0.795242   -3.808449    0.000000

 Total Charge           Charge          ....    0
 Multiplicity           Mult            ....    1
 Number of Electrons    NEL             ....   72
 Basis Dimension        Dim             ....  575

ORBITAL ENERGIES
----------------

  NO   OCC          E(Eh)            E(eV)
   0   2.0000     -20.624295      -561.2156
   1   2.0000     -20.598523      -560.5143
   2   2.0000     -20.598148      -560.5041
   3   2.0000     -15.851898      -431.3521
   4   2.0000     -11.345232      -308.7195
   5   2.0000     -11.302794      -307.5647
   6   2.0000     -11.283490      -307.0394
   7   2.0000     -11.280770      -306.9654
   8   2.0000     -11.265423      -306.5477
   9   2.0000     -11.259166      -306.3775
  10   2.0000      -1.602822       -43.6150
  11   2.0000      -1.442081       -39.2410
  12   2.0000      -1.395485       -37.9731
  13   2.0000      -1.200448       -32.6659
  14   2.0000      -1.088183       -29.6110
  15   2.0000      -1.061443       -28.8833
  16   2.0000      -0.956830       -26.0367
  17   2.0000      -0.886152       -24.1134
  18   2.0000      -0.835961       -22.7476
  19   2.0000      -0.782500       -21.2929
  20   2.0000      -0.768492       -20.9117
  21   2.0000      -0.728235       -19.8163
  22   2.0000      -0.717335       -19.5197
  23   2.0000      -0.692890       -18.8545
  24   2.0000      -0.655854       -17.8467
  25   2.0000      -0.631886       -17.1945
  26   2.0000      -0.624233       -16.9862
  27   2.0000      -0.618516       -16.8307
  28   2.0000      -0.589769       -16.0484
  29   2.0000      -0.531508       -14.4631
  30   2.0000      -0.520906       -14.1746
  31   2.0000      -0.494617       -13.4592
  32   2.0000      -0.490932       -13.3590
  33   2.0000      -0.453092       -12.3293
  34   2.0000      -0.379017       -10.3136
  35   2.0000      -0.356326        -9.6961
  36   0.0000       0.016896         0.4598
  37   0.0000       0.030756         0.8369
  38   0.0000       0.036580         0.9954
  39   0.0000       0.043023         1.1707
  40   0.0000       0.050417         1.3719

MULLIKEN ATOMIC CHARGES
-----------------------
   0 C :   -0.582268
   1 C :   -0.421535
   2 C :   -0.735312
   3 C :   -0.791454
   4 C :    0.434988
   5 C :    1.088186
   6 N :    0.751435
   7 O :   -0.693161
   8 O :   -0.690143
   9 O :   -0.774167
  10 H :    0.656851
  11 H :    0.649359
  12 H :    0.397150
  13 H :    0.525357
  14 H :    0.184714
Sum of atomic charges:   -0.0000000

LOEWDIN ATOMIC CHARGES
----------------------
   0 C :    0.206583
   1 C :    0.208189
   2 C :    0.232444
   3 C :    0.232747
   4 C :   -0.223920
   5 C :   -0.361371
   6 N :   -0.717722
   7 O :    0.386567
   8 O :    0.388157
   9 O :    0.853744
  10 H :   -0.189500
  11 H :   -0.189205
  12 H :   -0.181205
  13 H :   -0.178137
  14 H :   -0.467372

  Mayer bond orders larger than 0.100000
B(  0-C ,  2-C ) :   1.4253 B(  0-C ,  4-C ) :   0.9842 B(  0-C ,  6-N ) :  -0.1953
B(  0-C ,  7-O ) :  -0.1087 B(  0-C , 10-H ) :   0.4399 B(  1-C ,  3-C ) :   1.4826
B(  1-C ,  4-C ) :   0.9804 B(  1-C ,  6-N ) :  -0.2555 B(  1-C ,  8-O ) :  -0.1060
B(  1-C , 11-H ) :   0.4642 B(  2-C ,  3-C ) :   0.2570 B(  2-C ,  4-C ) :  -0.1926
B(  2-C ,  5-C ) :   1.0205 B(  2-C , 12-H ) :   0.8132 B(  3-C ,  5-C ) :   0.9636
B(  3-C , 13-H ) :   0.6339 B(  4-C ,  5-C ) :   0.1135 B(  4-C ,  6-N ) :   1.2269
B(  4-C ,  7-O ) :   0.4185 B(  4-C ,  8-O ) :   0.3633 B(  5-C ,  9-O ) :   0.4941
B(  6-N ,  7-O ) :   1.0126 B(  6-N ,  8-O ) :   1.0303 B(  7-O ,  8-O ) :   0.1056
B(  7-O , 10-H ) :  -0.1160 B(  9-O , 14-H ) :   1.0354

MP2 TOTAL ENERGY:     -511.114439213 Eh
FINAL SINGLE POINT ENERGY      -511.114439212733

DIPOLE MOMENT
-------------
                                X             Y             Z
Electronic contribution:      0.22264       4.19662       0.00000
Nuclear contribution   :     -0.74738      -6.30241       0.00000
                        -----------------------------------------
Total Dipole Moment    :     -0.52474      -2.10580       0.00000
                        -----------------------------------------
Magnitude (a.u.)       :      2.17019
Magnitude (Debye)      :      5.51619

Rotational constants in cm-1:     0.132509     0.027404     0.022708
Rotational constants in MHz :  3972.513077   821.557614   680.767677

                             ****ORCA TERMINATED NORMALLY****
TOTAL RUN TIME: 0 days 0 hours 7 minutes 46 seconds 811 msec
