                         Program Version 5.0.3 -  RELEASE  -
|  1> !ri-mp2 aug-cc-pvtz aug-cc-pvtz/c tightscf
|  2> %pal nprocs 16 end
|  3>
|  4> * xyz 0 1
|  5> C      0.182296   -1.194600   -0.232278
|  6> C      0.200946    1.190822   -0.237286
|  7> C     -1.192318   -1.189355   -0.023350
|  8> C     -1.170510    1.215647   -0.029025
|  9> C      0.907341   -0.009408   -0.342365
| 10> C     -1.872642    0.019468    0.080035
| 11> C      3.186098    0.002643    0.787434
| 12> C      2.404665   -0.021419   -0.533621
| 13> O     -3.225765    0.093049    0.281877
| 14> H      0.695495   -2.144808   -0.315944
| 15> H      0.733105    2.130212   -0.325596
| 16> H     -1.733693   -2.125233    0.053648
| 17> H     -1.708215    2.150587    0.045495
| 18> H      2.948053    0.896107    1.366309
| 19> H      4.262069   -0.005627    0.605398
| 20> H      2.940274   -0.864143    1.402489
| 21> H      2.689551   -0.909460   -1.102288
| 22> H      2.698617    0.839070   -1.138965
| 23> H     -3.594392   -0.793890    0.337165
| 24> *
| 25>
| 26>                          ****END OF INPUT****

CARTESIAN COORDINATES (ANGSTROEM)
---------------------------------
  C      0.182296   -1.194600   -0.232278
  C      0.200946    1.190822   -0.237286
  C     -1.192318   -1.189355   -0.023350
  C     -1.170510    1.215647   -0.029025
  C      0.907341   -0.009408   -0.342365
  C     -1.872642    0.019468    0.080035
  C      3.186098    0.002643    0.787434
  C      2.404665   -0.021419   -0.533621
  O     -3.225765    0.093049    0.281877
  H      0.695495   -2.144808   -0.315944
  H      0.733105    2.130212   -0.325596
  H     -1.733693   -2.125233    0.053648
  H     -1.708215    2.150587    0.045495
  H      2.948053    0.896107    1.366309
  H      4.262069   -0.005627    0.605398
  H      2.940274   -0.864143    1.402489
  H      2.689551   -0.909460   -1.102288
  H      2.698617    0.839070   -1.138965
  H     -3.594392   -0.793890    0.337165

 Total Charge           Charge          ....    0
 Multiplicity           Mult            ....    1
 Number of Electrons    NEL             ....   66
 Basis Dimension        Dim             ....  644

ORBITAL ENERGIES
----------------

  NO   OCC          E(Eh)            E(eV)
   0   2.0000     -20.587916      -560.2257
   1   2.0000     -11.297799      -307.4287
   2   2.0000     -11.235825      -305.7423
   3   2.0000     -11.234116      -305.6958
   4   2.0000     -11.231602      -305.6274
   5   2.0000     -11.229745      -305.5769
   6   2.0000     -11.226570      -305.4905
   7   2.0000     -11.225882      -305.4718
   8   2.0000     -11.214469      -305.1612
   9   2.0000      -1.401567       -38.1386
  10   2.0000      -1.152977       -31.3741
  11   2.0000      -1.057651       -28.7802
  12   2.0000      -1.018367       -27.7112
  13   2.0000      -0.977075       -26.5876
  14   2.0000      -0.863637       -23.5008
  15   2.0000      -0.843563       -22.9545
  16   2.0000      -0.793876       -21.6025
  17   2.0000      -0.732340       -19.9280
  18   2.0000      -0.673077       -18.3154
  19   2.0000      -0.647531       -17.6202
  20   2.0000      -0.613591       -16.6967
  21   2.0000      -0.596519       -16.2321
  22   2.0000      -0.588737       -16.0204
  23   2.0000      -0.586656       -15.9637
  24   2.0000      -0.569831       -15.5059
  25   2.0000      -0.555450       -15.1146
  26   2.0000      -0.523798       -14.2533
  27   2.0000      -0.498121       -13.5546
  28   2.0000      -0.480873       -13.0852
  29   2.0000      -0.478283       -13.0148
  30   2.0000      -0.468804       -12.7568
  31   2.0000      -0.341143        -9.2830
  32   2.0000      -0.305931        -8.3248
  33   0.0000       0.026673         0.7258
  34   0.0000       0.031392         0.8542
  35   0.0000       0.035247         0.9591
  36   0.0000       0.042208         1.1485
  37   0.0000       0.044289         1.2052

MULLIKEN ATOMIC CHARGES
-----------------------
   0 C :   -0.898776
   1 C :   -0.739519
   2 C :   -0.817762
   3 C :   -0.833540
   4 C :    1.421130
   5 C :    1.012633
   6 C :   -0.915270
   7 C :   -0.409127
   8 O :   -0.820551
   9 H :    0.208216
  10 H :    0.227376
  11 H :    0.453942
  12 H :    0.602524
  13 H :    0.286208
  14 H :    0.288974
  15 H :    0.283136
  16 H :    0.244848
  17 H :    0.236453
  18 H :    0.169102
Sum of atomic charges:   -0.0000000

LOEWDIN ATOMIC CHARGES
----------------------
   0 C :    0.209638
   1 C :    0.211029
   2 C :    0.214460
   3 C :    0.216090
   4 C :   -0.119804
   5 C :   -0.378350
   6 C :    0.586791
   7 C :    0.251296
   8 O :    0.833535
   9 H :   -0.173170
  10 H :   -0.172203
  11 H :   -0.185948
  12 H :   -0.182840
  13 H :   -0.170099
  14 H :   -0.172418
  15 H :   -0.170073
  16 H :   -0.157056
  17 H :   -0.156168
  18 H :   -0.484711

  Mayer bond orders larger than 0.100000
B(  0-C ,  2-C ) :   1.2655 B(  0-C ,  4-C ) :   0.4192 B(  0-C ,  9-H ) :   1.1876
B(  1-C ,  3-C ) :   1.3237 B(  1-C ,  4-C ) :   0.5306 B(  1-C ,  5-C ) :  -0.2185
B(  1-C ,  9-H ) :   0.1157 B(  1-C , 10-H ) :   1.1411 B(  2-C ,  3-C ) :   0.3365
B(  2-C ,  4-C ) :   0.1325 B(  2-C ,  5-C ) :   1.0289 B(  2-C , 11-H ) :   0.7153
B(  3-C ,  4-C ) :   0.1806 B(  3-C ,  5-C ) :   1.0400 B(  3-C , 12-H ) :   0.4784
B(  4-C ,  7-C ) :   0.6357 B(  4-C ,  9-H ) :  -0.1179 B(  4-C , 10-H ) :  -0.1461
B(  5-C ,  8-O ) :   0.4947 B(  6-C ,  7-C ) :   0.8568 B(  6-C , 13-H ) :   0.9475
B(  6-C , 14-H ) :   0.9449 B(  6-C , 15-H ) :   0.9531 B(  7-C , 16-H ) :   0.9932
B(  7-C , 17-H ) :   0.9993 B(  8-O , 18-H ) :   1.0522

MP2 TOTAL ENERGY:     -385.331537669 Eh
FINAL SINGLE POINT ENERGY      -385.331537668790

DIPOLE MOMENT
-------------
                                X             Y             Z
Electronic contribution:     -9.79357       0.31334      -0.96807
Nuclear contribution   :     10.02444      -0.83779       0.94578
                        -----------------------------------------
Total Dipole Moment    :      0.23087      -0.52445      -0.02229
                        -----------------------------------------
Magnitude (a.u.)       :      0.57345
Magnitude (Debye)      :      1.45760

Rotational constants in cm-1:     0.148867     0.031451     0.027856
Rotational constants in MHz :  4462.906573   942.870267   835.096428

                             ****ORCA TERMINATED NORMALLY****
TOTAL RUN TIME: 0 days 0 hours 10 minutes 10 seconds 129 msec
