                         Program Version 5.0.3 -  RELEASE  -
|  1> !ri-mp2 aug-cc-pvtz aug-cc-pvtz/c tightscf
|  2> %pal nprocs 16 end
|  3>
|  4> * xyz 0 1
|  5> F    -2.610592   -0.327834    1.201239
|  6> F    -2.811525   -0.037318   -0.964662
|  7> O     1.182464    1.333129    0.117243
|  8> N     1.584817    0.016648   -0.354989
|  9> C    -0.642997   -0.097857   -0.059740
| 10> C     0.463626   -0.798090   -0.297934
| 11> C    -2.016538   -0.627408   -0.004321
| 12> C    -0.262774    1.356137    0.055783
| 13> C     2.824717   -0.333007   -0.014553
| 14> C     3.962621   -0.634351    0.227184
| 15> H     0.589733   -1.853786   -0.474588
| 16> H    -2.071144   -1.706782   -0.144639
| 17> H    -0.624227    1.838730    0.964570
| 18> H    -0.584651    1.938157   -0.814947
| 19> H     4.963978   -0.904064    0.448868
| 20> *
| 21>
| 22>                          ****END OF INPUT****

CARTESIAN COORDINATES (ANGSTROEM)
---------------------------------
  F     -2.610592   -0.327834    1.201239
  F     -2.811525   -0.037318   -0.964662
  O      1.182464    1.333129    0.117243
  N      1.584817    0.016648   -0.354989
  C     -0.642997   -0.097857   -0.059740
  C      0.463626   -0.798090   -0.297934
  C     -2.016538   -0.627408   -0.004321
  C     -0.262774    1.356137    0.055783
  C      2.824717   -0.333007   -0.014553
  C      3.962621   -0.634351    0.227184
  H      0.589733   -1.853786   -0.474588
  H     -2.071144   -1.706782   -0.144639
  H     -0.624227    1.838730    0.964570
  H     -0.584651    1.938157   -0.814947
  H      4.963978   -0.904064    0.448868

 Total Charge           Charge          ....    0
 Multiplicity           Mult            ....    1
 Number of Electrons    NEL             ....   74
 Basis Dimension        Dim             ....  575

ORBITAL ENERGIES
----------------

  NO   OCC          E(Eh)            E(eV)
   0   2.0000     -26.314590      -716.0564
   1   2.0000     -26.314543      -716.0551
   2   2.0000     -20.627212      -561.2950
   3   2.0000     -15.678778      -426.6412
   4   2.0000     -11.427469      -310.9572
   5   2.0000     -11.320445      -308.0450
   6   2.0000     -11.312959      -307.8413
   7   2.0000     -11.283275      -307.0335
   8   2.0000     -11.263110      -306.4848
   9   2.0000     -11.242109      -305.9133
  10   2.0000      -1.659455       -45.1561
  11   2.0000      -1.598315       -43.4924
  12   2.0000      -1.457782       -39.6683
  13   2.0000      -1.227753       -33.4088
  14   2.0000      -1.135463       -30.8975
  15   2.0000      -1.032174       -28.0869
  16   2.0000      -0.978208       -26.6184
  17   2.0000      -0.920071       -25.0364
  18   2.0000      -0.839244       -22.8370
  19   2.0000      -0.797398       -21.6983
  20   2.0000      -0.774498       -21.0752
  21   2.0000      -0.756726       -20.5916
  22   2.0000      -0.743246       -20.2248
  23   2.0000      -0.712141       -19.3783
  24   2.0000      -0.702570       -19.1179
  25   2.0000      -0.668301       -18.1854
  26   2.0000      -0.648634       -17.6502
  27   2.0000      -0.631841       -17.1933
  28   2.0000      -0.626700       -17.0534
  29   2.0000      -0.594167       -16.1681
  30   2.0000      -0.591782       -16.1032
  31   2.0000      -0.582395       -15.8478
  32   2.0000      -0.529207       -14.4005
  33   2.0000      -0.489830       -13.3290
  34   2.0000      -0.424148       -11.5416
  35   2.0000      -0.416793       -11.3415
  36   2.0000      -0.329261        -8.9597
  37   0.0000       0.024097         0.6557
  38   0.0000       0.030910         0.8411
  39   0.0000       0.036846         1.0026
  40   0.0000       0.045520         1.2387
  41   0.0000       0.049585         1.3493

MULLIKEN ATOMIC CHARGES
-----------------------
   0 F :   -0.453456
   1 F :   -0.457777
   2 O :   -0.604176
   3 N :    0.671556
   4 C :    0.712355
   5 C :   -1.186685
   6 C :    0.562502
   7 C :   -0.169421
   8 C :    0.698711
   9 C :   -1.601268
  10 H :    0.590850
  11 H :    0.334207
  12 H :    0.299054
  13 H :    0.249227
  14 H :    0.354321
Sum of atomic charges:   -0.0000000

LOEWDIN ATOMIC CHARGES
----------------------
   0 F :    0.464612
   1 F :    0.462426
   2 O :    0.517060
   3 N :   -0.053207
   4 C :   -0.124279
   5 C :    0.109915
   6 C :   -0.751157
   7 C :    0.057625
   8 C :   -0.135874
   9 C :    0.388314
  10 H :   -0.143493
  11 H :   -0.180107
  12 H :   -0.155911
  13 H :   -0.150299
  14 H :   -0.305624

  Mayer bond orders larger than 0.100000
B(  0-F ,  6-C ) :   0.7695 B(  1-F ,  6-C ) :   0.7475 B(  2-O ,  3-N ) :   0.7601
B(  2-O ,  4-C ) :   0.1230 B(  2-O ,  7-C ) :   0.6469 B(  3-N ,  4-C ) :  -0.2511
B(  3-N ,  5-C ) :   1.0334 B(  3-N ,  8-C ) :   0.5771 B(  3-N ,  9-C ) :  -0.6955
B(  4-C ,  5-C ) :   0.9127 B(  4-C ,  6-C ) :   0.7924 B(  4-C ,  7-C ) :   0.8359
B(  5-C ,  8-C ) :  -0.1724 B(  5-C , 10-H ) :   0.7108 B(  6-C , 11-H ) :   0.9842
B(  7-C , 12-H ) :   0.9593 B(  7-C , 13-H ) :   0.9680 B(  8-C ,  9-C ) :   1.8770
B(  8-C , 14-H ) :  -0.2621 B(  9-C , 14-H ) :   1.2923

MP2 TOTAL ENERGY:     -560.239906015 Eh
FINAL SINGLE POINT ENERGY      -560.239906015487

DIPOLE MOMENT
-------------
                                X             Y             Z
Electronic contribution:     -6.98053      -0.53735       0.11204
Nuclear contribution   :      7.33299      -0.29308      -0.24386
                        -----------------------------------------
Total Dipole Moment    :      0.35245      -0.83043      -0.13182
                        -----------------------------------------
Magnitude (a.u.)       :      0.91171
Magnitude (Debye)      :      2.31739

Rotational constants in cm-1:     0.123478     0.022192     0.021220
Rotational constants in MHz :  3701.774362   665.314204   636.151821

                             ****ORCA TERMINATED NORMALLY****
TOTAL RUN TIME: 0 days 0 hours 6 minutes 32 seconds 695 msec
