                         Program Version 5.0.3 -  RELEASE  -
|  1> !ri-mp2 aug-cc-pvtz aug-cc-pvtz/c tightscf
|  2> %pal nprocs 16 end
|  3>
|  4> * xyz 0 1
|  5> H      1.956440   -1.637058    0.000000
|  6> C      0.000000    0.950174    0.000000
|  7> C      1.120691   -0.954132    0.000000
|  8> H      0.432261    2.850247    0.878324
|  9> H     -1.103247    2.790379    0.000000
| 10> H      0.432261    2.850247   -0.878324
| 11> C     -0.071430    2.443743    0.000000
| 12> S     -0.511579   -1.544954    0.000000
| 13> N      1.234040    0.335533    0.000000
| 14> H     -2.109532    0.327724    0.000000
| 15> C     -1.059462    0.091715    0.000000
| 16> *
| 17>
| 18>                          ****END OF INPUT****

CARTESIAN COORDINATES (ANGSTROEM)
---------------------------------
  H      1.956440   -1.637058    0.000000
  C      0.000000    0.950174    0.000000
  C      1.120691   -0.954132    0.000000
  H      0.432261    2.850247    0.878324
  H     -1.103247    2.790379    0.000000
  H      0.432261    2.850247   -0.878324
  C     -0.071430    2.443743    0.000000
  S     -0.511579   -1.544954    0.000000
  N      1.234040    0.335533    0.000000
  H     -2.109532    0.327724    0.000000
  C     -1.059462    0.091715    0.000000

 Total Charge           Charge          ....    0
 Multiplicity           Mult            ....    1
 Number of Electrons    NEL             ....   52
 Basis Dimension        Dim             ....  395

ORBITAL ENERGIES
----------------

  NO   OCC          E(Eh)            E(eV)
   0   2.0000     -91.994412     -2503.2952
   1   2.0000     -15.569836      -423.6768
   2   2.0000     -11.310259      -307.7678
   3   2.0000     -11.275669      -306.8265
   4   2.0000     -11.259348      -306.3824
   5   2.0000     -11.228272      -305.5368
   6   2.0000      -8.995026      -244.7671
   7   2.0000      -6.675942      -181.6616
   8   2.0000      -6.675414      -181.6473
   9   2.0000      -6.674685      -181.6274
  10   2.0000      -1.283360       -34.9220
  11   2.0000      -1.063201       -28.9312
  12   2.0000      -1.044994       -28.4357
  13   2.0000      -0.927562       -25.2402
  14   2.0000      -0.807475       -21.9725
  15   2.0000      -0.745636       -20.2898
  16   2.0000      -0.681414       -18.5422
  17   2.0000      -0.594923       -16.1887
  18   2.0000      -0.589309       -16.0359
  19   2.0000      -0.563299       -15.3281
  20   2.0000      -0.546692       -14.8762
  21   2.0000      -0.534497       -14.5444
  22   2.0000      -0.493735       -13.4352
  23   2.0000      -0.428734       -11.6664
  24   2.0000      -0.388853       -10.5812
  25   2.0000      -0.333548        -9.0763
  26   0.0000       0.030023         0.8170
  27   0.0000       0.034086         0.9275
  28   0.0000       0.037518         1.0209
  29   0.0000       0.050030         1.3614
  30   0.0000       0.055386         1.5071

MULLIKEN ATOMIC CHARGES
-----------------------
   0 H :    0.549333
   1 C :    0.533622
   2 C :   -0.446799
   3 H :    0.271602
   4 H :    0.285069
   5 H :    0.271602
   6 C :   -0.821338
   7 S :   -0.075736
   8 N :   -0.349788
   9 H :    0.412855
  10 C :   -0.630423
Sum of atomic charges:    0.0000000

LOEWDIN ATOMIC CHARGES
----------------------
   0 H :   -0.264361
   1 C :   -0.450905
   2 C :   -0.372834
   3 H :   -0.173416
   4 H :   -0.182452
   5 H :   -0.173416
   6 C :    0.563422
   7 S :    1.221479
   8 N :    0.287579
   9 H :   -0.263149
  10 C :   -0.191947

  Mayer bond orders larger than 0.100000
B(  0-H ,  2-C ) :   0.6460 B(  1-C ,  6-C ) :   0.6147 B(  1-C ,  8-N ) :   0.7657
B(  1-C , 10-C ) :   1.3951 B(  2-C ,  7-S ) :   1.1985 B(  2-C ,  8-N ) :   1.6792
B(  3-H ,  6-C ) :   0.9894 B(  4-H ,  6-C ) :   0.9927 B(  5-H ,  6-C ) :   0.9894
B(  7-S , 10-C ) :   1.0939 B(  8-N , 10-C ) :  -0.1517 B(  9-H , 10-C ) :   0.9082

MP2 TOTAL ENERGY:     -607.480398799 Eh
FINAL SINGLE POINT ENERGY      -607.480398799173

DIPOLE MOMENT
-------------
                                X             Y             Z
Electronic contribution:     -0.09901      -7.17123       0.00000
Nuclear contribution   :     -0.36324       7.12242       0.00000
                        -----------------------------------------
Total Dipole Moment    :     -0.46225      -0.04881       0.00000
                        -----------------------------------------
Magnitude (a.u.)       :      0.46482
Magnitude (Debye)      :      1.18147

Rotational constants in cm-1:     0.244294     0.084026     0.063251
Rotational constants in MHz :  7323.739584  2519.042445  1896.224457

                             ****ORCA TERMINATED NORMALLY****
TOTAL RUN TIME: 0 days 0 hours 2 minutes 36 seconds 527 msec
