                         Program Version 5.0.3 -  RELEASE  -
|  1> !ri-mp2 aug-cc-pvtz aug-cc-pvtz/c tightscf
|  2> %pal nprocs 16 end
|  3>
|  4> * xyz 0 1
|  5> Cl     3.790159   -0.565860   -0.387381
|  6> S     -2.085317   -0.503553    0.546804
|  7> N     -4.695349   -0.036278   -0.498130
|  8> C     -1.119696    0.706179   -0.506380
|  9> C      2.801833    0.572983    0.637702
| 10> C      0.267289    0.664830   -0.108118
| 11> C      1.418175    0.614979    0.230597
| 12> C     -3.630791   -0.216125   -0.084152
| 13> H     -1.553731    1.692329   -0.354795
| 14> H     -1.245536    0.411120   -1.546247
| 15> H      3.273951    1.547665    0.545309
| 16> H      2.904272    0.222241    1.661369
| 17> *
| 18>
| 19>                          ****END OF INPUT****

CARTESIAN COORDINATES (ANGSTROEM)
---------------------------------
  Cl     3.790159   -0.565860   -0.387381
  S     -2.085317   -0.503553    0.546804
  N     -4.695349   -0.036278   -0.498130
  C     -1.119696    0.706179   -0.506380
  C      2.801833    0.572983    0.637702
  C      0.267289    0.664830   -0.108118
  C      1.418175    0.614979    0.230597
  C     -3.630791   -0.216125   -0.084152
  H     -1.553731    1.692329   -0.354795
  H     -1.245536    0.411120   -1.546247
  H      3.273951    1.547665    0.545309
  H      2.904272    0.222241    1.661369

 Total Charge           Charge          ....    0
 Multiplicity           Mult            ....    1
 Number of Electrons    NEL             ....   74
 Basis Dimension        Dim             ....  468

ORBITAL ENERGIES
----------------

  NO   OCC          E(Eh)            E(eV)
   0   2.0000    -104.846412     -2853.0159
   1   2.0000     -92.029484     -2504.2496
   2   2.0000     -15.589957      -424.2243
   3   2.0000     -11.341877      -308.6282
   4   2.0000     -11.331311      -308.3407
   5   2.0000     -11.303459      -307.5828
   6   2.0000     -11.273269      -306.7612
   7   2.0000     -11.269408      -306.6562
   8   2.0000     -10.570029      -287.6251
   9   2.0000      -9.028586      -245.6803
  10   2.0000      -8.036808      -218.6927
  11   2.0000      -8.034909      -218.6410
  12   2.0000      -8.034872      -218.6400
  13   2.0000      -6.709917      -182.5861
  14   2.0000      -6.708332      -182.5430
  15   2.0000      -6.707315      -182.5153
  16   2.0000      -1.237637       -33.6778
  17   2.0000      -1.163078       -31.6489
  18   2.0000      -1.130091       -30.7513
  19   2.0000      -1.059218       -28.8228
  20   2.0000      -0.987820       -26.8800
  21   2.0000      -0.933400       -25.3991
  22   2.0000      -0.722902       -19.6712
  23   2.0000      -0.696315       -18.9477
  24   2.0000      -0.666410       -18.1339
  25   2.0000      -0.664705       -18.0875
  26   2.0000      -0.662727       -18.0337
  27   2.0000      -0.581887       -15.8339
  28   2.0000      -0.577686       -15.7196
  29   2.0000      -0.546883       -14.8814
  30   2.0000      -0.529085       -14.3971
  31   2.0000      -0.475940       -12.9510
  32   2.0000      -0.464335       -12.6352
  33   2.0000      -0.458829       -12.4854
  34   2.0000      -0.416914       -11.3448
  35   2.0000      -0.410526       -11.1710
  36   2.0000      -0.393017       -10.6945
  37   0.0000       0.021121         0.5747
  38   0.0000       0.030957         0.8424
  39   0.0000       0.038101         1.0368
  40   0.0000       0.041928         1.1409
  41   0.0000       0.057587         1.5670

MULLIKEN ATOMIC CHARGES
-----------------------
   0 Cl:   -0.295113
   1 S :    0.187320
   2 N :   -0.403136
   3 C :   -0.536426
   4 C :   -0.294443
   5 C :    0.286164
   6 C :   -0.040979
   7 C :    0.050021
   8 H :    0.261851
   9 H :    0.249905
  10 H :    0.287513
  11 H :    0.247325
Sum of atomic charges:    0.0000000

LOEWDIN ATOMIC CHARGES
----------------------
   0 Cl:    0.853168
   1 S :    1.150779
   2 N :    0.140620
   3 C :   -0.085464
   4 C :   -0.316155
   5 C :   -0.008586
   6 C :   -0.013599
   7 C :   -0.770756
   8 H :   -0.223783
   9 H :   -0.221882
  10 H :   -0.252160
  11 H :   -0.252181

  Mayer bond orders larger than 0.100000
B(  0-Cl,  4-C ) :   0.8065 B(  1-S ,  3-C ) :   0.8437 B(  1-S ,  5-C ) :   0.1772
B(  1-S ,  7-C ) :   1.0482 B(  2-N ,  7-C ) :   2.4639 B(  3-C ,  4-C ) :   0.1581
B(  3-C ,  5-C ) :   1.3256 B(  3-C ,  6-C ) :  -0.1154 B(  3-C ,  8-H ) :   0.9498
B(  3-C ,  9-H ) :   0.9246 B(  4-C ,  5-C ) :  -0.2828 B(  4-C ,  6-C ) :   1.2543
B(  4-C , 10-H ) :   0.9321 B(  4-C , 11-H ) :   0.9300 B(  5-C ,  6-C ) :   2.0471

MP2 TOTAL ENERGY:    -1104.537582224 Eh
FINAL SINGLE POINT ENERGY     -1104.537582223711

DIPOLE MOMENT
-------------
                                X             Y             Z
Electronic contribution:      3.20965      -3.74164      -0.29245
Nuclear contribution   :     -1.91530       4.48432       0.80180
                        -----------------------------------------
Total Dipole Moment    :      1.29434       0.74267       0.50935
                        -----------------------------------------
Magnitude (a.u.)       :      1.57681
Magnitude (Debye)      :      4.00793

Rotational constants in cm-1:     0.216357     0.012905     0.012782
Rotational constants in MHz :  6486.205281   386.869623   383.209107

                             ****ORCA TERMINATED NORMALLY****
TOTAL RUN TIME: 0 days 0 hours 3 minutes 22 seconds 352 msec
