                         Program Version 5.0.3 -  RELEASE  -
|  1> !ri-mp2 aug-cc-pvtz aug-cc-pvtz/c tightscf
|  2> %pal nprocs 16 end
|  3>
|  4> * xyz 0 1
|  5> S    -3.117372   -0.219151   -0.000042
|  6> O     1.880210    1.021564   -0.000017
|  7> O     3.047958   -0.924185    0.000000
|  8> N     0.735994   -0.877231    0.000067
|  9> C    -0.262689    0.101627    0.000020
| 10> C     2.003640   -0.340666    0.000015
| 11> C     0.502611    1.419673    0.000015
| 12> C    -1.560452   -0.063026   -0.000009
| 13> H     0.587091   -1.870027    0.000039
| 14> H     0.307433    2.016200   -0.890818
| 15> H     0.307471    2.016180    0.890870
| 16> *
| 17>
| 18>                          ****END OF INPUT****

CARTESIAN COORDINATES (ANGSTROEM)
---------------------------------
  S     -3.117372   -0.219151   -0.000042
  O      1.880210    1.021564   -0.000017
  O      3.047958   -0.924185    0.000000
  N      0.735994   -0.877231    0.000067
  C     -0.262689    0.101627    0.000020
  C      2.003640   -0.340666    0.000015
  C      0.502611    1.419673    0.000015
  C     -1.560452   -0.063026   -0.000009
  H      0.587091   -1.870027    0.000039
  H      0.307433    2.016200   -0.890818
  H      0.307471    2.016180    0.890870

 Total Charge           Charge          ....    0
 Multiplicity           Mult            ....    1
 Number of Electrons    NEL             ....   66
 Basis Dimension        Dim             ....  441

ORBITAL ENERGIES
----------------

  NO   OCC          E(Eh)            E(eV)
   0   2.0000     -91.991016     -2503.2028
   1   2.0000     -20.629778      -561.3648
   2   2.0000     -20.551198      -559.2265
   3   2.0000     -15.638070      -425.5335
   4   2.0000     -11.428856      -310.9950
   5   2.0000     -11.342526      -308.6458
   6   2.0000     -11.339943      -308.5755
   7   2.0000     -11.331483      -308.3453
   8   2.0000      -8.992357      -244.6945
   9   2.0000      -6.673365      -181.5915
  10   2.0000      -6.672308      -181.5627
  11   2.0000      -6.670694      -181.5188
  12   2.0000      -1.495748       -40.7014
  13   2.0000      -1.390252       -37.8307
  14   2.0000      -1.288805       -35.0702
  15   2.0000      -1.124420       -30.5970
  16   2.0000      -1.042413       -28.3655
  17   2.0000      -0.948076       -25.7985
  18   2.0000      -0.873446       -23.7677
  19   2.0000      -0.802653       -21.8413
  20   2.0000      -0.732661       -19.9367
  21   2.0000      -0.725715       -19.7477
  22   2.0000      -0.660433       -17.9713
  23   2.0000      -0.632628       -17.2147
  24   2.0000      -0.611883       -16.6502
  25   2.0000      -0.611564       -16.6415
  26   2.0000      -0.580740       -15.8027
  27   2.0000      -0.565498       -15.3880
  28   2.0000      -0.484674       -13.1887
  29   2.0000      -0.482941       -13.1415
  30   2.0000      -0.464534       -12.6406
  31   2.0000      -0.441363       -12.0101
  32   2.0000      -0.316327        -8.6077
  33   0.0000       0.022441         0.6107
  34   0.0000       0.025568         0.6957
  35   0.0000       0.034822         0.9476
  36   0.0000       0.039152         1.0654
  37   0.0000       0.051011         1.3881

MULLIKEN ATOMIC CHARGES
-----------------------
   0 S :   -0.536299
   1 O :   -0.297507
   2 O :   -0.680197
   3 N :   -0.026364
   4 C :    0.692077
   5 C :    0.292075
   6 C :   -0.213149
   7 C :    0.050897
   8 H :    0.105748
   9 H :    0.306365
  10 H :    0.306354
Sum of atomic charges:    0.0000000

LOEWDIN ATOMIC CHARGES
----------------------
   0 S :    0.895526
   1 O :    0.585691
   2 O :    0.421806
   3 N :    0.518866
   4 C :   -0.365852
   5 C :   -0.929953
   6 C :    0.077585
   7 C :   -0.646039
   8 H :   -0.256727
   9 H :   -0.150452
  10 H :   -0.150451

  Mayer bond orders larger than 0.100000
B(  0-S ,  4-C ) :  -0.1202 B(  0-S ,  7-C ) :   1.8742 B(  1-O ,  5-C ) :   0.9967
B(  1-O ,  6-C ) :   0.7187 B(  2-O ,  3-N ) :  -0.1246 B(  2-O ,  5-C ) :   1.6967
B(  3-N ,  4-C ) :   0.8592 B(  3-N ,  5-C ) :   1.0790 B(  3-N ,  8-H ) :   1.0941
B(  4-C ,  6-C ) :   0.9929 B(  4-C ,  7-C ) :   1.2231 B(  6-C ,  9-H ) :   0.9204
B(  6-C , 10-H ) :   0.9204

MP2 TOTAL ENERGY:     -756.500101448 Eh
FINAL SINGLE POINT ENERGY      -756.500101448418

DIPOLE MOMENT
-------------
                                X             Y             Z
Electronic contribution:     -2.52163      -1.71884      -0.00007
Nuclear contribution   :      1.32483       2.07863       0.00009
                        -----------------------------------------
Total Dipole Moment    :     -1.19680       0.35979       0.00002
                        -----------------------------------------
Magnitude (a.u.)       :      1.24972
Magnitude (Debye)      :      3.17652

Rotational constants in cm-1:     0.206241     0.027736     0.024562
Rotational constants in MHz :  6182.944808   831.503362   736.352791

                             ****ORCA TERMINATED NORMALLY****
TOTAL RUN TIME: 0 days 0 hours 3 minutes 31 seconds 886 msec
