                         Program Version 5.0.3 -  RELEASE  -
|  1> !ri-mp2 aug-cc-pvtz aug-cc-pvtz/c tightscf
|  2> %pal nprocs 16 end
|  3>
|  4> * xyz 0 1
|  5> C      1.108723   -0.145442    0.000000
|  6> C     -0.725124   -1.365652    0.000000
|  7> C      0.000000    0.658242    0.000000
|  8> C     -0.075878    2.147531    0.000000
|  9> N     -1.137354   -0.122450    0.000000
| 10> N      0.632730   -1.439852    0.000000
| 11> H      2.160529    0.077190    0.000000
| 12> H     -1.353102   -2.241108    0.000000
| 13> H     -0.613019    2.509034    0.878479
| 14> H      0.918810    2.592122    0.000000
| 15> H     -0.613019    2.509034   -0.878479
| 16> H      1.185847   -2.278231    0.000000
| 17> *
| 18>
| 19>                          ****END OF INPUT****

CARTESIAN COORDINATES (ANGSTROEM)
---------------------------------
  C      1.108723   -0.145442    0.000000
  C     -0.725124   -1.365652    0.000000
  C      0.000000    0.658242    0.000000
  C     -0.075878    2.147531    0.000000
  N     -1.137354   -0.122450    0.000000
  N      0.632730   -1.439852    0.000000
  H      2.160529    0.077190    0.000000
  H     -1.353102   -2.241108    0.000000
  H     -0.613019    2.509034    0.878479
  H      0.918810    2.592122    0.000000
  H     -0.613019    2.509034   -0.878479
  H      1.185847   -2.278231    0.000000

 Total Charge           Charge          ....    0
 Multiplicity           Mult            ....    1
 Number of Electrons    NEL             ....   44
 Basis Dimension        Dim             ....  414

ORBITAL ENERGIES
----------------

  NO   OCC          E(Eh)            E(eV)
   0   2.0000     -15.617016      -424.9606
   1   2.0000     -15.538567      -422.8259
   2   2.0000     -11.294272      -307.3328
   3   2.0000     -11.251619      -306.1721
   4   2.0000     -11.246233      -306.0256
   5   2.0000     -11.214758      -305.1691
   6   2.0000      -1.338026       -36.4095
   7   2.0000      -1.165431       -31.7130
   8   2.0000      -1.032729       -28.1020
   9   2.0000      -0.938800       -25.5460
  10   2.0000      -0.824557       -22.4373
  11   2.0000      -0.771304       -20.9883
  12   2.0000      -0.738234       -20.0884
  13   2.0000      -0.619727       -16.8636
  14   2.0000      -0.605177       -16.4677
  15   2.0000      -0.596913       -16.2428
  16   2.0000      -0.549230       -14.9453
  17   2.0000      -0.542526       -14.7629
  18   2.0000      -0.527193       -14.3457
  19   2.0000      -0.430972       -11.7273
  20   2.0000      -0.391629       -10.6568
  21   2.0000      -0.311797        -8.4844
  22   0.0000       0.022257         0.6056
  23   0.0000       0.033488         0.9113
  24   0.0000       0.038430         1.0457
  25   0.0000       0.049970         1.3598
  26   0.0000       0.052500         1.4286

MULLIKEN ATOMIC CHARGES
-----------------------
   0 C :   -0.833940
   1 C :   -0.773096
   2 C :    0.886942
   3 C :   -0.665969
   4 N :   -0.595411
   5 N :   -0.001114
   6 H :    0.485503
   7 H :    0.625653
   8 H :    0.254296
   9 H :    0.262879
  10 H :    0.254296
  11 H :    0.099960
Sum of atomic charges:   -0.0000000

LOEWDIN ATOMIC CHARGES
----------------------
   0 C :    0.136835
   1 C :   -0.078942
   2 C :   -0.343499
   3 C :    0.564320
   4 N :    0.372025
   5 N :    0.497575
   6 H :   -0.179510
   7 H :   -0.179264
   8 H :   -0.176202
   9 H :   -0.183075
  10 H :   -0.176202
  11 H :   -0.254062

  Mayer bond orders larger than 0.100000
B(  0-C ,  2-C ) :   1.4208 B(  0-C ,  5-N ) :   1.0165 B(  0-C ,  6-H ) :   0.8564
B(  1-C ,  2-C ) :  -0.2725 B(  1-C ,  4-N ) :   1.6566 B(  1-C ,  5-N ) :   1.1397
B(  1-C ,  7-H ) :   0.5345 B(  2-C ,  3-C ) :   0.4926 B(  2-C ,  4-N ) :   0.5999
B(  2-C ,  5-N ) :  -0.1428 B(  3-C ,  8-H ) :   1.0089 B(  3-C ,  9-H ) :   1.0082
B(  3-C , 10-H ) :   1.0089 B(  5-N , 11-H ) :   1.1155

MP2 TOTAL ENERGY:     -265.025131838 Eh
FINAL SINGLE POINT ENERGY      -265.025131837678

DIPOLE MOMENT
-------------
                                X             Y             Z
Electronic contribution:     -0.61854      -4.01472       0.00000
Nuclear contribution   :      1.69393       3.17923       0.00000
                        -----------------------------------------
Total Dipole Moment    :      1.07539      -0.83549       0.00000
                        -----------------------------------------
Magnitude (a.u.)       :      1.36180
Magnitude (Debye)      :      3.46143

Rotational constants in cm-1:     0.301745     0.117222     0.085761
Rotational constants in MHz :  9046.098565  3514.238323  2571.060082

                             ****ORCA TERMINATED NORMALLY****
TOTAL RUN TIME: 0 days 0 hours 2 minutes 38 seconds 707 msec
