                         Program Version 5.0.3 -  RELEASE  -
|  1> !ri-mp2 aug-cc-pvtz aug-cc-pvtz/c tightscf
|  2> %pal nprocs 16 end
|  3>
|  4> * xyz 0 1
|  5> Cl   -2.933937   -0.850434   -0.000044
|  6> O    -0.346846   -0.549858   -0.000006
|  7> O     4.235353   -0.675671   -0.000125
|  8> N     3.080676   -0.335472   -0.000056
|  9> C     0.058308    1.657615    0.000110
| 10> C     0.637991    0.420462    0.000047
| 11> C    -1.349070    1.455584    0.000089
| 12> C    -1.524517    0.108140    0.000020
| 13> C     1.968174   -0.006252    0.000050
| 14> H     0.583129    2.596701    0.000164
| 15> H    -2.124310    2.199912    0.000120
| 16> *
| 17>
| 18>                          ****END OF INPUT****

CARTESIAN COORDINATES (ANGSTROEM)
---------------------------------
  Cl    -2.933937   -0.850434   -0.000044
  O     -0.346846   -0.549858   -0.000006
  O      4.235353   -0.675671   -0.000125
  N      3.080676   -0.335472   -0.000056
  C      0.058308    1.657615    0.000110
  C      0.637991    0.420462    0.000047
  C     -1.349070    1.455584    0.000089
  C     -1.524517    0.108140    0.000020
  C      1.968174   -0.006252    0.000050
  H      0.583129    2.596701    0.000164
  H     -2.124310    2.199912    0.000120

 Total Charge           Charge          ....    0
 Multiplicity           Mult            ....    1
 Number of Electrons    NEL             ....   72
 Basis Dimension        Dim             ....  464

ORBITAL ENERGIES
----------------

  NO   OCC          E(Eh)            E(eV)
   0   2.0000    -104.887236     -2854.1268
   1   2.0000     -20.675502      -562.6090
   2   2.0000     -20.582942      -560.0903
   3   2.0000     -15.753823      -428.6833
   4   2.0000     -11.392196      -309.9974
   5   2.0000     -11.358465      -309.0796
   6   2.0000     -11.322962      -308.1135
   7   2.0000     -11.290750      -307.2369
   8   2.0000     -11.274196      -306.7865
   9   2.0000     -10.610720      -288.7324
  10   2.0000      -8.077735      -219.8063
  11   2.0000      -8.075528      -219.7463
  12   2.0000      -8.075510      -219.7458
  13   2.0000      -1.514958       -41.2241
  14   2.0000      -1.506141       -40.9842
  15   2.0000      -1.233576       -33.5673
  16   2.0000      -1.189859       -32.3777
  17   2.0000      -1.140045       -31.0222
  18   2.0000      -1.048450       -28.5298
  19   2.0000      -0.886780       -24.1305
  20   2.0000      -0.838222       -22.8092
  21   2.0000      -0.799727       -21.7617
  22   2.0000      -0.734736       -19.9932
  23   2.0000      -0.704296       -19.1649
  24   2.0000      -0.679438       -18.4885
  25   2.0000      -0.675263       -18.3748
  26   2.0000      -0.674888       -18.3646
  27   2.0000      -0.630500       -17.1568
  28   2.0000      -0.616014       -16.7626
  29   2.0000      -0.598189       -16.2775
  30   2.0000      -0.531113       -14.4523
  31   2.0000      -0.500119       -13.6089
  32   2.0000      -0.462655       -12.5895
  33   2.0000      -0.424998       -11.5648
  34   2.0000      -0.404936       -11.0189
  35   2.0000      -0.331296        -9.0150
  36   0.0000       0.019895         0.5414
  37   0.0000       0.033195         0.9033
  38   0.0000       0.052163         1.4194
  39   0.0000       0.058605         1.5947
  40   0.0000       0.063696         1.7333

MULLIKEN ATOMIC CHARGES
-----------------------
   0 Cl:   -0.298898
   1 O :   -0.315638
   2 O :   -0.802844
   3 N :    0.353496
   4 C :   -0.997918
   5 C :    1.680765
   6 C :   -0.662067
   7 C :    0.448960
   8 C :   -0.417780
   9 H :    0.500146
  10 H :    0.511778
Sum of atomic charges:   -0.0000000

LOEWDIN ATOMIC CHARGES
----------------------
   0 Cl:    1.011746
   1 O :    0.517980
   2 O :    0.216942
   3 N :   -0.200995
   4 C :    0.191211
   5 C :   -0.428608
   6 C :    0.117445
   7 C :   -1.067940
   8 C :    0.007351
   9 H :   -0.169317
  10 H :   -0.195815

  Mayer bond orders larger than 0.100000
B(  0-Cl,  7-C ) :   0.6993 B(  1-O ,  5-C ) :   0.7256 B(  1-O ,  7-C ) :   1.0889
B(  2-O ,  3-N ) :   0.8806 B(  2-O ,  5-C ) :  -0.2182 B(  2-O ,  8-C ) :   0.5523
B(  3-N ,  5-C ) :  -0.2625 B(  3-N ,  8-C ) :   2.0943 B(  4-C ,  5-C ) :   1.0832
B(  4-C ,  6-C ) :   1.4026 B(  4-C ,  8-C ) :   0.1584 B(  4-C ,  9-H ) :   0.8614
B(  5-C ,  6-C ) :  -0.1184 B(  5-C ,  8-C ) :  -0.3028 B(  6-C ,  7-C ) :   1.3779
B(  6-C , 10-H ) :   0.8032

MP2 TOTAL ENERGY:     -855.850828033 Eh
FINAL SINGLE POINT ENERGY      -855.850828032671

DIPOLE MOMENT
-------------
                                X             Y             Z
Electronic contribution:     -4.32086      -4.39296      -0.00020
Nuclear contribution   :      2.57731       5.64517       0.00032
                        -----------------------------------------
Total Dipole Moment    :     -1.74355       1.25221       0.00012
                        -----------------------------------------
Magnitude (a.u.)       :      2.14663
Magnitude (Debye)      :      5.45630

Rotational constants in cm-1:     0.151270     0.020233     0.017846
Rotational constants in MHz :  4534.964825   606.578322   535.016682

                             ****ORCA TERMINATED NORMALLY****
TOTAL RUN TIME: 0 days 0 hours 4 minutes 18 seconds 611 msec
