                         Program Version 5.0.3 -  RELEASE  -
|  1> !ri-mp2 aug-cc-pvtz aug-cc-pvtz/c tightscf
|  2> %pal nprocs 16 end
|  3>
|  4> * xyz 0 1
|  5> Cl     0.000000    0.000000    2.639630
|  6> F      0.000000    0.000000   -3.046511
|  7> N      0.000000    1.187688   -1.149552
|  8> N      0.000000   -1.187688   -1.149552
|  9> C      0.000000    0.000000   -1.718678
| 10> C      0.000000    0.000000    0.901715
| 11> C      0.000000    1.186904    0.181469
| 12> C      0.000000   -1.186904    0.181469
| 13> H      0.000000    2.147124    0.681378
| 14> H      0.000000   -2.147124    0.681378
| 15> *
| 16>
| 17>                          ****END OF INPUT****

CARTESIAN COORDINATES (ANGSTROEM)
---------------------------------
  Cl     0.000000    0.000000    2.639630
  F      0.000000    0.000000   -3.046511
  N      0.000000    1.187688   -1.149552
  N      0.000000   -1.187688   -1.149552
  C      0.000000    0.000000   -1.718678
  C      0.000000    0.000000    0.901715
  C      0.000000    1.186904    0.181469
  C      0.000000   -1.186904    0.181469
  H      0.000000    2.147124    0.681378
  H      0.000000   -2.147124    0.681378

 Total Charge           Charge          ....    0
 Multiplicity           Mult            ....    1
 Number of Electrons    NEL             ....   66
 Basis Dimension        Dim             ....  418

ORBITAL ENERGIES
----------------

  NO   OCC          E(Eh)            E(eV)
   0   2.0000    -104.871720     -2853.7046
   1   2.0000     -26.336455      -716.6514
   2   2.0000     -15.605485      -424.6468
   3   2.0000     -15.605458      -424.6461
   4   2.0000     -11.422841      -310.8313
   5   2.0000     -11.336082      -308.4705
   6   2.0000     -11.335995      -308.4681
   7   2.0000     -11.327395      -308.2341
   8   2.0000     -10.595153      -288.3088
   9   2.0000      -8.062106      -219.3811
  10   2.0000      -8.060110      -219.3267
  11   2.0000      -8.060047      -219.3250
  12   2.0000      -1.664486       -45.2930
  13   2.0000      -1.354281       -36.8518
  14   2.0000      -1.242509       -33.8104
  15   2.0000      -1.188414       -32.3384
  16   2.0000      -1.056770       -28.7562
  17   2.0000      -0.951025       -25.8787
  18   2.0000      -0.906167       -24.6581
  19   2.0000      -0.801300       -21.8045
  20   2.0000      -0.780558       -21.2401
  21   2.0000      -0.729649       -19.8547
  22   2.0000      -0.684534       -18.6271
  23   2.0000      -0.671433       -18.2706
  24   2.0000      -0.632052       -17.1990
  25   2.0000      -0.621339       -16.9075
  26   2.0000      -0.608707       -16.5638
  27   2.0000      -0.527708       -14.3597
  28   2.0000      -0.520926       -14.1751
  29   2.0000      -0.496982       -13.5236
  30   2.0000      -0.461368       -12.5545
  31   2.0000      -0.444850       -12.1050
  32   2.0000      -0.380399       -10.3512
  33   0.0000       0.027726         0.7545
  34   0.0000       0.032897         0.8952
  35   0.0000       0.051892         1.4121
  36   0.0000       0.058019         1.5788
  37   0.0000       0.061342         1.6692

MULLIKEN ATOMIC CHARGES
-----------------------
   0 Cl:   -0.396265
   1 F :   -0.342117
   2 N :   -0.287306
   3 N :   -0.287306
   4 C :    0.031230
   5 C :    0.874054
   6 C :   -0.423341
   7 C :   -0.423341
   8 H :    0.627196
   9 H :    0.627196
Sum of atomic charges:    0.0000000

LOEWDIN ATOMIC CHARGES
----------------------
   0 Cl:    0.972395
   1 F :    0.509815
   2 N :    0.366052
   3 N :    0.366052
   4 C :   -0.912796
   5 C :   -0.778363
   6 C :   -0.070218
   7 C :   -0.070218
   8 H :   -0.191360
   9 H :   -0.191360

  Mayer bond orders larger than 0.100000
B(  0-Cl,  5-C ) :   0.6877 B(  1-F ,  4-C ) :   0.9795 B(  2-N ,  4-C ) :   1.3801
B(  2-N ,  6-C ) :   0.9071 B(  3-N ,  4-C ) :   1.3801 B(  3-N ,  7-C ) :   0.9071
B(  4-C ,  6-C ) :  -0.1452 B(  4-C ,  7-C ) :  -0.1452 B(  5-C ,  6-C ) :   0.8868
B(  5-C ,  7-C ) :   0.8868 B(  6-C ,  7-C ) :   0.3891 B(  6-C ,  8-H ) :   0.5660
B(  7-C ,  9-H ) :   0.5660

MP2 TOTAL ENERGY:     -822.079047506 Eh
FINAL SINGLE POINT ENERGY      -822.079047505597

DIPOLE MOMENT
-------------
                                X             Y             Z
Electronic contribution:      0.00000      -0.00000       0.47359
Nuclear contribution   :      0.00000       0.00000       0.54395
                        -----------------------------------------
Total Dipole Moment    :      0.00000      -0.00000       1.01754
                        -----------------------------------------
Magnitude (a.u.)       :      1.01754
Magnitude (Debye)      :      2.58638

Rotational constants in cm-1:     0.203961     0.033228     0.028573
Rotational constants in MHz :  6114.586941   996.140176   856.591121

                             ****ORCA TERMINATED NORMALLY****
TOTAL RUN TIME: 0 days 0 hours 3 minutes 16 seconds 108 msec
