                         Program Version 5.0.3 -  RELEASE  -
|  1> !ri-mp2 aug-cc-pvtz aug-cc-pvtz/c tightscf
|  2> %pal nprocs 16 end
|  3>
|  4> * xyz 0 1
|  5> S     -1.220858    0.001998    0.091689
|  6> O     -0.018734   -1.194169   -0.271412
|  7> N      1.276449   -0.701292    0.081978
|  8> C      0.008231    1.252585   -0.070218
|  9> C      1.225589    0.721438   -0.045189
| 10> H      1.431922   -0.961286    1.061342
| 11> H     -0.249835    2.295344   -0.144943
| 12> H      2.163454    1.252241   -0.093527
| 13> *
| 14>
| 15>                          ****END OF INPUT****

CARTESIAN COORDINATES (ANGSTROEM)
---------------------------------
  S     -1.220858    0.001998    0.091689
  O     -0.018734   -1.194169   -0.271412
  N      1.276449   -0.701292    0.081978
  C      0.008231    1.252585   -0.070218
  C      1.225589    0.721438   -0.045189
  H      1.431922   -0.961286    1.061342
  H     -0.249835    2.295344   -0.144943
  H      2.163454    1.252241   -0.093527

 Total Charge           Charge          ....    0
 Multiplicity           Mult            ....    1
 Number of Electrons    NEL             ....   46
 Basis Dimension        Dim             ....  303

ORBITAL ENERGIES
----------------

  NO   OCC          E(Eh)            E(eV)
   0   2.0000     -92.017907     -2503.9346
   1   2.0000     -20.623775      -561.2014
   2   2.0000     -15.638713      -425.5510
   3   2.0000     -11.287031      -307.1357
   4   2.0000     -11.277129      -306.8663
   5   2.0000      -9.012957      -245.2550
   6   2.0000      -6.693905      -182.1504
   7   2.0000      -6.692762      -182.1193
   8   2.0000      -6.691249      -182.0782
   9   2.0000      -1.428266       -38.8651
  10   2.0000      -1.153222       -31.3808
  11   2.0000      -1.080507       -29.4021
  12   2.0000      -0.889989       -24.2178
  13   2.0000      -0.802372       -21.8337
  14   2.0000      -0.726712       -19.7748
  15   2.0000      -0.681543       -18.5457
  16   2.0000      -0.610428       -16.6106
  17   2.0000      -0.576906       -15.6984
  18   2.0000      -0.535428       -14.5697
  19   2.0000      -0.516484       -14.0543
  20   2.0000      -0.465343       -12.6626
  21   2.0000      -0.427214       -11.6251
  22   2.0000      -0.316348        -8.6083
  23   0.0000       0.026260         0.7146
  24   0.0000       0.035033         0.9533
  25   0.0000       0.042728         1.1627
  26   0.0000       0.067801         1.8450
  27   0.0000       0.072009         1.9595

MULLIKEN ATOMIC CHARGES
-----------------------
   0 S :    0.156019
   1 O :   -0.586246
   2 N :   -0.020129
   3 C :   -0.394635
   4 C :   -0.338654
   5 H :    0.156110
   6 H :    0.466859
   7 H :    0.560677
Sum of atomic charges:    0.0000000

LOEWDIN ATOMIC CHARGES
----------------------
   0 S :    0.899300
   1 O :    0.021053
   2 N :    0.200259
   3 C :   -0.244451
   4 C :   -0.065047
   5 H :   -0.344428
   6 H :   -0.269971
   7 H :   -0.196716

  Mayer bond orders larger than 0.100000
B(  0-S ,  1-O ) :   0.8098 B(  0-S ,  3-C ) :   0.9974 B(  1-O ,  2-N ) :   0.7074
B(  2-N ,  4-C ) :   0.7576 B(  2-N ,  5-H ) :   0.9537 B(  3-C ,  4-C ) :   1.5954
B(  3-C ,  6-H ) :   0.8058 B(  4-C ,  7-H ) :   0.6546

MP2 TOTAL ENERGY:     -605.235772027 Eh
FINAL SINGLE POINT ENERGY      -605.235772027207

DIPOLE MOMENT
-------------
                                X             Y             Z
Electronic contribution:     -2.92592      -1.50455      -0.20569
Nuclear contribution   :      3.28690       2.48504       0.79132
                        -----------------------------------------
Total Dipole Moment    :      0.36098       0.98049       0.58564
                        -----------------------------------------
Magnitude (a.u.)       :      1.19776
Magnitude (Debye)      :      3.04447

Rotational constants in cm-1:     0.258192     0.171757     0.106707
Rotational constants in MHz :  7740.413509  5149.134641  3199.009830

                             ****ORCA TERMINATED NORMALLY****
TOTAL RUN TIME: 0 days 0 hours 1 minutes 23 seconds 763 msec
