                         Program Version 5.0.3 -  RELEASE  -
|  1> !ri-mp2 aug-cc-pvtz aug-cc-pvtz/c tightscf
|  2> %pal nprocs 16 end
|  3>
|  4> * xyz 0 1
|  5> S      0.063989   -1.268775   -0.106157
|  6> C     -0.855000    0.245265    0.022198
|  7> C     -0.124231    1.361916    0.026050
|  8> C      1.350842    1.127767   -0.161767
|  9> C      1.614187   -0.331940    0.244577
| 10> O     -2.200117    0.086742    0.072454
| 11> H     -0.557765    2.351675    0.076223
| 12> H      1.963154    1.798749    0.443646
| 13> H      1.811188   -0.410907    1.312550
| 14> H      1.639155    1.290531   -1.207061
| 15> H      2.432239   -0.791140   -0.303764
| 16> H     -2.625644    0.949515    0.010935
| 17> *
| 18>
| 19>                          ****END OF INPUT****

CARTESIAN COORDINATES (ANGSTROEM)
---------------------------------
  S      0.063989   -1.268775   -0.106157
  C     -0.855000    0.245265    0.022198
  C     -0.124231    1.361916    0.026050
  C      1.350842    1.127767   -0.161767
  C      1.614187   -0.331940    0.244577
  O     -2.200117    0.086742    0.072454
  H     -0.557765    2.351675    0.076223
  H      1.963154    1.798749    0.443646
  H      1.811188   -0.410907    1.312550
  H      1.639155    1.290531   -1.207061
  H      2.432239   -0.791140   -0.303764
  H     -2.625644    0.949515    0.010935

 Total Charge           Charge          ....    0
 Multiplicity           Mult            ....    1
 Number of Electrons    NEL             ....   54
 Basis Dimension        Dim             ....  418

ORBITAL ENERGIES
----------------

  NO   OCC          E(Eh)            E(eV)
   0   2.0000     -91.958050     -2502.3057
   1   2.0000     -20.603328      -560.6451
   2   2.0000     -11.326036      -308.1971
   3   2.0000     -11.264293      -306.5170
   4   2.0000     -11.241806      -305.9051
   5   2.0000     -11.219756      -305.3051
   6   2.0000      -8.958398      -243.7704
   7   2.0000      -6.639517      -180.6704
   8   2.0000      -6.638715      -180.6486
   9   2.0000      -6.637645      -180.6195
  10   2.0000      -1.418225       -38.5919
  11   2.0000      -1.133841       -30.8534
  12   2.0000      -0.981516       -26.7084
  13   2.0000      -0.972365       -26.4594
  14   2.0000      -0.815905       -22.2019
  15   2.0000      -0.786749       -21.4085
  16   2.0000      -0.685040       -18.6409
  17   2.0000      -0.653101       -17.7718
  18   2.0000      -0.629357       -17.1257
  19   2.0000      -0.593852       -16.1595
  20   2.0000      -0.563360       -15.3298
  21   2.0000      -0.531590       -14.4653
  22   2.0000      -0.509732       -13.8705
  23   2.0000      -0.496531       -13.5113
  24   2.0000      -0.449034       -12.2188
  25   2.0000      -0.400783       -10.9059
  26   2.0000      -0.303872        -8.2688
  27   0.0000       0.026115         0.7106
  28   0.0000       0.033298         0.9061
  29   0.0000       0.042124         1.1463
  30   0.0000       0.042753         1.1634
  31   0.0000       0.056977         1.5504

MULLIKEN ATOMIC CHARGES
-----------------------
   0 S :   -0.310226
   1 C :    0.688704
   2 C :   -0.750144
   3 C :   -0.279121
   4 C :   -0.400962
   5 O :   -0.550356
   6 H :    0.336176
   7 H :    0.302766
   8 H :    0.240186
   9 H :    0.255485
  10 H :    0.286182
  11 H :    0.181311
Sum of atomic charges:   -0.0000000

LOEWDIN ATOMIC CHARGES
----------------------
   0 S :    1.195140
   1 C :   -0.781068
   2 C :    0.125251
   3 C :    0.171114
   4 C :   -0.030128
   5 O :    0.765267
   6 H :   -0.200391
   7 H :   -0.161818
   8 H :   -0.220668
   9 H :   -0.160027
  10 H :   -0.223418
  11 H :   -0.479252

  Mayer bond orders larger than 0.100000
B(  0-S ,  1-C ) :   0.8566 B(  0-S ,  2-C ) :   0.1152 B(  0-S ,  4-C ) :   0.9506
B(  1-C ,  2-C ) :   1.5061 B(  1-C ,  5-O ) :   0.8308 B(  2-C ,  3-C ) :   0.8870
B(  2-C ,  6-H ) :   0.9572 B(  3-C ,  4-C ) :   1.0013 B(  3-C ,  7-H ) :   0.9073
B(  3-C ,  9-H ) :   0.9152 B(  4-C ,  8-H ) :   0.9434 B(  4-C , 10-H ) :   0.9351
B(  5-O , 11-H ) :   1.0025

MP2 TOTAL ENERGY:     -628.520682689 Eh
FINAL SINGLE POINT ENERGY      -628.520682688813

DIPOLE MOMENT
-------------
                                X             Y             Z
Electronic contribution:     -4.21026      -4.18646      -0.29874
Nuclear contribution   :      4.59238       5.19131       0.33452
                        -----------------------------------------
Total Dipole Moment    :      0.38212       1.00485       0.03578
                        -----------------------------------------
Magnitude (a.u.)       :      1.07565
Magnitude (Debye)      :      2.73409

Rotational constants in cm-1:     0.155689     0.100544     0.063381
Rotational constants in MHz :  4667.448691  3014.232940  1900.121949

                             ****ORCA TERMINATED NORMALLY****
TOTAL RUN TIME: 0 days 0 hours 2 minutes 48 seconds 814 msec
