                         Program Version 5.0.3 -  RELEASE  -
|  1> !ri-mp2 aug-cc-pvtz aug-cc-pvtz/c tightscf
|  2> %pal nprocs 16 end
|  3>
|  4> * xyz 0 1
|  5> O      0.546539   -0.953762        0.000000
|  6> O     -3.228086   -0.349170        0.000000
|  7> N     -1.101796    0.691502        0.000000
|  8> N      1.947764   -1.059792        0.000000
|  9> C      0.218242    0.351741        0.000000
| 10> C      1.335896    1.124727        0.000000
| 11> C      2.382875    0.171585        0.000000
| 12> C     -2.155264    0.095523        0.000000
| 13> H      1.392435    2.196850        0.000000
| 14> H      3.447671    0.343180        0.000001
| 15> *
| 16>
| 17>                          ****END OF INPUT****

CARTESIAN COORDINATES (ANGSTROEM)
---------------------------------
  O      0.546539   -0.953762    0.000000
  O     -3.228086   -0.349170    0.000000
  N     -1.101796    0.691502    0.000000
  N      1.947764   -1.059792    0.000000
  C      0.218242    0.351741    0.000000
  C      1.335896    1.124727    0.000000
  C      2.382875    0.171585    0.000000
  C     -2.155264    0.095523    0.000000
  H      1.392435    2.196850    0.000000
  H      3.447671    0.343180    0.000001

 Total Charge           Charge          ....    0
 Multiplicity           Mult            ....    1
 Number of Electrons    NEL             ....   56
 Basis Dimension        Dim             ....  414

ORBITAL ENERGIES
----------------

  NO   OCC          E(Eh)            E(eV)
   0   2.0000     -20.661938      -562.2399
   1   2.0000     -20.650570      -561.9306
   2   2.0000     -15.635716      -425.4695
   3   2.0000     -15.631400      -425.3520
   4   2.0000     -11.446363      -311.4714
   5   2.0000     -11.388515      -309.8973
   6   2.0000     -11.297316      -307.4156
   7   2.0000     -11.252949      -306.2083
   8   2.0000      -1.514288       -41.2059
   9   2.0000      -1.502958       -40.8976
  10   2.0000      -1.324504       -36.0416
  11   2.0000      -1.181049       -32.1380
  12   2.0000      -1.095145       -29.8004
  13   2.0000      -0.921353       -25.0713
  14   2.0000      -0.849595       -23.1187
  15   2.0000      -0.793142       -21.5825
  16   2.0000      -0.761435       -20.7197
  17   2.0000      -0.704496       -19.1703
  18   2.0000      -0.681813       -18.5531
  19   2.0000      -0.666291       -18.1307
  20   2.0000      -0.661291       -17.9946
  21   2.0000      -0.620953       -16.8970
  22   2.0000      -0.585741       -15.9388
  23   2.0000      -0.527342       -14.3497
  24   2.0000      -0.517950       -14.0941
  25   2.0000      -0.477187       -12.9849
  26   2.0000      -0.447198       -12.1689
  27   2.0000      -0.359552        -9.7839
  28   0.0000       0.022266         0.6059
  29   0.0000       0.036068         0.9814
  30   0.0000       0.047647         1.2965
  31   0.0000       0.064389         1.7521
  32   0.0000       0.073094         1.9890

MULLIKEN ATOMIC CHARGES
-----------------------
   0 O :   -0.240891
   1 O :   -0.398110
   2 N :    0.171799
   3 N :   -0.468698
   4 C :    0.564668
   5 C :   -0.401087
   6 C :   -0.260308
   7 C :   -0.156686
   8 H :    0.498284
   9 H :    0.691030
Sum of atomic charges:    0.0000000

LOEWDIN ATOMIC CHARGES
----------------------
   0 O :    0.421232
   1 O :    0.415448
   2 N :    0.305375
   3 N :    0.162969
   4 C :   -0.637902
   5 C :    0.195648
   6 C :   -0.055893
   7 C :   -0.422089
   8 H :   -0.195057
   9 H :   -0.189730

  Mayer bond orders larger than 0.100000
B(  0-O ,  3-N ) :   0.6642 B(  0-O ,  4-C ) :   1.1199 B(  0-O ,  5-C ) :  -0.1458
B(  1-O ,  2-N ) :  -0.2290 B(  1-O ,  7-C ) :   2.0406 B(  2-N ,  4-C ) :   0.5654
B(  2-N ,  7-C ) :   1.8001 B(  3-N ,  6-C ) :   1.3029 B(  4-C ,  5-C ) :   1.1657
B(  4-C ,  7-C ) :  -0.2589 B(  5-C ,  6-C ) :   0.9463 B(  5-C ,  8-H ) :   0.8256
B(  6-C ,  9-H ) :   0.4889

MP2 TOTAL ENERGY:     -412.831932998 Eh
FINAL SINGLE POINT ENERGY      -412.831932997793

DIPOLE MOMENT
-------------
                                X             Y             Z
Electronic contribution:     -4.14058      -1.24476      -0.00000
Nuclear contribution   :      4.58900       2.40527       0.00000
                        -----------------------------------------
Total Dipole Moment    :      0.44842       1.16051       0.00000
                        -----------------------------------------
Magnitude (a.u.)       :      1.24413
Magnitude (Debye)      :      3.16233

Rotational constants in cm-1:     0.276585     0.041995     0.036459
Rotational constants in MHz :  8291.801476  1258.966685  1093.011750

                             ****ORCA TERMINATED NORMALLY****
TOTAL RUN TIME: 0 days 0 hours 2 minutes 32 seconds 194 msec
