                         Program Version 5.0.3 -  RELEASE  -
|  1> !ri-mp2 aug-cc-pvtz aug-cc-pvtz/c tightscf
|  2> %pal nprocs 16 end
|  3>
|  4> * xyz 0 1
|  5> N     -1.139760   -0.058016    0.000000
|  6> C      0.000000    0.597494    0.000000
|  7> C      0.176443    2.072182    0.000000
|  8> H      0.723233    2.405707    0.882916
|  9> H      0.723233    2.405707   -0.882916
| 10> H     -0.803151    2.542233    0.000000
| 11> N      0.988808   -0.317104    0.000000
| 12> N      0.447343   -1.553756    0.000000
| 13> N     -0.823573   -1.381071    0.000000
| 14> H      1.988304   -0.202077    0.000000
| 15> *
| 16>
| 17>                          ****END OF INPUT****

CARTESIAN COORDINATES (ANGSTROEM)
---------------------------------
  N     -1.139760   -0.058016    0.000000
  C      0.000000    0.597494    0.000000
  C      0.176443    2.072182    0.000000
  H      0.723233    2.405707    0.882916
  H      0.723233    2.405707   -0.882916
  H     -0.803151    2.542233    0.000000
  N      0.988808   -0.317104    0.000000
  N      0.447343   -1.553756    0.000000
  N     -0.823573   -1.381071    0.000000
  H      1.988304   -0.202077    0.000000

 Total Charge           Charge          ....    0
 Multiplicity           Mult            ....    1
 Number of Electrons    NEL             ....   44
 Basis Dimension        Dim             ....  368

ORBITAL ENERGIES
----------------

  NO   OCC          E(Eh)            E(eV)
   0   2.0000     -15.670005      -426.4025
   1   2.0000     -15.655885      -426.0183
   2   2.0000     -15.641389      -425.6238
   3   2.0000     -15.592122      -424.2832
   4   2.0000     -11.336493      -308.4816
   5   2.0000     -11.266390      -306.5740
   6   2.0000      -1.486800       -40.4579
   7   2.0000      -1.246321       -33.9141
   8   2.0000      -1.199530       -32.6409
   9   2.0000      -1.021882       -27.8068
  10   2.0000      -0.895518       -24.3683
  11   2.0000      -0.862471       -23.4690
  12   2.0000      -0.761832       -20.7305
  13   2.0000      -0.680535       -18.5183
  14   2.0000      -0.636206       -17.3121
  15   2.0000      -0.601177       -16.3589
  16   2.0000      -0.598060       -16.2740
  17   2.0000      -0.555827       -15.1248
  18   2.0000      -0.468369       -12.7450
  19   2.0000      -0.463795       -12.6205
  20   2.0000      -0.449630       -12.2350
  21   2.0000      -0.403301       -10.9744
  22   0.0000       0.016153         0.4395
  23   0.0000       0.033460         0.9105
  24   0.0000       0.036715         0.9991
  25   0.0000       0.051617         1.4046
  26   0.0000       0.074116         2.0168

MULLIKEN ATOMIC CHARGES
-----------------------
   0 N :   -0.272676
   1 C :    0.124213
   2 C :   -0.589872
   3 H :    0.298552
   4 H :    0.298552
   5 H :    0.318137
   6 N :    0.263479
   7 N :   -0.350331
   8 N :   -0.222352
   9 H :    0.132298
Sum of atomic charges:    0.0000000

LOEWDIN ATOMIC CHARGES
----------------------
   0 N :    0.195820
   1 C :   -0.462390
   2 C :    0.602915
   3 H :   -0.169307
   4 H :   -0.169307
   5 H :   -0.175541
   6 N :    0.344557
   7 N :    0.102646
   8 N :   -0.015034
   9 H :   -0.254359

  Mayer bond orders larger than 0.100000
B(  0-N ,  1-C ) :   1.2337 B(  0-N ,  6-N ) :  -0.1201 B(  0-N ,  7-N ) :   0.1441
B(  0-N ,  8-N ) :   0.6233 B(  1-C ,  2-C ) :   0.6416 B(  1-C ,  6-N ) :   1.0577
B(  2-C ,  3-H ) :   0.9392 B(  2-C ,  4-H ) :   0.9392 B(  2-C ,  5-H ) :   0.9195
B(  6-N ,  7-N ) :   0.7177 B(  6-N ,  8-N ) :   0.1100 B(  6-N ,  9-H ) :   1.0763
B(  7-N ,  8-N ) :   1.1295

MP2 TOTAL ENERGY:     -297.059827714 Eh
FINAL SINGLE POINT ENERGY      -297.059827714485

DIPOLE MOMENT
-------------
                                X             Y             Z
Electronic contribution:     -0.90978      -5.34491       0.00000
Nuclear contribution   :      2.58330       7.00942       0.00000
                        -----------------------------------------
Total Dipole Moment    :      1.67352       1.66451       0.00000
                        -----------------------------------------
Magnitude (a.u.)       :      2.36035
Magnitude (Debye)      :      5.99954

Rotational constants in cm-1:     0.330446     0.122351     0.090802
Rotational constants in MHz :  9906.535513  3667.999992  2722.182523

                             ****ORCA TERMINATED NORMALLY****
TOTAL RUN TIME: 0 days 0 hours 1 minutes 50 seconds 689 msec
