                         Program Version 5.0.3 -  RELEASE  -
|  1> !ri-mp2 aug-cc-pvtz aug-cc-pvtz/c tightscf
|  2> %pal nprocs 16 end
|  3>
|  4> * xyz 0 1
|  5> Cl    -1.769018   -1.402538    0.178117
|  6> Cl    -1.547273    1.487912   -0.423243
|  7> O      1.460798    0.667411    0.845353
|  8> N      2.756231    0.418539    0.391564
|  9> C      0.598785   -0.083649    0.134479
| 10> C     -0.831962    0.092960    0.483695
| 11> C      1.270958   -0.829507   -0.776098
| 12> C      2.623928   -0.463831   -0.561859
| 13> H     -0.948218    0.336127    1.532441
| 14> H      0.868419   -1.532812   -1.480568
| 15> H      3.506494   -0.819577   -1.069811
| 16> *
| 17>
| 18>                          ****END OF INPUT****

CARTESIAN COORDINATES (ANGSTROEM)
---------------------------------
  Cl    -1.769018   -1.402538    0.178117
  Cl    -1.547273    1.487912   -0.423243
  O      1.460798    0.667411    0.845353
  N      2.756231    0.418539    0.391564
  C      0.598785   -0.083649    0.134479
  C     -0.831962    0.092960    0.483695
  C      1.270958   -0.829507   -0.776098
  C      2.623928   -0.463831   -0.561859
  H     -0.948218    0.336127    1.532441
  H      0.868419   -1.532812   -1.480568
  H      3.506494   -0.819577   -1.069811

 Total Charge           Charge          ....    0
 Multiplicity           Mult            ....    1
 Number of Electrons    NEL             ....   76
 Basis Dimension        Dim             ....  445

ORBITAL ENERGIES
----------------

  NO   OCC          E(Eh)            E(eV)
   0   2.0000    -104.866739     -2853.5690
   1   2.0000    -104.860920     -2853.4107
   2   2.0000     -20.666039      -562.3515
   3   2.0000     -15.642785      -425.6618
   4   2.0000     -11.399506      -310.1963
   5   2.0000     -11.346190      -308.7455
   6   2.0000     -11.297742      -307.4272
   7   2.0000     -11.260624      -306.4172
   8   2.0000     -10.590607      -288.1851
   9   2.0000     -10.584574      -288.0209
  10   2.0000      -8.057399      -219.2530
  11   2.0000      -8.055388      -219.1983
  12   2.0000      -8.055345      -219.1971
  13   2.0000      -8.051311      -219.0873
  14   2.0000      -8.049301      -219.0326
  15   2.0000      -8.049246      -219.0311
  16   2.0000      -1.515059       -41.2269
  17   2.0000      -1.219208       -33.1763
  18   2.0000      -1.182084       -32.1662
  19   2.0000      -1.106404       -30.1068
  20   2.0000      -1.092990       -29.7418
  21   2.0000      -0.944162       -25.6920
  22   2.0000      -0.846270       -23.0282
  23   2.0000      -0.812593       -22.1118
  24   2.0000      -0.746497       -20.3132
  25   2.0000      -0.684920       -18.6376
  26   2.0000      -0.658341       -17.9144
  27   2.0000      -0.620969       -16.8974
  28   2.0000      -0.614771       -16.7288
  29   2.0000      -0.593035       -16.1373
  30   2.0000      -0.586622       -15.9628
  31   2.0000      -0.506007       -13.7691
  32   2.0000      -0.488010       -13.2794
  33   2.0000      -0.482904       -13.1405
  34   2.0000      -0.465236       -12.6597
  35   2.0000      -0.458611       -12.4794
  36   2.0000      -0.445271       -12.1164
  37   2.0000      -0.381429       -10.3792
  38   0.0000       0.026658         0.7254
  39   0.0000       0.034835         0.9479
  40   0.0000       0.040424         1.1000
  41   0.0000       0.063888         1.7385
  42   0.0000       0.069714         1.8970

MULLIKEN ATOMIC CHARGES
-----------------------
   0 Cl:   -0.307127
   1 Cl:   -0.283400
   2 O :   -0.399918
   3 N :   -0.470864
   4 C :    0.497048
   5 C :    0.385477
   6 C :   -0.553033
   7 C :   -0.317463
   8 H :    0.285803
   9 H :    0.492524
  10 H :    0.670952
Sum of atomic charges:   -0.0000000

LOEWDIN ATOMIC CHARGES
----------------------
   0 Cl:    0.901498
   1 Cl:    0.865590
   2 O :    0.414572
   3 N :    0.171613
   4 C :   -0.614862
   5 C :   -1.149217
   6 C :    0.167867
   7 C :   -0.039330
   8 H :   -0.329453
   9 H :   -0.198704
  10 H :   -0.189575

  Mayer bond orders larger than 0.100000
B(  0-Cl,  5-C ) :   0.8275 B(  1-Cl,  5-C ) :   0.8251 B(  2-O ,  3-N ) :   0.7428
B(  2-O ,  4-C ) :   0.9987 B(  2-O ,  6-C ) :  -0.1316 B(  2-O ,  7-C ) :   0.1062
B(  3-N ,  7-C ) :   1.2040 B(  4-C ,  5-C ) :   0.9564 B(  4-C ,  6-C ) :   1.2865
B(  5-C ,  8-H ) :   0.9289 B(  6-C ,  7-C ) :   0.9125 B(  6-C ,  9-H ) :   0.8740
B(  7-C , 10-H ) :   0.5047

MP2 TOTAL ENERGY:    -1203.066471954 Eh
FINAL SINGLE POINT ENERGY     -1203.066471953844

DIPOLE MOMENT
-------------
                                X             Y             Z
Electronic contribution:     -7.75429       1.21293       0.19753
Nuclear contribution   :      7.71085      -1.99611      -0.61198
                        -----------------------------------------
Total Dipole Moment    :     -0.04343      -0.78318      -0.41445
                        -----------------------------------------
Magnitude (a.u.)       :      0.88715
Magnitude (Debye)      :      2.25495

Rotational constants in cm-1:     0.079285     0.033353     0.026464
Rotational constants in MHz :  2376.909270   999.883461   793.382868

                             ****ORCA TERMINATED NORMALLY****
TOTAL RUN TIME: 0 days 0 hours 3 minutes 34 seconds 810 msec
