                         Program Version 5.0.3 -  RELEASE  -
|  1> !ri-mp2 aug-cc-pvtz aug-cc-pvtz/c tightscf
|  2> %pal nprocs 16 end
|  3>
|  4> * xyz 0 1
|  5> S     1.303707    1.137937   -0.000005
|  6> F     2.339801   -1.305984    0.000004
|  7> N    -3.545099   -0.372952    0.000002
|  8> C    -0.996543   -0.005333    0.000000
|  9> C    -0.047454   -1.079338    0.000004
| 10> C    -0.415563    1.234811   -0.000005
| 11> C     1.215353   -0.596779    0.000002
| 12> C    -2.404958   -0.204569    0.000001
| 13> H    -0.299796   -2.127042    0.000008
| 14> H    -0.907038    2.191826   -0.000008
| 15> *
| 16>
| 17>                          ****END OF INPUT****

CARTESIAN COORDINATES (ANGSTROEM)
---------------------------------
  S      1.303707    1.137937   -0.000005
  F      2.339801   -1.305984    0.000004
  N     -3.545099   -0.372952    0.000002
  C     -0.996543   -0.005333    0.000000
  C     -0.047454   -1.079338    0.000004
  C     -0.415563    1.234811   -0.000005
  C      1.215353   -0.596779    0.000002
  C     -2.404958   -0.204569    0.000001
  H     -0.299796   -2.127042    0.000008
  H     -0.907038    2.191826   -0.000008

 Total Charge           Charge          ....    0
 Multiplicity           Mult            ....    1
 Number of Electrons    NEL             ....   64
 Basis Dimension        Dim             ....  418

ORBITAL ENERGIES
----------------

  NO   OCC          E(Eh)            E(eV)
   0   2.0000     -92.033070     -2504.3472
   1   2.0000     -26.356108      -717.1862
   2   2.0000     -15.584589      -424.0782
   3   2.0000     -11.386364      -309.8387
   4   2.0000     -11.313863      -307.8659
   5   2.0000     -11.308533      -307.7208
   6   2.0000     -11.288717      -307.1816
   7   2.0000     -11.277567      -306.8782
   8   2.0000      -9.033087      -245.8028
   9   2.0000      -6.713964      -182.6963
  10   2.0000      -6.713497      -182.6835
  11   2.0000      -6.712590      -182.6589
  12   2.0000      -1.674214       -45.5577
  13   2.0000      -1.242367       -33.8065
  14   2.0000      -1.213336       -33.0165
  15   2.0000      -1.051145       -28.6031
  16   2.0000      -1.037018       -28.2187
  17   2.0000      -0.864539       -23.5253
  18   2.0000      -0.845030       -22.9944
  19   2.0000      -0.772035       -21.0082
  20   2.0000      -0.738640       -20.0994
  21   2.0000      -0.729866       -19.8607
  22   2.0000      -0.691928       -18.8283
  23   2.0000      -0.619330       -16.8528
  24   2.0000      -0.586733       -15.9658
  25   2.0000      -0.578117       -15.7314
  26   2.0000      -0.562819       -15.3151
  27   2.0000      -0.528406       -14.3787
  28   2.0000      -0.499098       -13.5811
  29   2.0000      -0.479105       -13.0371
  30   2.0000      -0.388906       -10.5827
  31   2.0000      -0.359693        -9.7877
  32   0.0000       0.026227         0.7137
  33   0.0000       0.032753         0.8913
  34   0.0000       0.051505         1.4015
  35   0.0000       0.059449         1.6177
  36   0.0000       0.066776         1.8171

MULLIKEN ATOMIC CHARGES
-----------------------
   0 S :   -0.064718
   1 F :   -0.379141
   2 N :   -0.744909
   3 C :    1.379475
   4 C :   -1.085541
   5 C :   -0.799275
   6 C :    0.726487
   7 C :    0.151521
   8 H :    0.376686
   9 H :    0.439416
Sum of atomic charges:    0.0000000

LOEWDIN ATOMIC CHARGES
----------------------
   0 S :    1.275751
   1 F :    0.454776
   2 N :    0.268463
   3 C :   -0.347880
   4 C :    0.089607
   5 C :   -0.178495
   6 C :   -0.892303
   7 C :   -0.246124
   8 H :   -0.180668
   9 H :   -0.243125

  Mayer bond orders larger than 0.100000
B(  0-S ,  3-C ) :  -0.2182 B(  0-S ,  4-C ) :   0.1856 B(  0-S ,  5-C ) :   1.3428
B(  0-S ,  6-C ) :   1.0834 B(  1-F ,  4-C ) :   0.1414 B(  1-F ,  6-C ) :   0.6067
B(  2-N ,  3-C ) :  -0.1378 B(  2-N ,  7-C ) :   2.0402 B(  3-C ,  4-C ) :   0.7801
B(  3-C ,  5-C ) :   0.9745 B(  3-C ,  6-C ) :  -0.2034 B(  3-C ,  7-C ) :   0.6766
B(  4-C ,  6-C ) :   1.5181 B(  4-C ,  7-C ) :   0.1590 B(  4-C ,  8-H ) :   0.9377
B(  5-C ,  9-H ) :   0.8441

MP2 TOTAL ENERGY:     -743.420890211 Eh
FINAL SINGLE POINT ENERGY      -743.420890211238

DIPOLE MOMENT
-------------
                                X             Y             Z
Electronic contribution:      4.52998      -0.71621       0.00000
Nuclear contribution   :     -3.38331       1.24536      -0.00000
                        -----------------------------------------
Total Dipole Moment    :      1.14667       0.52915      -0.00000
                        -----------------------------------------
Magnitude (a.u.)       :      1.26288
Magnitude (Debye)      :      3.20999

Rotational constants in cm-1:     0.137800     0.038611     0.030160
Rotational constants in MHz :  4131.137092  1157.525771   904.178952

                             ****ORCA TERMINATED NORMALLY****
TOTAL RUN TIME: 0 days 0 hours 2 minutes 59 seconds 331 msec
