                         Program Version 5.0.3 -  RELEASE  -
|  1> !ri-mp2 aug-cc-pvtz aug-cc-pvtz/c tightscf
|  2> %pal nprocs 16 end
|  3>
|  4> * xyz 0 1
|  5> Cl   -2.472282   -0.267612   -0.000030
|  6> S     0.639929   -1.110653    0.000024
|  7> N     1.179481    1.352505   -0.000015
|  8> N     2.252013   -0.695943   -0.000013
|  9> C     0.152322    0.548818    0.000016
| 10> C     2.324073    0.610198   -0.000029
| 11> C    -1.251803    1.057260    0.000047
| 12> H     3.286720    1.101720   -0.000055
| 13> H    -1.432399    1.662317   -0.884472
| 14> H    -1.432404    1.662208    0.884642
| 15> *
| 16>
| 17>                          ****END OF INPUT****

CARTESIAN COORDINATES (ANGSTROEM)
---------------------------------
  Cl    -2.472282   -0.267612   -0.000030
  S      0.639929   -1.110653    0.000024
  N      1.179481    1.352505   -0.000015
  N      2.252013   -0.695943   -0.000013
  C      0.152322    0.548818    0.000016
  C      2.324073    0.610198   -0.000029
  C     -1.251803    1.057260    0.000047
  H      3.286720    1.101720   -0.000055
  H     -1.432399    1.662317   -0.884472
  H     -1.432404    1.662208    0.884642

 Total Charge           Charge          ....    0
 Multiplicity           Mult            ....    1
 Number of Electrons    NEL             ....   68
 Basis Dimension        Dim             ....  399

ORBITAL ENERGIES
----------------

  NO   OCC          E(Eh)            E(eV)
   0   2.0000    -104.854107     -2853.2253
   1   2.0000     -92.031460     -2504.3033
   2   2.0000     -15.600559      -424.5128
   3   2.0000     -15.589503      -424.2119
   4   2.0000     -11.349889      -308.8462
   5   2.0000     -11.334957      -308.4399
   6   2.0000     -11.322985      -308.1141
   7   2.0000     -10.578055      -287.8435
   8   2.0000      -9.029026      -245.6923
   9   2.0000      -8.044875      -218.9122
  10   2.0000      -8.043037      -218.8622
  11   2.0000      -8.042961      -218.8601
  12   2.0000      -6.709719      -182.5807
  13   2.0000      -6.708823      -182.5564
  14   2.0000      -6.708182      -182.5389
  15   2.0000      -1.349065       -36.7099
  16   2.0000      -1.197108       -32.5750
  17   2.0000      -1.159664       -31.5560
  18   2.0000      -1.048664       -28.5356
  19   2.0000      -0.962266       -26.1846
  20   2.0000      -0.829384       -22.5687
  21   2.0000      -0.786019       -21.3887
  22   2.0000      -0.697193       -18.9716
  23   2.0000      -0.672173       -18.2907
  24   2.0000      -0.635707       -17.2985
  25   2.0000      -0.593072       -16.1383
  26   2.0000      -0.568688       -15.4748
  27   2.0000      -0.544714       -14.8224
  28   2.0000      -0.482591       -13.1320
  29   2.0000      -0.470295       -12.7974
  30   2.0000      -0.467100       -12.7104
  31   2.0000      -0.448947       -12.2165
  32   2.0000      -0.422937       -11.5087
  33   2.0000      -0.382531       -10.4092
  34   0.0000       0.028467         0.7746
  35   0.0000       0.035815         0.9746
  36   0.0000       0.040556         1.1036
  37   0.0000       0.057473         1.5639
  38   0.0000       0.072547         1.9741

MULLIKEN ATOMIC CHARGES
-----------------------
   0 Cl:   -0.319502
   1 S :    0.205344
   2 N :   -0.480302
   3 N :   -0.530846
   4 C :    0.344817
   5 C :   -0.343247
   6 C :   -0.072011
   7 H :    0.613200
   8 H :    0.291274
   9 H :    0.291272
Sum of atomic charges:    0.0000000

LOEWDIN ATOMIC CHARGES
----------------------
   0 Cl:    0.886648
   1 S :    1.082730
   2 N :    0.285233
   3 N :   -0.077636
   4 C :   -0.792324
   5 C :   -0.355709
   6 C :   -0.330464
   7 H :   -0.211858
   8 H :   -0.243311
   9 H :   -0.243309

  Mayer bond orders larger than 0.100000
B(  0-Cl,  6-C ) :   0.7425 B(  1-S ,  3-N ) :   0.9260 B(  1-S ,  4-C ) :   1.1775
B(  1-S ,  5-C ) :   0.1145 B(  2-N ,  4-C ) :   1.1355 B(  2-N ,  5-C ) :   1.1914
B(  3-N ,  5-C ) :   1.3464 B(  4-C ,  5-C ) :  -0.2447 B(  4-C ,  6-C ) :   0.6384
B(  5-C ,  7-H ) :   0.6156 B(  6-C ,  8-H ) :   0.9339 B(  6-C ,  9-H ) :   0.9339

MP2 TOTAL ENERGY:    -1082.639020132 Eh
FINAL SINGLE POINT ENERGY     -1082.639020132042

DIPOLE MOMENT
-------------
                                X             Y             Z
Electronic contribution:     -4.08488      -3.95280      -0.00010
Nuclear contribution   :      3.75704       4.59962       0.00015
                        -----------------------------------------
Total Dipole Moment    :     -0.32784       0.64682       0.00005
                        -----------------------------------------
Magnitude (a.u.)       :      0.72516
Magnitude (Debye)      :      1.84320

Rotational constants in cm-1:     0.161787     0.040059     0.032303
Rotational constants in MHz :  4850.255128  1200.934192   968.412916

                             ****ORCA TERMINATED NORMALLY****
TOTAL RUN TIME: 0 days 0 hours 2 minutes 54 seconds 71 msec
