                         Program Version 5.0.3 -  RELEASE  -
|  1> !ri-mp2 aug-cc-pvtz aug-cc-pvtz/c tightscf
|  2> %pal nprocs 16 end
|  3>
|  4> * xyz 0 1
|  5> C      1.977238   -0.001331    0.000000
|  6> C      0.770993    0.001118    0.000000
|  7> C      3.336251   -0.004812    0.000000
|  8> C     -0.659885    0.001640    0.000000
|  9> C      4.540805   -0.008521    0.000000
| 10> H      5.602698   -0.011921    0.000000
| 11> Cl    -1.282257   -0.846315    1.468789
| 12> Cl    -1.282257   -0.846315   -1.468789
| 13> Cl    -1.282257    1.697533    0.000000
| 14> *
| 15>
| 16>                          ****END OF INPUT****

CARTESIAN COORDINATES (ANGSTROEM)
---------------------------------
  C      1.977238   -0.001331    0.000000
  C      0.770993    0.001118    0.000000
  C      3.336251   -0.004812    0.000000
  C     -0.659885    0.001640    0.000000
  C      4.540805   -0.008521    0.000000
  H      5.602698   -0.011921    0.000000
  Cl    -1.282257   -0.846315    1.468789
  Cl    -1.282257   -0.846315   -1.468789
  Cl    -1.282257    1.697533    0.000000

 Total Charge           Charge          ....    0
 Multiplicity           Mult            ....    1
 Number of Electrons    NEL             ....   82
 Basis Dimension        Dim             ....  403

ORBITAL ENERGIES
----------------

  NO   OCC          E(Eh)            E(eV)
   0   2.0000    -104.872147     -2853.7162
   1   2.0000    -104.872130     -2853.7157
   2   2.0000    -104.872130     -2853.7157
   3   2.0000     -11.472183      -312.1740
   4   2.0000     -11.295139      -307.3564
   5   2.0000     -11.286636      -307.1250
   6   2.0000     -11.280436      -306.9563
   7   2.0000     -11.275942      -306.8340
   8   2.0000     -10.595791      -288.3261
   9   2.0000     -10.595776      -288.3257
  10   2.0000     -10.595766      -288.3255
  11   2.0000      -8.062497      -219.3917
  12   2.0000      -8.062480      -219.3912
  13   2.0000      -8.062479      -219.3912
  14   2.0000      -8.060303      -219.3320
  15   2.0000      -8.060288      -219.3316
  16   2.0000      -8.060286      -219.3315
  17   2.0000      -8.060286      -219.3315
  18   2.0000      -8.060270      -219.3311
  19   2.0000      -8.060269      -219.3311
  20   2.0000      -1.252062       -34.0703
  21   2.0000      -1.115642       -30.3582
  22   2.0000      -1.114615       -30.3302
  23   2.0000      -1.114606       -30.3300
  24   2.0000      -1.049703       -28.5639
  25   2.0000      -0.936443       -25.4819
  26   2.0000      -0.844601       -22.9828
  27   2.0000      -0.735428       -20.0120
  28   2.0000      -0.703328       -19.1385
  29   2.0000      -0.639553       -17.4031
  30   2.0000      -0.639549       -17.4030
  31   2.0000      -0.523364       -14.2414
  32   2.0000      -0.523329       -14.2405
  33   2.0000      -0.498374       -13.5615
  34   2.0000      -0.498356       -13.5610
  35   2.0000      -0.490714       -13.3530
  36   2.0000      -0.468142       -12.7388
  37   2.0000      -0.468140       -12.7387
  38   2.0000      -0.455339       -12.3904
  39   2.0000      -0.384239       -10.4557
  40   2.0000      -0.384225       -10.4553
  41   0.0000       0.024923         0.6782
  42   0.0000       0.051296         1.3958
  43   0.0000       0.055524         1.5109
  44   0.0000       0.055527         1.5110
  45   0.0000       0.070126         1.9082

MULLIKEN ATOMIC CHARGES
-----------------------
   0 C :    0.295817
   1 C :    0.973692
   2 C :    0.031755
   3 C :    0.448785
   4 C :   -1.332290
   5 H :    0.340676
   6 Cl:   -0.252857
   7 Cl:   -0.252857
   8 Cl:   -0.252721
Sum of atomic charges:    0.0000000

LOEWDIN ATOMIC CHARGES
----------------------
   0 C :   -0.052393
   1 C :   -0.297472
   2 C :   -0.082128
   3 C :   -2.146399
   4 C :    0.417837
   5 H :   -0.280332
   6 Cl:    0.813635
   7 Cl:    0.813635
   8 Cl:    0.813617

  Mayer bond orders larger than 0.100000
B(  0-C ,  1-C ) :   0.6692 B(  0-C ,  2-C ) :   3.3295 B(  0-C ,  3-C ) :  -0.3759
B(  0-C ,  4-C ) :  -3.5672 B(  0-C ,  5-H ) :  -0.1899 B(  1-C ,  2-C ) :  -1.9003
B(  1-C ,  3-C ) :   0.8358 B(  1-C ,  4-C ) :   3.4714 B(  1-C ,  5-H ) :   0.1670
B(  2-C ,  3-C ) :   0.1781 B(  2-C ,  4-C ) :   1.4443 B(  2-C ,  5-H ) :  -0.2193
B(  3-C ,  4-C ) :   0.3131 B(  3-C ,  6-Cl) :   0.9069 B(  3-C ,  7-Cl) :   0.9069
B(  3-C ,  8-Cl) :   0.9060 B(  4-C ,  5-H ) :   1.2333

MP2 TOTAL ENERGY:    -1569.735013680 Eh
FINAL SINGLE POINT ENERGY     -1569.735013679695

DIPOLE MOMENT
-------------
                                X             Y             Z
Electronic contribution:     -9.35408       0.01529      -0.00000
Nuclear contribution   :     10.21587      -0.01742       0.00000
                        -----------------------------------------
Total Dipole Moment    :      0.86179      -0.00213      -0.00000
                        -----------------------------------------
Magnitude (a.u.)       :      0.86180
Magnitude (Debye)      :      2.19051

Rotational constants in cm-1:     0.055105     0.021088     0.021087
Rotational constants in MHz :  1652.019284   632.193285   632.176956

                             ****ORCA TERMINATED NORMALLY****
TOTAL RUN TIME: 0 days 0 hours 2 minutes 42 seconds 186 msec
