                         Program Version 5.0.3 -  RELEASE  -
|  1> !ri-mp2 aug-cc-pvtz aug-cc-pvtz/c tightscf
|  2> %pal nprocs 16 end
|  3>
|  4> * xyz 0 1
|  5> F     2.375832    0.341649   -0.121397
|  6> O     1.124163   -2.287866    0.174880
|  7> O     0.695969    2.490935   -0.051098
|  8> O    -2.942224   -0.245940    0.022644
|  9> N    -0.875008   -1.207874    0.004582
| 10> N    -1.112015    1.111674   -0.020101
| 11> C     1.090406    0.142282    0.334810
| 12> C     0.527478   -1.113100   -0.322479
| 13> C     0.238552    1.381307    0.053108
| 14> C    -1.735828   -0.146180    0.002266
| 15> H     1.129546   -0.014071    1.416546
| 16> H     0.692280   -1.042947   -1.407061
| 17> H     2.004927   -2.374716   -0.205212
| 18> H    -1.307982   -2.113080   -0.090426
| 19> H    -1.739008    1.900491   -0.090282
| 20> *
| 21>
| 22>                          ****END OF INPUT****

CARTESIAN COORDINATES (ANGSTROEM)
---------------------------------
  F      2.375832    0.341649   -0.121397
  O      1.124163   -2.287866    0.174880
  O      0.695969    2.490935   -0.051098
  O     -2.942224   -0.245940    0.022644
  N     -0.875008   -1.207874    0.004582
  N     -1.112015    1.111674   -0.020101
  C      1.090406    0.142282    0.334810
  C      0.527478   -1.113100   -0.322479
  C      0.238552    1.381307    0.053108
  C     -1.735828   -0.146180    0.002266
  H      1.129546   -0.014071    1.416546
  H      0.692280   -1.042947   -1.407061
  H      2.004927   -2.374716   -0.205212
  H     -1.307982   -2.113080   -0.090426
  H     -1.739008    1.900491   -0.090282

 Total Charge           Charge          ....    0
 Multiplicity           Mult            ....    1
 Number of Electrons    NEL             ....   76
 Basis Dimension        Dim             ....  575

ORBITAL ENERGIES
----------------

  NO   OCC          E(Eh)            E(eV)
   0   2.0000     -26.323348      -716.2947
   1   2.0000     -20.611975      -560.8804
   2   2.0000     -20.570957      -559.7642
   3   2.0000     -20.550558      -559.2091
   4   2.0000     -15.638128      -425.5351
   5   2.0000     -15.621823      -425.0914
   6   2.0000     -11.421685      -310.7998
   7   2.0000     -11.400217      -310.2157
   8   2.0000     -11.378206      -309.6167
   9   2.0000     -11.363968      -309.2293
  10   2.0000      -1.636393       -44.5285
  11   2.0000      -1.447845       -39.3979
  12   2.0000      -1.429024       -38.8857
  13   2.0000      -1.420283       -38.6479
  14   2.0000      -1.296633       -35.2832
  15   2.0000      -1.244032       -33.8518
  16   2.0000      -1.075843       -29.2752
  17   2.0000      -0.942358       -25.6429
  18   2.0000      -0.906724       -24.6732
  19   2.0000      -0.835835       -22.7442
  20   2.0000      -0.796040       -21.6613
  21   2.0000      -0.779106       -21.2006
  22   2.0000      -0.731218       -19.8975
  23   2.0000      -0.716322       -19.4921
  24   2.0000      -0.705372       -19.1941
  25   2.0000      -0.698213       -18.9993
  26   2.0000      -0.679281       -18.4842
  27   2.0000      -0.654790       -17.8177
  28   2.0000      -0.644585       -17.5401
  29   2.0000      -0.624863       -17.0034
  30   2.0000      -0.599508       -16.3134
  31   2.0000      -0.576178       -15.6786
  32   2.0000      -0.567329       -15.4378
  33   2.0000      -0.512665       -13.9503
  34   2.0000      -0.491299       -13.3689
  35   2.0000      -0.460115       -12.5204
  36   2.0000      -0.450970       -12.2715
  37   2.0000      -0.436717       -11.8837
  38   0.0000       0.020898         0.5687
  39   0.0000       0.033707         0.9172
  40   0.0000       0.035790         0.9739
  41   0.0000       0.041722         1.1353
  42   0.0000       0.051249         1.3946

MULLIKEN ATOMIC CHARGES
-----------------------
   0 F :   -0.561617
   1 O :   -0.666054
   2 O :   -0.799451
   3 O :   -0.774374
   4 N :   -0.052815
   5 N :    0.239657
   6 C :    0.515505
   7 C :    0.561869
   8 C :    0.210057
   9 C :    0.178874
  10 H :    0.341107
  11 H :    0.327996
  12 H :    0.189729
  13 H :    0.116649
  14 H :    0.172867
Sum of atomic charges:   -0.0000000

LOEWDIN ATOMIC CHARGES
----------------------
   0 F :    0.505431
   1 O :    0.854397
   2 O :    0.467014
   3 O :    0.448163
   4 N :    0.566599
   5 N :    0.558717
   6 C :   -0.360590
   7 C :   -0.368364
   8 C :   -0.628015
   9 C :   -0.773021
  10 H :   -0.141482
  11 H :   -0.124166
  12 H :   -0.464806
  13 H :   -0.269694
  14 H :   -0.270183

  Mayer bond orders larger than 0.100000
B(  0-F ,  6-C ) :   0.4410 B(  0-F ,  8-C ) :   0.1323 B(  1-O ,  7-C ) :   0.6145
B(  1-O , 12-H ) :   1.0044 B(  2-O ,  5-N ) :  -0.1165 B(  2-O ,  8-C ) :   1.4364
B(  3-O ,  4-N ) :  -0.1458 B(  3-O ,  5-N ) :  -0.1268 B(  3-O ,  9-C ) :   1.6902
B(  4-N ,  6-C ) :   0.1177 B(  4-N ,  7-C ) :   0.6652 B(  4-N ,  9-C ) :   1.0848
B(  4-N , 13-H ) :   1.0103 B(  5-N ,  8-C ) :   0.9393 B(  5-N ,  9-C ) :   0.9177
B(  5-N , 14-H ) :   1.0113 B(  6-C ,  7-C ) :   0.9209 B(  6-C ,  8-C ) :   0.5700
B(  6-C , 10-H ) :   0.9239 B(  7-C ,  8-C ) :   0.1085 B(  7-C ,  9-C ) :  -0.1470
B(  7-C , 11-H ) :   0.9546 B(  8-C ,  9-C ) :  -0.1429

MP2 TOTAL ENERGY:     -589.589518746 Eh
FINAL SINGLE POINT ENERGY      -589.589518746052

DIPOLE MOMENT
-------------
                                X             Y             Z
Electronic contribution:      2.08820       2.77530      -0.04101
Nuclear contribution   :     -1.53818      -3.83883      -0.24512
                        -----------------------------------------
Total Dipole Moment    :      0.55002      -1.06353      -0.28613
                        -----------------------------------------
Magnitude (a.u.)       :      1.23105
Magnitude (Debye)      :      3.12908

Rotational constants in cm-1:     0.059341     0.044972     0.026181
Rotational constants in MHz :  1778.985162  1348.237404   784.876455

                             ****ORCA TERMINATED NORMALLY****
TOTAL RUN TIME: 0 days 0 hours 6 minutes 51 seconds 606 msec
