                         Program Version 5.0.3 -  RELEASE  -
|  1> !ri-mp2 aug-cc-pvtz aug-cc-pvtz/c tightscf
|  2> %pal nprocs 16 end
|  3>
|  4> * xyz 0 1
|  5> C      0.151624    1.390687    0.000000
|  6> C      0.020289    0.194427    0.000000
|  7> C      0.300477    2.743694    0.000000
|  8> C     -0.137549   -1.254142    0.000000
|  9> C      0.432336    3.940048    0.000000
| 10> H      0.548834    4.995753    0.000000
| 11> F      0.432336   -1.811612    1.085585
| 12> F      0.432336   -1.811612   -1.085585
| 13> F     -1.437103   -1.608337    0.000000
| 14> *
| 15>
| 16>                          ****END OF INPUT****

CARTESIAN COORDINATES (ANGSTROEM)
---------------------------------
  C      0.151624    1.390687    0.000000
  C      0.020289    0.194427    0.000000
  C      0.300477    2.743694    0.000000
  C     -0.137549   -1.254142    0.000000
  C      0.432336    3.940048    0.000000
  H      0.548834    4.995753    0.000000
  F      0.432336   -1.811612    1.085585
  F      0.432336   -1.811612   -1.085585
  F     -1.437103   -1.608337    0.000000

 Total Charge           Charge          ....    0
 Multiplicity           Mult            ....    1
 Number of Electrons    NEL             ....   58
 Basis Dimension        Dim             ....  391

ORBITAL ENERGIES
----------------

  NO   OCC          E(Eh)            E(eV)
   0   2.0000     -26.353233      -717.1079
   1   2.0000     -26.353229      -717.1078
   2   2.0000     -26.353198      -717.1070
   3   2.0000     -11.549706      -314.2835
   4   2.0000     -11.306788      -307.6733
   5   2.0000     -11.288041      -307.1632
   6   2.0000     -11.287281      -307.1425
   7   2.0000     -11.283479      -307.0391
   8   2.0000      -1.741476       -47.3880
   9   2.0000      -1.646506       -44.8037
  10   2.0000      -1.646487       -44.8032
  11   2.0000      -1.132589       -30.8193
  12   2.0000      -1.074455       -29.2374
  13   2.0000      -1.002498       -27.2794
  14   2.0000      -0.893151       -24.3039
  15   2.0000      -0.841731       -22.9047
  16   2.0000      -0.835443       -22.7336
  17   2.0000      -0.835440       -22.7335
  18   2.0000      -0.741337       -20.1728
  19   2.0000      -0.721901       -19.6439
  20   2.0000      -0.721895       -19.6438
  21   2.0000      -0.675529       -18.3821
  22   2.0000      -0.675526       -18.3820
  23   2.0000      -0.660995       -17.9866
  24   2.0000      -0.647368       -17.6158
  25   2.0000      -0.521927       -14.2024
  26   2.0000      -0.521926       -14.2023
  27   2.0000      -0.399647       -10.8750
  28   2.0000      -0.399644       -10.8749
  29   0.0000       0.022404         0.6096
  30   0.0000       0.054054         1.4709
  31   0.0000       0.060395         1.6434
  32   0.0000       0.060397         1.6435
  33   0.0000       0.065086         1.7711

MULLIKEN ATOMIC CHARGES
-----------------------
   0 C :    0.061830
   1 C :    0.209598
   2 C :    0.546055
   3 C :    1.401690
   4 C :   -1.493087
   5 H :    0.344919
   6 F :   -0.356981
   7 F :   -0.356981
   8 F :   -0.357043
Sum of atomic charges:    0.0000000

LOEWDIN ATOMIC CHARGES
----------------------
   0 C :   -0.030102
   1 C :    0.050435
   2 C :   -0.076819
   3 C :   -1.553857
   4 C :    0.422014
   5 H :   -0.276188
   6 F :    0.488209
   7 F :    0.488209
   8 F :    0.488101

  Mayer bond orders larger than 0.100000
B(  0-C ,  1-C ) :   0.8662 B(  0-C ,  2-C ) :   3.2670 B(  0-C ,  3-C ) :  -0.9739
B(  0-C ,  4-C ) :  -3.4668 B(  0-C ,  5-H ) :  -0.1542 B(  1-C ,  2-C ) :  -1.9074
B(  1-C ,  3-C ) :   1.1900 B(  1-C ,  4-C ) :   3.3984 B(  1-C ,  5-H ) :   0.1297
B(  1-C ,  6-F ) :   0.1279 B(  1-C ,  7-F ) :   0.1279 B(  1-C ,  8-F ) :   0.1278
B(  2-C ,  3-C ) :   0.4292 B(  2-C ,  4-C ) :   0.7546 B(  2-C ,  5-H ) :  -0.1728
B(  3-C ,  4-C ) :   0.4274 B(  3-C ,  6-F ) :   0.7581 B(  3-C ,  7-F ) :   0.7581
B(  3-C ,  8-F ) :   0.7580 B(  4-C ,  5-H ) :   1.1690

MP2 TOTAL ENERGY:     -489.818669964 Eh
FINAL SINGLE POINT ENERGY      -489.818669963554

DIPOLE MOMENT
-------------
                                X             Y             Z
Electronic contribution:     -0.88843      -8.10536       0.00000
Nuclear contribution   :      1.02801       9.37658       0.00000
                        -----------------------------------------
Total Dipole Moment    :      0.13958       1.27122       0.00000
                        -----------------------------------------
Magnitude (a.u.)       :      1.27886
Magnitude (Debye)      :      3.25060

Rotational constants in cm-1:     0.188218     0.029676     0.029676
Rotational constants in MHz :  5642.646667   889.676843   889.664180

                             ****ORCA TERMINATED NORMALLY****
TOTAL RUN TIME: 0 days 0 hours 2 minutes 19 seconds 155 msec
