                         Program Version 5.0.3 -  RELEASE  -
|  1> !ri-mp2 aug-cc-pvtz aug-cc-pvtz/c tightscf
|  2> %pal nprocs 16 end
|  3>
|  4> * xyz 0 1
|  5> Cl   -2.008972   -0.645633   -0.000016
|  6> S     0.916995   -1.382670    0.000044
|  7> N     1.562136    1.012518   -0.000064
|  8> N     2.104548   -0.138903    0.000000
|  9> C    -0.342527   -0.225321   -0.000029
| 10> C     0.192585    1.037355   -0.000081
| 11> C    -0.528302    2.343259    0.000042
| 12> H    -0.251761    2.929510   -0.876767
| 13> H    -1.605449    2.196556   -0.004895
| 14> H    -0.259520    2.925361    0.882074
| 15> *
| 16>
| 17>                          ****END OF INPUT****

CARTESIAN COORDINATES (ANGSTROEM)
---------------------------------
  Cl    -2.008972   -0.645633   -0.000016
  S      0.916995   -1.382670    0.000044
  N      1.562136    1.012518   -0.000064
  N      2.104548   -0.138903    0.000000
  C     -0.342527   -0.225321   -0.000029
  C      0.192585    1.037355   -0.000081
  C     -0.528302    2.343259    0.000042
  H     -0.251761    2.929510   -0.876767
  H     -1.605449    2.196556   -0.004895
  H     -0.259520    2.925361    0.882074

 Total Charge           Charge          ....    0
 Multiplicity           Mult            ....    1
 Number of Electrons    NEL             ....   68
 Basis Dimension        Dim             ....  399

ORBITAL ENERGIES
----------------

  NO   OCC          E(Eh)            E(eV)
   0   2.0000    -104.882768     -2854.0052
   1   2.0000     -92.036471     -2504.4397
   2   2.0000     -15.663610      -426.2285
   3   2.0000     -15.639724      -425.5785
   4   2.0000     -11.351362      -308.8863
   5   2.0000     -11.298460      -307.4467
   6   2.0000     -11.246963      -306.0454
   7   2.0000     -10.605953      -288.6026
   8   2.0000      -9.034700      -245.8467
   9   2.0000      -8.072949      -219.6761
  10   2.0000      -8.070791      -219.6174
  11   2.0000      -8.070778      -219.6170
  12   2.0000      -6.715322      -182.7332
  13   2.0000      -6.714452      -182.7095
  14   2.0000      -6.713713      -182.6894
  15   2.0000      -1.396707       -38.0063
  16   2.0000      -1.198011       -32.5995
  17   2.0000      -1.106742       -30.1160
  18   2.0000      -1.067221       -29.0406
  19   2.0000      -0.967563       -26.3287
  20   2.0000      -0.841544       -22.8996
  21   2.0000      -0.773691       -21.0532
  22   2.0000      -0.671151       -18.2629
  23   2.0000      -0.637018       -17.3341
  24   2.0000      -0.619787       -16.8653
  25   2.0000      -0.582672       -15.8553
  26   2.0000      -0.574090       -15.6218
  27   2.0000      -0.549094       -14.9416
  28   2.0000      -0.535688       -14.5768
  29   2.0000      -0.531043       -14.4504
  30   2.0000      -0.486379       -13.2350
  31   2.0000      -0.417695       -11.3661
  32   2.0000      -0.411301       -11.1921
  33   2.0000      -0.364005        -9.9051
  34   0.0000       0.029804         0.8110
  35   0.0000       0.046130         1.2553
  36   0.0000       0.046392         1.2624
  37   0.0000       0.053620         1.4591
  38   0.0000       0.060242         1.6393

MULLIKEN ATOMIC CHARGES
-----------------------
   0 Cl:   -0.309354
   1 S :    0.173709
   2 N :   -0.249065
   3 N :   -0.497479
   4 C :    0.398469
   5 C :    0.563426
   6 C :   -0.975273
   7 H :    0.295469
   8 H :    0.304427
   9 H :    0.295672
Sum of atomic charges:    0.0000000

LOEWDIN ATOMIC CHARGES
----------------------
   0 Cl:    0.945341
   1 S :    1.020750
   2 N :    0.044055
   3 N :   -0.211829
   4 C :   -1.253974
   5 C :   -0.535710
   6 C :    0.544706
   7 H :   -0.172890
   8 H :   -0.207678
   9 H :   -0.172770

  Mayer bond orders larger than 0.100000
B(  0-Cl,  4-C ) :   0.7397 B(  1-S ,  3-N ) :   1.1377 B(  1-S ,  4-C ) :   1.0735
B(  2-N ,  3-N ) :   0.6679 B(  2-N ,  5-C ) :   0.8002 B(  3-N ,  5-C ) :   0.1018
B(  4-C ,  5-C ) :   1.3155 B(  5-C ,  6-C ) :   0.7449 B(  6-C ,  7-H ) :   0.9720
B(  6-C ,  8-H ) :   0.9324 B(  6-C ,  9-H ) :   0.9717

MP2 TOTAL ENERGY:    -1082.605928168 Eh
FINAL SINGLE POINT ENERGY     -1082.605928167518

DIPOLE MOMENT
-------------
                                X             Y             Z
Electronic contribution:     -1.67985      -8.46807      -0.00029
Nuclear contribution   :      0.71230       8.56198       0.00041
                        -----------------------------------------
Total Dipole Moment    :     -0.96755       0.09391       0.00012
                        -----------------------------------------
Magnitude (a.u.)       :      0.97210
Magnitude (Debye)      :      2.47087

Rotational constants in cm-1:     0.087463     0.061011     0.036181
Rotational constants in MHz :  2622.073391  1829.067222  1084.676305

                             ****ORCA TERMINATED NORMALLY****
TOTAL RUN TIME: 0 days 0 hours 3 minutes 19 seconds 867 msec
