                         Program Version 5.0.3 -  RELEASE  -
|  1> !ri-mp2 aug-cc-pvtz aug-cc-pvtz/c tightscf
|  2> %pal nprocs 16 end
|  3> %maxcore 3800
|  4>
|  5> * xyz 0 1
|  6> C      0.000000    0.000000   -0.758430
|  7> C     -0.754120    0.903797   -1.510292
|  8> C      0.754120   -0.903797   -1.510292
|  9> N     -0.757576    0.915186   -2.840582
| 10> C      0.000000    0.000000   -3.441454
| 11> N      0.757576   -0.915186   -2.840582
| 12> C      0.000000    0.000000    0.718089
| 13> C      0.000000    1.201904    1.434398
| 14> C     -0.000714    1.201397    2.822810
| 15> C      0.000000    0.000000    3.522386
| 16> C      0.000714   -1.201397    2.822810
| 17> C      0.000000   -1.201904    1.434398
| 18> H      0.000000    0.000000   -4.524887
| 19> H     -1.389638    1.632242   -1.018874
| 20> H      1.389638   -1.632242   -1.018874
| 21> H     -0.006602   -2.140956    3.358639
| 22> H      0.000000    0.000000    4.603795
| 23> H      0.006602    2.140956    3.358639
| 24> H      0.024377    2.142989    0.901579
| 25> H     -0.024377   -2.142989    0.901579
| 26> *
| 27>
| 28>                          ****END OF INPUT****

CARTESIAN COORDINATES (ANGSTROEM)
---------------------------------
  C      0.000000    0.000000   -0.758430
  C     -0.754120    0.903797   -1.510292
  C      0.754120   -0.903797   -1.510292
  N     -0.757576    0.915186   -2.840582
  C      0.000000    0.000000   -3.441454
  N      0.757576   -0.915186   -2.840582
  C      0.000000    0.000000    0.718089
  C      0.000000    1.201904    1.434398
  C     -0.000714    1.201397    2.822810
  C      0.000000    0.000000    3.522386
  C      0.000714   -1.201397    2.822810
  C      0.000000   -1.201904    1.434398
  H      0.000000    0.000000   -4.524887
  H     -1.389638    1.632242   -1.018874
  H      1.389638   -1.632242   -1.018874
  H     -0.006602   -2.140956    3.358639
  H      0.000000    0.000000    4.603795
  H      0.006602    2.140956    3.358639
  H      0.024377    2.142989    0.901579
  H     -0.024377   -2.142989    0.901579

 Total Charge           Charge          ....    0
 Multiplicity           Mult            ....    1
 Number of Electrons    NEL             ....   82
 Basis Dimension        Dim             ....  736

ORBITAL ENERGIES
----------------

  NO   OCC          E(Eh)            E(eV)
   0   2.0000     -15.575053      -423.8187
   1   2.0000     -15.575027      -423.8180
   2   2.0000     -11.312595      -307.8314
   3   2.0000     -11.298100      -307.4369
   4   2.0000     -11.298083      -307.4365
   5   2.0000     -11.261837      -306.4502
   6   2.0000     -11.259181      -306.3779
   7   2.0000     -11.247785      -306.0678
   8   2.0000     -11.247757      -306.0670
   9   2.0000     -11.246633      -306.0364
  10   2.0000     -11.246345      -306.0286
  11   2.0000     -11.244573      -305.9804
  12   2.0000      -1.316682       -35.8287
  13   2.0000      -1.197998       -32.5992
  14   2.0000      -1.174914       -31.9710
  15   2.0000      -1.099336       -29.9144
  16   2.0000      -1.030152       -28.0319
  17   2.0000      -1.014575       -27.6080
  18   2.0000      -0.901980       -24.5441
  19   2.0000      -0.900353       -24.4999
  20   2.0000      -0.837761       -22.7966
  21   2.0000      -0.823024       -22.3956
  22   2.0000      -0.742473       -20.2037
  23   2.0000      -0.713910       -19.4265
  24   2.0000      -0.709827       -19.3154
  25   2.0000      -0.663916       -18.0661
  26   2.0000      -0.635931       -17.3046
  27   2.0000      -0.610780       -16.6202
  28   2.0000      -0.603124       -16.4118
  29   2.0000      -0.591612       -16.0986
  30   2.0000      -0.587475       -15.9860
  31   2.0000      -0.579505       -15.7691
  32   2.0000      -0.525969       -14.3123
  33   2.0000      -0.519981       -14.1494
  34   2.0000      -0.507218       -13.8021
  35   2.0000      -0.471431       -12.8283
  36   2.0000      -0.424468       -11.5503
  37   2.0000      -0.416304       -11.3282
  38   2.0000      -0.399892       -10.8816
  39   2.0000      -0.351344        -9.5605
  40   2.0000      -0.323077        -8.7914
  41   0.0000       0.024212         0.6588
  42   0.0000       0.030326         0.8252
  43   0.0000       0.034148         0.9292
  44   0.0000       0.041567         1.1311
  45   0.0000       0.041973         1.1421

MULLIKEN ATOMIC CHARGES
-----------------------
   0 C :    1.668240
   1 C :   -0.611057
   2 C :   -0.611054
   3 N :   -0.601795
   4 C :   -0.733492
   5 N :   -0.601795
   6 C :    1.854781
   7 C :   -1.068777
   8 C :   -0.731203
   9 C :   -0.067618
  10 C :   -0.731200
  11 C :   -1.068779
  12 H :    0.585249
  13 H :    0.623692
  14 H :    0.623692
  15 H :    0.402786
  16 H :    0.554926
  17 H :    0.402786
  18 H :    0.055310
  19 H :    0.055308
Sum of atomic charges:   -0.0000000

LOEWDIN ATOMIC CHARGES
----------------------
   0 C :   -0.110251
   1 C :    0.035975
   2 C :    0.035975
   3 N :    0.378638
   4 C :   -0.168514
   5 N :    0.378637
   6 C :   -0.127735
   7 C :    0.215586
   8 C :    0.206073
   9 C :    0.200924
  10 C :    0.206073
  11 C :    0.215586
  12 H :   -0.203500
  13 H :   -0.176357
  14 H :   -0.176357
  15 H :   -0.181983
  16 H :   -0.184345
  17 H :   -0.181983
  18 H :   -0.181222
  19 H :   -0.181222

  Mayer bond orders larger than 0.100000
B(  0-C ,  1-C ) :   0.3293 B(  0-C ,  2-C ) :   0.3293 B(  0-C ,  3-N ) :  -0.2527
B(  0-C ,  4-C ) :  -0.1082 B(  0-C ,  5-N ) :  -0.2527 B(  0-C ,  6-C ) :   0.3376
B(  0-C ,  7-C ) :   0.2754 B(  0-C ,  8-C ) :  -0.1094 B(  0-C ,  9-C ) :   0.2697
B(  0-C , 10-C ) :  -0.1094 B(  0-C , 11-C ) :   0.2754 B(  0-C , 13-H ) :   0.1451
B(  0-C , 14-H ) :   0.1451 B(  0-C , 15-H ) :   0.1059 B(  0-C , 17-H ) :   0.1059
B(  0-C , 18-H ) :  -0.2547 B(  0-C , 19-H ) :  -0.2547 B(  1-C ,  2-C ) :   0.5436
B(  1-C ,  3-N ) :   0.6995 B(  1-C ,  4-C ) :  -0.2165 B(  1-C ,  5-N ) :   0.1627
B(  1-C ,  6-C ) :  -0.1163 B(  1-C , 13-H ) :   0.5254 B(  2-C ,  3-N ) :   0.1627
B(  2-C ,  4-C ) :  -0.2165 B(  2-C ,  5-N ) :   0.6995 B(  2-C ,  6-C ) :  -0.1163
B(  2-C , 14-H ) :   0.5254 B(  3-N ,  4-C ) :   1.4481 B(  3-N ,  5-N ) :   0.1261
B(  3-N , 13-H ) :  -0.1317 B(  4-C ,  5-N ) :   1.4481 B(  4-C , 12-H ) :   0.5904
B(  5-N , 14-H ) :  -0.1317 B(  6-C ,  7-C ) :   0.4591 B(  6-C , 11-C ) :   0.4591
B(  6-C , 18-H ) :  -0.1175 B(  6-C , 19-H ) :  -0.1175 B(  7-C ,  8-C ) :   1.3359
B(  7-C ,  9-C ) :  -0.1705 B(  7-C , 10-C ) :   0.1517 B(  7-C , 11-C ) :  -0.3058
B(  7-C , 18-H ) :   1.6588 B(  7-C , 19-H ) :   0.1622 B(  8-C ,  9-C ) :   1.1917
B(  8-C , 11-C ) :   0.1517 B(  8-C , 16-H ) :  -0.2046 B(  8-C , 17-H ) :   0.8746
B(  9-C , 10-C ) :   1.1917 B(  9-C , 11-C ) :  -0.1705 B(  9-C , 16-H ) :   0.6830
B( 10-C , 11-C ) :   1.3359 B( 10-C , 15-H ) :   0.8746 B( 10-C , 16-H ) :  -0.2046
B( 11-C , 18-H ) :   0.1622 B( 11-C , 19-H ) :   1.6588 B( 18-H , 19-H ) :   0.1187

MP2 TOTAL ENERGY:     -494.387065544 Eh
FINAL SINGLE POINT ENERGY      -494.387065543721

DIPOLE MOMENT
-------------
                                X             Y             Z
Electronic contribution:      0.00000      -0.00000      -5.33527
Nuclear contribution   :      0.00000      -0.00000       6.43688
                        -----------------------------------------
Total Dipole Moment    :      0.00000      -0.00000       1.10161
                        -----------------------------------------
Magnitude (a.u.)       :      1.10161
Magnitude (Debye)      :      2.80006

Rotational constants in cm-1:     0.099184     0.018444     0.016140
Rotational constants in MHz :  2973.463646   552.934571   483.853809

                             ****ORCA TERMINATED NORMALLY****
TOTAL RUN TIME: 0 days 0 hours 15 minutes 46 seconds 818 msec
