                         Program Version 5.0.3 -  RELEASE  -
|  1> !ri-mp2 aug-cc-pvtz aug-cc-pvtz/c tightscf
|  2> %pal nprocs 16 end
|  3>
|  4> * xyz 0 1
|  5> C     0.056743   -1.403063    1.105281
|  6> C     0.056743   -1.403063   -1.105281
|  7> C     0.056743   -0.108428    0.714480
|  8> C     0.056743   -0.108428   -0.714480
|  9> C     0.061614    1.293990    1.248837
| 10> C     0.061614    1.293990   -1.248837
| 11> C    -0.362168    2.121493    0.000000
| 12> O     0.055843   -2.213536    0.000000
| 13> H     0.050540   -1.910773    2.052548
| 14> H     0.050540   -1.910773   -2.052548
| 15> H    -0.610306    1.450561    2.092349
| 16> H     1.064430    1.578481    1.579793
| 17> H     1.064430    1.578481   -1.579793
| 18> H    -0.610306    1.450561   -2.092349
| 19> H    -1.447985    2.228635    0.000000
| 20> H     0.063723    3.124156    0.000000
| 21> *
| 22>
| 23>                          ****END OF INPUT****

CARTESIAN COORDINATES (ANGSTROEM)
---------------------------------
  C      0.056743   -1.403063    1.105281
  C      0.056743   -1.403063   -1.105281
  C      0.056743   -0.108428    0.714480
  C      0.056743   -0.108428   -0.714480
  C      0.061614    1.293990    1.248837
  C      0.061614    1.293990   -1.248837
  C     -0.362168    2.121493    0.000000
  O      0.055843   -2.213536    0.000000
  H      0.050540   -1.910773    2.052548
  H      0.050540   -1.910773   -2.052548
  H     -0.610306    1.450561    2.092349
  H      1.064430    1.578481    1.579793
  H      1.064430    1.578481   -1.579793
  H     -0.610306    1.450561   -2.092349
  H     -1.447985    2.228635    0.000000
  H      0.063723    3.124156    0.000000

 Total Charge           Charge          ....    0
 Multiplicity           Mult            ....    1
 Number of Electrons    NEL             ....   58
 Basis Dimension        Dim             ....  552

ORBITAL ENERGIES
----------------

  NO   OCC          E(Eh)            E(eV)
   0   2.0000     -20.609718      -560.8189
   1   2.0000     -11.276884      -306.8596
   2   2.0000     -11.276839      -306.8584
   3   2.0000     -11.234030      -305.6935
   4   2.0000     -11.234008      -305.6929
   5   2.0000     -11.229901      -305.5811
   6   2.0000     -11.221028      -305.3397
   7   2.0000     -11.219993      -305.3115
   8   2.0000      -1.439850       -39.1803
   9   2.0000      -1.142330       -31.0844
  10   2.0000      -1.015097       -27.6222
  11   2.0000      -1.009843       -27.4792
  12   2.0000      -0.939433       -25.5633
  13   2.0000      -0.826420       -22.4880
  14   2.0000      -0.772620       -21.0241
  15   2.0000      -0.751321       -20.4445
  16   2.0000      -0.700795       -19.0696
  17   2.0000      -0.648374       -17.6432
  18   2.0000      -0.613331       -16.6896
  19   2.0000      -0.595905       -16.2154
  20   2.0000      -0.581478       -15.8228
  21   2.0000      -0.565672       -15.3927
  22   2.0000      -0.547463       -14.8972
  23   2.0000      -0.495715       -13.4891
  24   2.0000      -0.490122       -13.3369
  25   2.0000      -0.486658       -13.2426
  26   2.0000      -0.485235       -13.2039
  27   2.0000      -0.367542       -10.0013
  28   2.0000      -0.308550        -8.3961
  29   0.0000       0.029729         0.8090
  30   0.0000       0.033844         0.9209
  31   0.0000       0.035261         0.9595
  32   0.0000       0.039853         1.0845
  33   0.0000       0.046174         1.2565

MULLIKEN ATOMIC CHARGES
-----------------------
   0 C :   -1.084144
   1 C :   -1.084144
   2 C :    0.733930
   3 C :    0.733929
   4 C :   -0.571728
   5 C :   -0.571728
   6 C :   -0.408098
   7 O :   -0.495042
   8 H :    0.610846
   9 H :    0.610846
  10 H :    0.274016
  11 H :    0.235279
  12 H :    0.235279
  13 H :    0.274016
  14 H :    0.203806
  15 H :    0.302939
Sum of atomic charges:    0.0000000

LOEWDIN ATOMIC CHARGES
----------------------
   0 C :    0.022304
   1 C :    0.022304
   2 C :   -0.133602
   3 C :   -0.133602
   4 C :    0.321214
   5 C :    0.321214
   6 C :    0.321181
   7 O :    0.544743
   8 H :   -0.195042
   9 H :   -0.195042
  10 H :   -0.150313
  11 H :   -0.148479
  12 H :   -0.148479
  13 H :   -0.150313
  14 H :   -0.149737
  15 H :   -0.148351

  Mayer bond orders larger than 0.100000
B(  0-C ,  1-C ) :   0.2310 B(  0-C ,  3-C ) :   0.2800 B(  0-C ,  4-C ) :  -0.2053
B(  0-C ,  7-O ) :   0.9409 B(  0-C ,  8-H ) :   0.6344 B(  1-C ,  2-C ) :   0.2800
B(  1-C ,  5-C ) :  -0.2053 B(  1-C ,  7-O ) :   0.9409 B(  1-C ,  9-H ) :   0.6344
B(  2-C ,  3-C ) :   1.0390 B(  2-C ,  4-C ) :   0.6951 B(  3-C ,  5-C ) :   0.6951
B(  4-C ,  5-C ) :   0.1147 B(  4-C ,  6-C ) :   1.0196 B(  4-C , 10-H ) :   0.9730
B(  4-C , 11-H ) :   1.0029 B(  5-C ,  6-C ) :   1.0196 B(  5-C , 12-H ) :   1.0029
B(  5-C , 13-H ) :   0.9730 B(  6-C , 14-H ) :   1.0040 B(  6-C , 15-H ) :   0.9265

MP2 TOTAL ENERGY:     -346.068566258 Eh
FINAL SINGLE POINT ENERGY      -346.068566258396

DIPOLE MOMENT
-------------
                                X             Y             Z
Electronic contribution:      0.37455      -6.95534      -0.00000
Nuclear contribution   :     -0.37678       7.60950       0.00000
                        -----------------------------------------
Total Dipole Moment    :     -0.00223       0.65417      -0.00000
                        -----------------------------------------
Magnitude (a.u.)       :      0.65417
Magnitude (Debye)      :      1.66277

Rotational constants in cm-1:     0.156430     0.065284     0.047714
Rotational constants in MHz :  4689.642616  1957.161458  1430.436633

                             ****ORCA TERMINATED NORMALLY****
TOTAL RUN TIME: 0 days 0 hours 7 minutes 7 seconds 912 msec
