                         Program Version 5.0.3 -  RELEASE  -
|  1> !ri-mp2 aug-cc-pvtz aug-cc-pvtz/c tightscf
|  2> %pal nprocs 16 end
|  3>
|  4> * xyz 0 1
|  5> N     2.935965   -0.304877   -0.073828
|  6> C     1.606186    0.090118    0.012997
|  7> S     0.316726   -1.115816   -0.018860
|  8> C    -0.949684    0.127458   -0.004415
|  9> S    -2.581806   -0.148817    0.010440
| 10> C     1.075661    1.327803    0.016693
| 11> N    -0.317561    1.323933   -0.009342
| 12> H     3.193890   -1.060264    0.544728
| 13> H     3.594248    0.457458   -0.006269
| 14> H     1.603851    2.266439    0.028808
| 15> H    -0.872523    2.164827   -0.002006
| 16> *
| 17>
| 18>                          ****END OF INPUT****

CARTESIAN COORDINATES (ANGSTROEM)
---------------------------------
  N      2.935965   -0.304877   -0.073828
  C      1.606186    0.090118    0.012997
  S      0.316726   -1.115816   -0.018860
  C     -0.949684    0.127458   -0.004415
  S     -2.581806   -0.148817    0.010440
  C      1.075661    1.327803    0.016693
  N     -0.317561    1.323933   -0.009342
  H      3.193890   -1.060264    0.544728
  H      3.594248    0.457458   -0.006269
  H      1.603851    2.266439    0.028808
  H     -0.872523    2.164827   -0.002006

 Total Charge           Charge          ....    0
 Multiplicity           Mult            ....    1
 Number of Electrons    NEL             ....   68
 Basis Dimension        Dim             ....  422

ORBITAL ENERGIES
----------------

  NO   OCC          E(Eh)            E(eV)
   0   2.0000     -92.007975     -2503.6643
   1   2.0000     -91.900934     -2500.7516
   2   2.0000     -15.640134      -425.5897
   3   2.0000     -15.600082      -424.4998
   4   2.0000     -11.376513      -309.5706
   5   2.0000     -11.327788      -308.2448
   6   2.0000     -11.290009      -307.2168
   7   2.0000      -9.008210      -245.1258
   8   2.0000      -8.903768      -242.2838
   9   2.0000      -6.689005      -182.0171
  10   2.0000      -6.688300      -181.9979
  11   2.0000      -6.687369      -181.9726
  12   2.0000      -6.585299      -179.1951
  13   2.0000      -6.583340      -179.1418
  14   2.0000      -6.582711      -179.1247
  15   2.0000      -1.331009       -36.2186
  16   2.0000      -1.247036       -33.9336
  17   2.0000      -1.074175       -29.2298
  18   2.0000      -1.056413       -28.7465
  19   2.0000      -0.931637       -25.3511
  20   2.0000      -0.821350       -22.3501
  21   2.0000      -0.814866       -22.1736
  22   2.0000      -0.731176       -19.8963
  23   2.0000      -0.687246       -18.7009
  24   2.0000      -0.669369       -18.2145
  25   2.0000      -0.615916       -16.7599
  26   2.0000      -0.599000       -16.2996
  27   2.0000      -0.529140       -14.3986
  28   2.0000      -0.510158       -13.8821
  29   2.0000      -0.499955       -13.6045
  30   2.0000      -0.421582       -11.4718
  31   2.0000      -0.385421       -10.4879
  32   2.0000      -0.327176        -8.9029
  33   2.0000      -0.288983        -7.8636
  34   0.0000       0.015176         0.4130
  35   0.0000       0.027347         0.7442
  36   0.0000       0.039790         1.0827
  37   0.0000       0.055662         1.5146
  38   0.0000       0.066228         1.8021

MULLIKEN ATOMIC CHARGES
-----------------------
   0 N :   -0.589143
   1 C :    0.944389
   2 S :   -0.151818
   3 C :    0.164837
   4 S :   -0.556059
   5 C :   -0.769834
   6 N :    0.159097
   7 H :    0.098675
   8 H :    0.120564
   9 H :    0.497292
  10 H :    0.082000
Sum of atomic charges:    0.0000000

LOEWDIN ATOMIC CHARGES
----------------------
   0 N :    0.774700
   1 C :   -0.628033
   2 S :    1.220330
   3 C :   -1.360071
   4 S :    0.731072
   5 C :    0.028845
   6 N :    0.337040
   7 H :   -0.323791
   8 H :   -0.313002
   9 H :   -0.182267
  10 H :   -0.284822

  Mayer bond orders larger than 0.100000
B(  0-N ,  1-C ) :   0.7909 B(  0-N ,  7-H ) :   1.0844 B(  0-N ,  8-H ) :   0.9981
B(  1-C ,  2-S ) :   0.8562 B(  1-C ,  5-C ) :   1.1806 B(  1-C ,  6-N ) :  -0.1902
B(  2-S ,  3-C ) :   1.0328 B(  2-S ,  5-C ) :   0.1146 B(  3-C ,  4-S ) :   1.5517
B(  3-C ,  6-N ) :   1.3253 B(  5-C ,  6-N ) :   0.8310 B(  5-C ,  9-H ) :   0.7326
B(  6-N , 10-H ) :   1.0660

MP2 TOTAL ENERGY:    -1021.240999890 Eh
FINAL SINGLE POINT ENERGY     -1021.240999889730

DIPOLE MOMENT
-------------
                                X             Y             Z
Electronic contribution:     -4.92857      -2.65202      -0.16171
Nuclear contribution   :      7.34644       3.74190       0.54584
                        -----------------------------------------
Total Dipole Moment    :      2.41787       1.08988       0.38414
                        -----------------------------------------
Magnitude (a.u.)       :      2.67983
Magnitude (Debye)      :      6.81158

Rotational constants in cm-1:     0.169474     0.040003     0.032412
Rotational constants in MHz :  5080.717017  1199.250110   971.674519

                             ****ORCA TERMINATED NORMALLY****
TOTAL RUN TIME: 0 days 0 hours 3 minutes 36 seconds 639 msec
