                         Program Version 5.0.3 -  RELEASE  -
|  1> !ri-mp2 aug-cc-pvtz aug-cc-pvtz/c tightscf
|  2> %pal nprocs 16 end
|  3>
|  4> * xyz 0 1
|  5> C     -0.346200    2.073702    0.000000
|  6> H     -0.936846    2.330581    0.880543
|  7> H      0.558932    2.676627    0.000000
|  8> H     -0.936846    2.330581   -0.880543
|  9> C      0.000000    0.630252    0.000000
| 10> O     -1.025177   -0.242897    0.000000
| 11> N     -0.522613   -1.551143    0.000000
| 12> C      0.774494   -1.414513    0.000000
| 13> H      1.390658   -2.299799    0.000000
| 14> C      1.173944   -0.053727    0.000000
| 15> H      2.170386    0.348899    0.000000
| 16> *
| 17>
| 18>                          ****END OF INPUT****

CARTESIAN COORDINATES (ANGSTROEM)
---------------------------------
  C     -0.346200    2.073702    0.000000
  H     -0.936846    2.330581    0.880543
  H      0.558932    2.676627    0.000000
  H     -0.936846    2.330581   -0.880543
  C      0.000000    0.630252    0.000000
  O     -1.025177   -0.242897    0.000000
  N     -0.522613   -1.551143    0.000000
  C      0.774494   -1.414513    0.000000
  H      1.390658   -2.299799    0.000000
  C      1.173944   -0.053727    0.000000
  H      2.170386    0.348899    0.000000

 Total Charge           Charge          ....    0
 Multiplicity           Mult            ....    1
 Number of Electrons    NEL             ....   44
 Basis Dimension        Dim             ....  391

ORBITAL ENERGIES
----------------

  NO   OCC          E(Eh)            E(eV)
   0   2.0000     -20.639798      -561.6374
   1   2.0000     -15.618258      -424.9944
   2   2.0000     -11.321030      -308.0609
   3   2.0000     -11.278519      -306.9041
   4   2.0000     -11.250064      -306.1298
   5   2.0000     -11.233170      -305.6701
   6   2.0000      -1.487413       -40.4746
   7   2.0000      -1.166702       -31.7476
   8   2.0000      -1.090229       -29.6667
   9   2.0000      -0.982394       -26.7323
  10   2.0000      -0.825029       -22.4502
  11   2.0000      -0.794049       -21.6072
  12   2.0000      -0.704365       -19.1667
  13   2.0000      -0.662116       -18.0171
  14   2.0000      -0.622710       -16.9448
  15   2.0000      -0.583769       -15.8852
  16   2.0000      -0.580660       -15.8006
  17   2.0000      -0.565959       -15.4005
  18   2.0000      -0.551149       -14.9975
  19   2.0000      -0.474890       -12.9224
  20   2.0000      -0.426770       -11.6130
  21   2.0000      -0.357120        -9.7177
  22   0.0000       0.024901         0.6776
  23   0.0000       0.030656         0.8342
  24   0.0000       0.040810         1.1105
  25   0.0000       0.046449         1.2639
  26   0.0000       0.055142         1.5005

MULLIKEN ATOMIC CHARGES
-----------------------
   0 C :   -0.782388
   1 H :    0.303871
   2 H :    0.286176
   3 H :    0.303871
   4 C :    0.502057
   5 O :   -0.399692
   6 N :   -0.492119
   7 C :   -0.274091
   8 H :    0.675706
   9 C :   -0.540871
  10 H :    0.417480
Sum of atomic charges:    0.0000000

LOEWDIN ATOMIC CHARGES
----------------------
   0 C :    0.598874
   1 H :   -0.167761
   2 H :   -0.176085
   3 H :   -0.167761
   4 C :   -0.410990
   5 O :    0.422450
   6 N :    0.156597
   7 C :   -0.059659
   8 H :   -0.194702
   9 C :    0.196688
  10 H :   -0.197651

  Mayer bond orders larger than 0.100000
B(  0-C ,  1-H ) :   0.9625 B(  0-C ,  2-H ) :   0.9839 B(  0-C ,  3-H ) :   0.9625
B(  0-C ,  4-C ) :   0.6774 B(  4-C ,  5-O ) :   1.0186 B(  4-C ,  9-C ) :   1.2550
B(  5-O ,  6-N ) :   0.7216 B(  5-O ,  9-C ) :  -0.1342 B(  6-N ,  7-C ) :   1.2615
B(  7-C ,  8-H ) :   0.5167 B(  7-C ,  9-C ) :   0.9379 B(  9-C , 10-H ) :   0.9284

MP2 TOTAL ENERGY:     -284.836231487 Eh
FINAL SINGLE POINT ENERGY      -284.836231487241

DIPOLE MOMENT
-------------
                                X             Y             Z
Electronic contribution:     -1.19741      -4.36915       0.00000
Nuclear contribution   :      2.21487       5.34454       0.00000
                        -----------------------------------------
Total Dipole Moment    :      1.01746       0.97539       0.00000
                        -----------------------------------------
Magnitude (a.u.)       :      1.40947
Magnitude (Debye)      :      3.58258

Rotational constants in cm-1:     0.310778     0.118834     0.087356
Rotational constants in MHz :  9316.879348  3562.539210  2618.864881

                             ****ORCA TERMINATED NORMALLY****
TOTAL RUN TIME: 0 days 0 hours 2 minutes 29 seconds 1 msec
