                         Program Version 5.0.3 -  RELEASE  -
|  1> !ri-mp2 aug-cc-pvtz aug-cc-pvtz/c tightscf
|  2> %pal nprocs 16 end
|  3>
|  4> * xyz 0 1
|  5> S     -1.381222    0.952356    0.131158
|  6> S     -1.060922   -1.105763   -0.180184
|  7> O      0.561045   -1.063545    0.339172
|  8> C      1.148044    0.146398   -0.006454
|  9> C      2.633844    0.082759   -0.038161
| 10> C      0.357752    1.202401   -0.188373
| 11> H      2.975948   -0.613159   -0.805738
| 12> H      3.010492   -0.275655    0.922250
| 13> H      3.055424    1.065713   -0.234875
| 14> H      0.706231    2.196611   -0.412681
| 15> *
| 16>
| 17>                          ****END OF INPUT****

CARTESIAN COORDINATES (ANGSTROEM)
---------------------------------
  S     -1.381222    0.952356    0.131158
  S     -1.060922   -1.105763   -0.180184
  O      0.561045   -1.063545    0.339172
  C      1.148044    0.146398   -0.006454
  C      2.633844    0.082759   -0.038161
  C      0.357752    1.202401   -0.188373
  H      2.975948   -0.613159   -0.805738
  H      3.010492   -0.275655    0.922250
  H      3.055424    1.065713   -0.234875
  H      0.706231    2.196611   -0.412681

 Total Charge           Charge          ....    0
 Multiplicity           Mult            ....    1
 Number of Electrons    NEL             ....   62
 Basis Dimension        Dim             ....  376

ORBITAL ENERGIES
----------------

  NO   OCC          E(Eh)            E(eV)
   0   2.0000     -92.035512     -2504.4136
   1   2.0000     -91.995105     -2503.3141
   2   2.0000     -20.619651      -561.0892
   3   2.0000     -11.322621      -308.1042
   4   2.0000     -11.265867      -306.5598
   5   2.0000     -11.246431      -306.0310
   6   2.0000      -9.028153      -245.6685
   7   2.0000      -8.993230      -244.7182
   8   2.0000      -6.708789      -182.5554
   9   2.0000      -6.707599      -182.5230
  10   2.0000      -6.705731      -182.4722
  11   2.0000      -6.674139      -181.6125
  12   2.0000      -6.673257      -181.5886
  13   2.0000      -6.671830      -181.5497
  14   2.0000      -1.420435       -38.6520
  15   2.0000      -1.096099       -29.8264
  16   2.0000      -1.057982       -28.7892
  17   2.0000      -0.950493       -25.8642
  18   2.0000      -0.851250       -23.1637
  19   2.0000      -0.773267       -21.0417
  20   2.0000      -0.670630       -18.2488
  21   2.0000      -0.646662       -17.5966
  22   2.0000      -0.620211       -16.8768
  23   2.0000      -0.572795       -15.5865
  24   2.0000      -0.571899       -15.5622
  25   2.0000      -0.538530       -14.6542
  26   2.0000      -0.510247       -13.8845
  27   2.0000      -0.480589       -13.0775
  28   2.0000      -0.444192       -12.0871
  29   2.0000      -0.386112       -10.5066
  30   2.0000      -0.305955        -8.3255
  31   0.0000       0.027466         0.7474
  32   0.0000       0.035399         0.9632
  33   0.0000       0.046045         1.2530
  34   0.0000       0.048534         1.3207
  35   0.0000       0.057725         1.5708

MULLIKEN ATOMIC CHARGES
-----------------------
   0 S :   -0.157474
   1 S :    0.119209
   2 O :   -0.578308
   3 C :    0.779191
   4 C :   -0.788477
   5 C :   -0.634849
   6 H :    0.299757
   7 H :    0.296259
   8 H :    0.289931
   9 H :    0.374760
Sum of atomic charges:   -0.0000000

LOEWDIN ATOMIC CHARGES
----------------------
   0 S :    0.660575
   1 S :    0.467792
   2 O :    0.079084
   3 C :   -0.648346
   4 C :    0.556376
   5 C :   -0.312741
   6 H :   -0.171485
   7 H :   -0.170956
   8 H :   -0.180865
   9 H :   -0.279434

  Mayer bond orders larger than 0.100000
B(  0-S ,  1-S ) :   1.0549 B(  0-S ,  5-C ) :   0.8790 B(  1-S ,  2-O ) :   0.7892
B(  2-O ,  3-C ) :   0.7236 B(  3-C ,  4-C ) :   0.6890 B(  3-C ,  5-C ) :   1.4750
B(  4-C ,  6-H ) :   0.9583 B(  4-C ,  7-H ) :   0.9716 B(  4-C ,  8-H ) :   0.9703
B(  5-C ,  9-H ) :   0.9539

MP2 TOTAL ENERGY:     -986.987256195 Eh
FINAL SINGLE POINT ENERGY      -986.987256194938

DIPOLE MOMENT
-------------
                                X             Y             Z
Electronic contribution:     -8.78369      -1.82406       0.31851
Nuclear contribution   :      9.52604       2.28792      -0.50786
                        -----------------------------------------
Total Dipole Moment    :      0.74235       0.46387      -0.18935
                        -----------------------------------------
Magnitude (a.u.)       :      0.89561
Magnitude (Debye)      :      2.27646

Rotational constants in cm-1:     0.145243     0.071489     0.049485
Rotational constants in MHz :  4354.288704  2143.200720  1483.513064

                             ****ORCA TERMINATED NORMALLY****
TOTAL RUN TIME: 0 days 0 hours 2 minutes 28 seconds 168 msec
