                         Program Version 5.0.3 -  RELEASE  -
|  1> !ri-mp2 aug-cc-pvtz aug-cc-pvtz/c tightscf
|  2> %pal nprocs 16 end
|  3>
|  4> * xyz 0 1
|  5> O      2.917786   -1.157943   -0.000019
|  6> O      2.935541    1.069886   -0.000044
|  7> O     -4.203167    0.107734    0.000034
|  8> C      2.298217   -0.130187   -0.000019
|  9> C      0.859664   -0.051301    0.000006
| 10> C     -0.350583   -0.022132    0.000009
| 11> C     -1.705579    0.003733    0.000014
| 12> C     -2.911532    0.002168    0.000026
| 13> H      2.290340    1.788517   -0.000042
| 14> H     -4.632743   -0.759617    0.000060
| 15> *
| 16>
| 17>                          ****END OF INPUT****

CARTESIAN COORDINATES (ANGSTROEM)
---------------------------------
  O      2.917786   -1.157943   -0.000019
  O      2.935541    1.069886   -0.000044
  O     -4.203167    0.107734    0.000034
  C      2.298217   -0.130187   -0.000019
  C      0.859664   -0.051301    0.000006
  C     -0.350583   -0.022132    0.000009
  C     -1.705579    0.003733    0.000014
  C     -2.911532    0.002168    0.000026
  H      2.290340    1.788517   -0.000042
  H     -4.632743   -0.759617    0.000060

 Total Charge           Charge          ....    0
 Multiplicity           Mult            ....    1
 Number of Electrons    NEL             ....   56
 Basis Dimension        Dim             ....  414

ORBITAL ENERGIES
----------------

  NO   OCC          E(Eh)            E(eV)
   0   2.0000     -20.677641      -562.6672
   1   2.0000     -20.624521      -561.2218
   2   2.0000     -20.560305      -559.4743
   3   2.0000     -11.417558      -310.6875
   4   2.0000     -11.351512      -308.8903
   5   2.0000     -11.300346      -307.4980
   6   2.0000     -11.273272      -306.7613
   7   2.0000     -11.272651      -306.7444
   8   2.0000      -1.493991       -40.6536
   9   2.0000      -1.472169       -40.0598
  10   2.0000      -1.377910       -37.4948
  11   2.0000      -1.118814       -30.4445
  12   2.0000      -1.053544       -28.6684
  13   2.0000      -0.928132       -25.2558
  14   2.0000      -0.869586       -23.6626
  15   2.0000      -0.826570       -22.4921
  16   2.0000      -0.795048       -21.6344
  17   2.0000      -0.707535       -19.2530
  18   2.0000      -0.674201       -18.3460
  19   2.0000      -0.663620       -18.0580
  20   2.0000      -0.644351       -17.5337
  21   2.0000      -0.613074       -16.6826
  22   2.0000      -0.512401       -13.9431
  23   2.0000      -0.511363       -13.9149
  24   2.0000      -0.485814       -13.2197
  25   2.0000      -0.480389       -13.0720
  26   2.0000      -0.383265       -10.4292
  27   2.0000      -0.372693       -10.1415
  28   0.0000       0.011623         0.3163
  29   0.0000       0.030437         0.8282
  30   0.0000       0.059204         1.6110
  31   0.0000       0.064516         1.7556
  32   0.0000       0.064892         1.7658

MULLIKEN ATOMIC CHARGES
-----------------------
   0 O :   -0.605025
   1 O :   -0.358053
   2 O :   -0.443546
   3 C :    0.320205
   4 C :    1.523476
   5 C :   -1.761037
   6 C :    1.047067
   7 C :   -0.195015
   8 H :    0.225811
   9 H :    0.246117
Sum of atomic charges:    0.0000000

LOEWDIN ATOMIC CHARGES
----------------------
   0 O :    0.425612
   1 O :    0.817070
   2 O :    0.788312
   3 C :   -0.882249
   4 C :    0.050862
   5 C :   -0.041705
   6 C :   -0.070424
   7 C :   -0.154460
   8 H :   -0.490875
   9 H :   -0.442143

  Mayer bond orders larger than 0.100000
B(  0-O ,  3-C ) :   1.7748 B(  0-O ,  4-C ) :  -0.2243 B(  0-O ,  5-C ) :   0.1233
B(  1-O ,  3-C ) :   1.0638 B(  1-O ,  8-H ) :   0.9462 B(  2-O ,  4-C ) :  -0.2232
B(  2-O ,  5-C ) :   0.1840 B(  2-O ,  6-C ) :   0.1356 B(  2-O ,  7-C ) :   0.8184
B(  2-O ,  9-H ) :   0.9661 B(  3-C ,  4-C ) :  -0.1782 B(  3-C ,  5-C ) :  -1.1926
B(  3-C ,  7-C ) :   2.2089 B(  4-C ,  5-C ) :  -0.5121 B(  4-C ,  6-C ) :  -2.7556
B(  4-C ,  7-C ) :   5.7626 B(  5-C ,  6-C ) :   3.5185 B(  5-C ,  7-C ) :  -6.2638
B(  6-C ,  7-C ) :   0.3348

MP2 TOTAL ENERGY:     -416.583385315 Eh
FINAL SINGLE POINT ENERGY      -416.583385314758

DIPOLE MOMENT
-------------
                                X             Y             Z
Electronic contribution:     -0.16777      -0.47137       0.00001
Nuclear contribution   :     -2.21335       0.98343       0.00002
                        -----------------------------------------
Total Dipole Moment    :     -2.38113       0.51205       0.00003
                        -----------------------------------------
Magnitude (a.u.)       :      2.43556
Magnitude (Debye)      :      6.19071

Rotational constants in cm-1:     0.383886     0.021225     0.020113
Rotational constants in MHz : 11508.622701   636.318539   602.979450

                             ****ORCA TERMINATED NORMALLY****
TOTAL RUN TIME: 0 days 0 hours 2 minutes 27 seconds 76 msec
