                         Program Version 5.0.3 -  RELEASE  -
|  1> !ri-mp2 aug-cc-pvtz aug-cc-pvtz/c tightscf
|  2> %pal nprocs 16 end
|  3>
|  4> * xyz 0 1
|  5> Cl   -2.273721   -1.145016    0.000007
|  6> N    -0.545925    0.931210   -0.000361
|  7> N     0.780358    1.189764   -0.000206
|  8> N     0.415924   -1.046068    0.000109
|  9> C    -1.507346    2.016770    0.000250
| 10> C    -0.725032   -0.407416   -0.000057
| 11> C     1.323326   -0.022938    0.000027
| 12> C     2.726873   -0.228945    0.000057
| 13> C     3.911599   -0.413981    0.000075
| 14> H    -1.359292    2.633377   -0.883814
| 15> H    -2.508410    1.598147   -0.006840
| 16> H    -1.368588    2.625200    0.891548
| 17> H     4.960520   -0.576746    0.000087
| 18> *
| 19>
| 20>                          ****END OF INPUT****

CARTESIAN COORDINATES (ANGSTROEM)
---------------------------------
  Cl    -2.273721   -1.145016    0.000007
  N     -0.545925    0.931210   -0.000361
  N      0.780358    1.189764   -0.000206
  N      0.415924   -1.046068    0.000109
  C     -1.507346    2.016770    0.000250
  C     -0.725032   -0.407416   -0.000057
  C      1.323326   -0.022938    0.000027
  C      2.726873   -0.228945    0.000057
  C      3.911599   -0.413981    0.000075
  H     -1.359292    2.633377   -0.883814
  H     -2.508410    1.598147   -0.006840
  H     -1.368588    2.625200    0.891548
  H      4.960520   -0.576746    0.000087

 Total Charge           Charge          ....    0
 Multiplicity           Mult            ....    1
 Number of Electrons    NEL             ....   72
 Basis Dimension        Dim             ....  510

ORBITAL ENERGIES
----------------

  NO   OCC          E(Eh)            E(eV)
   0   2.0000    -104.883647     -2854.0291
   1   2.0000     -15.677535      -426.6074
   2   2.0000     -15.615206      -424.9114
   3   2.0000     -15.579503      -423.9398
   4   2.0000     -11.387748      -309.8764
   5   2.0000     -11.329185      -308.2828
   6   2.0000     -11.295142      -307.3565
   7   2.0000     -11.248496      -306.0871
   8   2.0000     -11.243971      -305.9640
   9   2.0000     -10.607305      -288.6394
  10   2.0000      -8.074291      -219.7126
  11   2.0000      -8.072114      -219.6534
  12   2.0000      -8.072102      -219.6531
  13   2.0000      -1.444242       -39.2998
  14   2.0000      -1.242029       -33.7973
  15   2.0000      -1.200547       -32.6685
  16   2.0000      -1.113218       -30.2922
  17   2.0000      -1.051503       -28.6128
  18   2.0000      -0.988615       -26.9016
  19   2.0000      -0.888478       -24.1767
  20   2.0000      -0.818834       -22.2816
  21   2.0000      -0.760869       -20.7043
  22   2.0000      -0.715049       -19.4575
  23   2.0000      -0.697531       -18.9808
  24   2.0000      -0.656585       -17.8666
  25   2.0000      -0.627393       -17.0722
  26   2.0000      -0.599460       -16.3121
  27   2.0000      -0.599402       -16.3106
  28   2.0000      -0.532028       -14.4772
  29   2.0000      -0.526116       -14.3164
  30   2.0000      -0.496992       -13.5238
  31   2.0000      -0.465299       -12.6614
  32   2.0000      -0.457402       -12.4465
  33   2.0000      -0.413243       -11.2449
  34   2.0000      -0.413233       -11.2446
  35   2.0000      -0.351900        -9.5757
  36   0.0000       0.025237         0.6867
  37   0.0000       0.032209         0.8764
  38   0.0000       0.043155         1.1743
  39   0.0000       0.043937         1.1956
  40   0.0000       0.061642         1.6774

MULLIKEN ATOMIC CHARGES
-----------------------
   0 Cl:   -0.275962
   1 N :    0.748401
   2 N :   -0.850762
   3 N :   -0.323398
   4 C :   -0.785665
   5 C :    0.014817
   6 C :    0.576919
   7 C :    1.555411
   8 C :   -2.104739
   9 H :    0.354605
  10 H :    0.381526
  11 H :    0.353878
  12 H :    0.354968
Sum of atomic charges:    0.0000000

LOEWDIN ATOMIC CHARGES
----------------------
   0 Cl:    1.039523
   1 N :   -0.043385
   2 N :    0.329704
   3 N :    0.306672
   4 C :    0.506237
   5 C :   -1.093097
   6 C :   -0.627151
   7 C :   -0.011405
   8 C :    0.409650
   9 H :   -0.158623
  10 H :   -0.209381
  11 H :   -0.158457
  12 H :   -0.290287

  Mayer bond orders larger than 0.100000
B(  0-Cl,  5-C ) :   0.7882 B(  1-N ,  2-N ) :   0.1941 B(  1-N ,  3-N ) :  -0.1909
B(  1-N ,  4-C ) :   0.7698 B(  1-N ,  5-C ) :   1.2970 B(  2-N ,  3-N ) :   0.1115
B(  2-N ,  6-C ) :   1.3837 B(  2-N ,  7-C ) :  -0.1436 B(  3-N ,  5-C ) :   1.2784
B(  3-N ,  6-C ) :   0.9019 B(  3-N ,  7-C ) :  -0.1639 B(  4-C ,  9-H ) :   0.9043
B(  4-C , 10-H ) :   0.8616 B(  4-C , 11-H ) :   0.9051 B(  6-C ,  7-C ) :   0.6659
B(  6-C ,  8-C ) :  -0.6553 B(  7-C ,  8-C ) :  -0.2925 B(  7-C , 12-H ) :  -0.3930
B(  8-C , 12-H ) :   1.4272

MP2 TOTAL ENERGY:     -816.157779025 Eh
FINAL SINGLE POINT ENERGY      -816.157779024661

DIPOLE MOMENT
-------------
                                X             Y             Z
Electronic contribution:     -3.63479      -6.79826      -0.00095
Nuclear contribution   :      2.84746       7.56952       0.00092
                        -----------------------------------------
Total Dipole Moment    :     -0.78733       0.77126      -0.00002
                        -----------------------------------------
Magnitude (a.u.)       :      1.10215
Magnitude (Debye)      :      2.80144

Rotational constants in cm-1:     0.102446     0.029925     0.023261
Rotational constants in MHz :  3071.253252   897.129563   697.360162

                             ****ORCA TERMINATED NORMALLY****
TOTAL RUN TIME: 0 days 0 hours 5 minutes 14 seconds 582 msec
