                         Program Version 5.0.3 -  RELEASE  -
|  1> !ri-mp2 aug-cc-pvtz aug-cc-pvtz/c tightscf
|  2> %pal nprocs 16 end
|  3>
|  4> * xyz 0 1
|  5> Cl    2.930400   -0.091791    0.000009
|  6> N    -0.768407   -1.166317   -0.000008
|  7> N     0.553379   -1.155933   -0.000004
|  8> N    -4.016345   -0.114795   -0.000012
|  9> C    -0.799758    1.241089    0.000003
| 10> C     0.573371    1.246721    0.000007
| 11> C    -1.433356   -0.007434   -0.000005
| 12> C     1.197294   -0.000622    0.000004
| 13> C    -2.865884   -0.095394   -0.000009
| 14> H    -1.376813    2.154336    0.000005
| 15> H     1.149618    2.159260    0.000013
| 16> *
| 17>
| 18>                          ****END OF INPUT****

CARTESIAN COORDINATES (ANGSTROEM)
---------------------------------
  Cl     2.930400   -0.091791    0.000009
  N     -0.768407   -1.166317   -0.000008
  N      0.553379   -1.155933   -0.000004
  N     -4.016345   -0.114795   -0.000012
  C     -0.799758    1.241089    0.000003
  C      0.573371    1.246721    0.000007
  C     -1.433356   -0.007434   -0.000005
  C      1.197294   -0.000622    0.000004
  C     -2.865884   -0.095394   -0.000009
  H     -1.376813    2.154336    0.000005
  H      1.149618    2.159260    0.000013

 Total Charge           Charge          ....    0
 Multiplicity           Mult            ....    1
 Number of Electrons    NEL             ....   70
 Basis Dimension        Dim             ....  464

ORBITAL ENERGIES
----------------

  NO   OCC          E(Eh)            E(eV)
   0   2.0000    -104.878201     -2853.8809
   1   2.0000     -15.665608      -426.2829
   2   2.0000     -15.654042      -425.9681
   3   2.0000     -15.599113      -424.4734
   4   2.0000     -11.383711      -309.7665
   5   2.0000     -11.353174      -308.9356
   6   2.0000     -11.319539      -308.0203
   7   2.0000     -11.312834      -307.8379
   8   2.0000     -11.297876      -307.4308
   9   2.0000     -10.602035      -288.4960
  10   2.0000      -8.068917      -219.5664
  11   2.0000      -8.066881      -219.5110
  12   2.0000      -8.066823      -219.5094
  13   2.0000      -1.405775       -38.2531
  14   2.0000      -1.250414       -34.0255
  15   2.0000      -1.214113       -33.0377
  16   2.0000      -1.168154       -31.7871
  17   2.0000      -1.108675       -30.1686
  18   2.0000      -0.970370       -26.4051
  19   2.0000      -0.928933       -25.2776
  20   2.0000      -0.814486       -22.1633
  21   2.0000      -0.765022       -20.8173
  22   2.0000      -0.707296       -19.2465
  23   2.0000      -0.657817       -17.9001
  24   2.0000      -0.645514       -17.5653
  25   2.0000      -0.629580       -17.1317
  26   2.0000      -0.585892       -15.9429
  27   2.0000      -0.548238       -14.9183
  28   2.0000      -0.539748       -14.6873
  29   2.0000      -0.502321       -13.6689
  30   2.0000      -0.500460       -13.6182
  31   2.0000      -0.490804       -13.3555
  32   2.0000      -0.450355       -12.2548
  33   2.0000      -0.448234       -12.1971
  34   2.0000      -0.397939       -10.8285
  35   0.0000       0.016549         0.4503
  36   0.0000       0.032868         0.8944
  37   0.0000       0.034618         0.9420
  38   0.0000       0.040338         1.0977
  39   0.0000       0.058084         1.5805

MULLIKEN ATOMIC CHARGES
-----------------------
   0 Cl:   -0.298985
   1 N :   -0.556569
   2 N :   -0.277515
   3 N :   -0.668072
   4 C :   -0.875659
   5 C :   -0.390838
   6 C :    1.468755
   7 C :    0.545008
   8 C :    0.228154
   9 H :    0.322097
  10 H :    0.503623
Sum of atomic charges:    0.0000000

LOEWDIN ATOMIC CHARGES
----------------------
   0 Cl:    0.991213
   1 N :    0.215552
   2 N :    0.129601
   3 N :    0.280064
   4 C :    0.208035
   5 C :    0.128268
   6 C :   -0.385849
   7 C :   -0.976607
   8 C :   -0.241452
   9 H :   -0.159694
  10 H :   -0.189130

  Mayer bond orders larger than 0.100000
B(  0-Cl,  7-C ) :   0.7708 B(  1-N ,  4-C ) :   0.1142 B(  1-N ,  6-C ) :   0.7459
B(  1-N ,  7-C ) :   0.1421 B(  1-N ,  8-C ) :   0.2224 B(  2-N ,  6-C ) :   0.1749
B(  2-N ,  7-C ) :   1.2412 B(  3-N ,  6-C ) :  -0.1183 B(  3-N ,  8-C ) :   2.1932
B(  4-C ,  5-C ) :   1.4217 B(  4-C ,  6-C ) :   0.5674 B(  4-C ,  7-C ) :   0.1215
B(  4-C ,  8-C ) :   0.3073 B(  4-C ,  9-H ) :   1.0836 B(  5-C ,  7-C ) :   0.9907
B(  5-C , 10-H ) :   0.7763 B(  6-C ,  7-C ) :  -0.1546 B(  6-C ,  8-C ) :   0.4857
B(  7-C ,  8-C ) :   0.2567

MP2 TOTAL ENERGY:     -814.981662505 Eh
FINAL SINGLE POINT ENERGY      -814.981662505146

DIPOLE MOMENT
-------------
                                X             Y             Z
Electronic contribution:      5.34588      -2.38590       0.00001
Nuclear contribution   :     -4.18708       4.17407       0.00000
                        -----------------------------------------
Total Dipole Moment    :      1.15880       1.78817       0.00001
                        -----------------------------------------
Magnitude (a.u.)       :      2.13081
Magnitude (Debye)      :      5.41610

Rotational constants in cm-1:     0.198861     0.024143     0.021530
Rotational constants in MHz :  5961.688820   723.801476   645.439448

                             ****ORCA TERMINATED NORMALLY****
TOTAL RUN TIME: 0 days 0 hours 4 minutes 27 seconds 759 msec
