                         Program Version 5.0.3 -  RELEASE  -
|  1> !ri-mp2 aug-cc-pvtz aug-cc-pvtz/c tightscf
|  2> %pal nprocs 16 end
|  3>
|  4> * xyz 0 1
|  5> Cl   -3.081143    0.085415    0.053858
|  6> O     3.477026    0.490747    0.348644
|  7> N     0.521246   -1.313680   -0.003582
|  8> N    -0.801147   -1.191495    0.027950
|  9> N     2.647107   -0.500843   -0.241609
| 10> C     1.286485   -0.231016   -0.098672
| 11> C    -1.337020    0.006725   -0.003734
| 12> C     0.766362    1.071813   -0.120508
| 13> C    -0.597170    1.192029   -0.066717
| 14> H     4.072324    0.747301   -0.364548
| 15> H     2.880061   -1.402555    0.159613
| 16> H     1.418677    1.929694   -0.168056
| 17> H    -1.090219    2.152346   -0.073288
| 18> *
| 19>
| 20>                          ****END OF INPUT****

CARTESIAN COORDINATES (ANGSTROEM)
---------------------------------
  Cl    -3.081143    0.085415    0.053858
  O      3.477026    0.490747    0.348644
  N      0.521246   -1.313680   -0.003582
  N     -0.801147   -1.191495    0.027950
  N      2.647107   -0.500843   -0.241609
  C      1.286485   -0.231016   -0.098672
  C     -1.337020    0.006725   -0.003734
  C      0.766362    1.071813   -0.120508
  C     -0.597170    1.192029   -0.066717
  H      4.072324    0.747301   -0.364548
  H      2.880061   -1.402555    0.159613
  H      1.418677    1.929694   -0.168056
  H     -1.090219    2.152346   -0.073288

 Total Charge           Charge          ....    0
 Multiplicity           Mult            ....    1
 Number of Electrons    NEL             ....   74
 Basis Dimension        Dim             ....  510

ORBITAL ENERGIES
----------------

  NO   OCC          E(Eh)            E(eV)
   0   2.0000    -104.850901     -2853.1381
   1   2.0000     -20.627486      -561.3024
   2   2.0000     -15.645466      -425.7348
   3   2.0000     -15.627671      -425.2506
   4   2.0000     -15.616559      -424.9482
   5   2.0000     -11.343790      -308.6802
   6   2.0000     -11.336579      -308.4840
   7   2.0000     -11.288466      -307.1748
   8   2.0000     -11.279687      -306.9359
   9   2.0000     -10.574703      -287.7523
  10   2.0000      -8.041588      -218.8227
  11   2.0000      -8.039617      -218.7691
  12   2.0000      -8.039616      -218.7691
  13   2.0000      -1.446153       -39.3518
  14   2.0000      -1.371296       -37.3149
  15   2.0000      -1.210985       -32.9526
  16   2.0000      -1.161830       -31.6150
  17   2.0000      -1.107285       -30.1308
  18   2.0000      -1.050104       -28.5748
  19   2.0000      -0.925338       -25.1797
  20   2.0000      -0.869837       -23.6695
  21   2.0000      -0.765713       -20.8361
  22   2.0000      -0.744192       -20.2505
  23   2.0000      -0.717228       -19.5168
  24   2.0000      -0.674695       -18.3594
  25   2.0000      -0.653718       -17.7886
  26   2.0000      -0.627170       -17.0662
  27   2.0000      -0.613360       -16.6904
  28   2.0000      -0.599226       -16.3058
  29   2.0000      -0.531224       -14.4553
  30   2.0000      -0.522210       -14.2101
  31   2.0000      -0.505596       -13.7580
  32   2.0000      -0.468826       -12.7574
  33   2.0000      -0.463296       -12.6069
  34   2.0000      -0.422280       -11.4908
  35   2.0000      -0.419262       -11.4087
  36   2.0000      -0.348954        -9.4955
  37   0.0000       0.020386         0.5547
  38   0.0000       0.031439         0.8555
  39   0.0000       0.041054         1.1171
  40   0.0000       0.053381         1.4526
  41   0.0000       0.061188         1.6650

MULLIKEN ATOMIC CHARGES
-----------------------
   0 Cl:   -0.345261
   1 O :   -0.445483
   2 N :   -0.197661
   3 N :   -0.449121
   4 N :   -0.165574
   5 C :    0.572921
   6 C :    0.520140
   7 C :   -0.321355
   8 C :   -0.530856
   9 H :    0.215216
  10 H :    0.167804
  11 H :    0.469524
  12 H :    0.509706
Sum of atomic charges:    0.0000000

LOEWDIN ATOMIC CHARGES
----------------------
   0 Cl:    0.944282
   1 O :    0.727293
   2 N :    0.214492
   3 N :    0.111799
   4 N :    0.328461
   5 C :   -0.463864
   6 C :   -0.987837
   7 C :    0.216997
   8 C :    0.110731
   9 H :   -0.500564
  10 H :   -0.327103
  11 H :   -0.182269
  12 H :   -0.192419

  Mayer bond orders larger than 0.100000
B(  0-Cl,  6-C ) :   0.7222 B(  1-O ,  4-N ) :   0.7866 B(  1-O ,  9-H ) :   0.9994
B(  2-N ,  3-N ) :  -0.1869 B(  2-N ,  4-N ) :  -0.1714 B(  2-N ,  5-C ) :   1.3489
B(  3-N ,  6-C ) :   1.3417 B(  4-N ,  5-C ) :   0.8026 B(  4-N , 10-H ) :   0.9376
B(  5-C ,  7-C ) :   0.8010 B(  6-C ,  7-C ) :   0.1055 B(  6-C ,  8-C ) :   0.9880
B(  7-C ,  8-C ) :   1.4301 B(  7-C , 11-H ) :   0.8696 B(  8-C , 12-H ) :   0.7385

MP2 TOTAL ENERGY:     -853.245213227 Eh
FINAL SINGLE POINT ENERGY      -853.245213226665

DIPOLE MOMENT
-------------
                                X             Y             Z
Electronic contribution:    -10.02311      -1.74139       0.18534
Nuclear contribution   :     11.22674       3.14592      -0.49567
                        -----------------------------------------
Total Dipole Moment    :      1.20364       1.40453      -0.31034
                        -----------------------------------------
Magnitude (a.u.)       :      1.87557
Magnitude (Debye)      :      4.76731

Rotational constants in cm-1:     0.172905     0.023271     0.020682
Rotational constants in MHz :  5183.560150   697.656775   620.028887

                             ****ORCA TERMINATED NORMALLY****
TOTAL RUN TIME: 0 days 0 hours 5 minutes 9 seconds 667 msec
