                         Program Version 5.0.3 -  RELEASE  -
|  1> !ri-mp2 aug-cc-pvtz aug-cc-pvtz/c tightscf
|  2> %pal nprocs 16 end
|  3>
|  4> * xyz 0 1
|  5> C     -1.358848    0.996788        0.000000
|  6> C     -1.701599   -1.270252        0.000000
|  7> C      2.192531    0.578405        0.000000
|  8> C      0.000000    0.735121        0.000000
|  9> C      0.431371   -0.608939        0.000000
| 10> N     -2.209140   -0.025435        0.000000
| 11> N     -0.422841   -1.629439        0.000000
| 12> N      1.809446   -0.668802        0.000000
| 13> N      1.159397    1.480474        0.000000
| 14> H     -1.773845    1.998833        0.000000
| 15> H     -2.428333   -2.073138        0.000000
| 16> H      3.219520    0.908175        0.000000
| 17> H      1.243895    2.481808        0.000000
| 18> *
| 19>
| 20>                          ****END OF INPUT****

CARTESIAN COORDINATES (ANGSTROEM)
---------------------------------
  C     -1.358848    0.996788    0.000000
  C     -1.701599   -1.270252    0.000000
  C      2.192531    0.578405    0.000000
  C      0.000000    0.735121    0.000000
  C      0.431371   -0.608939    0.000000
  N     -2.209140   -0.025435    0.000000
  N     -0.422841   -1.629439    0.000000
  N      1.809446   -0.668802    0.000000
  N      1.159397    1.480474    0.000000
  H     -1.773845    1.998833    0.000000
  H     -2.428333   -2.073138    0.000000
  H      3.219520    0.908175    0.000000
  H      1.243895    2.481808    0.000000

 Total Charge           Charge          ....    0
 Multiplicity           Mult            ....    1
 Number of Electrons    NEL             ....   62
 Basis Dimension        Dim             ....  506

ORBITAL ENERGIES
----------------

  NO   OCC          E(Eh)            E(eV)
   0   2.0000     -15.645111      -425.7251
   1   2.0000     -15.570278      -423.6888
   2   2.0000     -15.568903      -423.6514
   3   2.0000     -15.568528      -423.6412
   4   2.0000     -11.344452      -308.6982
   5   2.0000     -11.312892      -307.8394
   6   2.0000     -11.306116      -307.6551
   7   2.0000     -11.304664      -307.6156
   8   2.0000     -11.288355      -307.1717
   9   2.0000      -1.378488       -37.5106
  10   2.0000      -1.300025       -35.3755
  11   2.0000      -1.221572       -33.2407
  12   2.0000      -1.172140       -31.8956
  13   2.0000      -1.060009       -28.8443
  14   2.0000      -0.917918       -24.9778
  15   2.0000      -0.886181       -24.1142
  16   2.0000      -0.853423       -23.2228
  17   2.0000      -0.780672       -21.2432
  18   2.0000      -0.723180       -19.6787
  19   2.0000      -0.703619       -19.1464
  20   2.0000      -0.653127       -17.7725
  21   2.0000      -0.644559       -17.5394
  22   2.0000      -0.620390       -16.8817
  23   2.0000      -0.588812       -16.0224
  24   2.0000      -0.547175       -14.8894
  25   2.0000      -0.491364       -13.3707
  26   2.0000      -0.471138       -12.8203
  27   2.0000      -0.458390       -12.4734
  28   2.0000      -0.411191       -11.1891
  29   2.0000      -0.378221       -10.2919
  30   2.0000      -0.344669        -9.3789
  31   0.0000       0.012377         0.3368
  32   0.0000       0.027445         0.7468
  33   0.0000       0.040627         1.1055
  34   0.0000       0.047624         1.2959
  35   0.0000       0.055785         1.5180

MULLIKEN ATOMIC CHARGES
-----------------------
   0 C :   -0.591762
   1 C :   -0.607597
   2 C :   -0.816578
   3 C :    0.710795
   4 C :    0.938507
   5 N :   -0.435987
   6 N :   -0.379933
   7 N :   -0.510746
   8 N :   -0.220895
   9 H :    0.612110
  10 H :    0.592021
  11 H :    0.673157
  12 H :    0.036906
Sum of atomic charges:   -0.0000000

LOEWDIN ATOMIC CHARGES
----------------------
   0 C :    0.049222
   1 C :   -0.172554
   2 C :   -0.041785
   3 C :   -0.226183
   4 C :   -0.526480
   5 N :    0.356485
   6 N :    0.396376
   7 N :    0.405983
   8 N :    0.555584
   9 H :   -0.181030
  10 H :   -0.209741
  11 H :   -0.160943
  12 H :   -0.244934

  Mayer bond orders larger than 0.100000
B(  0-C ,  1-C ) :  -0.1798 B(  0-C ,  3-C ) :   0.3500 B(  0-C ,  4-C ) :   0.5017
B(  0-C ,  5-N ) :   1.0381 B(  0-C ,  8-N ) :  -0.2265 B(  0-C ,  9-H ) :   0.4825
B(  1-C ,  4-C ) :  -0.3002 B(  1-C ,  5-N ) :   1.3930 B(  1-C ,  6-N ) :   1.4001
B(  1-C , 10-H ) :   0.5668 B(  2-C ,  3-C ) :  -0.2498 B(  2-C ,  4-C ) :  -0.4714
B(  2-C ,  7-N ) :   1.5980 B(  2-C ,  8-N ) :   1.4067 B(  2-C , 11-H ) :   0.4188
B(  3-C ,  4-C ) :   1.3198 B(  3-C ,  5-N ) :  -0.1819 B(  3-C ,  7-N ) :   0.2289
B(  3-C ,  8-N ) :   0.8250 B(  4-C ,  6-N ) :   0.8125 B(  4-C ,  7-N ) :   0.2472
B(  4-C ,  8-N ) :  -0.2154 B(  6-N ,  7-N ) :  -0.2005 B(  7-N ,  8-N ) :  -0.1123
B(  8-N , 12-H ) :   1.2195

MP2 TOTAL ENERGY:     -411.189464478 Eh
FINAL SINGLE POINT ENERGY      -411.189464477682

DIPOLE MOMENT
-------------
                                X             Y             Z
Electronic contribution:      0.45353      -0.93874      -0.00000
Nuclear contribution   :      0.25516       3.20945       0.00000
                        -----------------------------------------
Total Dipole Moment    :      0.70870       2.27071      -0.00000
                        -----------------------------------------
Magnitude (a.u.)       :      2.37873
Magnitude (Debye)      :      6.04625

Rotational constants in cm-1:     0.138934     0.058530     0.041181
Rotational constants in MHz :  4165.149398  1754.672792  1234.576663

                             ****ORCA TERMINATED NORMALLY****
TOTAL RUN TIME: 0 days 0 hours 5 minutes 5 seconds 947 msec
