                         Program Version 5.0.3 -  RELEASE  -
|  1> !ri-mp2 aug-cc-pvtz aug-cc-pvtz/c tightscf
|  2> %pal nprocs 16 end
|  3>
|  4> * xyz 0 1
|  5> C      0.000000    0.690260        0.000000
|  6> C      0.612433   -0.524322        0.000000
|  7> C     -1.421181    0.815858        0.000000
|  8> C      2.250868    1.064696        0.000000
|  9> C     -1.472895   -1.715075        0.000000
| 10> N      1.008530    1.656063        0.000000
| 11> N      1.963364   -0.327181        0.000000
| 12> N     -0.075505   -1.702376        0.000000
| 13> N     -2.045569   -0.457319        0.000000
| 14> O     -2.078366    1.839915        0.000000
| 15> O      3.351110    1.564725        0.000000
| 16> O     -2.104133   -2.748954        0.000000
| 17> H      0.868938    2.650817        0.000000
| 18> H      2.693788   -1.017316        0.000000
| 19> H      0.372696   -2.603452        0.000000
| 20> H     -3.055399   -0.448350        0.000000
| 21> *
| 22>
| 23>                          ****END OF INPUT****

CARTESIAN COORDINATES (ANGSTROEM)
---------------------------------
  C      0.000000    0.690260    0.000000
  C      0.612433   -0.524322    0.000000
  C     -1.421181    0.815858    0.000000
  C      2.250868    1.064696    0.000000
  C     -1.472895   -1.715075    0.000000
  N      1.008530    1.656063    0.000000
  N      1.963364   -0.327181    0.000000
  N     -0.075505   -1.702376    0.000000
  N     -2.045569   -0.457319    0.000000
  O     -2.078366    1.839915    0.000000
  O      3.351110    1.564725    0.000000
  O     -2.104133   -2.748954    0.000000
  H      0.868938    2.650817    0.000000
  H      2.693788   -1.017316    0.000000
  H      0.372696   -2.603452    0.000000
  H     -3.055399   -0.448350    0.000000

 Total Charge           Charge          ....    0
 Multiplicity           Mult            ....    1
 Number of Electrons    NEL             ....   86
 Basis Dimension        Dim             ....  644

ORBITAL ENERGIES
----------------

  NO   OCC          E(Eh)            E(eV)
   0   2.0000     -20.559252      -559.4457
   1   2.0000     -20.552570      -559.2639
   2   2.0000     -20.546576      -559.1008
   3   2.0000     -15.664853      -426.2623
   4   2.0000     -15.659812      -426.1251
   5   2.0000     -15.638865      -425.5552
   6   2.0000     -15.632957      -425.3944
   7   2.0000     -11.434697      -311.1539
   8   2.0000     -11.418050      -310.7009
   9   2.0000     -11.397126      -310.1316
  10   2.0000     -11.388244      -309.8899
  11   2.0000     -11.293063      -307.2999
  12   2.0000      -1.453985       -39.5650
  13   2.0000      -1.437708       -39.1220
  14   2.0000      -1.411558       -38.4104
  15   2.0000      -1.365648       -37.1612
  16   2.0000      -1.310157       -35.6512
  17   2.0000      -1.262995       -34.3678
  18   2.0000      -1.234518       -33.5929
  19   2.0000      -1.074510       -29.2389
  20   2.0000      -0.939905       -25.5761
  21   2.0000      -0.927493       -25.2384
  22   2.0000      -0.893489       -24.3131
  23   2.0000      -0.839989       -22.8573
  24   2.0000      -0.795544       -21.6479
  25   2.0000      -0.760601       -20.6970
  26   2.0000      -0.715139       -19.4599
  27   2.0000      -0.709173       -19.2976
  28   2.0000      -0.699977       -19.0473
  29   2.0000      -0.690660       -18.7938
  30   2.0000      -0.659422       -17.9438
  31   2.0000      -0.655774       -17.8445
  32   2.0000      -0.646601       -17.5949
  33   2.0000      -0.629539       -17.1306
  34   2.0000      -0.592203       -16.1147
  35   2.0000      -0.555339       -15.1115
  36   2.0000      -0.503330       -13.6963
  37   2.0000      -0.496048       -13.4981
  38   2.0000      -0.474125       -12.9016
  39   2.0000      -0.473993       -12.8980
  40   2.0000      -0.462668       -12.5898
  41   2.0000      -0.450243       -12.2517
  42   2.0000      -0.326978        -8.8975
  43   0.0000       0.010966         0.2984
  44   0.0000       0.034642         0.9427
  45   0.0000       0.039532         1.0757
  46   0.0000       0.047109         1.2819
  47   0.0000       0.050381         1.3709

MULLIKEN ATOMIC CHARGES
-----------------------
   0 C :    1.013913
   1 C :    0.716454
   2 C :    0.138631
   3 C :    0.020731
   4 C :    0.102629
   5 N :   -0.198634
   6 N :   -0.108697
   7 N :   -0.010398
   8 N :    0.189545
   9 O :   -0.885822
  10 O :   -0.753689
  11 O :   -0.768755
  12 H :    0.105130
  13 H :    0.138282
  14 H :    0.128507
  15 H :    0.172173
Sum of atomic charges:    0.0000000

LOEWDIN ATOMIC CHARGES
----------------------
   0 C :   -0.207799
   1 C :   -0.305937
   2 C :   -0.645240
   3 C :   -0.734306
   4 C :   -0.747998
   5 N :    0.571943
   6 N :    0.615088
   7 N :    0.597633
   8 N :    0.568461
   9 O :    0.437912
  10 O :    0.414743
  11 O :    0.444888
  12 H :   -0.239815
  13 H :   -0.242695
  14 H :   -0.254367
  15 H :   -0.272510

  Mayer bond orders larger than 0.100000
B(  0-C ,  1-C ) :   1.2980 B(  0-C ,  3-C ) :  -0.2967 B(  0-C ,  5-N ) :   0.6113
B(  0-C ,  6-N ) :   0.1321 B(  0-C ,  7-N ) :  -0.1005 B(  0-C ,  8-N ) :  -0.3173
B(  0-C ,  9-O ) :   0.1576 B(  1-C ,  2-C ) :   0.6275 B(  1-C ,  3-C ) :  -0.4519
B(  1-C ,  4-C ) :  -0.3062 B(  1-C ,  5-N ) :  -0.1645 B(  1-C ,  6-N ) :   0.5682
B(  1-C ,  7-N ) :   0.8172 B(  1-C ,  8-N ) :   0.1339 B(  1-C , 13-H ) :  -0.1037
B(  2-C ,  4-C ) :  -0.2027 B(  2-C ,  5-N ) :  -0.1314 B(  2-C ,  8-N ) :   1.0307
B(  2-C ,  9-O ) :   0.9781 B(  3-C ,  5-N ) :   1.2826 B(  3-C ,  6-N ) :   1.0780
B(  3-C , 10-O ) :   1.5909 B(  4-C ,  7-N ) :   1.0661 B(  4-C ,  8-N ) :   1.0057
B(  4-C , 11-O ) :   1.6458 B(  5-N ,  6-N ) :  -0.1213 B(  5-N , 10-O ) :  -0.1088
B(  5-N , 12-H ) :   1.1680 B(  6-N , 10-O ) :  -0.1387 B(  6-N , 13-H ) :   1.0983
B(  7-N , 11-O ) :  -0.1676 B(  7-N , 14-H ) :   1.0775 B(  8-N ,  9-O ) :  -0.1284
B(  8-N , 11-O ) :  -0.1089 B(  8-N , 15-H ) :   1.0295

MP2 TOTAL ENERGY:     -636.650172258 Eh
FINAL SINGLE POINT ENERGY      -636.650172258012

DIPOLE MOMENT
-------------
                                X             Y             Z
Electronic contribution:     -0.18595       0.18469       0.00000
Nuclear contribution   :      0.83769      -1.35739       0.00000
                        -----------------------------------------
Total Dipole Moment    :      0.65174      -1.17271       0.00000
                        -----------------------------------------
Magnitude (a.u.)       :      1.34165
Magnitude (Debye)      :      3.41019

Rotational constants in cm-1:     0.062901     0.024409     0.017585
Rotational constants in MHz :  1885.723002   731.777946   527.193889

                             ****ORCA TERMINATED NORMALLY****
TOTAL RUN TIME: 0 days 0 hours 10 minutes 41 seconds 629 msec
