                         Program Version 5.0.3 -  RELEASE  -
|  1> !ri-mp2 aug-cc-pvtz aug-cc-pvtz/c tightscf
|  2> %pal nprocs 16 end
|  3> %maxcore 3800
|  4>
|  5> * xyz 0 1
|  6> C     -2.118438    0.068567        0.000000
|  7> N     -1.263191    1.092745        0.000000
|  8> C      0.000000    0.698379        0.000000
|  9> C      0.447803   -0.635313        0.000000
| 10> N      1.831505   -0.681693        0.000000
| 11> C      2.197462    0.568529        0.000000
| 12> N      1.143662    1.456527        0.000000
| 13> N     -1.827298   -1.239681        0.000000
| 14> C     -0.545581   -1.604990        0.000000
| 15> H     -3.170670    0.323513        0.000000
| 16> H      3.218998    0.914021        0.000000
| 17> H      1.191504    2.461120        0.000000
| 18> H     -0.320055   -2.664970        0.000000
| 19> *
| 20>
| 21>                          ****END OF INPUT****

CARTESIAN COORDINATES (ANGSTROEM)
---------------------------------
  C     -2.118438    0.068567    0.000000
  N     -1.263191    1.092745    0.000000
  C      0.000000    0.698379    0.000000
  C      0.447803   -0.635313    0.000000
  N      1.831505   -0.681693    0.000000
  C      2.197462    0.568529    0.000000
  N      1.143662    1.456527    0.000000
  N     -1.827298   -1.239681    0.000000
  C     -0.545581   -1.604990    0.000000
  H     -3.170670    0.323513    0.000000
  H      3.218998    0.914021    0.000000
  H      1.191504    2.461120    0.000000
  H     -0.320055   -2.664970    0.000000

 Total Charge           Charge          ....    0
 Multiplicity           Mult            ....    1
 Number of Electrons    NEL             ....   62
 Basis Dimension        Dim             ....  506

ORBITAL ENERGIES
----------------

  NO   OCC          E(Eh)            E(eV)
   0   2.0000     -15.639879      -425.5827
   1   2.0000     -15.578871      -423.9226
   2   2.0000     -15.574769      -423.8110
   3   2.0000     -15.567835      -423.6223
   4   2.0000     -11.335916      -308.4659
   5   2.0000     -11.329416      -308.2891
   6   2.0000     -11.314379      -307.8799
   7   2.0000     -11.298373      -307.4444
   8   2.0000     -11.268917      -306.6428
   9   2.0000      -1.379441       -37.5365
  10   2.0000      -1.301835       -35.4247
  11   2.0000      -1.220531       -33.2123
  12   2.0000      -1.176928       -32.0258
  13   2.0000      -1.055030       -28.7088
  14   2.0000      -0.918260       -24.9871
  15   2.0000      -0.882495       -24.0139
  16   2.0000      -0.856370       -23.3030
  17   2.0000      -0.782123       -21.2827
  18   2.0000      -0.726216       -19.7613
  19   2.0000      -0.693901       -18.8820
  20   2.0000      -0.645752       -17.5718
  21   2.0000      -0.640632       -17.4325
  22   2.0000      -0.618775       -16.8377
  23   2.0000      -0.592626       -16.1262
  24   2.0000      -0.545799       -14.8520
  25   2.0000      -0.505949       -13.7676
  26   2.0000      -0.470865       -12.8129
  27   2.0000      -0.459081       -12.4922
  28   2.0000      -0.412812       -11.2332
  29   2.0000      -0.389976       -10.6118
  30   2.0000      -0.336957        -9.1691
  31   0.0000       0.018555         0.5049
  32   0.0000       0.034293         0.9332
  33   0.0000       0.037798         1.0285
  34   0.0000       0.045731         1.2444
  35   0.0000       0.059315         1.6140

MULLIKEN ATOMIC CHARGES
-----------------------
   0 C :   -0.601597
   1 N :   -0.518973
   2 C :    0.526565
   3 C :    1.157866
   4 N :   -0.672364
   5 C :   -0.811426
   6 N :    0.033995
   7 N :   -0.432738
   8 C :   -0.688494
   9 H :    0.607508
  10 H :    0.660219
  11 H :    0.093590
  12 H :    0.645849
Sum of atomic charges:   -0.0000000

LOEWDIN ATOMIC CHARGES
----------------------
   0 C :   -0.170508
   1 N :    0.404763
   2 C :   -0.443539
   3 C :   -0.325022
   4 N :    0.391276
   5 C :   -0.045581
   6 N :    0.572296
   7 N :    0.359232
   8 C :    0.048609
   9 H :   -0.207938
  10 H :   -0.167496
  11 H :   -0.240548
  12 H :   -0.175543

  Mayer bond orders larger than 0.100000
B(  0-C ,  1-N ) :   1.4783 B(  0-C ,  2-C ) :  -0.2816 B(  0-C ,  7-N ) :   1.3367
B(  0-C ,  8-C ) :  -0.1865 B(  0-C ,  9-H ) :   0.5372 B(  1-N ,  2-C ) :   0.8802
B(  1-N ,  3-C ) :  -0.1348 B(  1-N ,  6-N ) :  -0.1979 B(  1-N ,  8-C ) :   0.1445
B(  2-C ,  3-C ) :   1.4383 B(  2-C ,  5-C ) :  -0.5047 B(  2-C ,  6-N ) :   0.7480
B(  2-C ,  8-C ) :   0.4782 B(  3-C ,  4-N ) :   0.3944 B(  3-C ,  5-C ) :  -0.2503
B(  3-C ,  7-N ) :  -0.2298 B(  3-C ,  8-C ) :   0.2987 B(  4-N ,  5-C ) :   1.9025
B(  4-N ,  8-C ) :  -0.2292 B(  5-C ,  6-N ) :   1.1742 B(  5-C , 10-H ) :   0.4525
B(  6-N , 11-H ) :   1.1263 B(  7-N ,  8-C ) :   1.0775 B(  8-C , 12-H ) :   0.3973

MP2 TOTAL ENERGY:     -411.195243503 Eh
FINAL SINGLE POINT ENERGY      -411.195243502985

DIPOLE MOMENT
-------------
                                X             Y             Z
Electronic contribution:      0.01058       0.14456      -0.00000
Nuclear contribution   :      0.89098       1.00563       0.00000
                        -----------------------------------------
Total Dipole Moment    :      0.90156       1.15019      -0.00000
                        -----------------------------------------
Magnitude (a.u.)       :      1.46142
Magnitude (Debye)      :      3.71464

Rotational constants in cm-1:     0.138844     0.058683     0.041249
Rotational constants in MHz :  4162.427354  1759.266677  1236.608933

                             ****ORCA TERMINATED NORMALLY****
TOTAL RUN TIME: 0 days 0 hours 5 minutes 17 seconds 149 msec
