                         Program Version 5.0.3 -  RELEASE  -
|  1> !ri-mp2 aug-cc-pvtz aug-cc-pvtz/c tightscf
|  2> %pal nprocs 16 end
|  3> %maxcore 3800
|  4>
|  5> * xyz 0 1
|  6> C     -0.379463   -0.952795    0.667838
|  7> C     -1.216504   -0.612725   -0.585325
|  8> C      0.778841    0.063866    0.600579
|  9> C     -0.988784    0.890637   -0.693430
| 10> C      2.095188   -0.498544    0.089983
| 11> O      0.349765    1.101351   -0.325741
| 12> O     -1.140863   -0.858323    1.860672
| 13> O     -0.699210   -1.200894   -1.771280
| 14> O     -1.886143    1.504898    0.226296
| 15> O      3.091379    0.506028   -0.023038
| 16> H     -0.014736   -1.978871    0.624883
| 17> H     -2.268903   -0.855465   -0.435326
| 18> H      0.930469    0.517790    1.580985
| 19> H     -1.123910    1.287185   -1.699521
| 20> H      1.930774   -0.998818   -0.869860
| 21> H      2.475020   -1.231156    0.803418
| 22> H     -1.576805    0.003890    1.866101
| 23> H     -0.895993   -2.142073   -1.764060
| 24> H     -1.658150    2.439069    0.286412
| 25> H      2.747131    1.191335   -0.606172
| 26> *
| 27>
| 28>                          ****END OF INPUT****

CARTESIAN COORDINATES (ANGSTROEM)
---------------------------------
  C     -0.379463   -0.952795    0.667838
  C     -1.216504   -0.612725   -0.585325
  C      0.778841    0.063866    0.600579
  C     -0.988784    0.890637   -0.693430
  C      2.095188   -0.498544    0.089983
  O      0.349765    1.101351   -0.325741
  O     -1.140863   -0.858323    1.860672
  O     -0.699210   -1.200894   -1.771280
  O     -1.886143    1.504898    0.226296
  O      3.091379    0.506028   -0.023038
  H     -0.014736   -1.978871    0.624883
  H     -2.268903   -0.855465   -0.435326
  H      0.930469    0.517790    1.580985
  H     -1.123910    1.287185   -1.699521
  H      1.930774   -0.998818   -0.869860
  H      2.475020   -1.231156    0.803418
  H     -1.576805    0.003890    1.866101
  H     -0.895993   -2.142073   -1.764060
  H     -1.658150    2.439069    0.286412
  H      2.747131    1.191335   -0.606172

 Total Charge           Charge          ....    0
 Multiplicity           Mult            ....    1
 Number of Electrons    NEL             ....   80
 Basis Dimension        Dim             ....  690

ORBITAL ENERGIES
----------------

  NO   OCC          E(Eh)            E(eV)
   0   2.0000     -20.587583      -560.2166
   1   2.0000     -20.583631      -560.1091
   2   2.0000     -20.577541      -559.9433
   3   2.0000     -20.566181      -559.6342
   4   2.0000     -20.555359      -559.3398
   5   2.0000     -11.350040      -308.8503
   6   2.0000     -11.300269      -307.4960
   7   2.0000     -11.298526      -307.4485
   8   2.0000     -11.289793      -307.2109
   9   2.0000     -11.278002      -306.8900
  10   2.0000      -1.440004       -39.1845
  11   2.0000      -1.385670       -37.7060
  12   2.0000      -1.370352       -37.2892
  13   2.0000      -1.365860       -37.1669
  14   2.0000      -1.348523       -36.6952
  15   2.0000      -1.054000       -28.6808
  16   2.0000      -1.025840       -27.9145
  17   2.0000      -0.912132       -24.8204
  18   2.0000      -0.837297       -22.7840
  19   2.0000      -0.819595       -22.3023
  20   2.0000      -0.755975       -20.5711
  21   2.0000      -0.738242       -20.0886
  22   2.0000      -0.711199       -19.3527
  23   2.0000      -0.689944       -18.7743
  24   2.0000      -0.655459       -17.8359
  25   2.0000      -0.646458       -17.5910
  26   2.0000      -0.624345       -16.9893
  27   2.0000      -0.618587       -16.8326
  28   2.0000      -0.610616       -16.6157
  29   2.0000      -0.585706       -15.9379
  30   2.0000      -0.570986       -15.5373
  31   2.0000      -0.561177       -15.2704
  32   2.0000      -0.532915       -14.5014
  33   2.0000      -0.520917       -14.1749
  34   2.0000      -0.514161       -13.9910
  35   2.0000      -0.485735       -13.2175
  36   2.0000      -0.475213       -12.9312
  37   2.0000      -0.470022       -12.7900
  38   2.0000      -0.436939       -11.8897
  39   2.0000      -0.424373       -11.5478
  40   0.0000       0.025909         0.7050
  41   0.0000       0.028876         0.7858
  42   0.0000       0.037479         1.0199
  43   0.0000       0.039821         1.0836
  44   0.0000       0.050860         1.3840

MULLIKEN ATOMIC CHARGES
-----------------------
   0 C :    0.319902
   1 C :    0.255408
   2 C :    0.232062
   3 C :    0.270142
   4 C :   -0.224305
   5 O :   -0.792818
   6 O :   -0.879149
   7 O :   -0.722860
   8 O :   -0.617533
   9 O :   -0.689043
  10 H :    0.410517
  11 H :    0.441197
  12 H :    0.287572
  13 H :    0.447503
  14 H :    0.251210
  15 H :    0.329316
  16 H :    0.234212
  17 H :    0.127826
  18 H :    0.111954
  19 H :    0.206885
Sum of atomic charges:   -0.0000000

LOEWDIN ATOMIC CHARGES
----------------------
   0 C :   -0.217974
   1 C :   -0.226282
   2 C :   -0.199175
   3 C :   -0.486681
   4 C :    0.044260
   5 O :    0.599544
   6 O :    0.845453
   7 O :    0.841244
   8 O :    0.841348
   9 O :    0.815877
  10 H :   -0.143937
  11 H :   -0.134764
  12 H :   -0.139361
  13 H :   -0.142677
  14 H :   -0.155638
  15 H :   -0.157069
  16 H :   -0.534229
  17 H :   -0.472148
  18 H :   -0.467360
  19 H :   -0.510430

  Mayer bond orders larger than 0.100000
B(  0-C ,  1-C ) :   1.0258 B(  0-C ,  2-C ) :   1.0191 B(  0-C , 10-H ) :   0.8368
B(  1-C ,  3-C ) :   1.0401 B(  1-C ,  6-O ) :   0.1950 B(  1-C ,  7-O ) :   0.3874
B(  1-C , 11-H ) :   0.8056 B(  2-C ,  4-C ) :   0.8427 B(  2-C ,  5-O ) :   0.5729
B(  2-C ,  6-O ) :   0.1357 B(  2-C , 12-H ) :   0.8347 B(  3-C ,  5-O ) :   0.8486
B(  3-C ,  8-O ) :   0.7162 B(  3-C , 13-H ) :   0.8662 B(  4-C ,  9-O ) :   0.6475
B(  4-C , 14-H ) :   1.0330 B(  4-C , 15-H ) :   0.9401 B(  6-O , 16-H ) :   0.9667
B(  7-O , 17-H ) :   1.0531 B(  8-O , 18-H ) :   1.0566 B(  9-O , 19-H ) :   0.9763

MP2 TOTAL ENERGY:     -571.750633873 Eh
FINAL SINGLE POINT ENERGY      -571.750633872756

DIPOLE MOMENT
-------------
                                X             Y             Z
Electronic contribution:     -1.34613       1.70285      -0.24157
Nuclear contribution   :      0.54082      -1.75186      -0.21383
                        -----------------------------------------
Total Dipole Moment    :     -0.80530      -0.04901      -0.45540
                        -----------------------------------------
Magnitude (a.u.)       :      0.92645
Magnitude (Debye)      :      2.35484

Rotational constants in cm-1:     0.058935     0.033439     0.033233
Rotational constants in MHz :  1766.831144  1002.476691   996.290951

                             ****ORCA TERMINATED NORMALLY****
TOTAL RUN TIME: 0 days 0 hours 11 minutes 19 seconds 263 msec
