                         Program Version 5.0.3 -  RELEASE  -
|  1> !ri-mp2 aug-cc-pvtz aug-cc-pvtz/c tightscf
|  2> %pal nprocs 16 end
|  3>
|  4> * xyz 0 1
|  5> C      0.000000    2.369460    0.740351
|  6> C     -0.343853    1.165080   -0.083876
|  7> O     -0.878029    1.154247   -1.148636
|  8> H     -0.405130    3.260516    0.271345
|  9> H     -0.391201    2.260041    1.751197
| 10> H      1.085006    2.452696    0.818365
| 11> O      0.000000    0.000000    0.602333
| 12> C      0.343853   -1.165080   -0.083876
| 13> C      0.000000   -2.369460    0.740351
| 14> O      0.878029   -1.154247   -1.148636
| 15> H      0.391201   -2.260041    1.751197
| 16> H      0.405130   -3.260516    0.271345
| 17> H     -1.085006   -2.452696    0.818365
| 18> *
| 19>
| 20>                          ****END OF INPUT****

CARTESIAN COORDINATES (ANGSTROEM)
---------------------------------
  C      0.000000    2.369460    0.740351
  C     -0.343853    1.165080   -0.083876
  O     -0.878029    1.154247   -1.148636
  H     -0.405130    3.260516    0.271345
  H     -0.391201    2.260041    1.751197
  H      1.085006    2.452696    0.818365
  O      0.000000    0.000000    0.602333
  C      0.343853   -1.165080   -0.083876
  C      0.000000   -2.369460    0.740351
  O      0.878029   -1.154247   -1.148636
  H      0.391201   -2.260041    1.751197
  H      0.405130   -3.260516    0.271345
  H     -1.085006   -2.452696    0.818365

 Total Charge           Charge          ....    0
 Multiplicity           Mult            ....    1
 Number of Electrons    NEL             ....   54
 Basis Dimension        Dim             ....  460

ORBITAL ENERGIES
----------------

  NO   OCC          E(Eh)            E(eV)
   0   2.0000     -20.625048      -561.2361
   1   2.0000     -20.565399      -559.6129
   2   2.0000     -20.565396      -559.6129
   3   2.0000     -11.400965      -310.2360
   4   2.0000     -11.400948      -310.2356
   5   2.0000     -11.253601      -306.2260
   6   2.0000     -11.253600      -306.2260
   7   2.0000      -1.492671       -40.6176
   8   2.0000      -1.419260       -38.6200
   9   2.0000      -1.371437       -37.3187
  10   2.0000      -1.057271       -28.7698
  11   2.0000      -1.020936       -27.7811
  12   2.0000      -0.874633       -23.8000
  13   2.0000      -0.740992       -20.1634
  14   2.0000      -0.706360       -19.2210
  15   2.0000      -0.703270       -19.1369
  16   2.0000      -0.688098       -18.7241
  17   2.0000      -0.631422       -17.1819
  18   2.0000      -0.626320       -17.0430
  19   2.0000      -0.600716       -16.3463
  20   2.0000      -0.584933       -15.9168
  21   2.0000      -0.581084       -15.8121
  22   2.0000      -0.558104       -15.1868
  23   2.0000      -0.526324       -14.3220
  24   2.0000      -0.485390       -13.2081
  25   2.0000      -0.479515       -13.0483
  26   2.0000      -0.449606       -12.2344
  27   0.0000       0.023663         0.6439
  28   0.0000       0.032325         0.8796
  29   0.0000       0.040359         1.0982
  30   0.0000       0.043826         1.1926
  31   0.0000       0.053493         1.4556

MULLIKEN ATOMIC CHARGES
-----------------------
   0 C :   -0.634418
   1 C :    0.422793
   2 O :   -0.628292
   3 H :    0.339044
   4 H :    0.304493
   5 H :    0.282698
   6 O :   -0.172638
   7 C :    0.422793
   8 C :   -0.634418
   9 O :   -0.628292
  10 H :    0.304493
  11 H :    0.339044
  12 H :    0.282698
Sum of atomic charges:   -0.0000000

LOEWDIN ATOMIC CHARGES
----------------------
   0 C :    0.583892
   1 C :   -0.793975
   2 O :    0.465528
   3 H :   -0.181390
   4 H :   -0.177142
   5 H :   -0.171360
   6 O :    0.548891
   7 C :   -0.793975
   8 C :    0.583892
   9 O :    0.465528
  10 H :   -0.177142
  11 H :   -0.181390
  12 H :   -0.171360

  Mayer bond orders larger than 0.100000
B(  0-C ,  1-C ) :   0.7376 B(  0-C ,  3-H ) :   0.9036 B(  0-C ,  4-H ) :   0.9308
B(  0-C ,  5-H ) :   0.9343 B(  1-C ,  2-O ) :   1.6170 B(  1-C ,  6-O ) :   0.8823
B(  6-O ,  7-C ) :   0.8823 B(  7-C ,  8-C ) :   0.7376 B(  7-C ,  9-O ) :   1.6170
B(  8-C , 10-H ) :   0.9308 B(  8-C , 11-H ) :   0.9036 B(  8-C , 12-H ) :   0.9343

MP2 TOTAL ENERGY:     -381.097828454 Eh
FINAL SINGLE POINT ENERGY      -381.097828454419

DIPOLE MOMENT
-------------
                                X             Y             Z
Electronic contribution:      0.00000      -0.00000      -3.88366
Nuclear contribution   :      0.00000       0.00000       5.61781
                        -----------------------------------------
Total Dipole Moment    :      0.00000      -0.00000       1.73415
                        -----------------------------------------
Magnitude (a.u.)       :      1.73415
Magnitude (Debye)      :      4.40785

Rotational constants in cm-1:     0.183397     0.059257     0.051080
Rotational constants in MHz :  5498.097876  1776.476036  1531.343811

                             ****ORCA TERMINATED NORMALLY****
TOTAL RUN TIME: 0 days 0 hours 2 minutes 56 seconds 809 msec
