                         Program Version 5.0.3 -  RELEASE  -
|  1> !ri-mp2 aug-cc-pvtz aug-cc-pvtz/c tightscf
|  2> %pal nprocs 16 end
|  3>
|  4> * xyz 0 1
|  5> N     -0.037940    0.872541    0.000000
|  6> H      0.888780    1.282744    0.000000
|  7> C     -0.037940   -0.397603    0.739990
|  8> C     -0.037940   -0.397603   -0.739990
|  9> H     -0.952512   -0.607514    1.278587
| 10> H      0.868549   -0.702138    1.248293
| 11> H     -0.952512   -0.607514   -1.278587
| 12> H      0.868549   -0.702138   -1.248293
| 13> *
| 14>
| 15>                          ****END OF INPUT****

CARTESIAN COORDINATES (ANGSTROEM)
---------------------------------
  N     -0.037940    0.872541    0.000000
  H      0.888780    1.282744    0.000000
  C     -0.037940   -0.397603    0.739990
  C     -0.037940   -0.397603   -0.739990
  H     -0.952512   -0.607514    1.278587
  H      0.868549   -0.702138    1.248293
  H     -0.952512   -0.607514   -1.278587
  H      0.868549   -0.702138   -1.248293

 Total Charge           Charge          ....    0
 Multiplicity           Mult            ....    1
 Number of Electrons    NEL             ....   24
 Basis Dimension        Dim             ....  253

ORBITAL ENERGIES
----------------

  NO   OCC          E(Eh)            E(eV)
   0   2.0000     -15.558022      -423.3553
   1   2.0000     -11.255343      -306.2735
   2   2.0000     -11.254589      -306.2529
   3   2.0000      -1.256613       -34.1942
   4   2.0000      -0.896153       -24.3856
   5   2.0000      -0.839843       -22.8533
   6   2.0000      -0.698688       -19.0123
   7   2.0000      -0.639150       -17.3922
   8   2.0000      -0.528498       -14.3812
   9   2.0000      -0.479825       -13.0567
  10   2.0000      -0.478327       -13.0159
  11   2.0000      -0.393922       -10.7192
  12   0.0000       0.029491         0.8025
  13   0.0000       0.040248         1.0952
  14   0.0000       0.040913         1.1133
  15   0.0000       0.047270         1.2863
  16   0.0000       0.060496         1.6462

MULLIKEN ATOMIC CHARGES
-----------------------
   0 N :   -0.478156
   1 H :    0.122604
   2 C :   -0.623815
   3 C :   -0.623815
   4 H :    0.424263
   5 H :    0.377329
   6 H :    0.424263
   7 H :    0.377329
Sum of atomic charges:   -0.0000000

LOEWDIN ATOMIC CHARGES
----------------------
   0 N :    0.590390
   1 H :   -0.359317
   2 C :    0.223109
   3 C :    0.223109
   4 H :   -0.172190
   5 H :   -0.166456
   6 H :   -0.172190
   7 H :   -0.166456

  Mayer bond orders larger than 0.100000
B(  0-N ,  1-H ) :   0.9222 B(  0-N ,  2-C ) :   0.8113 B(  0-N ,  3-C ) :   0.8113
B(  2-C ,  3-C ) :   1.0705 B(  2-C ,  4-H ) :   0.7799 B(  2-C ,  5-H ) :   0.8377
B(  3-C ,  6-H ) :   0.7799 B(  3-C ,  7-H ) :   0.8377

MP2 TOTAL ENERGY:     -133.652566026 Eh
FINAL SINGLE POINT ENERGY      -133.652566025676

DIPOLE MOMENT
-------------
                                X             Y             Z
Electronic contribution:     -0.22416       0.91039       0.00000
Nuclear contribution   :      0.75418      -1.39341       0.00000
                        -----------------------------------------
Total Dipole Moment    :      0.53001      -0.48302       0.00000
                        -----------------------------------------
Magnitude (a.u.)       :      0.71710
Magnitude (Debye)      :      1.82271

Rotational constants in cm-1:     0.766035     0.711107     0.449746
Rotational constants in MHz : 22965.145799 21318.460589 13483.035166

                             ****ORCA TERMINATED NORMALLY****
TOTAL RUN TIME: 0 days 0 hours 0 minutes 45 seconds 561 msec
