                         Program Version 5.0.3 -  RELEASE  -
|  1> !ri-mp2 aug-cc-pvtz aug-cc-pvtz/c tightscf
|  2> %pal nprocs 16 end
|  3> %maxcore 3800
|  4>
|  5> * xyz 0 1
|  6> C     0.000000     2.417403    1.181934
|  7> C     0.000000    -2.417403    1.181934
|  8> C     0.000000     1.271044    1.944423
|  9> C     0.000000    -1.271044    1.944423
| 10> C     0.000000     2.386884   -0.235954
| 11> C     0.000000    -2.386884   -0.235954
| 12> C     0.000000     0.000000    1.317592
| 13> C     0.000000     0.000000   -0.091156
| 14> C     0.000000     1.171139   -0.870305
| 15> C     0.000000    -1.171139   -0.870305
| 16> C     0.000000     0.782271   -2.334961
| 17> C     0.000000    -0.782271   -2.334961
| 18> H     0.000000     3.379258    1.678463
| 19> H     0.000000    -3.379258    1.678463
| 20> H     0.000000     1.338083    3.024941
| 21> H     0.000000    -1.338083    3.024941
| 22> H     0.000000     3.317350   -0.789309
| 23> H     0.000000    -3.317350   -0.789309
| 24> H    -0.874591     1.180702   -2.852112
| 25> H     0.874591     1.180702   -2.852112
| 26> H     0.874591    -1.180702   -2.852112
| 27> H    -0.874591    -1.180702   -2.852112
| 28> *
| 29>
| 30>                          ****END OF INPUT****

CARTESIAN COORDINATES (ANGSTROEM)
---------------------------------
  C      0.000000    2.417403    1.181934
  C      0.000000   -2.417403    1.181934
  C      0.000000    1.271044    1.944423
  C      0.000000   -1.271044    1.944423
  C      0.000000    2.386884   -0.235954
  C      0.000000   -2.386884   -0.235954
  C      0.000000    0.000000    1.317592
  C      0.000000    0.000000   -0.091156
  C      0.000000    1.171139   -0.870305
  C      0.000000   -1.171139   -0.870305
  C      0.000000    0.782271   -2.334961
  C      0.000000   -0.782271   -2.334961
  H      0.000000    3.379258    1.678463
  H      0.000000   -3.379258    1.678463
  H      0.000000    1.338083    3.024941
  H      0.000000   -1.338083    3.024941
  H      0.000000    3.317350   -0.789309
  H      0.000000   -3.317350   -0.789309
  H     -0.874591    1.180702   -2.852112
  H      0.874591    1.180702   -2.852112
  H      0.874591   -1.180702   -2.852112
  H     -0.874591   -1.180702   -2.852112

 Total Charge           Charge          ....    0
 Multiplicity           Mult            ....    1
 Number of Electrons    NEL             ....   82
 Basis Dimension        Dim             ....  782

ORBITAL ENERGIES
----------------

  NO   OCC          E(Eh)            E(eV)
   0   2.0000     -11.239465      -305.8414
   1   2.0000     -11.238863      -305.8250
   2   2.0000     -11.238836      -305.8243
   3   2.0000     -11.236097      -305.7498
   4   2.0000     -11.235573      -305.7355
   5   2.0000     -11.235565      -305.7353
   6   2.0000     -11.235564      -305.7353
   7   2.0000     -11.228826      -305.5519
   8   2.0000     -11.228758      -305.5500
   9   2.0000     -11.227846      -305.5252
  10   2.0000     -11.227845      -305.5252
  11   2.0000     -11.222382      -305.3765
  12   2.0000      -1.191641       -32.4262
  13   2.0000      -1.107492       -30.1364
  14   2.0000      -1.099955       -29.9313
  15   2.0000      -1.007053       -27.4033
  16   2.0000      -0.991583       -26.9823
  17   2.0000      -0.977222       -26.5916
  18   2.0000      -0.883336       -24.0368
  19   2.0000      -0.839240       -22.8369
  20   2.0000      -0.810720       -22.0608
  21   2.0000      -0.782880       -21.3032
  22   2.0000      -0.702343       -19.1117
  23   2.0000      -0.681703       -18.5501
  24   2.0000      -0.661105       -17.9896
  25   2.0000      -0.633309       -17.2332
  26   2.0000      -0.617581       -16.8052
  27   2.0000      -0.598029       -16.2732
  28   2.0000      -0.578459       -15.7407
  29   2.0000      -0.568657       -15.4739
  30   2.0000      -0.551853       -15.0167
  31   2.0000      -0.524341       -14.2680
  32   2.0000      -0.522867       -14.2279
  33   2.0000      -0.500551       -13.6207
  34   2.0000      -0.500157       -13.6100
  35   2.0000      -0.474990       -12.9251
  36   2.0000      -0.470221       -12.7954
  37   2.0000      -0.436259       -11.8712
  38   2.0000      -0.375262       -10.2114
  39   2.0000      -0.317031        -8.6269
  40   2.0000      -0.276733        -7.5303
  41   0.0000       0.029571         0.8047
  42   0.0000       0.030911         0.8411
  43   0.0000       0.032048         0.8721
  44   0.0000       0.041474         1.1286
  45   0.0000       0.042626         1.1599

MULLIKEN ATOMIC CHARGES
-----------------------
   0 C :   -0.447197
   1 C :   -0.446943
   2 C :   -0.991511
   3 C :   -0.991541
   4 C :   -1.023933
   5 C :   -1.023983
   6 C :    1.629314
   7 C :    0.550126
   8 C :    0.619580
   9 C :    0.619586
  10 C :   -0.576937
  11 C :   -0.577008
  12 H :    0.651027
  13 H :    0.650974
  14 H :    0.038040
  15 H :    0.038072
  16 H :    0.155216
  17 H :    0.155202
  18 H :    0.242982
  19 H :    0.242982
  20 H :    0.242977
  21 H :    0.242977
Sum of atomic charges:    0.0000000

LOEWDIN ATOMIC CHARGES
----------------------
   0 C :    0.203411
   1 C :    0.203411
   2 C :    0.231036
   3 C :    0.231036
   4 C :    0.242991
   5 C :    0.242991
   6 C :   -0.098382
   7 C :   -0.120857
   8 C :   -0.064500
   9 C :   -0.064500
  10 C :    0.340400
  11 C :    0.340400
  12 H :   -0.187712
  13 H :   -0.187712
  14 H :   -0.181991
  15 H :   -0.181991
  16 H :   -0.182154
  17 H :   -0.182154
  18 H :   -0.145930
  19 H :   -0.145930
  20 H :   -0.145930
  21 H :   -0.145930

  Mayer bond orders larger than 0.100000
B(  0-C ,  2-C ) :   0.9308 B(  0-C ,  4-C ) :   0.8868 B(  0-C ,  6-C ) :   0.3813
B(  0-C ,  8-C ) :   0.2688 B(  0-C , 12-H ) :   0.3636 B(  0-C , 14-H ) :  -0.2785
B(  0-C , 16-H ) :  -0.1744 B(  1-C ,  3-C ) :   0.9307 B(  1-C ,  5-C ) :   0.8866
B(  1-C ,  6-C ) :   0.3815 B(  1-C ,  9-C ) :   0.2688 B(  1-C , 13-H ) :   0.3637
B(  1-C , 15-H ) :  -0.2786 B(  1-C , 17-H ) :  -0.1744 B(  2-C ,  3-C ) :   0.7323
B(  2-C ,  4-C ) :  -0.1177 B(  2-C ,  6-C ) :  -0.1947 B(  2-C ,  9-C ) :  -0.1023
B(  2-C , 12-H ) :  -0.1118 B(  2-C , 14-H ) :   1.6147 B(  2-C , 16-H ) :   0.2745
B(  3-C ,  5-C ) :  -0.1177 B(  3-C ,  6-C ) :  -0.1948 B(  3-C ,  8-C ) :  -0.1024
B(  3-C , 13-H ) :  -0.1119 B(  3-C , 15-H ) :   1.6147 B(  3-C , 17-H ) :   0.2745
B(  4-C ,  5-C ) :   0.1084 B(  4-C ,  6-C ) :  -0.1393 B(  4-C ,  7-C ) :   0.4274
B(  4-C ,  8-C ) :   0.2709 B(  4-C , 14-H ) :   0.1766 B(  4-C , 16-H ) :   1.4258
B(  5-C ,  6-C ) :  -0.1394 B(  5-C ,  7-C ) :   0.4274 B(  5-C ,  9-C ) :   0.2710
B(  5-C , 15-H ) :   0.1767 B(  5-C , 17-H ) :   1.4258 B(  6-C ,  7-C ) :  -0.4738
B(  6-C , 14-H ) :  -0.2067 B(  6-C , 15-H ) :  -0.2067 B(  6-C , 16-H ) :  -0.1469
B(  6-C , 17-H ) :  -0.1470 B(  7-C ,  8-C ) :   0.5214 B(  7-C ,  9-C ) :   0.5215
B(  7-C , 10-C ) :   0.1378 B(  7-C , 11-C ) :   0.1378 B(  7-C , 14-H ) :   0.2041
B(  7-C , 15-H ) :   0.2041 B(  7-C , 16-H ) :   0.1647 B(  7-C , 17-H ) :   0.1648
B(  8-C , 10-C ) :   0.3540 B(  8-C , 11-C ) :   0.1171 B(  8-C , 14-H ) :  -0.1043
B(  8-C , 16-H ) :  -0.3016 B(  9-C , 10-C ) :   0.1170 B(  9-C , 11-C ) :   0.3540
B(  9-C , 15-H ) :  -0.1044 B(  9-C , 17-H ) :  -0.3016 B( 10-C , 11-C ) :   1.1577
B( 10-C , 18-H ) :   1.0243 B( 10-C , 19-H ) :   1.0243 B( 11-C , 20-H ) :   1.0244
B( 11-C , 21-H ) :   1.0244 B( 14-H , 16-H ) :   0.1015 B( 15-H , 17-H ) :   0.1015

MP2 TOTAL ENERGY:     -462.330926822 Eh
FINAL SINGLE POINT ENERGY      -462.330926822312

DIPOLE MOMENT
-------------
                                X             Y             Z
Electronic contribution:     -0.00000       0.00000       3.17847
Nuclear contribution   :      0.00000       0.00000      -3.57538
                        -----------------------------------------
Total Dipole Moment    :     -0.00000       0.00000      -0.39691
                        -----------------------------------------
Magnitude (a.u.)       :      0.39691
Magnitude (Debye)      :      1.00887

Rotational constants in cm-1:     0.047218     0.040021     0.021834
Rotational constants in MHz :  1415.566459  1199.805981   654.581381

                             ****ORCA TERMINATED NORMALLY****
TOTAL RUN TIME: 0 days 0 hours 22 minutes 28 seconds 100 msec
