                         Program Version 5.0.3 -  RELEASE  -
|  1> !ri-mp2 aug-cc-pvtz aug-cc-pvtz/c tightscf
|  2> %pal nprocs 16 end
|  3>
|  4> * xyz 0 1
|  5> C      0.893738   -2.119560    0.000000
|  6> C     -0.463564   -1.836161    0.000000
|  7> C      1.807314   -1.066569    0.000000
|  8> C     -0.921006   -0.519558    0.000000
|  9> C      1.369118    0.246605    0.000000
| 10> C      0.000000    0.526996    0.000000
| 11> C     -1.709890    2.199611    0.000000
| 12> O     -0.335558    1.848902    0.000000
| 13> H      1.239334   -3.143772    0.000000
| 14> H     -1.185110   -2.642410    0.000000
| 15> H      2.869659   -1.271259    0.000000
| 16> H     -1.982692   -0.326351    0.000000
| 17> H      2.067189    1.072124    0.000000
| 18> H     -2.218233    1.823281    0.891490
| 19> H     -2.218233    1.823281   -0.891490
| 20> H     -1.741707    3.285711    0.000000
| 21> *
| 22>
| 23>                          ****END OF INPUT****

CARTESIAN COORDINATES (ANGSTROEM)
---------------------------------
  C      0.893738   -2.119560    0.000000
  C     -0.463564   -1.836161    0.000000
  C      1.807314   -1.066569    0.000000
  C     -0.921006   -0.519558    0.000000
  C      1.369118    0.246605    0.000000
  C      0.000000    0.526996    0.000000
  C     -1.709890    2.199611    0.000000
  O     -0.335558    1.848902    0.000000
  H      1.239334   -3.143772    0.000000
  H     -1.185110   -2.642410    0.000000
  H      2.869659   -1.271259    0.000000
  H     -1.982692   -0.326351    0.000000
  H      2.067189    1.072124    0.000000
  H     -2.218233    1.823281    0.891490
  H     -2.218233    1.823281   -0.891490
  H     -1.741707    3.285711    0.000000

 Total Charge           Charge          ....    0
 Multiplicity           Mult            ....    1
 Number of Electrons    NEL             ....   58
 Basis Dimension        Dim             ....  552

ORBITAL ENERGIES
----------------

  NO   OCC          E(Eh)            E(eV)
   0   2.0000     -20.584559      -560.1343
   1   2.0000     -11.299565      -307.4768
   2   2.0000     -11.284295      -307.0613
   3   2.0000     -11.237922      -305.7994
   4   2.0000     -11.236459      -305.7596
   5   2.0000     -11.229317      -305.5653
   6   2.0000     -11.225021      -305.4484
   7   2.0000     -11.223934      -305.4188
   8   2.0000      -1.408811       -38.3357
   9   2.0000      -1.147875       -31.2353
  10   2.0000      -1.022601       -27.8264
  11   2.0000      -1.014685       -27.6110
  12   2.0000      -0.941749       -25.6263
  13   2.0000      -0.833042       -22.6682
  14   2.0000      -0.807706       -21.9788
  15   2.0000      -0.721558       -19.6346
  16   2.0000      -0.664666       -18.0865
  17   2.0000      -0.662066       -18.0157
  18   2.0000      -0.654956       -17.8223
  19   2.0000      -0.619290       -16.8517
  20   2.0000      -0.589668       -16.0457
  21   2.0000      -0.577083       -15.7032
  22   2.0000      -0.526945       -14.3389
  23   2.0000      -0.525373       -14.2961
  24   2.0000      -0.512632       -13.9494
  25   2.0000      -0.481127       -13.0921
  26   2.0000      -0.468302       -12.7432
  27   2.0000      -0.340456        -9.2643
  28   2.0000      -0.312000        -8.4899
  29   0.0000       0.028114         0.7650
  30   0.0000       0.032923         0.8959
  31   0.0000       0.035039         0.9535
  32   0.0000       0.046336         1.2609
  33   0.0000       0.046851         1.2749

MULLIKEN ATOMIC CHARGES
-----------------------
   0 C :   -0.582384
   1 C :   -0.533684
   2 C :   -0.300242
   3 C :   -0.487458
   4 C :   -1.005946
   5 C :    1.105625
   6 C :   -0.885008
   7 O :   -0.771112
   8 H :    0.554215
   9 H :    0.277108
  10 H :    0.324020
  11 H :    0.614234
  12 H :    0.635248
  13 H :    0.340054
  14 H :    0.340054
  15 H :    0.375277
Sum of atomic charges:   -0.0000000

LOEWDIN ATOMIC CHARGES
----------------------
   0 C :    0.185308
   1 C :    0.185143
   2 C :    0.183299
   3 C :    0.202510
   4 C :    0.206510
   5 C :   -0.387438
   6 C :    0.339780
   7 O :    0.570815
   8 H :   -0.193423
   9 H :   -0.183257
  10 H :   -0.183149
  11 H :   -0.210047
  12 H :   -0.184575
  13 H :   -0.174899
  14 H :   -0.174899
  15 H :   -0.181678

  Mayer bond orders larger than 0.100000
B(  0-C ,  1-C ) :   1.1616 B(  0-C ,  2-C ) :   1.0819 B(  0-C ,  3-C ) :   0.2785
B(  0-C ,  4-C ) :   0.4292 B(  0-C ,  5-C ) :  -0.1247 B(  0-C ,  8-H ) :   0.6083
B(  0-C , 11-H ) :  -0.1062 B(  1-C ,  2-C ) :  -0.2187 B(  1-C ,  3-C ) :   1.0299
B(  1-C ,  5-C ) :  -0.2509 B(  1-C ,  9-H ) :   1.1018 B(  2-C ,  4-C ) :   1.1740
B(  2-C ,  5-C ) :  -0.2840 B(  2-C , 10-H ) :   1.0284 B(  2-C , 11-H ) :   0.1132
B(  3-C ,  4-C ) :   0.5945 B(  3-C ,  5-C ) :   0.9333 B(  3-C ,  7-O ) :  -0.2874
B(  3-C , 11-H ) :   0.4532 B(  4-C ,  5-C ) :   0.6202 B(  4-C ,  7-O ) :   0.1307
B(  4-C , 11-H ) :  -0.1667 B(  4-C , 12-H ) :   0.3798 B(  5-C ,  7-O ) :   0.6698
B(  6-C ,  7-O ) :   1.0142 B(  6-C , 13-H ) :   0.8950 B(  6-C , 14-H ) :   0.8950
B(  6-C , 15-H ) :   0.9112 B(  7-O , 12-H ) :  -0.1262

MP2 TOTAL ENERGY:     -346.084228862 Eh
FINAL SINGLE POINT ENERGY      -346.084228862424

DIPOLE MOMENT
-------------
                                X             Y             Z
Electronic contribution:      2.66887      -0.66535      -0.00000
Nuclear contribution   :     -3.19823       0.65449       0.00000
                        -----------------------------------------
Total Dipole Moment    :     -0.52936      -0.01086      -0.00000
                        -----------------------------------------
Magnitude (a.u.)       :      0.52947
Magnitude (Debye)      :      1.34581

Rotational constants in cm-1:     0.169268     0.052228     0.040218
Rotational constants in MHz :  5074.533437  1565.762630  1205.708040

                             ****ORCA TERMINATED NORMALLY****
TOTAL RUN TIME: 0 days 0 hours 5 minutes 40 seconds 704 msec
