                         Program Version 5.0.3 -  RELEASE  -
|  1> !ri-mp2 aug-cc-pvtz aug-cc-pvtz/c tightscf
|  2> %pal nprocs 16 end
|  3>
|  4> * xyz 0 1
|  5> C    -0.418466     0.644989    0.791107
|  6> C    -0.418466     0.644989   -0.791107
|  7> C     0.418466    -0.644989    0.791107
|  8> C     0.418466     1.946235    0.777144
|  9> C     0.418466    -0.644989   -0.791107
| 10> C     0.418466     1.946235   -0.777144
| 11> C    -0.418466    -1.946235   -0.777144
| 12> C    -0.418466    -1.946235    0.777144
| 13> H    -1.320254     0.645883    1.403108
| 14> H    -1.320254     0.645883   -1.403108
| 15> H     1.320254    -0.645883    1.403108
| 16> H    -0.103896     2.800429    1.206129
| 17> H     1.394828     1.871332    1.257928
| 18> H     1.320254    -0.645883   -1.403108
| 19> H     1.394828     1.871332   -1.257928
| 20> H    -0.103896     2.800429   -1.206129
| 21> H    -1.394828    -1.871332   -1.257928
| 22> H     0.103896    -2.800429   -1.206129
| 23> H     0.103896    -2.800429    1.206129
| 24> H    -1.394828    -1.871332    1.257928
| 25> *
| 26>
| 27>                          ****END OF INPUT****

CARTESIAN COORDINATES (ANGSTROEM)
---------------------------------
  C     -0.418466    0.644989    0.791107
  C     -0.418466    0.644989   -0.791107
  C      0.418466   -0.644989    0.791107
  C      0.418466    1.946235    0.777144
  C      0.418466   -0.644989   -0.791107
  C      0.418466    1.946235   -0.777144
  C     -0.418466   -1.946235   -0.777144
  C     -0.418466   -1.946235    0.777144
  H     -1.320254    0.645883    1.403108
  H     -1.320254    0.645883   -1.403108
  H      1.320254   -0.645883    1.403108
  H     -0.103896    2.800429    1.206129
  H      1.394828    1.871332    1.257928
  H      1.320254   -0.645883   -1.403108
  H      1.394828    1.871332   -1.257928
  H     -0.103896    2.800429   -1.206129
  H     -1.394828   -1.871332   -1.257928
  H      0.103896   -2.800429   -1.206129
  H      0.103896   -2.800429    1.206129
  H     -1.394828   -1.871332    1.257928

 Total Charge           Charge          ....    0
 Multiplicity           Mult            ....    1
 Number of Electrons    NEL             ....   60
 Basis Dimension        Dim             ....  644

ORBITAL ENERGIES
----------------

  NO   OCC          E(Eh)            E(eV)
   0   2.0000     -11.218497      -305.2708
   1   2.0000     -11.218021      -305.2579
   2   2.0000     -11.217921      -305.2551
   3   2.0000     -11.217438      -305.2420
   4   2.0000     -11.214014      -305.1488
   5   2.0000     -11.214007      -305.1486
   6   2.0000     -11.213476      -305.1342
   7   2.0000     -11.213470      -305.1340
   8   2.0000      -1.175506       -31.9871
   9   2.0000      -1.074845       -29.2480
  10   2.0000      -0.935176       -25.4474
  11   2.0000      -0.931693       -25.3526
  12   2.0000      -0.859327       -23.3835
  13   2.0000      -0.821260       -22.3476
  14   2.0000      -0.751126       -20.4392
  15   2.0000      -0.681071       -18.5329
  16   2.0000      -0.659717       -17.9518
  17   2.0000      -0.654325       -17.8051
  18   2.0000      -0.634965       -17.2783
  19   2.0000      -0.578409       -15.7393
  20   2.0000      -0.547372       -14.8948
  21   2.0000      -0.522097       -14.2070
  22   2.0000      -0.505793       -13.7633
  23   2.0000      -0.493452       -13.4275
  24   2.0000      -0.458666       -12.4809
  25   2.0000      -0.458640       -12.4802
  26   2.0000      -0.430734       -11.7209
  27   2.0000      -0.416905       -11.3446
  28   2.0000      -0.384806       -10.4711
  29   2.0000      -0.376833       -10.2542
  30   0.0000       0.029613         0.8058
  31   0.0000       0.033952         0.9239
  32   0.0000       0.035049         0.9537
  33   0.0000       0.037418         1.0182
  34   0.0000       0.046182         1.2567

MULLIKEN ATOMIC CHARGES
-----------------------
   0 C :   -0.378556
   1 C :   -0.378556
   2 C :   -0.378557
   3 C :   -0.736114
   4 C :   -0.378556
   5 C :   -0.736114
   6 C :   -0.736114
   7 C :   -0.736113
   8 H :    0.567786
   9 H :    0.567786
  10 H :    0.567784
  11 H :    0.290305
  12 H :    0.256579
  13 H :    0.567783
  14 H :    0.256579
  15 H :    0.290305
  16 H :    0.256579
  17 H :    0.290306
  18 H :    0.290307
  19 H :    0.256578
Sum of atomic charges:    0.0000000

LOEWDIN ATOMIC CHARGES
----------------------
   0 C :    0.086689
   1 C :    0.086689
   2 C :    0.086689
   3 C :    0.346668
   4 C :    0.086689
   5 C :    0.346668
   6 C :    0.346668
   7 C :    0.346668
   8 H :   -0.128637
   9 H :   -0.128637
  10 H :   -0.128637
  11 H :   -0.153567
  12 H :   -0.151153
  13 H :   -0.128637
  14 H :   -0.151153
  15 H :   -0.153567
  16 H :   -0.151153
  17 H :   -0.153567
  18 H :   -0.153567
  19 H :   -0.151153

  Mayer bond orders larger than 0.100000
B(  0-C ,  1-C ) :   0.9773 B(  0-C ,  2-C ) :   1.0477 B(  0-C ,  3-C ) :   1.0313
B(  0-C ,  8-H ) :   0.4937 B(  1-C ,  4-C ) :   1.0477 B(  1-C ,  5-C ) :   1.0313
B(  1-C ,  9-H ) :   0.4937 B(  2-C ,  4-C ) :   0.9773 B(  2-C ,  7-C ) :   1.0313
B(  2-C , 10-H ) :   0.4937 B(  3-C ,  5-C ) :   1.0540 B(  3-C , 11-H ) :   0.9062
B(  3-C , 12-H ) :   0.9700 B(  4-C ,  6-C ) :   1.0313 B(  4-C , 13-H ) :   0.4937
B(  5-C , 14-H ) :   0.9700 B(  5-C , 15-H ) :   0.9062 B(  6-C ,  7-C ) :   1.0540
B(  6-C , 16-H ) :   0.9700 B(  6-C , 17-H ) :   0.9062 B(  7-C , 18-H ) :   0.9062
B(  7-C , 19-H ) :   0.9700

MP2 TOTAL ENERGY:     -311.300290370 Eh
FINAL SINGLE POINT ENERGY      -311.300290370491

DIPOLE MOMENT
-------------
                                X             Y             Z
Electronic contribution:      0.00000       0.00000      -0.00000
Nuclear contribution   :      0.00000       0.00000      -0.00000
                        -----------------------------------------
Total Dipole Moment    :      0.00000       0.00000      -0.00000
                        -----------------------------------------
Magnitude (a.u.)       :      0.00000
Magnitude (Debye)      :      0.00000

Rotational constants in cm-1:     0.158463     0.059963     0.050580
Rotational constants in MHz :  4750.596354  1797.646974  1516.344701

                             ****ORCA TERMINATED NORMALLY****
TOTAL RUN TIME: 0 days 0 hours 10 minutes 48 seconds 134 msec
