                         Program Version 5.0.3 -  RELEASE  -
|  1> !ri-mp2 aug-cc-pvtz aug-cc-pvtz/c tightscf
|  2> %pal nprocs 16 end
|  3>
|  4> * xyz 0 1
|  5> N     -0.559751    1.671657    0.045915
|  6> C     -0.532972    0.280240   -0.418930
|  7> C     -1.890012   -0.388824   -0.132659
|  8> O     -2.226830   -1.423048   -0.641390
|  9> O     -2.644131    0.266174    0.760645
| 10> H     -2.137138    1.070719    1.003194
| 11> C      0.538406   -0.536571    0.312301
| 12> C      1.953822   -0.103384    0.017412
| 13> O      2.287312    0.951709   -0.465001
| 14> O      2.843745   -1.045709    0.388575
| 15> H     -0.363243    0.188219   -1.494723
| 16> H      0.398061   -0.461864    1.395187
| 17> H      0.431236   -1.589892    0.058200
| 18> H      0.385487    2.025817    0.133560
| 19> H     -1.022701    2.261966   -0.635773
| 20> H      3.730329   -0.698333    0.207579
| 21> *
| 22>
| 23>                          ****END OF INPUT****

CARTESIAN COORDINATES (ANGSTROEM)
---------------------------------
  N     -0.559751    1.671657    0.045915
  C     -0.532972    0.280240   -0.418930
  C     -1.890012   -0.388824   -0.132659
  O     -2.226830   -1.423048   -0.641390
  O     -2.644131    0.266174    0.760645
  H     -2.137138    1.070719    1.003194
  C      0.538406   -0.536571    0.312301
  C      1.953822   -0.103384    0.017412
  O      2.287312    0.951709   -0.465001
  O      2.843745   -1.045709    0.388575
  H     -0.363243    0.188219   -1.494723
  H      0.398061   -0.461864    1.395187
  H      0.431236   -1.589892    0.058200
  H      0.385487    2.025817    0.133560
  H     -1.022701    2.261966   -0.635773
  H      3.730329   -0.698333    0.207579

 Total Charge           Charge          ....    0
 Multiplicity           Mult            ....    1
 Number of Electrons    NEL             ....   70
 Basis Dimension        Dim             ....  575

ORBITAL ENERGIES
----------------

  NO   OCC          E(Eh)            E(eV)
   0   2.0000     -20.635748      -561.5273
   1   2.0000     -20.606471      -560.7306
   2   2.0000     -20.576428      -559.9131
   3   2.0000     -20.545644      -559.0754
   4   2.0000     -15.581762      -424.0013
   5   2.0000     -11.414713      -310.6101
   6   2.0000     -11.384318      -309.7830
   7   2.0000     -11.305574      -307.6403
   8   2.0000     -11.277539      -306.8774
   9   2.0000      -1.491038       -40.5732
  10   2.0000      -1.461020       -39.7564
  11   2.0000      -1.388664       -37.7875
  12   2.0000      -1.365971       -37.1700
  13   2.0000      -1.228275       -33.4231
  14   2.0000      -1.076209       -29.2851
  15   2.0000      -0.952840       -25.9281
  16   2.0000      -0.840674       -22.8759
  17   2.0000      -0.811989       -22.0953
  18   2.0000      -0.749187       -20.3864
  19   2.0000      -0.730048       -19.8656
  20   2.0000      -0.709592       -19.3090
  21   2.0000      -0.702917       -19.1273
  22   2.0000      -0.678306       -18.4576
  23   2.0000      -0.665484       -18.1087
  24   2.0000      -0.631894       -17.1947
  25   2.0000      -0.626703       -17.0535
  26   2.0000      -0.604672       -16.4540
  27   2.0000      -0.573619       -15.6090
  28   2.0000      -0.557307       -15.1651
  29   2.0000      -0.551401       -15.0044
  30   2.0000      -0.509882       -13.8746
  31   2.0000      -0.486866       -13.2483
  32   2.0000      -0.475328       -12.9343
  33   2.0000      -0.461586       -12.5604
  34   2.0000      -0.430995       -11.7280
  35   0.0000       0.022288         0.6065
  36   0.0000       0.029569         0.8046
  37   0.0000       0.036024         0.9803
  38   0.0000       0.045473         1.2374
  39   0.0000       0.052439         1.4269

MULLIKEN ATOMIC CHARGES
-----------------------
   0 N :   -0.593113
   1 C :    0.661441
   2 C :    0.645969
   3 O :   -0.820883
   4 O :   -0.527070
   5 H :    0.275303
   6 C :   -0.336059
   7 C :    0.586078
   8 O :   -0.790582
   9 O :   -0.449001
  10 H :    0.361600
  11 H :    0.281284
  12 H :    0.248321
  13 H :    0.150437
  14 H :    0.048730
  15 H :    0.257544
Sum of atomic charges:   -0.0000000

LOEWDIN ATOMIC CHARGES
----------------------
   0 N :    0.872237
   1 C :   -0.124253
   2 C :   -0.783802
   3 O :    0.440402
   4 O :    0.846070
   5 H :   -0.577441
   6 C :    0.288721
   7 C :   -0.761978
   8 O :    0.479887
   9 O :    0.844461
  10 H :   -0.133622
  11 H :   -0.133278
  12 H :   -0.154441
  13 H :   -0.359881
  14 H :   -0.280580
  15 H :   -0.462502

  Mayer bond orders larger than 0.100000
B(  0-N ,  1-C ) :   0.4464 B(  0-N ,  2-C ) :   0.1101 B(  0-N ,  6-C ) :   0.1216
B(  0-N , 13-H ) :   0.9395 B(  0-N , 14-H ) :   1.0513 B(  1-C ,  2-C ) :   0.7716
B(  1-C ,  6-C ) :   0.8470 B(  1-C , 10-H ) :   0.8529 B(  2-C ,  3-O ) :   1.3091
B(  2-C ,  4-O ) :   0.8336 B(  2-C ,  6-C ) :   0.1263 B(  4-O ,  5-H ) :   0.8526
B(  6-C ,  7-C ) :   0.6144 B(  6-C , 11-H ) :   0.9139 B(  6-C , 12-H ) :   0.9739
B(  7-C ,  8-O ) :   1.3940 B(  7-C ,  9-O ) :   0.9336 B(  9-O , 15-H ) :   0.9522

MP2 TOTAL ENERGY:     -511.522489404 Eh
FINAL SINGLE POINT ENERGY      -511.522489404266

DIPOLE MOMENT
-------------
                                X             Y             Z
Electronic contribution:      0.00015      -1.83887      -0.44032
Nuclear contribution   :      1.40534       2.75243       0.65995
                        -----------------------------------------
Total Dipole Moment    :      1.40549       0.91356       0.21963
                        -----------------------------------------
Magnitude (a.u.)       :      1.69063
Magnitude (Debye)      :      4.29724

Rotational constants in cm-1:     0.108416     0.030338     0.025962
Rotational constants in MHz :  3250.216503   909.502705   778.320967

                             ****ORCA TERMINATED NORMALLY****
TOTAL RUN TIME: 0 days 0 hours 6 minutes 4 seconds 974 msec
