                         Program Version 5.0.3 -  RELEASE  -
|  1> !ri-mp2 aug-cc-pvtz aug-cc-pvtz/c tightscf
|  2> %pal nprocs 16 end
|  3>
|  4> * xyz 0 1
|  5> C     -1.285321    1.316376    0.000000
|  6> C      0.000000    0.560718    0.000000
|  7> N     -0.003088   -0.706431    0.000000
|  8> O      1.307613   -1.225774    0.000000
|  9> H      1.160285   -2.176767    0.000000
| 10> H     -2.132483    0.633899    0.000000
| 11> H     -1.349609    1.963012    0.878124
| 12> H     -1.349609    1.963012   -0.878124
| 13> H      0.944054    1.105492    0.000000
| 14> *
| 15>
| 16>                          ****END OF INPUT****

CARTESIAN COORDINATES (ANGSTROEM)
---------------------------------
  C     -1.285321    1.316376    0.000000
  C      0.000000    0.560718    0.000000
  N     -0.003088   -0.706431    0.000000
  O      1.307613   -1.225774    0.000000
  H      1.160285   -2.176767    0.000000
  H     -2.132483    0.633899    0.000000
  H     -1.349609    1.963012    0.878124
  H     -1.349609    1.963012   -0.878124
  H      0.944054    1.105492    0.000000

 Total Charge           Charge          ....    0
 Multiplicity           Mult            ....    1
 Number of Electrons    NEL             ....   32
 Basis Dimension        Dim             ....  299

ORBITAL ENERGIES
----------------

  NO   OCC          E(Eh)            E(eV)
   0   2.0000     -20.593957      -560.3900
   1   2.0000     -15.620422      -425.0533
   2   2.0000     -11.276905      -306.8602
   3   2.0000     -11.235648      -305.7375
   4   2.0000      -1.416811       -38.5534
   5   2.0000      -1.166280       -31.7361
   6   2.0000      -0.984936       -26.8015
   7   2.0000      -0.778210       -21.1762
   8   2.0000      -0.714633       -19.4461
   9   2.0000      -0.651458       -17.7271
  10   2.0000      -0.604308       -16.4441
  11   2.0000      -0.566244       -15.4083
  12   2.0000      -0.565193       -15.3797
  13   2.0000      -0.546787       -14.8788
  14   2.0000      -0.440853       -11.9962
  15   2.0000      -0.390969       -10.6388
  16   0.0000       0.030451         0.8286
  17   0.0000       0.039684         1.0799
  18   0.0000       0.042379         1.1532
  19   0.0000       0.046005         1.2518
  20   0.0000       0.061174         1.6646

MULLIKEN ATOMIC CHARGES
-----------------------
   0 C :   -0.601084
   1 C :   -0.306578
   2 N :   -0.318403
   3 O :   -0.378804
   4 H :    0.193025
   5 H :    0.317370
   6 H :    0.271512
   7 H :    0.271512
   8 H :    0.551450
Sum of atomic charges:   -0.0000000

LOEWDIN ATOMIC CHARGES
----------------------
   0 C :    0.540971
   1 C :   -0.028745
   2 N :    0.140067
   3 O :    0.629793
   4 H :   -0.547117
   5 H :   -0.189138
   6 H :   -0.181296
   7 H :   -0.181296
   8 H :   -0.183240

  Mayer bond orders larger than 0.100000
B(  0-C ,  1-C ) :   0.7515 B(  0-C ,  5-H ) :   0.9073 B(  0-C ,  6-H ) :   0.9464
B(  0-C ,  7-H ) :   0.9464 B(  1-C ,  2-N ) :   1.6363 B(  1-C ,  8-H ) :   0.6641
B(  2-N ,  3-O ) :   0.7864 B(  3-O ,  4-H ) :   1.0143

MP2 TOTAL ENERGY:     -208.767618446 Eh
FINAL SINGLE POINT ENERGY      -208.767618445712

DIPOLE MOMENT
-------------
                                X             Y             Z
Electronic contribution:      2.52948      -3.11072       0.00000
Nuclear contribution   :     -2.75398       3.52562       0.00000
                        -----------------------------------------
Total Dipole Moment    :     -0.22450       0.41490       0.00000
                        -----------------------------------------
Magnitude (a.u.)       :      0.47175
Magnitude (Debye)      :      1.19908

Rotational constants in cm-1:     1.555300     0.141119     0.132542
Rotational constants in MHz : 46626.707400  4230.632197  3973.516474

                             ****ORCA TERMINATED NORMALLY****
TOTAL RUN TIME: 0 days 0 hours 0 minutes 59 seconds 939 msec
