                         Program Version 5.0.3 -  RELEASE  -
|  1> !ri-mp2 aug-cc-pvtz aug-cc-pvtz/c tightscf
|  2> %pal nprocs 16 end
|  3>
|  4> * xyz 0 1
|  5> H     -2.372022    1.258779   -0.041328
|  6> O      1.579853    0.982519    0.090040
|  7> H      1.029092    1.754950    0.261797
|  8> C      0.826544   -0.141556    0.027243
|  9> O      1.341664   -1.193160   -0.229770
| 10> C     -0.660281    0.015379    0.360045
| 11> H     -0.675584    0.146310    1.454547
| 12> C     -1.307277    1.254476   -0.272188
| 13> H     -0.900542    2.193255    0.114105
| 14> H     -1.199468    1.234270   -1.355735
| 15> H     -2.167312   -1.374487    0.506707
| 16> H     -0.734896   -1.985047   -0.035084
| 17> N     -1.357902   -1.187528   -0.068252
| 18> *
| 19>
| 20>                          ****END OF INPUT****

CARTESIAN COORDINATES (ANGSTROEM)
---------------------------------
  H     -2.372022    1.258779   -0.041328
  O      1.579853    0.982519    0.090040
  H      1.029092    1.754950    0.261797
  C      0.826544   -0.141556    0.027243
  O      1.341664   -1.193160   -0.229770
  C     -0.660281    0.015379    0.360045
  H     -0.675584    0.146310    1.454547
  C     -1.307277    1.254476   -0.272188
  H     -0.900542    2.193255    0.114105
  H     -1.199468    1.234270   -1.355735
  H     -2.167312   -1.374487    0.506707
  H     -0.734896   -1.985047   -0.035084
  N     -1.357902   -1.187528   -0.068252

 Total Charge           Charge          ....    0
 Multiplicity           Mult            ....    1
 Number of Electrons    NEL             ....   48
 Basis Dimension        Dim             ....  437

ORBITAL ENERGIES
----------------

  NO   OCC          E(Eh)            E(eV)
   0   2.0000     -20.617713      -561.0365
   1   2.0000     -20.549995      -559.1938
   2   2.0000     -15.551861      -423.1877
   3   2.0000     -11.388287      -309.8910
   4   2.0000     -11.295619      -307.3694
   5   2.0000     -11.246087      -306.0216
   6   2.0000      -1.466198       -39.8973
   7   2.0000      -1.371130       -37.3103
   8   2.0000      -1.204026       -32.7632
   9   2.0000      -1.029412       -28.0117
  10   2.0000      -0.907954       -24.7067
  11   2.0000      -0.823960       -22.4211
  12   2.0000      -0.737903       -20.0794
  13   2.0000      -0.686759       -18.6877
  14   2.0000      -0.664290       -18.0763
  15   2.0000      -0.651341       -17.7239
  16   2.0000      -0.615273       -16.7424
  17   2.0000      -0.580565       -15.7980
  18   2.0000      -0.564334       -15.3563
  19   2.0000      -0.550495       -14.9797
  20   2.0000      -0.540373       -14.7043
  21   2.0000      -0.484268       -13.1776
  22   2.0000      -0.451309       -12.2807
  23   2.0000      -0.406963       -11.0740
  24   0.0000       0.020618         0.5610
  25   0.0000       0.032845         0.8938
  26   0.0000       0.036829         1.0022
  27   0.0000       0.044063         1.1990
  28   0.0000       0.056652         1.5416

MULLIKEN ATOMIC CHARGES
-----------------------
   0 H :    0.256458
   1 O :   -0.457797
   2 H :    0.233770
   3 C :    0.568453
   4 O :   -0.740845
   5 C :    0.613954
   6 H :    0.323801
   7 C :   -0.969598
   8 H :    0.261954
   9 H :    0.321147
  10 H :    0.096293
  11 H :    0.133452
  12 N :   -0.641044
Sum of atomic charges:    0.0000000

LOEWDIN ATOMIC CHARGES
----------------------
   0 H :   -0.161834
   1 O :    0.855079
   2 H :   -0.525540
   3 C :   -0.755637
   4 O :    0.464432
   5 C :   -0.163972
   6 H :   -0.134825
   7 C :    0.593082
   8 H :   -0.179443
   9 H :   -0.156554
  10 H :   -0.313268
  11 H :   -0.370183
  12 N :    0.848663

  Mayer bond orders larger than 0.100000
B(  0-H ,  7-C ) :   1.0069 B(  1-O ,  2-H ) :   0.9147 B(  1-O ,  3-C ) :   0.8603
B(  3-C ,  4-O ) :   1.4442 B(  3-C ,  5-C ) :   0.7242 B(  3-C ,  7-C ) :   0.1067
B(  5-C ,  6-H ) :   0.8780 B(  5-C ,  7-C ) :   0.7641 B(  5-C , 12-N ) :   0.5175
B(  7-C ,  8-H ) :   0.9414 B(  7-C ,  9-H ) :   0.9123 B(  7-C , 12-N ) :   0.1114
B( 10-H , 12-N ) :   1.0074 B( 11-H , 12-N ) :   0.9574

MP2 TOTAL ENERGY:     -323.200165761 Eh
FINAL SINGLE POINT ENERGY      -323.200165761004

DIPOLE MOMENT
-------------
                                X             Y             Z
Electronic contribution:      5.79489      -2.15209      -0.08317
Nuclear contribution   :     -7.06522       3.25579       0.91308
                        -----------------------------------------
Total Dipole Moment    :     -1.27033       1.10370       0.82990
                        -----------------------------------------
Magnitude (a.u.)       :      1.87633
Magnitude (Debye)      :      4.76926

Rotational constants in cm-1:     0.165599     0.111987     0.071206
Rotational constants in MHz :  4964.527382  3357.275717  2134.704812

                             ****ORCA TERMINATED NORMALLY****
TOTAL RUN TIME: 0 days 0 hours 2 minutes 50 seconds 967 msec
