                         Program Version 5.0.3 -  RELEASE  -
|  1> !ri-mp2 aug-cc-pvtz aug-cc-pvtz/c tightscf
|  2> %pal nprocs 16 end
|  3>
|  4> * xyz 0 1
|  5> C      0.000000    0.184262   -0.000004
|  6> C      1.287739   -0.611432   -0.001319
|  7> C     -1.287736   -0.611435    0.001318
|  8> O     -0.000003    1.394523    0.000000
|  9> H      1.360865   -1.200218    0.916077
| 10> H      1.300040   -1.319506   -0.832407
| 11> H      2.141095    0.057450   -0.072065
| 12> H     -2.141098    0.057436    0.072061
| 13> H     -1.300032   -1.319486    0.832420
| 14> H     -1.360868   -1.200234   -0.916065
| 15> *
| 16>
| 17>                          ****END OF INPUT****

CARTESIAN COORDINATES (ANGSTROEM)
---------------------------------
  C      0.000000    0.184262   -0.000004
  C      1.287739   -0.611432   -0.001319
  C     -1.287736   -0.611435    0.001318
  O     -0.000003    1.394523    0.000000
  H      1.360865   -1.200218    0.916077
  H      1.300040   -1.319506   -0.832407
  H      2.141095    0.057450   -0.072065
  H     -2.141098    0.057436    0.072061
  H     -1.300032   -1.319486    0.832420
  H     -1.360868   -1.200234   -0.916065

 Total Charge           Charge          ....    0
 Multiplicity           Mult            ....    1
 Number of Electrons    NEL             ....   32
 Basis Dimension        Dim             ....  322

ORBITAL ENERGIES
----------------

  NO   OCC          E(Eh)            E(eV)
   0   2.0000     -20.545450      -559.0701
   1   2.0000     -11.332640      -308.3768
   2   2.0000     -11.235411      -305.7311
   3   2.0000     -11.235390      -305.7305
   4   2.0000      -1.387394       -37.7529
   5   2.0000      -1.042256       -28.3612
   6   2.0000      -0.968325       -26.3495
   7   2.0000      -0.742395       -20.2016
   8   2.0000      -0.646078       -17.5807
   9   2.0000      -0.637326       -17.3425
  10   2.0000      -0.623653       -16.9705
  11   2.0000      -0.562966       -15.3191
  12   2.0000      -0.560239       -15.2449
  13   2.0000      -0.538614       -14.6564
  14   2.0000      -0.489543       -13.3211
  15   2.0000      -0.414025       -11.2662
  16   0.0000       0.025825         0.7027
  17   0.0000       0.036666         0.9977
  18   0.0000       0.039677         1.0797
  19   0.0000       0.049468         1.3461
  20   0.0000       0.061264         1.6671

MULLIKEN ATOMIC CHARGES
-----------------------
   0 C :    0.492670
   1 C :   -0.786705
   2 C :   -0.786705
   3 O :   -0.731394
   4 H :    0.306210
   5 H :    0.312338
   6 H :    0.287518
   7 H :    0.287517
   8 H :    0.312338
   9 H :    0.306213
Sum of atomic charges:   -0.0000000

LOEWDIN ATOMIC CHARGES
----------------------
   0 C :   -0.541981
   1 C :    0.578977
   2 C :    0.578979
   3 O :    0.452434
   4 H :   -0.174447
   5 H :   -0.175808
   6 H :   -0.183946
   7 H :   -0.183947
   8 H :   -0.175812
   9 H :   -0.174449

  Mayer bond orders larger than 0.100000
B(  0-C ,  1-C ) :   0.8990 B(  0-C ,  2-C ) :   0.8990 B(  0-C ,  3-O ) :   1.3616
B(  1-C ,  4-H ) :   0.9139 B(  1-C ,  5-H ) :   0.9151 B(  1-C ,  6-H ) :   0.9465
B(  2-C ,  7-H ) :   0.9465 B(  2-C ,  8-H ) :   0.9151 B(  2-C ,  9-H ) :   0.9139

MP2 TOTAL ENERGY:     -192.789887241 Eh
FINAL SINGLE POINT ENERGY      -192.789887241314

DIPOLE MOMENT
-------------
                                X             Y             Z
Electronic contribution:     -0.00000       3.73286      -0.00002
Nuclear contribution   :      0.00000      -5.07294       0.00002
                        -----------------------------------------
Total Dipole Moment    :      0.00000      -1.34008       0.00000
                        -----------------------------------------
Magnitude (a.u.)       :      1.34008
Magnitude (Debye)      :      3.40621

Rotational constants in cm-1:     0.339784     0.284197     0.164095
Rotational constants in MHz : 10186.459018  8519.999419  4919.430938

                             ****ORCA TERMINATED NORMALLY****
TOTAL RUN TIME: 0 days 0 hours 1 minutes 27 seconds 120 msec
