                         Program Version 5.0.3 -  RELEASE  -
|  1> !ri-mp2 aug-cc-pvtz aug-cc-pvtz/c tightscf
|  2> %pal nprocs 16 end
|  3>
|  4> * xyz 0 1
|  5> C     -0.146975   -0.745307        0.000000
|  6> C      0.000000    0.717816        0.000000
|  7> C      1.203301    1.287661        0.000000
|  8> O     -1.208534   -1.324424        0.000000
|  9> H      0.808295   -1.308935        0.000000
| 10> H     -0.915368    1.296860        0.000000
| 11> H      1.332889    2.360924        0.000000
| 12> H      2.104499    0.685522        0.000000
| 13> *
| 14>
| 15>                          ****END OF INPUT****

CARTESIAN COORDINATES (ANGSTROEM)
---------------------------------
  C     -0.146975   -0.745307    0.000000
  C      0.000000    0.717816    0.000000
  C      1.203301    1.287661    0.000000
  O     -1.208534   -1.324424    0.000000
  H      0.808295   -1.308935    0.000000
  H     -0.915368    1.296860    0.000000
  H      1.332889    2.360924    0.000000
  H      2.104499    0.685522    0.000000

 Total Charge           Charge          ....    0
 Multiplicity           Mult            ....    1
 Number of Electrons    NEL             ....   30
 Basis Dimension        Dim             ....  276

ORBITAL ENERGIES
----------------

  NO   OCC          E(Eh)            E(eV)
   0   2.0000     -20.559792      -559.4604
   1   2.0000     -11.336586      -308.4842
   2   2.0000     -11.271092      -306.7020
   3   2.0000     -11.256713      -306.3107
   4   2.0000      -1.395002       -37.9599
   5   2.0000      -1.091504       -29.7013
   6   2.0000      -0.888750       -24.1841
   7   2.0000      -0.788738       -21.4627
   8   2.0000      -0.674971       -18.3669
   9   2.0000      -0.669318       -18.2131
  10   2.0000      -0.607955       -16.5433
  11   2.0000      -0.560239       -15.2449
  12   2.0000      -0.545543       -14.8450
  13   2.0000      -0.432562       -11.7706
  14   2.0000      -0.403073       -10.9682
  15   0.0000       0.024535         0.6676
  16   0.0000       0.035279         0.9600
  17   0.0000       0.042217         1.1488
  18   0.0000       0.057671         1.5693
  19   0.0000       0.063874         1.7381

MULLIKEN ATOMIC CHARGES
-----------------------
   0 C :    0.023158
   1 C :   -0.139248
   2 C :   -0.988733
   3 O :   -0.681466
   4 H :    0.524515
   5 H :    0.408866
   6 H :    0.519773
   7 H :    0.333135
Sum of atomic charges:    0.0000000

LOEWDIN ATOMIC CHARGES
----------------------
   0 C :   -0.277252
   1 C :    0.154753
   2 C :    0.527632
   3 O :    0.420216
   4 H :   -0.195771
   5 H :   -0.203866
   6 H :   -0.209709
   7 H :   -0.216004

  Mayer bond orders larger than 0.100000
B(  0-C ,  1-C ) :   0.8795 B(  0-C ,  3-O ) :   1.5816 B(  0-C ,  4-H ) :   0.6931
B(  1-C ,  2-C ) :   1.5085 B(  1-C ,  5-H ) :   0.8302 B(  2-C ,  6-H ) :   0.6592
B(  2-C ,  7-H ) :   0.9773

MP2 TOTAL ENERGY:     -191.555198972 Eh
FINAL SINGLE POINT ENERGY      -191.555198971860

DIPOLE MOMENT
-------------
                                X             Y             Z
Electronic contribution:     -2.14470      -2.10427       0.00000
Nuclear contribution   :      3.32769       3.02845       0.00000
                        -----------------------------------------
Total Dipole Moment    :      1.18299       0.92418       0.00000
                        -----------------------------------------
Magnitude (a.u.)       :      1.50119
Magnitude (Debye)      :      3.81573

Rotational constants in cm-1:     1.611785     0.155631     0.141926
Rotational constants in MHz : 48320.106780  4665.686629  4254.847604

                             ****ORCA TERMINATED NORMALLY****
TOTAL RUN TIME: 0 days 0 hours 0 minutes 58 seconds 73 msec
