                         Program Version 5.0.3 -  RELEASE  -
|  1> !ri-mp2 aug-cc-pvtz aug-cc-pvtz/c tightscf
|  2> %pal nprocs 16 end
|  3>
|  4> * xyz 0 1
|  5> C      0.000000    0.000000   -2.493269
|  6> C      0.000000    1.260954   -1.903510
|  7> C      0.000000    0.747825    0.551519
|  8> C      0.000000    1.588911   -0.550232
|  9> C      0.000000    0.000000    2.698578
| 10> C      0.000000   -1.145715    1.894921
| 11> C      0.000000   -0.747825    0.551519
| 12> C      0.000000    1.145715    1.894921
| 13> C      0.000000   -1.588911   -0.550232
| 14> C      0.000000   -1.260954   -1.903510
| 15> H      0.000000    0.000000   -3.577631
| 16> H      0.000000    2.098972   -2.589739
| 17> H      0.000000    2.650420   -0.323058
| 18> H      0.000000    0.000000    3.778585
| 19> H      0.000000   -2.167642    2.240201
| 20> H      0.000000    2.167642    2.240201
| 21> H      0.000000   -2.650420   -0.323058
| 22> H      0.000000   -2.098972   -2.589739
| 23> *
| 24>
| 25>                          ****END OF INPUT****

CARTESIAN COORDINATES (ANGSTROEM)
---------------------------------
  C      0.000000    0.000000   -2.493269
  C      0.000000    1.260954   -1.903510
  C      0.000000    0.747825    0.551519
  C      0.000000    1.588911   -0.550232
  C      0.000000    0.000000    2.698578
  C      0.000000   -1.145715    1.894921
  C      0.000000   -0.747825    0.551519
  C      0.000000    1.145715    1.894921
  C      0.000000   -1.588911   -0.550232
  C      0.000000   -1.260954   -1.903510
  H      0.000000    0.000000   -3.577631
  H      0.000000    2.098972   -2.589739
  H      0.000000    2.650420   -0.323058
  H      0.000000    0.000000    3.778585
  H      0.000000   -2.167642    2.240201
  H      0.000000    2.167642    2.240201
  H      0.000000   -2.650420   -0.323058
  H      0.000000   -2.098972   -2.589739

 Total Charge           Charge          ....    0
 Multiplicity           Mult            ....    1
 Number of Electrons    NEL             ....   68
 Basis Dimension        Dim             ....  644

ORBITAL ENERGIES
----------------

  NO   OCC          E(Eh)            E(eV)
   0   2.0000     -11.263905      -306.5064
   1   2.0000     -11.263901      -306.5063
   2   2.0000     -11.261421      -306.4388
   3   2.0000     -11.243836      -305.9603
   4   2.0000     -11.243780      -305.9588
   5   2.0000     -11.242943      -305.9360
   6   2.0000     -11.242222      -305.9164
   7   2.0000     -11.229883      -305.5807
   8   2.0000     -11.213965      -305.1475
   9   2.0000     -11.213903      -305.1458
  10   2.0000      -1.177836       -32.0505
  11   2.0000      -1.115454       -30.3530
  12   2.0000      -1.071437       -29.1553
  13   2.0000      -1.005300       -27.3556
  14   2.0000      -0.962636       -26.1947
  15   2.0000      -0.884480       -24.0679
  16   2.0000      -0.849364       -23.1124
  17   2.0000      -0.753123       -20.4935
  18   2.0000      -0.747238       -20.3334
  19   2.0000      -0.711104       -19.3501
  20   2.0000      -0.681474       -18.5438
  21   2.0000      -0.631385       -17.1809
  22   2.0000      -0.627491       -17.0749
  23   2.0000      -0.575192       -15.6518
  24   2.0000      -0.557053       -15.1582
  25   2.0000      -0.532376       -14.4867
  26   2.0000      -0.531918       -14.4742
  27   2.0000      -0.530664       -14.4401
  28   2.0000      -0.513936       -13.9849
  29   2.0000      -0.479579       -13.0500
  30   2.0000      -0.452381       -12.3099
  31   2.0000      -0.407636       -11.0923
  32   2.0000      -0.301361        -8.2005
  33   2.0000      -0.261322        -7.1109
  34   0.0000       0.026693         0.7264
  35   0.0000       0.031382         0.8539
  36   0.0000       0.033314         0.9065
  37   0.0000       0.038262         1.0412
  38   0.0000       0.042888         1.1670

MULLIKEN ATOMIC CHARGES
-----------------------
   0 C :   -0.110525
   1 C :   -0.155005
   2 C :    1.750504
   3 C :   -0.850353
   4 C :   -0.478049
   5 C :   -1.312847
   6 C :    1.750418
   7 C :   -1.312818
   8 C :   -0.850441
   9 C :   -0.155128
  10 H :    0.086051
  11 H :    0.380364
  12 H :   -0.389721
  13 H :    0.503247
  14 H :    0.576837
  15 H :    0.576826
  16 H :   -0.389730
  17 H :    0.380371
Sum of atomic charges:    0.0000000

LOEWDIN ATOMIC CHARGES
----------------------
   0 C :    0.207438
   1 C :    0.214834
   2 C :   -0.119865
   3 C :    0.241875
   4 C :    0.201435
   5 C :    0.203841
   6 C :   -0.119865
   7 C :    0.203841
   8 C :    0.241875
   9 C :    0.214834
  10 H :   -0.187977
  11 H :   -0.201249
  12 H :   -0.173926
  13 H :   -0.180907
  14 H :   -0.185505
  15 H :   -0.185505
  16 H :   -0.173926
  17 H :   -0.201249

  Mayer bond orders larger than 0.100000
B(  0-C ,  1-C ) :   1.0806 B(  0-C ,  2-C ) :   0.1085 B(  0-C ,  3-C ) :  -0.1707
B(  0-C ,  6-C ) :   0.1085 B(  0-C ,  8-C ) :  -0.1708 B(  0-C ,  9-C ) :   1.0806
B(  0-C , 10-H ) :   1.2542 B(  0-C , 11-H ) :  -0.1014 B(  0-C , 17-H ) :  -0.1014
B(  1-C ,  3-C ) :   1.0941 B(  1-C ,  6-C ) :   0.1363 B(  1-C , 10-H ) :  -0.1798
B(  1-C , 11-H ) :   0.8383 B(  1-C , 12-H ) :  -0.3359 B(  2-C ,  3-C ) :   0.3722
B(  2-C ,  4-C ) :  -0.1553 B(  2-C ,  5-C ) :  -0.1365 B(  2-C ,  6-C ) :   0.2147
B(  2-C ,  7-C ) :   0.3442 B(  2-C ,  8-C ) :  -0.2461 B(  2-C ,  9-C ) :   0.1362
B(  2-C , 12-H ) :  -0.2651 B(  2-C , 16-H ) :  -0.1158 B(  3-C ,  5-C ) :   0.1688
B(  3-C ,  6-C ) :  -0.2461 B(  3-C ,  8-C ) :   0.1164 B(  3-C , 11-H ) :  -0.2203
B(  3-C , 12-H ) :   2.1146 B(  4-C ,  5-C ) :   1.1666 B(  4-C ,  6-C ) :  -0.1553
B(  4-C ,  7-C ) :   1.1666 B(  4-C , 13-H ) :   0.8491 B(  5-C ,  6-C ) :   0.3441
B(  5-C ,  7-C ) :   0.3198 B(  5-C , 14-H ) :   0.6377 B(  5-C , 16-H ) :  -0.1255
B(  6-C ,  7-C ) :  -0.1364 B(  6-C ,  8-C ) :   0.3722 B(  6-C , 12-H ) :  -0.1158
B(  6-C , 16-H ) :  -0.2651 B(  7-C ,  8-C ) :   0.1689 B(  7-C , 12-H ) :  -0.1255
B(  7-C , 15-H ) :   0.6377 B(  8-C ,  9-C ) :   1.0942 B(  8-C , 16-H ) :   2.1145
B(  8-C , 17-H ) :  -0.2203 B(  9-C , 10-H ) :  -0.1798 B(  9-C , 16-H ) :  -0.3359
B(  9-C , 17-H ) :   0.8383 B( 11-H , 12-H ) :  -0.1190 B( 12-H , 15-H ) :  -0.1481
B( 12-H , 16-H ) :   0.1738 B( 14-H , 16-H ) :  -0.1481 B( 16-H , 17-H ) :  -0.1190

MP2 TOTAL ENERGY:     -385.015447083 Eh
FINAL SINGLE POINT ENERGY      -385.015447083248

DIPOLE MOMENT
-------------
                                X             Y             Z
Electronic contribution:      0.00000      -0.00000       0.57935
Nuclear contribution   :      0.00000      -0.00000      -1.14009
                        -----------------------------------------
Total Dipole Moment    :      0.00000      -0.00000      -0.56073
                        -----------------------------------------
Magnitude (a.u.)       :      0.56073
Magnitude (Debye)      :      1.42527

Rotational constants in cm-1:     0.095605     0.042024     0.029192
Rotational constants in MHz :  2866.180184  1259.853720   875.166771

                             ****ORCA TERMINATED NORMALLY****
TOTAL RUN TIME: 0 days 0 hours 12 minutes 28 seconds 857 msec
