                         Program Version 5.0.3 -  RELEASE  -
|  1> !ri-mp2 aug-cc-pvtz aug-cc-pvtz/c tightscf
|  2> %pal nprocs 16 end
|  3>
|  4> * xyz 0 1
|  5> C     -0.003357   -1.874982    0.000000
|  6> C     -0.003231   -1.167816    1.197776
|  7> C     -0.003231   -1.167816   -1.197776
|  8> C     -0.003231    0.219824    1.202965
|  9> C     -0.003231    0.219824   -1.202965
| 10> C     -0.002373    0.934694    0.000000
| 11> N     -0.059398    2.328540    0.000000
| 12> H     -0.002994   -2.955765    0.000000
| 13> H     -0.002518   -1.699840    2.140057
| 14> H     -0.002518   -1.699840   -2.140057
| 15> H     -0.008370    0.757854    2.143040
| 16> H     -0.008370    0.757854   -2.143040
| 17> H      0.276236    2.778796   -0.835682
| 18> H      0.276236    2.778796    0.835682
| 19> *
| 20>
| 21>                          ****END OF INPUT****

CARTESIAN COORDINATES (ANGSTROEM)
---------------------------------
  C     -0.003357   -1.874982    0.000000
  C     -0.003231   -1.167816    1.197776
  C     -0.003231   -1.167816   -1.197776
  C     -0.003231    0.219824    1.202965
  C     -0.003231    0.219824   -1.202965
  C     -0.002373    0.934694    0.000000
  N     -0.059398    2.328540    0.000000
  H     -0.002994   -2.955765    0.000000
  H     -0.002518   -1.699840    2.140057
  H     -0.002518   -1.699840   -2.140057
  H     -0.008370    0.757854    2.143040
  H     -0.008370    0.757854   -2.143040
  H      0.276236    2.778796   -0.835682
  H      0.276236    2.778796    0.835682

 Total Charge           Charge          ....    0
 Multiplicity           Mult            ....    1
 Number of Electrons    NEL             ....   50
 Basis Dimension        Dim             ....  483

ORBITAL ENERGIES
----------------

  NO   OCC          E(Eh)            E(eV)
   0   2.0000     -15.565087      -423.5475
   1   2.0000     -11.277922      -306.8878
   2   2.0000     -11.233496      -305.6790
   3   2.0000     -11.233461      -305.6780
   4   2.0000     -11.222042      -305.3673
   5   2.0000     -11.222025      -305.3668
   6   2.0000     -11.217160      -305.2344
   7   2.0000      -1.225053       -33.3354
   8   2.0000      -1.127505       -30.6810
   9   2.0000      -1.012275       -27.5454
  10   2.0000      -0.986241       -26.8370
  11   2.0000      -0.831660       -22.6306
  12   2.0000      -0.813473       -22.1357
  13   2.0000      -0.706509       -19.2251
  14   2.0000      -0.687013       -18.6946
  15   2.0000      -0.656139       -17.8545
  16   2.0000      -0.598602       -16.2888
  17   2.0000      -0.593787       -16.1578
  18   2.0000      -0.581287       -15.8176
  19   2.0000      -0.534821       -14.5532
  20   2.0000      -0.507364       -13.8061
  21   2.0000      -0.488014       -13.2795
  22   2.0000      -0.448414       -12.2020
  23   2.0000      -0.336803        -9.1649
  24   2.0000      -0.294160        -8.0045
  25   0.0000       0.026539         0.7222
  26   0.0000       0.033982         0.9247
  27   0.0000       0.034746         0.9455
  28   0.0000       0.047380         1.2893
  29   0.0000       0.048127         1.3096

MULLIKEN ATOMIC CHARGES
-----------------------
   0 C :   -0.506400
   1 C :   -0.375930
   2 C :   -0.375930
   3 C :   -0.877130
   4 C :   -0.877130
   5 C :    1.314572
   6 N :   -0.758169
   7 H :    0.522421
   8 H :    0.349365
   9 H :    0.349365
  10 H :    0.545925
  11 H :    0.545925
  12 H :    0.071558
  13 H :    0.071558
Sum of atomic charges:    0.0000000

LOEWDIN ATOMIC CHARGES
----------------------
   0 C :    0.181930
   1 C :    0.179424
   2 C :    0.179424
   3 C :    0.211687
   4 C :    0.211687
   5 C :   -0.250771
   6 N :    0.848443
   7 H :   -0.196632
   8 H :   -0.183824
   9 H :   -0.183824
  10 H :   -0.186540
  11 H :   -0.186540
  12 H :   -0.312232
  13 H :   -0.312232

  Mayer bond orders larger than 0.100000
B(  0-C ,  1-C ) :   1.1255 B(  0-C ,  2-C ) :   1.1255 B(  0-C ,  3-C ) :   0.2361
B(  0-C ,  4-C ) :   0.2361 B(  0-C ,  7-H ) :   0.6834 B(  1-C ,  3-C ) :   1.1924
B(  1-C ,  5-C ) :  -0.1637 B(  1-C ,  8-H ) :   0.9782 B(  2-C ,  4-C ) :   1.1924
B(  2-C ,  5-C ) :  -0.1637 B(  2-C ,  9-H ) :   0.9782 B(  3-C ,  4-C ) :   0.4616
B(  3-C ,  5-C ) :   0.7914 B(  3-C , 10-H ) :   0.5093 B(  4-C ,  5-C ) :   0.7914
B(  4-C , 11-H ) :   0.5093 B(  5-C ,  6-N ) :   0.5272 B(  6-N , 12-H ) :   1.0974
B(  6-N , 13-H ) :   1.0974

MP2 TOTAL ENERGY:     -287.015621115 Eh
FINAL SINGLE POINT ENERGY      -287.015621115414

DIPOLE MOMENT
-------------
                                X             Y             Z
Electronic contribution:     -0.15395      -0.30369      -0.00000
Nuclear contribution   :      0.53174       0.73761       0.00000
                        -----------------------------------------
Total Dipole Moment    :      0.37779       0.43392      -0.00000
                        -----------------------------------------
Magnitude (a.u.)       :      0.57534
Magnitude (Debye)      :      1.46239

Rotational constants in cm-1:     0.188719     0.086832     0.059554
Rotational constants in MHz :  5657.646459  2603.171316  1785.382375

                             ****ORCA TERMINATED NORMALLY****
TOTAL RUN TIME: 0 days 0 hours 4 minutes 25 seconds 222 msec
