                         Program Version 5.0.3 -  RELEASE  -
|  1> !ri-mp2 aug-cc-pvtz aug-cc-pvtz/c tightscf
|  2> %pal nprocs 16 end
|  3>
|  4> * xyz 0 1
|  5> N     -0.537636    1.634468   -0.311017
|  6> C     -0.506076    0.174773   -0.439687
|  7> C     -1.882737   -0.418460   -0.080577
|  8> O     -2.175140   -1.564324   -0.298926
|  9> O     -2.703547    0.449095    0.519188
| 10> H     -2.201073    1.295665    0.555522
| 11> C      0.530887   -0.449933    0.513055
| 12> C      1.954459   -0.058137    0.153171
| 13> O      2.308657    1.111421    0.104908
| 14> N      2.806159   -1.080562   -0.108786
| 15> H     -0.288369   -0.160572   -1.457832
| 16> H      0.343314   -0.088713    1.526973
| 17> H      0.392111   -1.529176    0.509676
| 18> H      2.517736   -2.040866   -0.075861
| 19> H      3.761371   -0.865241   -0.340502
| 20> H      0.386763    1.982426   -0.073290
| 21> H     -0.810476    2.070141   -1.183197
| 22> *
| 23>
| 24>                          ****END OF INPUT****

CARTESIAN COORDINATES (ANGSTROEM)
---------------------------------
  N     -0.537636    1.634468   -0.311017
  C     -0.506076    0.174773   -0.439687
  C     -1.882737   -0.418460   -0.080577
  O     -2.175140   -1.564324   -0.298926
  O     -2.703547    0.449095    0.519188
  H     -2.201073    1.295665    0.555522
  C      0.530887   -0.449933    0.513055
  C      1.954459   -0.058137    0.153171
  O      2.308657    1.111421    0.104908
  N      2.806159   -1.080562   -0.108786
  H     -0.288369   -0.160572   -1.457832
  H      0.343314   -0.088713    1.526973
  H      0.392111   -1.529176    0.509676
  H      2.517736   -2.040866   -0.075861
  H      3.761371   -0.865241   -0.340502
  H      0.386763    1.982426   -0.073290
  H     -0.810476    2.070141   -1.183197

 Total Charge           Charge          ....    0
 Multiplicity           Mult            ....    1
 Number of Electrons    NEL             ....   70
 Basis Dimension        Dim             ....  598

ORBITAL ENERGIES
----------------

  NO   OCC          E(Eh)            E(eV)
   0   2.0000     -20.600955      -560.5805
   1   2.0000     -20.542145      -558.9802
   2   2.0000     -20.541385      -558.9595
   3   2.0000     -15.608998      -424.7424
   4   2.0000     -15.572799      -423.7574
   5   2.0000     -11.379727      -309.6581
   6   2.0000     -11.378195      -309.6164
   7   2.0000     -11.303339      -307.5795
   8   2.0000     -11.269573      -306.6607
   9   2.0000      -1.456536       -39.6344
  10   2.0000      -1.405946       -38.2577
  11   2.0000      -1.361251       -37.0415
  12   2.0000      -1.236673       -33.6516
  13   2.0000      -1.220690       -33.2167
  14   2.0000      -1.059172       -28.8215
  15   2.0000      -0.934950       -25.4413
  16   2.0000      -0.823839       -22.4178
  17   2.0000      -0.807591       -21.9757
  18   2.0000      -0.749557       -20.3965
  19   2.0000      -0.738816       -20.1042
  20   2.0000      -0.705471       -19.1968
  21   2.0000      -0.688956       -18.7474
  22   2.0000      -0.671544       -18.2736
  23   2.0000      -0.635098       -17.2819
  24   2.0000      -0.629901       -17.1405
  25   2.0000      -0.606247       -16.4968
  26   2.0000      -0.597985       -16.2720
  27   2.0000      -0.564933       -15.3726
  28   2.0000      -0.552626       -15.0377
  29   2.0000      -0.531603       -14.4657
  30   2.0000      -0.475585       -12.9413
  31   2.0000      -0.464660       -12.6440
  32   2.0000      -0.452727       -12.3193
  33   2.0000      -0.438431       -11.9303
  34   2.0000      -0.417496       -11.3607
  35   0.0000       0.018729         0.5096
  36   0.0000       0.030416         0.8277
  37   0.0000       0.036570         0.9951
  38   0.0000       0.041258         1.1227
  39   0.0000       0.051127         1.3912

MULLIKEN ATOMIC CHARGES
-----------------------
   0 N :   -0.650667
   1 C :    0.467673
   2 C :    0.664565
   3 O :   -0.816613
   4 O :   -0.533402
   5 H :    0.273685
   6 C :   -0.243089
   7 C :    0.692541
   8 O :   -0.888277
   9 N :   -0.426304
  10 H :    0.376641
  11 H :    0.311432
  12 H :    0.189539
  13 H :    0.119504
  14 H :    0.162440
  15 H :    0.248280
  16 H :    0.052053
Sum of atomic charges:   -0.0000000

LOEWDIN ATOMIC CHARGES
----------------------
   0 N :    0.877760
   1 C :   -0.110248
   2 C :   -0.785635
   3 O :    0.434240
   4 O :    0.843922
   5 H :   -0.583840
   6 C :    0.304532
   7 C :   -0.639507
   8 O :    0.470684
   9 N :    0.869545
  10 H :   -0.131690
  11 H :   -0.132588
  12 H :   -0.166056
  13 H :   -0.297232
  14 H :   -0.283286
  15 H :   -0.391539
  16 H :   -0.279060

  Mayer bond orders larger than 0.100000
B(  0-N ,  1-C ) :   0.4716 B(  0-N ,  2-C ) :   0.1439 B(  0-N ,  5-H ) :   0.1146
B(  0-N , 15-H ) :   0.8861 B(  0-N , 16-H ) :   1.0484 B(  1-C ,  2-C ) :   0.7622
B(  1-C ,  6-C ) :   0.8318 B(  1-C , 10-H ) :   0.8810 B(  2-C ,  3-O ) :   1.3169
B(  2-C ,  4-O ) :   0.8094 B(  2-C ,  6-C ) :   0.1226 B(  4-O ,  5-H ) :   0.8373
B(  6-C ,  7-C ) :   0.5796 B(  6-C , 11-H ) :   0.9504 B(  6-C , 12-H ) :   0.9690
B(  7-C ,  8-O ) :   1.2717 B(  7-C ,  9-N ) :   0.9140 B(  9-N , 13-H ) :   1.0876
B(  9-N , 14-H ) :   1.0389

MP2 TOTAL ENERGY:     -491.658365608 Eh
FINAL SINGLE POINT ENERGY      -491.658365607918

DIPOLE MOMENT
-------------
                                X             Y             Z
Electronic contribution:     -2.52508      -0.74862       0.17497
Nuclear contribution   :      4.05401       0.66355      -0.53320
                        -----------------------------------------
Total Dipole Moment    :      1.52893      -0.08506      -0.35823
                        -----------------------------------------
Magnitude (a.u.)       :      1.57264
Magnitude (Debye)      :      3.99734

Rotational constants in cm-1:     0.106942     0.031567     0.025857
Rotational constants in MHz :  3206.028901   946.361941   775.167348

                             ****ORCA TERMINATED NORMALLY****
TOTAL RUN TIME: 0 days 0 hours 7 minutes 43 seconds 757 msec
