                         Program Version 5.0.3 -  RELEASE  -
|  1> !ri-mp2 aug-cc-pvtz aug-cc-pvtz/c tightscf
|  2> %pal nprocs 16 end
|  3>
|  4> * xyz 0 1
|  5> C     0.000000     0.000000    0.000000
|  6> C     0.000000     0.000000    1.299944
|  7> C     0.000000     0.000000   -1.299944
|  8> H     0.000000     0.925401    1.862995
|  9> H     0.000000    -0.925401    1.862995
| 10> H     0.925401     0.000000   -1.862995
| 11> H    -0.925401     0.000000   -1.862995
| 12> *
| 13>
| 14>                          ****END OF INPUT****

CARTESIAN COORDINATES (ANGSTROEM)
---------------------------------
  C      0.000000    0.000000    0.000000
  C      0.000000    0.000000    1.299944
  C      0.000000    0.000000   -1.299944
  H      0.000000    0.925401    1.862995
  H      0.000000   -0.925401    1.862995
  H      0.925401    0.000000   -1.862995
  H     -0.925401    0.000000   -1.862995

 Total Charge           Charge          ....    0
 Multiplicity           Mult            ....    1
 Number of Electrons    NEL             ....   22
 Basis Dimension        Dim             ....  230

ORBITAL ENERGIES
----------------

  NO   OCC          E(Eh)            E(eV)
   0   2.0000     -11.261191      -306.4326
   1   2.0000     -11.236040      -305.7482
   2   2.0000     -11.235929      -305.7452
   3   2.0000      -1.076873       -29.3032
   4   2.0000      -0.960474       -26.1358
   5   2.0000      -0.716512       -19.4973
   6   2.0000      -0.631140       -17.1742
   7   2.0000      -0.608431       -16.5563
   8   2.0000      -0.608431       -16.5563
   9   2.0000      -0.379584       -10.3290
  10   2.0000      -0.379584       -10.3290
  11   0.0000       0.030606         0.8328
  12   0.0000       0.038866         1.0576
  13   0.0000       0.045614         1.2412
  14   0.0000       0.045614         1.2412
  15   0.0000       0.079962         2.1759

MULLIKEN ATOMIC CHARGES
-----------------------
   0 C :    0.744638
   1 C :   -1.131943
   2 C :   -1.131943
   3 H :    0.379812
   4 H :    0.379812
   5 H :    0.379812
   6 H :    0.379812
Sum of atomic charges:   -0.0000000

LOEWDIN ATOMIC CHARGES
----------------------
   0 C :    0.074525
   1 C :    0.456307
   2 C :    0.456307
   3 H :   -0.246785
   4 H :   -0.246785
   5 H :   -0.246785
   6 H :   -0.246785

  Mayer bond orders larger than 0.100000
B(  0-C ,  1-C ) :   1.5373 B(  0-C ,  2-C ) :   1.5373 B(  1-C ,  2-C ) :  -0.2925
B(  1-C ,  3-H ) :   0.9081 B(  1-C ,  4-H ) :   0.9081 B(  2-C ,  5-H ) :   0.9081
B(  2-C ,  6-H ) :   0.9081

MP2 TOTAL ENERGY:     -116.390403264 Eh
FINAL SINGLE POINT ENERGY      -116.390403264002

DIPOLE MOMENT
-------------
                                X             Y             Z
Electronic contribution:      0.00000       0.00000       0.00000
Nuclear contribution   :      0.00000       0.00000       0.00000
                        -----------------------------------------
Total Dipole Moment    :      0.00000       0.00000       0.00000
                        -----------------------------------------
Magnitude (a.u.)       :      0.00000
Magnitude (Debye)      :      0.00000

Rotational constants in cm-1:     4.882210     0.299350     0.299350
Rotational constants in MHz : 146364.971185  8974.284009  8974.284009

                             ****ORCA TERMINATED NORMALLY****
TOTAL RUN TIME: 0 days 0 hours 0 minutes 36 seconds 742 msec
