                         Program Version 5.0.3 -  RELEASE  -
|  1> !ri-mp2 aug-cc-pvtz aug-cc-pvtz/c tightscf
|  2> %pal nprocs 16 end
|  3>
|  4> * xyz 0 1
|  5> C      0.000000    0.155267    0.000000
|  6> C      1.069204   -0.899341    0.000000
|  7> O      0.178356    1.345599    0.000000
|  8> O     -1.241854   -0.392584    0.000000
|  9> H      0.960614   -1.536194    0.877879
| 10> H      0.960614   -1.536194   -0.877879
| 11> H      2.046305   -0.427881    0.000000
| 12> H     -1.874777    0.340590    0.000000
| 13> *
| 14>
| 15>                          ****END OF INPUT****

CARTESIAN COORDINATES (ANGSTROEM)
---------------------------------
  C      0.000000    0.155267    0.000000
  C      1.069204   -0.899341    0.000000
  O      0.178356    1.345599    0.000000
  O     -1.241854   -0.392584    0.000000
  H      0.960614   -1.536194    0.877879
  H      0.960614   -1.536194   -0.877879
  H      2.046305   -0.427881    0.000000
  H     -1.874777    0.340590    0.000000

 Total Charge           Charge          ....    0
 Multiplicity           Mult            ....    1
 Number of Electrons    NEL             ....   32
 Basis Dimension        Dim             ....  276

ORBITAL ENERGIES
----------------

  NO   OCC          E(Eh)            E(eV)
   0   2.0000     -20.614255      -560.9424
   1   2.0000     -20.552515      -559.2624
   2   2.0000     -11.390540      -309.9523
   3   2.0000     -11.247309      -306.0548
   4   2.0000      -1.466456       -39.9043
   5   2.0000      -1.364158       -37.1206
   6   2.0000      -1.029215       -28.0064
   7   2.0000      -0.824893       -22.4465
   8   2.0000      -0.707040       -19.2395
   9   2.0000      -0.682451       -18.5704
  10   2.0000      -0.651649       -17.7323
  11   2.0000      -0.586145       -15.9498
  12   2.0000      -0.575771       -15.6675
  13   2.0000      -0.562717       -15.3123
  14   2.0000      -0.486258       -13.2318
  15   2.0000      -0.457070       -12.4375
  16   0.0000       0.027393         0.7454
  17   0.0000       0.038765         1.0549
  18   0.0000       0.044950         1.2232
  19   0.0000       0.050967         1.3869
  20   0.0000       0.081880         2.2281

MULLIKEN ATOMIC CHARGES
-----------------------
   0 C :    0.418586
   1 C :   -0.577648
   2 O :   -0.636303
   3 O :   -0.380880
   4 H :    0.305962
   5 H :    0.305962
   6 H :    0.327119
   7 H :    0.237202
Sum of atomic charges:   -0.0000000

LOEWDIN ATOMIC CHARGES
----------------------
   0 C :   -0.812455
   1 C :    0.577974
   2 O :    0.434848
   3 O :    0.818057
   4 H :   -0.176845
   5 H :   -0.176845
   6 H :   -0.185877
   7 H :   -0.478857

  Mayer bond orders larger than 0.100000
B(  0-C ,  1-C ) :   0.7011 B(  0-C ,  2-O ) :   1.5835 B(  0-C ,  3-O ) :   1.0631
B(  1-C ,  4-H ) :   0.9200 B(  1-C ,  5-H ) :   0.9200 B(  1-C ,  6-H ) :   0.9154
B(  3-O ,  7-H ) :   0.9386

MP2 TOTAL ENERGY:     -228.722418620 Eh
FINAL SINGLE POINT ENERGY      -228.722418620420

DIPOLE MOMENT
-------------
                                X             Y             Z
Electronic contribution:     -2.15934       2.36862      -0.00000
Nuclear contribution   :      2.07759      -3.14708       0.00000
                        -----------------------------------------
Total Dipole Moment    :     -0.08175      -0.77846      -0.00000
                        -----------------------------------------
Magnitude (a.u.)       :      0.78274
Magnitude (Debye)      :      1.98958

Rotational constants in cm-1:     0.378647     0.315756     0.177820
Rotational constants in MHz : 11351.549955  9466.136063  5330.920137

                             ****ORCA TERMINATED NORMALLY****
TOTAL RUN TIME: 0 days 0 hours 0 minutes 55 seconds 969 msec
