                         Program Version 5.0.3 -  RELEASE  -
|  1> !ri-mp2 aug-cc-pvtz aug-cc-pvtz/c tightscf
|  2> %pal nprocs 16 end
|  3>
|  4> * xyz 0 1
|  5> N      0.090626   -1.183995    0.000000
|  6> C      0.000000    0.161705    0.000000
|  7> C     -0.019053    1.362621    0.000000
|  8> H     -0.239895   -1.640016    0.837356
|  9> H     -0.239895   -1.640016   -0.837356
| 10> H     -0.040274    2.422038    0.000000
| 11> *
| 12>
| 13>                          ****END OF INPUT****

CARTESIAN COORDINATES (ANGSTROEM)
---------------------------------
  N      0.090626   -1.183995    0.000000
  C      0.000000    0.161705    0.000000
  C     -0.019053    1.362621    0.000000
  H     -0.239895   -1.640016    0.837356
  H     -0.239895   -1.640016   -0.837356
  H     -0.040274    2.422038    0.000000

 Total Charge           Charge          ....    0
 Multiplicity           Mult            ....    1
 Number of Electrons    NEL             ....   22
 Basis Dimension        Dim             ....  207

ORBITAL ENERGIES
----------------

  NO   OCC          E(Eh)            E(eV)
   0   2.0000     -15.594445      -424.3464
   1   2.0000     -11.263163      -306.4862
   2   2.0000     -11.210719      -305.0592
   3   2.0000      -1.232427       -33.5360
   4   2.0000      -1.000480       -27.2244
   5   2.0000      -0.758187       -20.6313
   6   2.0000      -0.706751       -19.2317
   7   2.0000      -0.681087       -18.5333
   8   2.0000      -0.527242       -14.3470
   9   2.0000      -0.391145       -10.6436
  10   2.0000      -0.346402        -9.4261
  11   0.0000       0.024112         0.6561
  12   0.0000       0.037704         1.0260
  13   0.0000       0.045274         1.2320
  14   0.0000       0.091393         2.4869
  15   0.0000       0.092787         2.5249

MULLIKEN ATOMIC CHARGES
-----------------------
   0 N :   -0.476695
   1 C :    1.164139
   2 C :   -1.667488
   3 H :    0.202213
   4 H :    0.202213
   5 H :    0.575618
Sum of atomic charges:   -0.0000000

LOEWDIN ATOMIC CHARGES
----------------------
   0 N :    0.757881
   1 C :   -0.135803
   2 C :    0.343593
   3 H :   -0.319343
   4 H :   -0.319343
   5 H :   -0.326985

  Mayer bond orders larger than 0.100000
B(  0-N ,  1-C ) :   0.7577 B(  0-N ,  3-H ) :   0.9693 B(  0-N ,  4-H ) :   0.9693
B(  1-C ,  2-C ) :   1.1265 B(  2-C ,  5-H ) :   0.5693

MP2 TOTAL ENERGY:     -132.428680874 Eh
FINAL SINGLE POINT ENERGY      -132.428680874291

DIPOLE MOMENT
-------------
                                X             Y             Z
Electronic contribution:      0.12257       0.32785       0.00000
Nuclear contribution   :     -0.52288      -0.87052       0.00000
                        -----------------------------------------
Total Dipole Moment    :     -0.40031      -0.54267       0.00000
                        -----------------------------------------
Magnitude (a.u.)       :      0.67434
Magnitude (Debye)      :      1.71404

Rotational constants in cm-1:    10.404997     0.313345     0.306469
Rotational constants in MHz : 311933.977015  9393.835266  9187.714551

                             ****ORCA TERMINATED NORMALLY****
TOTAL RUN TIME: 0 days 0 hours 0 minutes 41 seconds 763 msec
