                         Program Version 5.0.3 -  RELEASE  -
|  1> !ri-mp2 aug-cc-pvtz aug-cc-pvtz/c tightscf
|  2> %pal nprocs 16 end
|  3>
|  4> * xyz 0 1
|  5> C      0.000000    0.459417    0.000000
|  6> C      0.930231   -0.717880    0.000000
|  7> O     -1.202256    0.385590    0.000000
|  8> H      0.496537    1.452118    0.000000
|  9> H      1.581867   -0.666234    0.876217
| 10> H      0.376396   -1.653588    0.000000
| 11> H      1.581867   -0.666234   -0.876217
| 12> *
| 13>
| 14>                          ****END OF INPUT****

CARTESIAN COORDINATES (ANGSTROEM)
---------------------------------
  C      0.000000    0.459417    0.000000
  C      0.930231   -0.717880    0.000000
  O     -1.202256    0.385590    0.000000
  H      0.496537    1.452118    0.000000
  H      1.581867   -0.666234    0.876217
  H      0.376396   -1.653588    0.000000
  H      1.581867   -0.666234   -0.876217

 Total Charge           Charge          ....    0
 Multiplicity           Mult            ....    1
 Number of Electrons    NEL             ....   24
 Basis Dimension        Dim             ....  230

ORBITAL ENERGIES
----------------

  NO   OCC          E(Eh)            E(eV)
   0   2.0000     -20.560415      -559.4773
   1   2.0000     -11.336364      -308.4782
   2   2.0000     -11.242701      -305.9294
   3   2.0000      -1.397809       -38.0363
   4   2.0000      -1.023050       -27.8386
   5   2.0000      -0.802024       -21.8242
   6   2.0000      -0.676625       -18.4119
   7   2.0000      -0.626980       -17.0610
   8   2.0000      -0.605793       -16.4845
   9   2.0000      -0.563209       -15.3257
  10   2.0000      -0.506605       -13.7854
  11   2.0000      -0.426739       -11.6121
  12   0.0000       0.026362         0.7173
  13   0.0000       0.038598         1.0503
  14   0.0000       0.042388         1.1534
  15   0.0000       0.053114         1.4453
  16   0.0000       0.088588         2.4106

MULLIKEN ATOMIC CHARGES
-----------------------
   0 C :   -0.073563
   1 C :   -0.695375
   2 O :   -0.624960
   3 H :    0.488368
   4 H :    0.292910
   5 H :    0.319710
   6 H :    0.292910
Sum of atomic charges:    0.0000000

LOEWDIN ATOMIC CHARGES
----------------------
   0 C :   -0.241716
   1 C :    0.563259
   2 O :    0.421832
   3 H :   -0.186761
   4 H :   -0.184713
   5 H :   -0.187188
   6 H :   -0.184713

  Mayer bond orders larger than 0.100000
B(  0-C ,  1-C ) :   0.8874 B(  0-C ,  2-O ) :   1.6837 B(  0-C ,  3-H ) :   0.6849
B(  1-C ,  4-H ) :   0.9158 B(  1-C ,  5-H ) :   0.9023 B(  1-C ,  6-H ) :   0.9158

MP2 TOTAL ENERGY:     -153.554094109 Eh
FINAL SINGLE POINT ENERGY      -153.554094109131

DIPOLE MOMENT
-------------
                                X             Y             Z
Electronic contribution:     -2.83918       1.45533       0.00000
Nuclear contribution   :      4.11081      -1.56326       0.00000
                        -----------------------------------------
Total Dipole Moment    :      1.27163      -0.10793       0.00000
                        -----------------------------------------
Magnitude (a.u.)       :      1.27620
Magnitude (Debye)      :      3.24384

Rotational constants in cm-1:     1.915935     0.339067     0.304176
Rotational constants in MHz : 57438.296166 10164.983630  9118.958665

                             ****ORCA TERMINATED NORMALLY****
TOTAL RUN TIME: 0 days 0 hours 0 minutes 42 seconds 320 msec
