                         Program Version 5.0.3 -  RELEASE  -
|  1> !ri-mp2 aug-cc-pvtz aug-cc-pvtz/c tightscf
|  2> %pal nprocs 16 end
|  3>
|  4> * xyz 0 1
|  5> C      0.000000    0.000000    0.280675
|  6> C      0.000000    0.000000   -1.174129
|  7> N      0.000000    0.000000    1.430070
|  8> H      0.000000    1.022452   -1.549923
|  9> H     -0.885470   -0.511226   -1.549923
| 10> H      0.885470   -0.511226   -1.549923
| 11> *
| 12>
| 13>                          ****END OF INPUT****

CARTESIAN COORDINATES (ANGSTROEM)
---------------------------------
  C      0.000000    0.000000    0.280675
  C      0.000000    0.000000   -1.174129
  N      0.000000    0.000000    1.430070
  H      0.000000    1.022452   -1.549923
  H     -0.885470   -0.511226   -1.549923
  H      0.885470   -0.511226   -1.549923

 Total Charge           Charge          ....    0
 Multiplicity           Mult            ....    1
 Number of Electrons    NEL             ....   22
 Basis Dimension        Dim             ....  207

ORBITAL ENERGIES
----------------

  NO   OCC          E(Eh)            E(eV)
   0   2.0000     -15.569387      -423.6646
   1   2.0000     -11.285463      -307.0931
   2   2.0000     -11.276648      -306.8532
   3   2.0000      -1.223569       -33.2950
   4   2.0000      -1.042629       -28.3714
   5   2.0000      -0.700080       -19.0501
   6   2.0000      -0.631035       -17.1713
   7   2.0000      -0.631035       -17.1713
   8   2.0000      -0.556428       -15.1412
   9   2.0000      -0.463782       -12.6202
  10   2.0000      -0.463782       -12.6202
  11   0.0000       0.021861         0.5949
  12   0.0000       0.041520         1.1298
  13   0.0000       0.041520         1.1298
  14   0.0000       0.061522         1.6741
  15   0.0000       0.099275         2.7014

MULLIKEN ATOMIC CHARGES
-----------------------
   0 C :    0.006260
   1 C :   -0.624782
   2 N :   -0.370126
   3 H :    0.329549
   4 H :    0.329549
   5 H :    0.329549
Sum of atomic charges:    0.0000000

LOEWDIN ATOMIC CHARGES
----------------------
   0 C :   -0.230964
   1 C :    0.540381
   2 N :    0.236630
   3 H :   -0.182016
   4 H :   -0.182016
   5 H :   -0.182016

  Mayer bond orders larger than 0.100000
B(  0-C ,  1-C ) :   0.9672 B(  0-C ,  2-N ) :   2.4273 B(  1-C ,  3-H ) :   0.9049
B(  1-C ,  4-H ) :   0.9049 B(  1-C ,  5-H ) :   0.9049

MP2 TOTAL ENERGY:     -132.497327180 Eh
FINAL SINGLE POINT ENERGY      -132.497327179857

DIPOLE MOMENT
-------------
                                X             Y             Z
Electronic contribution:      0.00000       0.00000       3.00068
Nuclear contribution   :      0.00000       0.00000      -4.67129
                        -----------------------------------------
Total Dipole Moment    :      0.00000       0.00000      -1.67061
                        -----------------------------------------
Magnitude (a.u.)       :      1.67061
Magnitude (Debye)      :      4.24635

Rotational constants in cm-1:     5.332477     0.309446     0.309446
Rotational constants in MHz : 159863.629295  9276.960058  9276.959696

                             ****ORCA TERMINATED NORMALLY****
TOTAL RUN TIME: 0 days 0 hours 0 minutes 35 seconds 986 msec
