                         Program Version 5.0.3 -  RELEASE  -
|  1> !ri-mp2 aug-cc-pvtz aug-cc-pvtz/c tightscf
|  2> %pal nprocs 16 end
|  3>
|  4> * xyz 0 1
|  5> C      0.597274   -2.517032    0.000000
|  6> C     -0.727051   -2.095954    0.000000
|  7> C      1.625447   -1.577546    0.000000
|  8> C     -1.024386   -0.738517    0.000000
|  9> C      1.328876   -0.224101    0.000000
| 10> C      0.000000    0.211798    0.000000
| 11> C     -0.267977    1.685966    0.000000
| 12> C     -1.703331    2.168928    0.000000
| 13> O      0.649584    2.482840    0.000000
| 14> H      0.828858   -3.573768    0.000000
| 15> H     -1.527758   -2.822994    0.000000
| 16> H      2.656502   -1.904437    0.000000
| 17> H     -2.058803   -0.426120    0.000000
| 18> H      2.113187    0.519223    0.000000
| 19> H     -2.237541    1.804546    0.879154
| 20> H     -2.237541    1.804546   -0.879154
| 21> H     -1.706692    3.255037    0.000000
| 22> *
| 23>
| 24>                          ****END OF INPUT****

CARTESIAN COORDINATES (ANGSTROEM)
---------------------------------
  C      0.597274   -2.517032    0.000000
  C     -0.727051   -2.095954    0.000000
  C      1.625447   -1.577546    0.000000
  C     -1.024386   -0.738517    0.000000
  C      1.328876   -0.224101    0.000000
  C      0.000000    0.211798    0.000000
  C     -0.267977    1.685966    0.000000
  C     -1.703331    2.168928    0.000000
  O      0.649584    2.482840    0.000000
  H      0.828858   -3.573768    0.000000
  H     -1.527758   -2.822994    0.000000
  H      2.656502   -1.904437    0.000000
  H     -2.058803   -0.426120    0.000000
  H      2.113187    0.519223    0.000000
  H     -2.237541    1.804546    0.879154
  H     -2.237541    1.804546   -0.879154
  H     -1.706692    3.255037    0.000000

 Total Charge           Charge          ....    0
 Multiplicity           Mult            ....    1
 Number of Electrons    NEL             ....   64
 Basis Dimension        Dim             ....  598

ORBITAL ENERGIES
----------------

  NO   OCC          E(Eh)            E(eV)
   0   2.0000     -20.543813      -559.0256
   1   2.0000     -11.335386      -308.4515
   2   2.0000     -11.254573      -306.2525
   3   2.0000     -11.251960      -306.1814
   4   2.0000     -11.249220      -306.1068
   5   2.0000     -11.246081      -306.0214
   6   2.0000     -11.245637      -306.0093
   7   2.0000     -11.243203      -305.9431
   8   2.0000     -11.234935      -305.7181
   9   2.0000      -1.386329       -37.7239
  10   2.0000      -1.168886       -31.8070
  11   2.0000      -1.054121       -28.6841
  12   2.0000      -1.030179       -28.0326
  13   2.0000      -0.998136       -27.1607
  14   2.0000      -0.866070       -23.5670
  15   2.0000      -0.838365       -22.8131
  16   2.0000      -0.763501       -20.7759
  17   2.0000      -0.712015       -19.3749
  18   2.0000      -0.656688       -17.8694
  19   2.0000      -0.650807       -17.7094
  20   2.0000      -0.628061       -17.0904
  21   2.0000      -0.605932       -16.4883
  22   2.0000      -0.601508       -16.3679
  23   2.0000      -0.599017       -16.3001
  24   2.0000      -0.554551       -15.0901
  25   2.0000      -0.526589       -14.3292
  26   2.0000      -0.523340       -14.2408
  27   2.0000      -0.504030       -13.7153
  28   2.0000      -0.492746       -13.4083
  29   2.0000      -0.419034       -11.4025
  30   2.0000      -0.351971        -9.5776
  31   2.0000      -0.347643        -9.4598
  32   0.0000       0.024633         0.6703
  33   0.0000       0.029577         0.8048
  34   0.0000       0.035616         0.9692
  35   0.0000       0.044013         1.1976
  36   0.0000       0.044717         1.2168

MULLIKEN ATOMIC CHARGES
-----------------------
   0 C :   -0.173152
   1 C :   -0.814866
   2 C :   -0.574080
   3 C :   -0.672481
   4 C :   -1.077314
   5 C :    1.713294
   6 C :    0.772936
   7 C :   -0.774829
   8 O :   -0.977879
   9 H :    0.426967
  10 H :    0.496755
  11 H :    0.543444
  12 H :    0.022765
  13 H :    0.154656
  14 H :    0.310712
  15 H :    0.310712
  16 H :    0.312359
Sum of atomic charges:    0.0000000

LOEWDIN ATOMIC CHARGES
----------------------
   0 C :    0.205268
   1 C :    0.208947
   2 C :    0.211475
   3 C :    0.204167
   4 C :    0.209818
   5 C :   -0.115799
   6 C :   -0.517897
   7 C :    0.578524
   8 O :    0.472560
   9 H :   -0.179911
  10 H :   -0.184534
  11 H :   -0.183346
  12 H :   -0.193847
  13 H :   -0.188482
  14 H :   -0.172312
  15 H :   -0.172312
  16 H :   -0.182319

  Mayer bond orders larger than 0.100000
B(  0-C ,  1-C ) :   1.1448 B(  0-C ,  2-C ) :   1.1049 B(  0-C ,  3-C ) :  -0.1820
B(  0-C ,  4-C ) :  -0.1068 B(  0-C ,  9-H ) :   0.8593 B(  1-C ,  2-C ) :   0.1486
B(  1-C ,  3-C ) :   1.0572 B(  1-C ,  4-C ) :   0.1487 B(  1-C ,  9-H ) :  -0.1678
B(  1-C , 10-H ) :   0.7204 B(  1-C , 12-H ) :  -0.1194 B(  2-C ,  4-C ) :   1.2819
B(  2-C ,  9-H ) :  -0.1567 B(  2-C , 11-H ) :   0.6610 B(  3-C ,  4-C ) :  -0.1380
B(  3-C ,  5-C ) :   0.3996 B(  3-C ,  6-C ) :   0.2022 B(  3-C , 10-H ) :  -0.1050
B(  3-C , 12-H ) :   1.6756 B(  3-C , 13-H ) :   0.1831 B(  4-C ,  5-C ) :   0.3098
B(  4-C ,  6-C ) :   0.1848 B(  4-C ,  9-H ) :   0.1947 B(  4-C , 11-H ) :  -0.1669
B(  4-C , 12-H ) :   0.1548 B(  4-C , 13-H ) :   1.3286 B(  5-C ,  6-C ) :   0.5045
B(  5-C , 12-H ) :  -0.2136 B(  5-C , 13-H ) :  -0.1946 B(  6-C ,  7-C ) :   0.8432
B(  6-C ,  8-O ) :   0.9224 B(  6-C , 10-H ) :   0.1258 B(  6-C , 11-H ) :   0.2152
B(  6-C , 12-H ) :  -0.1780 B(  6-C , 13-H ) :  -0.1123 B(  7-C , 14-H ) :   0.9620
B(  7-C , 15-H ) :   0.9620 B(  7-C , 16-H ) :   0.9291 B(  8-O , 13-H ) :   0.1171

MP2 TOTAL ENERGY:     -384.131368585 Eh
FINAL SINGLE POINT ENERGY      -384.131368585170

DIPOLE MOMENT
-------------
                                X             Y             Z
Electronic contribution:      3.32189       0.24305      -0.00000
Nuclear contribution   :     -4.16113      -1.30532       0.00000
                        -----------------------------------------
Total Dipole Moment    :     -0.83924      -1.06227      -0.00000
                        -----------------------------------------
Magnitude (a.u.)       :      1.35379
Magnitude (Debye)      :      3.44105

Rotational constants in cm-1:     0.123782     0.040586     0.030738
Rotational constants in MHz :  3710.901541  1216.744773   921.510418

                             ****ORCA TERMINATED NORMALLY****
TOTAL RUN TIME: 0 days 0 hours 8 minutes 51 seconds 621 msec
