                         Program Version 5.0.3 -  RELEASE  -
|  1> !ri-mp2 aug-cc-pvtz aug-cc-pvtz/c tightscf
|  2> %pal nprocs 16 end
|  3>
|  4> * xyz 0 1
|  5> N     -0.091593   -0.542859   -0.000002
|  6> N     -1.235025   -0.089021    0.000000
|  7> N     -2.326717    0.196979    0.000000
|  8> C      0.978435    0.373808    0.000000
|  9> C      2.241526   -0.037019    0.000000
| 10> H      0.716580    1.426207    0.000003
| 11> H      2.493945   -1.087536   -0.000002
| 12> H      3.043059    0.684904    0.000002
| 13> *
| 14>
| 15>                          ****END OF INPUT****

CARTESIAN COORDINATES (ANGSTROEM)
---------------------------------
  N     -0.091593   -0.542859   -0.000002
  N     -1.235025   -0.089021    0.000000
  N     -2.326717    0.196979    0.000000
  C      0.978435    0.373808    0.000000
  C      2.241526   -0.037019    0.000000
  H      0.716580    1.426207    0.000003
  H      2.493945   -1.087536   -0.000002
  H      3.043059    0.684904    0.000002

 Total Charge           Charge          ....    0
 Multiplicity           Mult            ....    1
 Number of Electrons    NEL             ....   36
 Basis Dimension        Dim             ....  299

ORBITAL ENERGIES
----------------

  NO   OCC          E(Eh)            E(eV)
   0   2.0000     -15.795430      -429.8155
   1   2.0000     -15.681524      -426.7160
   2   2.0000     -15.623674      -425.1418
   3   2.0000     -11.292757      -307.2915
   4   2.0000     -11.232346      -305.6477
   5   2.0000      -1.521593       -41.4046
   6   2.0000      -1.314371       -35.7658
   7   2.0000      -1.068324       -29.0706
   8   2.0000      -0.871363       -23.7110
   9   2.0000      -0.758467       -20.6389
  10   2.0000      -0.717674       -19.5289
  11   2.0000      -0.702173       -19.1071
  12   2.0000      -0.687646       -18.7118
  13   2.0000      -0.610122       -16.6023
  14   2.0000      -0.564502       -15.3609
  15   2.0000      -0.479597       -13.0505
  16   2.0000      -0.456549       -12.4233
  17   2.0000      -0.335031        -9.1167
  18   0.0000       0.030598         0.8326
  19   0.0000       0.038717         1.0535
  20   0.0000       0.047031         1.2798
  21   0.0000       0.074960         2.0398
  22   0.0000       0.082769         2.2522

MULLIKEN ATOMIC CHARGES
-----------------------
   0 N :   -0.669946
   1 N :    1.211497
   2 N :   -0.764167
   3 C :   -0.323571
   4 C :   -0.987495
   5 H :    0.703744
   6 H :    0.494851
   7 H :    0.335086
Sum of atomic charges:    0.0000000

LOEWDIN ATOMIC CHARGES
----------------------
   0 N :    0.178030
   1 N :   -0.234654
   2 N :    0.291664
   3 C :   -0.049500
   4 C :    0.495342
   5 H :   -0.209797
   6 H :   -0.229182
   7 H :   -0.241904

  Mayer bond orders larger than 0.100000
B(  0-N ,  1-N ) :   0.7167 B(  0-N ,  2-N ) :   0.5760 B(  0-N ,  3-C ) :   1.1268
B(  0-N ,  4-C ) :  -0.2713 B(  1-N ,  2-N ) :   1.3882 B(  3-C ,  4-C ) :   1.5675
B(  3-C ,  5-H ) :   0.4372 B(  4-C ,  6-H ) :   0.7111 B(  4-C ,  7-H ) :   0.9863

MP2 TOTAL ENERGY:     -241.748614586 Eh
FINAL SINGLE POINT ENERGY      -241.748614585721

DIPOLE MOMENT
-------------
                                X             Y             Z
Electronic contribution:     -5.78680      -0.56925      -0.00000
Nuclear contribution   :      6.10073       0.99949       0.00000
                        -----------------------------------------
Total Dipole Moment    :      0.31393       0.43025       0.00000
                        -----------------------------------------
Magnitude (a.u.)       :      0.53260
Magnitude (Debye)      :      1.35376

Rotational constants in cm-1:     1.656572     0.091258     0.086493
Rotational constants in MHz : 49662.769202  2735.847072  2593.002475

                             ****ORCA TERMINATED NORMALLY****
TOTAL RUN TIME: 0 days 0 hours 1 minutes 17 seconds 924 msec
