                         Program Version 5.0.3 -  RELEASE  -
|  1> !ri-mp2 aug-cc-pvtz aug-cc-pvtz/c tightscf
|  2> %pal nprocs 16 end
|  3>
|  4> * xyz 0 1
|  5> C      0.000000    0.188237    0.000000
|  6> C      1.066414   -0.856833    0.000000
|  7> O      0.099012    1.365638    0.000000
|  8> F     -1.237794   -0.393573    0.000000
|  9> H      2.044346   -0.386604    0.000000
| 10> H      0.952608   -1.492386    0.878134
| 11> H      0.952608   -1.492386   -0.878134
| 12> *
| 13>
| 14>                          ****END OF INPUT****

CARTESIAN COORDINATES (ANGSTROEM)
---------------------------------
  C      0.000000    0.188237    0.000000
  C      1.066414   -0.856833    0.000000
  O      0.099012    1.365638    0.000000
  F     -1.237794   -0.393573    0.000000
  H      2.044346   -0.386604    0.000000
  H      0.952608   -1.492386    0.878134
  H      0.952608   -1.492386   -0.878134

 Total Charge           Charge          ....    0
 Multiplicity           Mult            ....    1
 Number of Electrons    NEL             ....   32
 Basis Dimension        Dim             ....  253

ORBITAL ENERGIES
----------------

  NO   OCC          E(Eh)            E(eV)
   0   2.0000     -26.326356      -716.3766
   1   2.0000     -20.585135      -560.1500
   2   2.0000     -11.427620      -310.9614
   3   2.0000     -11.268100      -306.6206
   4   2.0000      -1.646940       -44.8155
   5   2.0000      -1.434994       -39.0482
   6   2.0000      -1.052240       -28.6329
   7   2.0000      -0.843981       -22.9659
   8   2.0000      -0.732934       -19.9441
   9   2.0000      -0.720875       -19.6160
  10   2.0000      -0.719986       -19.5918
  11   2.0000      -0.623692       -16.9715
  12   2.0000      -0.610063       -16.6007
  13   2.0000      -0.590794       -16.0763
  14   2.0000      -0.534525       -14.5452
  15   2.0000      -0.493214       -13.4210
  16   0.0000       0.024458         0.6655
  17   0.0000       0.041919         1.1407
  18   0.0000       0.044790         1.2188
  19   0.0000       0.063646         1.7319
  20   0.0000       0.097831         2.6621

MULLIKEN ATOMIC CHARGES
-----------------------
   0 C :    0.588491
   1 C :   -0.661284
   2 O :   -0.521219
   3 F :   -0.353783
   4 H :    0.348026
   5 H :    0.299884
   6 H :    0.299884
Sum of atomic charges:    0.0000000

LOEWDIN ATOMIC CHARGES
----------------------
   0 C :   -0.904054
   1 C :    0.568372
   2 O :    0.433806
   3 F :    0.440247
   4 H :   -0.182945
   5 H :   -0.177714
   6 H :   -0.177714

  Mayer bond orders larger than 0.100000
B(  0-C ,  1-C ) :   0.8272 B(  0-C ,  2-O ) :   1.7549 B(  0-C ,  3-F ) :   0.8089
B(  1-C ,  4-H ) :   0.8917 B(  1-C ,  5-H ) :   0.9127 B(  1-C ,  6-H ) :   0.9127

MP2 TOTAL ENERGY:     -252.724630400 Eh
FINAL SINGLE POINT ENERGY      -252.724630399585

DIPOLE MOMENT
-------------
                                X             Y             Z
Electronic contribution:     -4.22271       1.81739       0.00000
Nuclear contribution   :      5.01140      -2.86834       0.00000
                        -----------------------------------------
Total Dipole Moment    :      0.78869      -1.05095       0.00000
                        -----------------------------------------
Magnitude (a.u.)       :      1.31397
Magnitude (Debye)      :      3.33985

Rotational constants in cm-1:     0.366903     0.322768     0.177328
Rotational constants in MHz : 10999.470111  9676.348627  5316.148081

                             ****ORCA TERMINATED NORMALLY****
TOTAL RUN TIME: 0 days 0 hours 0 minutes 52 seconds 477 msec
