                         Program Version 5.0.3 -  RELEASE  -
|  1> !ri-mp2 aug-cc-pvtz aug-cc-pvtz/c tightscf
|  2> %pal nprocs 16 end
|  3> %maxcore 3800
|  4>
|  5> * xyz 0 1
|  6> C     -0.889735    0.889735    0.889735
|  7> C      0.000000    0.000000    1.775473
|  8> C      0.000000    1.775473    0.000000
|  9> C      0.889735   -0.889735    0.889735
| 10> C     -1.775473    0.000000    0.000000
| 11> C     -0.889735   -0.889735   -0.889735
| 12> C      0.000000   -1.775473    0.000000
| 13> C      0.889735    0.889735   -0.889735
| 14> C      0.000000    0.000000   -1.775473
| 15> C      1.775473    0.000000    0.000000
| 16> H      1.520690   -1.520690    1.520690
| 17> H     -1.520690   -1.520690   -1.520690
| 18> H     -1.520690    1.520690    1.520690
| 19> H      2.427208   -0.621055   -0.621055
| 20> H      1.520690    1.520690   -1.520690
| 21> H     -2.427208    0.621055   -0.621055
| 22> H      0.621055   -0.621055   -2.427208
| 23> H      2.427208    0.621055    0.621055
| 24> H      0.621055   -2.427208   -0.621055
| 25> H      0.621055    2.427208    0.621055
| 26> H     -0.621055   -2.427208    0.621055
| 27> H      0.621055    0.621055    2.427208
| 28> H     -0.621055    0.621055   -2.427208
| 29> H     -0.621055    2.427208   -0.621055
| 30> H     -2.427208   -0.621055    0.621055
| 31> H     -0.621055   -0.621055    2.427208
| 32> *
| 33>
| 34>                          ****END OF INPUT****

CARTESIAN COORDINATES (ANGSTROEM)
---------------------------------
  C     -0.889735    0.889735    0.889735
  C      0.000000    0.000000    1.775473
  C      0.000000    1.775473    0.000000
  C      0.889735   -0.889735    0.889735
  C     -1.775473    0.000000    0.000000
  C     -0.889735   -0.889735   -0.889735
  C      0.000000   -1.775473    0.000000
  C      0.889735    0.889735   -0.889735
  C      0.000000    0.000000   -1.775473
  C      1.775473    0.000000    0.000000
  H      1.520690   -1.520690    1.520690
  H     -1.520690   -1.520690   -1.520690
  H     -1.520690    1.520690    1.520690
  H      2.427208   -0.621055   -0.621055
  H      1.520690    1.520690   -1.520690
  H     -2.427208    0.621055   -0.621055
  H      0.621055   -0.621055   -2.427208
  H      2.427208    0.621055    0.621055
  H      0.621055   -2.427208   -0.621055
  H      0.621055    2.427208    0.621055
  H     -0.621055   -2.427208    0.621055
  H      0.621055    0.621055    2.427208
  H     -0.621055    0.621055   -2.427208
  H     -0.621055    2.427208   -0.621055
  H     -2.427208   -0.621055    0.621055
  H     -0.621055   -0.621055    2.427208

 Total Charge           Charge          ....    0
 Multiplicity           Mult            ....    1
 Number of Electrons    NEL             ....   76
 Basis Dimension        Dim             ....  828

ORBITAL ENERGIES
----------------

  NO   OCC          E(Eh)            E(eV)
   0   2.0000     -11.215375      -305.1859
   1   2.0000     -11.215345      -305.1851
   2   2.0000     -11.215345      -305.1851
   3   2.0000     -11.215345      -305.1851
   4   2.0000     -11.208005      -304.9853
   5   2.0000     -11.208005      -304.9853
   6   2.0000     -11.207972      -304.9844
   7   2.0000     -11.207972      -304.9844
   8   2.0000     -11.207972      -304.9844
   9   2.0000     -11.207907      -304.9827
  10   2.0000      -1.158454       -31.5231
  11   2.0000      -1.031980       -28.0816
  12   2.0000      -1.031980       -28.0816
  13   2.0000      -1.031980       -28.0816
  14   2.0000      -0.902520       -24.5588
  15   2.0000      -0.902520       -24.5588
  16   2.0000      -0.790303       -21.5052
  17   2.0000      -0.790303       -21.5052
  18   2.0000      -0.790303       -21.5052
  19   2.0000      -0.701329       -19.0841
  20   2.0000      -0.632252       -17.2045
  21   2.0000      -0.610288       -16.6068
  22   2.0000      -0.610288       -16.6068
  23   2.0000      -0.610288       -16.6068
  24   2.0000      -0.553929       -15.0732
  25   2.0000      -0.553929       -15.0732
  26   2.0000      -0.553929       -15.0732
  27   2.0000      -0.537917       -14.6375
  28   2.0000      -0.537917       -14.6375
  29   2.0000      -0.537917       -14.6375
  30   2.0000      -0.458814       -12.4850
  31   2.0000      -0.458814       -12.4850
  32   2.0000      -0.455379       -12.3915
  33   2.0000      -0.455379       -12.3915
  34   2.0000      -0.455379       -12.3915
  35   2.0000      -0.400558       -10.8997
  36   2.0000      -0.400558       -10.8997
  37   2.0000      -0.400558       -10.8997
  38   0.0000       0.026697         0.7264
  39   0.0000       0.034521         0.9394
  40   0.0000       0.034521         0.9394
  41   0.0000       0.034521         0.9394
  42   0.0000       0.048557         1.3213

MULLIKEN ATOMIC CHARGES
-----------------------
   0 C :    0.030351
   1 C :   -0.812143
   2 C :   -0.812134
   3 C :    0.030324
   4 C :   -0.812162
   5 C :    0.030366
   6 C :   -0.812137
   7 C :    0.030384
   8 C :   -0.812158
   9 C :   -0.812132
  10 H :    0.496366
  11 H :    0.496370
  12 H :    0.496362
  13 H :    0.230495
  14 H :    0.496356
  15 H :    0.230505
  16 H :    0.230511
  17 H :    0.230476
  18 H :    0.230522
  19 H :    0.230484
  20 H :    0.230475
  21 H :    0.230514
  22 H :    0.230517
  23 H :    0.230482
  24 H :    0.230492
  25 H :    0.230512
Sum of atomic charges:   -0.0000000

LOEWDIN ATOMIC CHARGES
----------------------
   0 C :    0.027994
   1 C :    0.325356
   2 C :    0.325356
   3 C :    0.027994
   4 C :    0.325356
   5 C :    0.027994
   6 C :    0.325356
   7 C :    0.027994
   8 C :    0.325356
   9 C :    0.325356
  10 H :   -0.118357
  11 H :   -0.118357
  12 H :   -0.118357
  13 H :   -0.132557
  14 H :   -0.118357
  15 H :   -0.132557
  16 H :   -0.132557
  17 H :   -0.132557
  18 H :   -0.132557
  19 H :   -0.132557
  20 H :   -0.132557
  21 H :   -0.132557
  22 H :   -0.132557
  23 H :   -0.132557
  24 H :   -0.132557
  25 H :   -0.132557

  Mayer bond orders larger than 0.100000
B(  0-C ,  1-C ) :   0.9036 B(  0-C ,  2-C ) :   0.9036 B(  0-C ,  4-C ) :   0.9035
B(  0-C , 12-H ) :   0.7382 B(  1-C ,  2-C ) :   0.1114 B(  1-C ,  3-C ) :   0.9035
B(  1-C ,  4-C ) :   0.1114 B(  1-C ,  6-C ) :   0.1114 B(  1-C ,  9-C ) :   0.1114
B(  1-C , 21-H ) :   0.9879 B(  1-C , 25-H ) :   0.9879 B(  2-C ,  4-C ) :   0.1114
B(  2-C ,  7-C ) :   0.9035 B(  2-C ,  8-C ) :   0.1114 B(  2-C ,  9-C ) :   0.1114
B(  2-C , 19-H ) :   0.9879 B(  2-C , 23-H ) :   0.9879 B(  3-C ,  6-C ) :   0.9036
B(  3-C ,  9-C ) :   0.9036 B(  3-C , 10-H ) :   0.7382 B(  4-C ,  5-C ) :   0.9036
B(  4-C ,  6-C ) :   0.1114 B(  4-C ,  8-C ) :   0.1114 B(  4-C , 15-H ) :   0.9879
B(  4-C , 24-H ) :   0.9879 B(  5-C ,  6-C ) :   0.9035 B(  5-C ,  8-C ) :   0.9036
B(  5-C , 11-H ) :   0.7382 B(  6-C ,  8-C ) :   0.1114 B(  6-C ,  9-C ) :   0.1114
B(  6-C , 18-H ) :   0.9879 B(  6-C , 20-H ) :   0.9879 B(  7-C ,  8-C ) :   0.9036
B(  7-C ,  9-C ) :   0.9035 B(  7-C , 14-H ) :   0.7382 B(  8-C ,  9-C ) :   0.1113
B(  8-C , 16-H ) :   0.9879 B(  8-C , 22-H ) :   0.9879 B(  9-C , 13-H ) :   0.9879
B(  9-C , 17-H ) :   0.9879

MP2 TOTAL ENERGY:     -389.878369507 Eh
FINAL SINGLE POINT ENERGY      -389.878369507223

DIPOLE MOMENT
-------------
                                X             Y             Z
Electronic contribution:     -0.00000       0.00000       0.00000
Nuclear contribution   :     -0.00000       0.00000       0.00000
                        -----------------------------------------
Total Dipole Moment    :     -0.00000       0.00000       0.00000
                        -----------------------------------------
Magnitude (a.u.)       :      0.00000
Magnitude (Debye)      :      0.00000

Rotational constants in cm-1:     0.056212     0.056212     0.056212
Rotational constants in MHz :  1685.206302  1685.206302  1685.206302

                             ****ORCA TERMINATED NORMALLY****
TOTAL RUN TIME: 0 days 0 hours 28 minutes 33 seconds 711 msec
