                         Program Version 5.0.3 -  RELEASE  -
|  1> !ri-mp2 aug-cc-pvtz aug-cc-pvtz/c tightscf
|  2> %pal nprocs 16 end
|  3>
|  4> * xyz 0 1
|  5> C      0.000000    0.543632    0.000000
|  6> C      1.484355    0.734756    0.000000
|  7> O     -0.843840    1.368109    0.000000
|  8> Cl    -0.452456   -1.230552    0.000000
|  9> H      1.710473    1.798078    0.000000
| 10> H      1.912935    0.253054    0.877971
| 11> H      1.912935    0.253054   -0.877971
| 12> *
| 13>
| 14>                          ****END OF INPUT****

CARTESIAN COORDINATES (ANGSTROEM)
---------------------------------
  C      0.000000    0.543632    0.000000
  C      1.484355    0.734756    0.000000
  O     -0.843840    1.368109    0.000000
  Cl    -0.452456   -1.230552    0.000000
  H      1.710473    1.798078    0.000000
  H      1.912935    0.253054    0.877971
  H      1.912935    0.253054   -0.877971

 Total Charge           Charge          ....    0
 Multiplicity           Mult            ....    1
 Number of Electrons    NEL             ....   40
 Basis Dimension        Dim             ....  257

ORBITAL ENERGIES
----------------

  NO   OCC          E(Eh)            E(eV)
   0   2.0000    -104.845743     -2852.9977
   1   2.0000     -20.600097      -560.5571
   2   2.0000     -11.415936      -310.6434
   3   2.0000     -11.270408      -306.6834
   4   2.0000     -10.570125      -287.6277
   5   2.0000      -8.036708      -218.6899
   6   2.0000      -8.035089      -218.6459
   7   2.0000      -8.034959      -218.6423
   8   2.0000      -1.456596       -39.6360
   9   2.0000      -1.128496       -30.7079
  10   2.0000      -1.034226       -28.1427
  11   2.0000      -0.778884       -21.1945
  12   2.0000      -0.681805       -18.5529
  13   2.0000      -0.673857       -18.3366
  14   2.0000      -0.646254       -17.5855
  15   2.0000      -0.587516       -15.9871
  16   2.0000      -0.556215       -15.1354
  17   2.0000      -0.466996       -12.7076
  18   2.0000      -0.466638       -12.6979
  19   2.0000      -0.453272       -12.3342
  20   0.0000       0.025598         0.6966
  21   0.0000       0.042461         1.1554
  22   0.0000       0.045133         1.2281
  23   0.0000       0.065285         1.7765
  24   0.0000       0.083624         2.2755

MULLIKEN ATOMIC CHARGES
-----------------------
   0 C :    0.480171
   1 C :   -0.697607
   2 O :   -0.539929
   3 Cl:   -0.244289
   4 H :    0.318941
   5 H :    0.341357
   6 H :    0.341357
Sum of atomic charges:    0.0000000

LOEWDIN ATOMIC CHARGES
----------------------
   0 C :   -1.088084
   1 C :    0.480355
   2 O :    0.387732
   3 Cl:    0.790606
   4 H :   -0.185228
   5 H :   -0.192691
   6 H :   -0.192691

  Mayer bond orders larger than 0.100000
B(  0-C ,  1-C ) :   0.8538 B(  0-C ,  2-O ) :   1.7102 B(  0-C ,  3-Cl) :   0.9199
B(  1-C ,  4-H ) :   0.8941 B(  1-C ,  5-H ) :   0.9005 B(  1-C ,  6-H ) :   0.9005

MP2 TOTAL ENERGY:     -612.695661308 Eh
FINAL SINGLE POINT ENERGY      -612.695661307944

DIPOLE MOMENT
-------------
                                X             Y             Z
Electronic contribution:     -4.67194      -3.84847       0.00000
Nuclear contribution   :      5.90505       3.91056       0.00000
                        -----------------------------------------
Total Dipole Moment    :      1.23311       0.06208       0.00000
                        -----------------------------------------
Magnitude (a.u.)       :      1.23467
Magnitude (Debye)      :      3.13829

Rotational constants in cm-1:     0.338784     0.160316     0.111049
Rotational constants in MHz : 10156.500819  4806.143941  3329.157627

                             ****ORCA TERMINATED NORMALLY****
TOTAL RUN TIME: 0 days 0 hours 0 minutes 53 seconds 572 msec
