                         Program Version 5.0.3 -  RELEASE  -
|  1> !ri-mp2 aug-cc-pvtz aug-cc-pvtz/c tightscf
|  2> %pal nprocs 16 end
|  3>
|  4> * xyz 0 1
|  5> C     -0.074379    0.144688   -0.000004
|  6> C      1.359129   -0.348132   -0.000001
|  7> N     -1.037040   -0.821835    0.000088
|  8> O     -0.350669    1.329673   -0.000014
|  9> H      1.862975    0.053389   -0.878184
| 10> H      1.862897    0.053119    0.878352
| 11> H      1.450574   -1.433310   -0.000159
| 12> H     -2.001439   -0.536727   -0.000165
| 13> H     -0.818878   -1.800341   -0.000316
| 14> *
| 15>
| 16>                          ****END OF INPUT****

CARTESIAN COORDINATES (ANGSTROEM)
---------------------------------
  C     -0.074379    0.144688   -0.000004
  C      1.359129   -0.348132   -0.000001
  N     -1.037040   -0.821835    0.000088
  O     -0.350669    1.329673   -0.000014
  H      1.862975    0.053389   -0.878184
  H      1.862897    0.053119    0.878352
  H      1.450574   -1.433310   -0.000159
  H     -2.001439   -0.536727   -0.000165
  H     -0.818878   -1.800341   -0.000316

 Total Charge           Charge          ....    0
 Multiplicity           Mult            ....    1
 Number of Electrons    NEL             ....   32
 Basis Dimension        Dim             ....  299

ORBITAL ENERGIES
----------------

  NO   OCC          E(Eh)            E(eV)
   0   2.0000     -20.515932      -558.2669
   1   2.0000     -15.587478      -424.1568
   2   2.0000     -11.354069      -308.9599
   3   2.0000     -11.239005      -305.8289
   4   2.0000      -1.380069       -37.5536
   5   2.0000      -1.212560       -32.9954
   6   2.0000      -1.005074       -27.3495
   7   2.0000      -0.801331       -21.8053
   8   2.0000      -0.727647       -19.8003
   9   2.0000      -0.665204       -18.1011
  10   2.0000      -0.615142       -16.7389
  11   2.0000      -0.586923       -15.9710
  12   2.0000      -0.562967       -15.3191
  13   2.0000      -0.525276       -14.2935
  14   2.0000      -0.424608       -11.5542
  15   2.0000      -0.415423       -11.3042
  16   0.0000       0.021958         0.5975
  17   0.0000       0.036138         0.9834
  18   0.0000       0.044988         1.2242
  19   0.0000       0.049102         1.3361
  20   0.0000       0.061071         1.6618

MULLIKEN ATOMIC CHARGES
-----------------------
   0 C :    0.542483
   1 C :   -0.636886
   2 N :   -0.327611
   3 O :   -0.749551
   4 H :    0.282794
   5 H :    0.282788
   6 H :    0.305448
   7 H :    0.174632
   8 H :    0.125904
Sum of atomic charges:    0.0000000

LOEWDIN ATOMIC CHARGES
----------------------
   0 C :   -0.698993
   1 C :    0.586244
   2 N :    0.845189
   3 O :    0.414392
   4 H :   -0.175388
   5 H :   -0.175380
   6 H :   -0.189203
   7 H :   -0.294966
   8 H :   -0.311895

  Mayer bond orders larger than 0.100000
B(  0-C ,  1-C ) :   0.6666 B(  0-C ,  2-N ) :   1.0055 B(  0-C ,  3-O ) :   1.4574
B(  1-C ,  4-H ) :   0.9520 B(  1-C ,  5-H ) :   0.9520 B(  1-C ,  6-H ) :   0.9045
B(  2-N ,  7-H ) :   1.0140 B(  2-N ,  8-H ) :   1.0670

MP2 TOTAL ENERGY:     -208.854213889 Eh
FINAL SINGLE POINT ENERGY      -208.854213889031

DIPOLE MOMENT
-------------
                                X             Y             Z
Electronic contribution:     -2.24207       2.05963       0.00009
Nuclear contribution   :      2.38541      -3.71136      -0.00048
                        -----------------------------------------
Total Dipole Moment    :      0.14335      -1.65173      -0.00039
                        -----------------------------------------
Magnitude (a.u.)       :      1.65794
Magnitude (Debye)      :      4.21414

Rotational constants in cm-1:     0.363404     0.308680     0.172210
Rotational constants in MHz : 10894.575161  9253.995035  5162.722721

                             ****ORCA TERMINATED NORMALLY****
TOTAL RUN TIME: 0 days 0 hours 1 minutes 13 seconds 776 msec
