                         Program Version 5.0.3 -  RELEASE  -
|  1> !ri-mp2 aug-cc-pvtz aug-cc-pvtz/c tightscf
|  2> %pal nprocs 16 end
|  3> %maxcore 3800
|  4>
|  5> * xyz 0 1
|  6> C      0.000000    0.719869    1.218890
|  7> C      0.000000   -0.719869    1.218890
|  8> C      0.000000    1.398321    0.000000
|  9> C      0.000000    1.401530    2.470807
| 10> C      0.000000   -1.398321    0.000000
| 11> C      0.000000   -1.401530    2.470807
| 12> C      0.000000    0.719869   -1.218890
| 13> C      0.000000    0.710698    3.646151
| 14> C      0.000000   -0.719869   -1.218890
| 15> C      0.000000   -0.710698    3.646151
| 16> C      0.000000    1.401530   -2.470807
| 17> C      0.000000   -1.401530   -2.470807
| 18> C      0.000000    0.710698   -3.646151
| 19> C      0.000000   -0.710698   -3.646151
| 20> H      0.000000    2.481982    0.000000
| 21> H      0.000000    2.484308    2.470066
| 22> H      0.000000   -2.481982    0.000000
| 23> H      0.000000   -2.484308    2.470066
| 24> H      0.000000    1.241764    4.588686
| 25> H      0.000000   -1.241764    4.588686
| 26> H      0.000000    2.484308   -2.470066
| 27> H      0.000000   -2.484308   -2.470066
| 28> H      0.000000    1.241764   -4.588686
| 29> H      0.000000   -1.241764   -4.588686
| 30> *
| 31>
| 32>                          ****END OF INPUT****

CARTESIAN COORDINATES (ANGSTROEM)
---------------------------------
  C      0.000000    0.719869    1.218890
  C      0.000000   -0.719869    1.218890
  C      0.000000    1.398321    0.000000
  C      0.000000    1.401530    2.470807
  C      0.000000   -1.398321    0.000000
  C      0.000000   -1.401530    2.470807
  C      0.000000    0.719869   -1.218890
  C      0.000000    0.710698    3.646151
  C      0.000000   -0.719869   -1.218890
  C      0.000000   -0.710698    3.646151
  C      0.000000    1.401530   -2.470807
  C      0.000000   -1.401530   -2.470807
  C      0.000000    0.710698   -3.646151
  C      0.000000   -0.710698   -3.646151
  H      0.000000    2.481982    0.000000
  H      0.000000    2.484308    2.470066
  H      0.000000   -2.481982    0.000000
  H      0.000000   -2.484308    2.470066
  H      0.000000    1.241764    4.588686
  H      0.000000   -1.241764    4.588686
  H      0.000000    2.484308   -2.470066
  H      0.000000   -2.484308   -2.470066
  H      0.000000    1.241764   -4.588686
  H      0.000000   -1.241764   -4.588686

 Total Charge           Charge          ....    0
 Multiplicity           Mult            ....    1
 Number of Electrons    NEL             ....   94
 Basis Dimension        Dim             ....  874

ORBITAL ENERGIES
----------------

  NO   OCC          E(Eh)            E(eV)
   0   2.0000     -11.246321      -306.0279
   1   2.0000     -11.246258      -306.0262
   2   2.0000     -11.245380      -306.0023
   3   2.0000     -11.245270      -305.9993
   4   2.0000     -11.238219      -305.8075
   5   2.0000     -11.238216      -305.8074
   6   2.0000     -11.238022      -305.8021
   7   2.0000     -11.238011      -305.8018
   8   2.0000     -11.237777      -305.7955
   9   2.0000     -11.237767      -305.7952
  10   2.0000     -11.236539      -305.7618
  11   2.0000     -11.236538      -305.7617
  12   2.0000     -11.235762      -305.7406
  13   2.0000     -11.235762      -305.7406
  14   2.0000      -1.188829       -32.3497
  15   2.0000      -1.149255       -31.2728
  16   2.0000      -1.087112       -29.5818
  17   2.0000      -1.066639       -29.0247
  18   2.0000      -1.025233       -27.8980
  19   2.0000      -1.007702       -27.4210
  20   2.0000      -0.963537       -26.2192
  21   2.0000      -0.881011       -23.9735
  22   2.0000      -0.845041       -22.9947
  23   2.0000      -0.817301       -22.2399
  24   2.0000      -0.811537       -22.0830
  25   2.0000      -0.746567       -20.3151
  26   2.0000      -0.712043       -19.3757
  27   2.0000      -0.689683       -18.7672
  28   2.0000      -0.650374       -17.6976
  29   2.0000      -0.643323       -17.5057
  30   2.0000      -0.628263       -17.0959
  31   2.0000      -0.618897       -16.8411
  32   2.0000      -0.593283       -16.1440
  33   2.0000      -0.581365       -15.8197
  34   2.0000      -0.575383       -15.6570
  35   2.0000      -0.549448       -14.9512
  36   2.0000      -0.548390       -14.9225
  37   2.0000      -0.539366       -14.6769
  38   2.0000      -0.497680       -13.5426
  39   2.0000      -0.496095       -13.4994
  40   2.0000      -0.488046       -13.2804
  41   2.0000      -0.471926       -12.8418
  42   2.0000      -0.415543       -11.3075
  43   2.0000      -0.408180       -11.1071
  44   2.0000      -0.348849        -9.4927
  45   2.0000      -0.311272        -8.4702
  46   2.0000      -0.259775        -7.0688
  47   0.0000       0.028430         0.7736
  48   0.0000       0.028845         0.7849
  49   0.0000       0.028981         0.7886
  50   0.0000       0.038166         1.0385
  51   0.0000       0.039469         1.0740

MULLIKEN ATOMIC CHARGES
-----------------------
   0 C :    1.763843
   1 C :    1.763851
   2 C :   -1.350516
   3 C :   -1.327819
   4 C :   -1.350556
   5 C :   -1.328017
   6 C :    1.763881
   7 C :   -0.280584
   8 C :    1.764325
   9 C :   -0.280630
  10 C :   -1.327833
  11 C :   -1.327716
  12 C :   -0.280610
  13 C :   -0.280645
  14 H :   -0.290681
  15 H :    0.065877
  16 H :   -0.290687
  17 H :    0.065887
  18 H :    0.599265
  19 H :    0.599157
  20 H :    0.065811
  21 H :    0.065815
  22 H :    0.599288
  23 H :    0.599294
Sum of atomic charges:   -0.0000000

LOEWDIN ATOMIC CHARGES
----------------------
   0 C :   -0.103421
   1 C :   -0.103421
   2 C :    0.253356
   3 C :    0.222305
   4 C :    0.253356
   5 C :    0.222305
   6 C :   -0.103421
   7 C :    0.204113
   8 C :   -0.103421
   9 C :    0.204113
  10 C :    0.222305
  11 C :    0.222305
  12 C :    0.204113
  13 C :    0.204113
  14 H :   -0.170832
  15 H :   -0.177860
  16 H :   -0.170832
  17 H :   -0.177860
  18 H :   -0.186399
  19 H :   -0.186399
  20 H :   -0.177860
  21 H :   -0.177860
  22 H :   -0.186399
  23 H :   -0.186399

  Mayer bond orders larger than 0.100000
B(  0-C ,  1-C ) :   1.0841 B(  0-C ,  3-C ) :  -0.4866 B(  0-C ,  4-C ) :  -0.3524
B(  0-C ,  5-C ) :   0.2785 B(  0-C ,  6-C ) :   0.5749 B(  0-C ,  8-C ) :  -0.1829
B(  0-C ,  9-C ) :   0.1106 B(  0-C , 14-H ) :  -0.2778 B(  0-C , 15-H ) :  -0.1886
B(  1-C ,  2-C ) :  -0.3524 B(  1-C ,  3-C ) :   0.2786 B(  1-C ,  5-C ) :  -0.4867
B(  1-C ,  6-C ) :  -0.1829 B(  1-C ,  7-C ) :   0.1106 B(  1-C ,  8-C ) :   0.5748
B(  1-C , 16-H ) :  -0.2777 B(  1-C , 17-H ) :  -0.1886 B(  2-C ,  3-C ) :   0.3371
B(  2-C ,  4-C ) :   0.3461 B(  2-C ,  5-C ) :  -0.2577 B(  2-C ,  8-C ) :  -0.3529
B(  2-C ,  9-C ) :   0.1088 B(  2-C , 10-C ) :   0.3369 B(  2-C , 11-C ) :  -0.2576
B(  2-C , 13-C ) :   0.1088 B(  2-C , 14-H ) :   2.4151 B(  2-C , 15-H ) :  -0.2293
B(  2-C , 16-H ) :   0.1404 B(  2-C , 20-H ) :  -0.2294 B(  3-C ,  4-C ) :  -0.2579
B(  3-C ,  5-C ) :  -0.1767 B(  3-C ,  7-C ) :   1.2494 B(  3-C , 10-C ) :   0.2157
B(  3-C , 12-C ) :   0.1079 B(  3-C , 15-H ) :   1.5133 B(  3-C , 18-H ) :  -0.1865
B(  3-C , 20-H ) :   0.1601 B(  4-C ,  5-C ) :   0.3372 B(  4-C ,  6-C ) :  -0.3525
B(  4-C ,  7-C ) :   0.1089 B(  4-C , 10-C ) :  -0.2577 B(  4-C , 11-C ) :   0.3365
B(  4-C , 12-C ) :   0.1088 B(  4-C , 14-H ) :   0.1403 B(  4-C , 16-H ) :   2.4152
B(  4-C , 17-H ) :  -0.2295 B(  4-C , 21-H ) :  -0.2295 B(  5-C ,  9-C ) :   1.2494
B(  5-C , 11-C ) :   0.2157 B(  5-C , 13-C ) :   0.1079 B(  5-C , 17-H ) :   1.5133
B(  5-C , 19-H ) :  -0.1865 B(  5-C , 21-H ) :   0.1601 B(  6-C ,  8-C ) :   1.0839
B(  6-C , 10-C ) :  -0.4861 B(  6-C , 11-C ) :   0.2786 B(  6-C , 13-C ) :   0.1105
B(  6-C , 14-H ) :  -0.2781 B(  6-C , 20-H ) :  -0.1885 B(  7-C ,  9-C ) :   0.7826
B(  7-C , 10-C ) :   0.1077 B(  7-C , 15-H ) :  -0.1167 B(  7-C , 18-H ) :   0.5716
B(  8-C , 10-C ) :   0.2786 B(  8-C , 11-C ) :  -0.4860 B(  8-C , 12-C ) :   0.1105
B(  8-C , 16-H ) :  -0.2784 B(  8-C , 21-H ) :  -0.1885 B(  9-C , 11-C ) :   0.1078
B(  9-C , 17-H ) :  -0.1168 B(  9-C , 19-H ) :   0.5719 B( 10-C , 11-C ) :  -0.1765
B( 10-C , 12-C ) :   1.2497 B( 10-C , 15-H ) :   0.1601 B( 10-C , 20-H ) :   1.5133
B( 10-C , 22-H ) :  -0.1865 B( 11-C , 13-C ) :   1.2498 B( 11-C , 17-H ) :   0.1601
B( 11-C , 21-H ) :   1.5133 B( 11-C , 23-H ) :  -0.1865 B( 12-C , 13-C ) :   0.7827
B( 12-C , 20-H ) :  -0.1167 B( 12-C , 22-H ) :   0.5717 B( 13-C , 21-H ) :  -0.1167
B( 13-C , 23-H ) :   0.5716 B( 14-H , 15-H ) :  -0.1023 B( 14-H , 20-H ) :  -0.1022
B( 16-H , 17-H ) :  -0.1023 B( 16-H , 21-H ) :  -0.1022

MP2 TOTAL ENERGY:     -538.390105317 Eh
FINAL SINGLE POINT ENERGY      -538.390105317449

DIPOLE MOMENT
-------------
                                X             Y             Z
Electronic contribution:      0.00000      -0.00000      -0.00000
Nuclear contribution   :      0.00000      -0.00000      -0.00000
                        -----------------------------------------
Total Dipole Moment    :      0.00000      -0.00000      -0.00000
                        -----------------------------------------
Magnitude (a.u.)       :      0.00000
Magnitude (Debye)      :      0.00000

Rotational constants in cm-1:     0.072033     0.015148     0.012516
Rotational constants in MHz :  2159.492852   454.111680   375.210142

                             ****ORCA TERMINATED NORMALLY****
TOTAL RUN TIME: 0 days 0 hours 30 minutes 17 seconds 591 msec
