                         Program Version 5.0.3 -  RELEASE  -
|  1> !ri-mp2 aug-cc-pvtz aug-cc-pvtz/c tightscf
|  2> %pal nprocs 16 end
|  3>
|  4> * xyz 0 1
|  5> S      1.039913   -0.088153   -0.000004
|  6> C     -0.650468    0.025724    0.000041
|  7> C     -1.852794    0.003642   -0.000042
|  8> H      1.294484    1.236611   -0.000009
|  9> H     -2.913523   -0.002355    0.000079
| 10> *
| 11>
| 12>                          ****END OF INPUT****

CARTESIAN COORDINATES (ANGSTROEM)
---------------------------------
  S      1.039913   -0.088153   -0.000004
  C     -0.650468    0.025724    0.000041
  C     -1.852794    0.003642   -0.000042
  H      1.294484    1.236611   -0.000009
  H     -2.913523   -0.002355    0.000079

 Total Charge           Charge          ....    0
 Multiplicity           Mult            ....    1
 Number of Electrons    NEL             ....   30
 Basis Dimension        Dim             ....  188

ORBITAL ENERGIES
----------------

  NO   OCC          E(Eh)            E(eV)
   0   2.0000     -92.000520     -2503.4614
   1   2.0000     -11.265461      -306.5488
   2   2.0000     -11.241958      -305.9092
   3   2.0000      -9.000525      -244.9167
   4   2.0000      -6.682003      -181.8265
   5   2.0000      -6.680888      -181.7962
   6   2.0000      -6.679768      -181.7657
   7   2.0000      -1.082937       -29.4682
   8   2.0000      -0.980635       -26.6844
   9   2.0000      -0.735708       -20.0196
  10   2.0000      -0.645668       -17.5695
  11   2.0000      -0.542431       -14.7603
  12   2.0000      -0.481459       -13.1012
  13   2.0000      -0.405173       -11.0253
  14   2.0000      -0.352433        -9.5902
  15   0.0000       0.028883         0.7859
  16   0.0000       0.036563         0.9949
  17   0.0000       0.066009         1.7962
  18   0.0000       0.078411         2.1337
  19   0.0000       0.083372         2.2687

MULLIKEN ATOMIC CHARGES
-----------------------
   0 S :   -0.311090
   1 C :    0.883222
   2 C :   -1.316706
   3 H :    0.150503
   4 H :    0.594070
Sum of atomic charges:   -0.0000000

LOEWDIN ATOMIC CHARGES
----------------------
   0 S :    1.206750
   1 C :   -0.582442
   2 C :    0.256775
   3 H :   -0.566246
   4 H :   -0.314837

  Mayer bond orders larger than 0.100000
B(  0-S ,  1-C ) :   0.9765 B(  0-S ,  3-H ) :   1.0821 B(  1-C ,  2-C ) :   1.1150
B(  2-C ,  4-H ) :   0.5388

MP2 TOTAL ENERGY:     -474.885111771 Eh
FINAL SINGLE POINT ENERGY      -474.885111770952

DIPOLE MOMENT
-------------
                                X             Y             Z
Electronic contribution:      1.51547      -0.86405      -0.00002
Nuclear contribution   :     -1.60123       1.19959       0.00007
                        -----------------------------------------
Total Dipole Moment    :     -0.08575       0.33555       0.00004
                        -----------------------------------------
Magnitude (a.u.)       :      0.34633
Magnitude (Debye)      :      0.88030

Rotational constants in cm-1:     9.659074     0.184821     0.181351
Rotational constants in MHz : 289571.747643  5540.782751  5436.753716

                             ****ORCA TERMINATED NORMALLY****
TOTAL RUN TIME: 0 days 0 hours 0 minutes 36 seconds 887 msec
