                         Program Version 5.0.3 -  RELEASE  -
|  1> !ri-mp2 aug-cc-pvtz aug-cc-pvtz/c tightscf
|  2> %pal nprocs 16 end
|  3> %maxcore 3800
|  4>
|  5> * xyz 0 1
|  6> N     -2.526983    1.644610    0.539401
|  7> C     -2.309574    0.430804   -0.263716
|  8> C     -3.543059   -0.493877   -0.155950
|  9> O     -3.559770   -1.614822   -0.589237
| 10> O     -4.602147    0.075386    0.430775
| 11> H     -4.303472    0.974710    0.689949
| 12> C     -1.025447   -0.342914    0.052142
| 13> C      0.250781    0.404006   -0.330854
| 14> C      1.510265   -0.390892    0.003386
| 15> N      2.702104    0.351444   -0.372440
| 16> C      3.997767    0.022671   -0.008400
| 17> N      4.099684   -0.984055    0.943541
| 18> N      5.063631    0.606486   -0.414314
| 19> H     -2.286412    0.732459   -1.314703
| 20> H     -1.014272   -0.576246    1.122559
| 21> H     -1.076507   -1.298385   -0.469583
| 22> H      0.232932    0.616099   -1.405631
| 23> H      0.304202    1.368500    0.179891
| 24> H      1.544459   -0.575336    1.078269
| 25> H      1.458323   -1.369138   -0.495193
| 26> H      2.638588    0.883680   -1.223524
| 27> H      3.488801   -1.778017    0.839937
| 28> H      5.061405   -1.240273    1.103040
| 29> H      4.860793    1.403058   -1.010069
| 30> H     -2.070153    1.586068    1.441314
| 31> H     -2.196817    2.480125    0.078473
| 32> *
| 33>
| 34>                          ****END OF INPUT****

CARTESIAN COORDINATES (ANGSTROEM)
---------------------------------
  N     -2.526983    1.644610    0.539401
  C     -2.309574    0.430804   -0.263716
  C     -3.543059   -0.493877   -0.155950
  O     -3.559770   -1.614822   -0.589237
  O     -4.602147    0.075386    0.430775
  H     -4.303472    0.974710    0.689949
  C     -1.025447   -0.342914    0.052142
  C      0.250781    0.404006   -0.330854
  C      1.510265   -0.390892    0.003386
  N      2.702104    0.351444   -0.372440
  C      3.997767    0.022671   -0.008400
  N      4.099684   -0.984055    0.943541
  N      5.063631    0.606486   -0.414314
  H     -2.286412    0.732459   -1.314703
  H     -1.014272   -0.576246    1.122559
  H     -1.076507   -1.298385   -0.469583
  H      0.232932    0.616099   -1.405631
  H      0.304202    1.368500    0.179891
  H      1.544459   -0.575336    1.078269
  H      1.458323   -1.369138   -0.495193
  H      2.638588    0.883680   -1.223524
  H      3.488801   -1.778017    0.839937
  H      5.061405   -1.240273    1.103040
  H      4.860793    1.403058   -1.010069
  H     -2.070153    1.586068    1.441314
  H     -2.196817    2.480125    0.078473

 Total Charge           Charge          ....    0
 Multiplicity           Mult            ....    1
 Number of Electrons    NEL             ....   94
 Basis Dimension        Dim             ....  874

ORBITAL ENERGIES
----------------

  NO   OCC          E(Eh)            E(eV)
   0   2.0000     -20.601801      -560.6035
   1   2.0000     -20.541398      -558.9599
   2   2.0000     -15.591438      -424.2646
   3   2.0000     -15.583991      -424.0620
   4   2.0000     -15.572736      -423.7557
   5   2.0000     -15.505168      -421.9171
   6   2.0000     -11.380712      -309.6849
   7   2.0000     -11.346226      -308.7465
   8   2.0000     -11.303491      -307.5836
   9   2.0000     -11.284667      -307.0714
  10   2.0000     -11.254543      -306.2517
  11   2.0000     -11.253109      -306.2127
  12   2.0000      -1.457418       -39.6583
  13   2.0000      -1.361950       -37.0606
  14   2.0000      -1.304108       -35.4866
  15   2.0000      -1.232288       -33.5323
  16   2.0000      -1.194757       -32.5110
  17   2.0000      -1.136916       -30.9371
  18   2.0000      -1.086541       -29.5663
  19   2.0000      -1.001690       -27.2574
  20   2.0000      -0.913087       -24.8464
  21   2.0000      -0.842610       -22.9286
  22   2.0000      -0.815663       -22.1953
  23   2.0000      -0.807953       -21.9855
  24   2.0000      -0.748296       -20.3622
  25   2.0000      -0.736566       -20.0430
  26   2.0000      -0.709222       -19.2989
  27   2.0000      -0.682959       -18.5842
  28   2.0000      -0.678378       -18.4596
  29   2.0000      -0.659754       -17.9528
  30   2.0000      -0.640957       -17.4413
  31   2.0000      -0.630147       -17.1472
  32   2.0000      -0.622564       -16.9408
  33   2.0000      -0.607802       -16.5391
  34   2.0000      -0.596015       -16.2184
  35   2.0000      -0.584190       -15.8966
  36   2.0000      -0.555651       -15.1200
  37   2.0000      -0.537880       -14.6364
  38   2.0000      -0.524102       -14.2615
  39   2.0000      -0.515804       -14.0357
  40   2.0000      -0.505662       -13.7598
  41   2.0000      -0.474442       -12.9102
  42   2.0000      -0.471482       -12.8297
  43   2.0000      -0.428597       -11.6627
  44   2.0000      -0.424213       -11.5434
  45   2.0000      -0.414262       -11.2727
  46   2.0000      -0.350384        -9.5344
  47   0.0000       0.015230         0.4144
  48   0.0000       0.024342         0.6624
  49   0.0000       0.026601         0.7238
  50   0.0000       0.034947         0.9510
  51   0.0000       0.041712         1.1351

MULLIKEN ATOMIC CHARGES
-----------------------
   0 N :   -0.581046
   1 C :    0.532399
   2 C :    0.511003
   3 O :   -0.806006
   4 O :   -0.574785
   5 H :    0.253136
   6 C :   -0.370548
   7 C :   -0.260773
   8 C :   -0.271860
   9 N :   -0.070101
  10 C :    0.153971
  11 N :   -0.223272
  12 N :   -0.826870
  13 H :    0.366001
  14 H :    0.235379
  15 H :    0.272241
  16 H :    0.236489
  17 H :    0.256328
  18 H :    0.276112
  19 H :    0.262754
  20 H :    0.079930
  21 H :    0.127791
  22 H :    0.129795
  23 H :    0.127931
  24 H :    0.103090
  25 H :    0.060914
Sum of atomic charges:    0.0000000

LOEWDIN ATOMIC CHARGES
----------------------
   0 N :    0.872527
   1 C :   -0.094710
   2 C :   -0.768452
   3 O :    0.440568
   4 O :    0.842081
   5 H :   -0.590091
   6 C :    0.293637
   7 C :    0.293231
   8 C :    0.176953
   9 N :    0.582594
  10 C :   -0.577159
  11 N :    0.852078
  12 N :    0.628423
  13 H :   -0.131938
  14 H :   -0.130836
  15 H :   -0.156812
  16 H :   -0.135767
  17 H :   -0.141679
  18 H :   -0.151122
  19 H :   -0.129521
  20 H :   -0.295984
  21 H :   -0.323434
  22 H :   -0.313149
  23 H :   -0.461912
  24 H :   -0.290186
  25 H :   -0.289339

  Mayer bond orders larger than 0.100000
B(  0-N ,  1-C ) :   0.5140 B(  0-N ,  2-C ) :   0.2349 B(  0-N ,  5-H ) :   0.1213
B(  0-N , 24-H ) :   0.9888 B(  0-N , 25-H ) :   1.0610 B(  1-C ,  2-C ) :   0.5292
B(  1-C ,  6-C ) :   0.9000 B(  1-C , 13-H ) :   0.9209 B(  2-C ,  3-O ) :   1.3376
B(  2-C ,  4-O ) :   0.7230 B(  2-C ,  6-C ) :   0.1376 B(  4-O ,  5-H ) :   0.8485
B(  6-C ,  7-C ) :   0.8060 B(  6-C , 14-H ) :   0.9867 B(  6-C , 15-H ) :   0.9310
B(  7-C ,  8-C ) :   0.9501 B(  7-C ,  9-N ) :  -0.1348 B(  7-C , 16-H ) :   0.9433
B(  7-C , 17-H ) :   0.9383 B(  8-C ,  9-N ) :   0.9179 B(  8-C , 10-C ) :  -0.1942
B(  8-C , 18-H ) :   0.9494 B(  8-C , 19-H ) :   0.9405 B(  9-N , 10-C ) :   0.8592
B(  9-N , 12-N ) :  -0.2016 B(  9-N , 20-H ) :   1.0505 B( 10-C , 11-N ) :   0.9055
B( 10-C , 12-N ) :   1.4321 B( 11-N , 12-N ) :  -0.1461 B( 11-N , 21-H ) :   1.0352
B( 11-N , 22-H ) :   0.9681 B( 12-N , 23-H ) :   0.9924

MP2 TOTAL ENERGY:     -605.480775338 Eh
FINAL SINGLE POINT ENERGY      -605.480775337832

DIPOLE MOMENT
-------------
                                X             Y             Z
Electronic contribution:     -6.69965      -2.09375      -0.54141
Nuclear contribution   :      6.65605       3.23533       0.62458
                        -----------------------------------------
Total Dipole Moment    :     -0.04360       1.14158       0.08317
                        -----------------------------------------
Magnitude (a.u.)       :      1.14543
Magnitude (Debye)      :      2.91146

Rotational constants in cm-1:     0.093569     0.008735     0.008349
Rotational constants in MHz :  2805.131075   261.878884   250.305366

                             ****ORCA TERMINATED NORMALLY****
TOTAL RUN TIME: 0 days 0 hours 22 minutes 47 seconds 822 msec
