                         Program Version 5.0.3 -  RELEASE  -
|  1> !ri-mp2 aug-cc-pvtz aug-cc-pvtz/c tightscf
|  2> %pal nprocs 16 end
|  3>
|  4> * xyz 0 1
|  5> O     -1.938443    0.000039   -0.123358
|  6> N      1.923699    0.000027    0.086116
|  7> C      0.571151   -0.000066   -0.003646
|  8> C     -0.628026   -0.000043    0.028755
|  9> H      2.378420    0.835039   -0.252203
| 10> H      2.378550   -0.834876   -0.252294
| 11> H     -2.374067   -0.000010    0.737900
| 12> *
| 13>
| 14>                          ****END OF INPUT****

CARTESIAN COORDINATES (ANGSTROEM)
---------------------------------
  O     -1.938443    0.000039   -0.123358
  N      1.923699    0.000027    0.086116
  C      0.571151   -0.000066   -0.003646
  C     -0.628026   -0.000043    0.028755
  H      2.378420    0.835039   -0.252203
  H      2.378550   -0.834876   -0.252294
  H     -2.374067   -0.000010    0.737900

 Total Charge           Charge          ....    0
 Multiplicity           Mult            ....    1
 Number of Electrons    NEL             ....   30
 Basis Dimension        Dim             ....  253

ORBITAL ENERGIES
----------------

  NO   OCC          E(Eh)            E(eV)
   0   2.0000     -20.620865      -561.1223
   1   2.0000     -15.584339      -424.0714
   2   2.0000     -11.269187      -306.6502
   3   2.0000     -11.246711      -306.0386
   4   2.0000      -1.427579       -38.8464
   5   2.0000      -1.217495       -33.1297
   6   2.0000      -0.995095       -27.0779
   7   2.0000      -0.798740       -21.7348
   8   2.0000      -0.718486       -19.5510
   9   2.0000      -0.695160       -18.9163
  10   2.0000      -0.652024       -17.7425
  11   2.0000      -0.600923       -16.3519
  12   2.0000      -0.513407       -13.9705
  13   2.0000      -0.362396        -9.8613
  14   2.0000      -0.335597        -9.1321
  15   0.0000       0.024920         0.6781
  16   0.0000       0.032121         0.8740
  17   0.0000       0.047475         1.2919
  18   0.0000       0.085686         2.3316
  19   0.0000       0.099955         2.7199

MULLIKEN ATOMIC CHARGES
-----------------------
   0 O :   -0.425988
   1 N :   -0.561361
   2 C :    0.711121
   3 C :   -0.347132
   4 H :    0.189442
   5 H :    0.189463
   6 H :    0.244456
Sum of atomic charges:   -0.0000000

LOEWDIN ATOMIC CHARGES
----------------------
   0 O :    0.740345
   1 N :    0.739296
   2 C :   -0.127303
   3 C :   -0.218910
   4 H :   -0.326891
   5 H :   -0.326895
   6 H :   -0.479642

  Mayer bond orders larger than 0.100000
B(  0-O ,  3-C ) :   0.9765 B(  0-O ,  6-H ) :   0.9576 B(  1-N ,  2-C ) :   0.7744
B(  1-N ,  4-H ) :   0.9693 B(  1-N ,  5-H ) :   0.9693 B(  2-C ,  3-C ) :   2.2465

MP2 TOTAL ENERGY:     -207.540221262 Eh
FINAL SINGLE POINT ENERGY      -207.540221262275

DIPOLE MOMENT
-------------
                                X             Y             Z
Electronic contribution:     -2.05227      -0.00009      -0.06655
Nuclear contribution   :      2.33423       0.00015       0.22908
                        -----------------------------------------
Total Dipole Moment    :      0.28196       0.00006       0.16253
                        -----------------------------------------
Magnitude (a.u.)       :      0.32545
Magnitude (Debye)      :      0.82723

Rotational constants in cm-1:     7.092857     0.121601     0.121222
Rotational constants in MHz : 212638.513945  3645.518323  3634.135480

                             ****ORCA TERMINATED NORMALLY****
TOTAL RUN TIME: 0 days 0 hours 0 minutes 58 seconds 375 msec
