                         Program Version 5.0.3 -  RELEASE  -
|  1> !ri-mp2 aug-cc-pvtz aug-cc-pvtz/c tightscf
|  2> %pal nprocs 16 end
|  3>
|  4> * xyz 0 1
|  5> C     -0.078977    0.122141    0.000466
|  6> C      1.411558   -0.089220    0.001120
|  7> N     -0.551941    1.306983    0.008721
|  8> N     -0.819020   -1.045938   -0.060148
|  9> H      1.910931    0.874016    0.006173
| 10> H      1.722528   -0.656817    0.881242
| 11> H      1.720667   -0.651513   -0.881909
| 12> H     -1.571784    1.312848    0.003132
| 13> H     -1.803738   -0.993258    0.139354
| 14> H     -0.377366   -1.910114    0.202483
| 15> *
| 16>
| 17>                          ****END OF INPUT****

CARTESIAN COORDINATES (ANGSTROEM)
---------------------------------
  C     -0.078977    0.122141    0.000466
  C      1.411558   -0.089220    0.001120
  N     -0.551941    1.306983    0.008721
  N     -0.819020   -1.045938   -0.060148
  H      1.910931    0.874016    0.006173
  H      1.722528   -0.656817    0.881242
  H      1.720667   -0.651513   -0.881909
  H     -1.571784    1.312848    0.003132
  H     -1.803738   -0.993258    0.139354
  H     -0.377366   -1.910114    0.202483

 Total Charge           Charge          ....    0
 Multiplicity           Mult            ....    1
 Number of Electrons    NEL             ....   32
 Basis Dimension        Dim             ....  322

ORBITAL ENERGIES
----------------

  NO   OCC          E(Eh)            E(eV)
   0   2.0000     -15.577502      -423.8854
   1   2.0000     -15.517874      -422.2628
   2   2.0000     -11.315010      -307.8971
   3   2.0000     -11.227716      -305.5217
   4   2.0000      -1.260136       -34.2900
   5   2.0000      -1.137817       -30.9616
   6   2.0000      -0.989037       -26.9131
   7   2.0000      -0.780114       -21.2280
   8   2.0000      -0.704717       -19.1763
   9   2.0000      -0.691111       -18.8061
  10   2.0000      -0.596812       -16.2401
  11   2.0000      -0.552249       -15.0275
  12   2.0000      -0.547790       -14.9061
  13   2.0000      -0.497155       -13.5283
  14   2.0000      -0.418949       -11.4002
  15   2.0000      -0.368479       -10.0268
  16   0.0000       0.022605         0.6151
  17   0.0000       0.037314         1.0154
  18   0.0000       0.043159         1.1744
  19   0.0000       0.046012         1.2520
  20   0.0000       0.061390         1.6705

MULLIKEN ATOMIC CHARGES
-----------------------
   0 C :    0.424961
   1 C :   -0.673274
   2 N :   -0.668450
   3 N :   -0.330460
   4 H :    0.318404
   5 H :    0.270664
   6 H :    0.294736
   7 H :    0.106390
   8 H :    0.133821
   9 H :    0.123207
Sum of atomic charges:    0.0000000

LOEWDIN ATOMIC CHARGES
----------------------
   0 C :   -0.471942
   1 C :    0.570014
   2 N :    0.636011
   3 N :    0.853365
   4 H :   -0.186128
   5 H :   -0.172425
   6 H :   -0.170846
   7 H :   -0.445369
   8 H :   -0.303616
   9 H :   -0.309064

  Mayer bond orders larger than 0.100000
B(  0-C ,  1-C ) :   0.7094 B(  0-C ,  2-N ) :   1.2955 B(  0-C ,  3-N ) :   0.9089
B(  1-C ,  4-H ) :   0.9268 B(  1-C ,  5-H ) :   0.9456 B(  1-C ,  6-H ) :   0.9381
B(  2-N ,  7-H ) :   1.0165 B(  3-N ,  8-H ) :   1.0343 B(  3-N ,  9-H ) :   1.0450

MP2 TOTAL ENERGY:     -188.967007571 Eh
FINAL SINGLE POINT ENERGY      -188.967007570752

DIPOLE MOMENT
-------------
                                X             Y             Z
Electronic contribution:     -1.81868       0.76521      -0.09601
Nuclear contribution   :      1.64844      -2.09347       0.36232
                        -----------------------------------------
Total Dipole Moment    :     -0.17024      -1.32826       0.26631
                        -----------------------------------------
Magnitude (a.u.)       :      1.36535
Magnitude (Debye)      :      3.47045

Rotational constants in cm-1:     0.342865     0.307209     0.167402
Rotational constants in MHz : 10278.836911  9209.889222  5018.585921

                             ****ORCA TERMINATED NORMALLY****
TOTAL RUN TIME: 0 days 0 hours 1 minutes 27 seconds 692 msec
