                         Program Version 5.0.3 -  RELEASE  -
|  1> !ri-mp2 aug-cc-pvtz aug-cc-pvtz/c tightscf
|  2> %pal nprocs 16 end
|  3>
|  4> * xyz 0 1
|  5> S     -0.154598    0.797920   -0.000126
|  6> N     -2.619333   -0.626920    0.000187
|  7> N      2.422422   -0.270399    0.000050
|  8> C     -1.619108   -0.044584    0.000062
|  9> C      1.077109   -0.690019   -0.000032
| 10> H      2.715554    0.220385    0.831850
| 11> H      2.715654    0.220307   -0.831658
| 12> H      0.836423   -1.259219   -0.891167
| 13> H      0.836311   -1.259342    0.891152
| 14> *
| 15>
| 16>                          ****END OF INPUT****

CARTESIAN COORDINATES (ANGSTROEM)
---------------------------------
  S     -0.154598    0.797920   -0.000126
  N     -2.619333   -0.626920    0.000187
  N      2.422422   -0.270399    0.000050
  C     -1.619108   -0.044584    0.000062
  C      1.077109   -0.690019   -0.000032
  H      2.715554    0.220385    0.831850
  H      2.715654    0.220307   -0.831658
  H      0.836423   -1.259219   -0.891167
  H      0.836311   -1.259342    0.891152

 Total Charge           Charge          ....    0
 Multiplicity           Mult            ....    1
 Number of Electrons    NEL             ....   46
 Basis Dimension        Dim             ....  326

ORBITAL ENERGIES
----------------

  NO   OCC          E(Eh)            E(eV)
   0   2.0000     -92.004851     -2503.5793
   1   2.0000     -15.592014      -424.2803
   2   2.0000     -15.577190      -423.8769
   3   2.0000     -11.335096      -308.4437
   4   2.0000     -11.293134      -307.3018
   5   2.0000      -9.005109      -245.0415
   6   2.0000      -6.686589      -181.9513
   7   2.0000      -6.684809      -181.9029
   8   2.0000      -6.684029      -181.8817
   9   2.0000      -1.242073       -33.7985
  10   2.0000      -1.223714       -33.2990
  11   2.0000      -1.050513       -28.5859
  12   2.0000      -0.913294       -24.8520
  13   2.0000      -0.735532       -20.0148
  14   2.0000      -0.679859       -18.4999
  15   2.0000      -0.656908       -17.8754
  16   2.0000      -0.593755       -16.1569
  17   2.0000      -0.570269       -15.5178
  18   2.0000      -0.535564       -14.5734
  19   2.0000      -0.515443       -14.0259
  20   2.0000      -0.482541       -13.1306
  21   2.0000      -0.403409       -10.9773
  22   2.0000      -0.379987       -10.3400
  23   0.0000       0.019703         0.5361
  24   0.0000       0.035478         0.9654
  25   0.0000       0.039003         1.0613
  26   0.0000       0.059206         1.6111
  27   0.0000       0.061610         1.6765

MULLIKEN ATOMIC CHARGES
-----------------------
   0 S :   -0.001546
   1 N :   -0.373886
   2 N :   -0.597369
   3 C :    0.095869
   4 C :   -0.124762
   5 H :    0.155033
   6 H :    0.154969
   7 H :    0.345871
   8 H :    0.345820
Sum of atomic charges:    0.0000000

LOEWDIN ATOMIC CHARGES
----------------------
   0 S :    1.089981
   1 N :    0.126951
   2 N :    0.780880
   3 C :   -0.818144
   4 C :   -0.105240
   5 H :   -0.318178
   6 H :   -0.318310
   7 H :   -0.219050
   8 H :   -0.218889

  Mayer bond orders larger than 0.100000
B(  0-S ,  3-C ) :   1.0524 B(  0-S ,  4-C ) :   0.8929 B(  1-N ,  3-C ) :   2.5585
B(  2-N ,  4-C ) :   0.8157 B(  2-N ,  5-H ) :   0.9725 B(  2-N ,  6-H ) :   0.9726
B(  4-C ,  7-H ) :   0.8778 B(  4-C ,  8-H ) :   0.8778

MP2 TOTAL ENERGY:     -585.469797518 Eh
FINAL SINGLE POINT ENERGY      -585.469797517811

DIPOLE MOMENT
-------------
                                X             Y             Z
Electronic contribution:     -5.05742       2.41029      -0.00029
Nuclear contribution   :      6.96749      -2.06622       0.00018
                        -----------------------------------------
Total Dipole Moment    :      1.91008       0.34407      -0.00011
                        -----------------------------------------
Magnitude (a.u.)       :      1.94082
Magnitude (Debye)      :      4.93317

Rotational constants in cm-1:     0.433147     0.069317     0.061051
Rotational constants in MHz : 12985.417527  2078.076367  1830.267113

                             ****ORCA TERMINATED NORMALLY****
TOTAL RUN TIME: 0 days 0 hours 1 minutes 34 seconds 805 msec
