                         Program Version 5.0.3 -  RELEASE  -
|  1> !ri-mp2 aug-cc-pvtz aug-cc-pvtz/c tightscf
|  2> %pal nprocs 16 end
|  3>
|  4> * xyz 0 1
|  5> C      0.434679   -1.920126        0.000000
|  6> C     -0.444755   -0.925478        0.000000
|  7> C      0.000000    0.486809        0.000000
|  8> O      1.141969    0.875860        0.000000
|  9> O     -1.059533    1.335003        0.000000
| 10> H      1.497057   -1.715390        0.000000
| 11> H      0.116437   -2.953067        0.000000
| 12> H     -1.511645   -1.100215        0.000000
| 13> H     -0.700884    2.234531        0.000000
| 14> *
| 15>
| 16>                          ****END OF INPUT****

CARTESIAN COORDINATES (ANGSTROEM)
---------------------------------
  C      0.434679   -1.920126    0.000000
  C     -0.444755   -0.925478    0.000000
  C      0.000000    0.486809    0.000000
  O      1.141969    0.875860    0.000000
  O     -1.059533    1.335003    0.000000
  H      1.497057   -1.715390    0.000000
  H      0.116437   -2.953067    0.000000
  H     -1.511645   -1.100215    0.000000
  H     -0.700884    2.234531    0.000000

 Total Charge           Charge          ....    0
 Multiplicity           Mult            ....    1
 Number of Electrons    NEL             ....   38
 Basis Dimension        Dim             ....  322

ORBITAL ENERGIES
----------------

  NO   OCC          E(Eh)            E(eV)
   0   2.0000     -20.615293      -560.9707
   1   2.0000     -20.549273      -559.1742
   2   2.0000     -11.391345      -309.9742
   3   2.0000     -11.264805      -306.5309
   4   2.0000     -11.254980      -306.2636
   5   2.0000      -1.465701       -39.8837
   6   2.0000      -1.362704       -37.0811
   7   2.0000      -1.085058       -29.5259
   8   2.0000      -0.908628       -24.7250
   9   2.0000      -0.774643       -21.0791
  10   2.0000      -0.717316       -19.5192
  11   2.0000      -0.700463       -19.0606
  12   2.0000      -0.633511       -17.2387
  13   2.0000      -0.626186       -17.0394
  14   2.0000      -0.601066       -16.3558
  15   2.0000      -0.551135       -14.9972
  16   2.0000      -0.492625       -13.4050
  17   2.0000      -0.459206       -12.4956
  18   2.0000      -0.402646       -10.9565
  19   0.0000       0.027787         0.7561
  20   0.0000       0.034132         0.9288
  21   0.0000       0.043351         1.1797
  22   0.0000       0.055579         1.5124
  23   0.0000       0.067373         1.8333

MULLIKEN ATOMIC CHARGES
-----------------------
   0 C :   -0.925905
   1 C :   -0.089523
   2 C :    0.577842
   3 O :   -0.748928
   4 O :   -0.392329
   5 H :    0.412609
   6 H :    0.464103
   7 H :    0.468062
   8 H :    0.234070
Sum of atomic charges:    0.0000000

LOEWDIN ATOMIC CHARGES
----------------------
   0 C :    0.538822
   1 C :    0.162944
   2 C :   -0.848246
   3 O :    0.437185
   4 O :    0.816988
   5 H :   -0.210082
   6 H :   -0.207571
   7 H :   -0.213282
   8 H :   -0.476759

  Mayer bond orders larger than 0.100000
B(  0-C ,  1-C ) :   1.4948 B(  0-C ,  5-H ) :   0.8313 B(  0-C ,  6-H ) :   0.7915
B(  1-C ,  2-C ) :   0.7921 B(  1-C ,  3-O ) :  -0.1044 B(  1-C ,  7-H ) :   0.7924
B(  2-C ,  3-O ) :   1.5741 B(  2-C ,  4-O ) :   1.0248 B(  4-O ,  8-H ) :   0.9619

MP2 TOTAL ENERGY:     -266.719934670 Eh
FINAL SINGLE POINT ENERGY      -266.719934670233

DIPOLE MOMENT
-------------
                                X             Y             Z
Electronic contribution:      0.05477       2.97692       0.00000
Nuclear contribution   :     -0.59196      -3.46548       0.00000
                        -----------------------------------------
Total Dipole Moment    :     -0.53719      -0.48856       0.00000
                        -----------------------------------------
Magnitude (a.u.)       :      0.72613
Magnitude (Debye)      :      1.84568

Rotational constants in cm-1:     0.370300     0.141591     0.102427
Rotational constants in MHz : 11101.328629  4244.798798  3070.670868

                             ****ORCA TERMINATED NORMALLY****
TOTAL RUN TIME: 0 days 0 hours 1 minutes 15 seconds 143 msec
