                         Program Version 5.0.3 -  RELEASE  -
|  1> !ri-mp2 aug-cc-pvtz aug-cc-pvtz/c tightscf
|  2> %pal nprocs 16 end
|  3>
|  4> * xyz 0 1
|  5> C     -0.802490   -0.641917   -0.000049
|  6> C      0.476208    0.129519   -0.000019
|  7> N      1.603597   -0.640957   -0.000091
|  8> O      0.524695    1.347317   -0.000004
|  9> C     -1.976832   -0.024715    0.000041
| 10> H     -0.744777   -1.724573   -0.000141
| 11> H      2.497946   -0.182204    0.000312
| 12> H      1.570738   -1.643448    0.000506
| 13> H     -2.020997    1.056447    0.000120
| 14> H     -2.906961   -0.575387    0.000032
| 15> *
| 16>
| 17>                          ****END OF INPUT****

CARTESIAN COORDINATES (ANGSTROEM)
---------------------------------
  C     -0.802490   -0.641917   -0.000049
  C      0.476208    0.129519   -0.000019
  N      1.603597   -0.640957   -0.000091
  O      0.524695    1.347317   -0.000004
  C     -1.976832   -0.024715    0.000041
  H     -0.744777   -1.724573   -0.000141
  H      2.497946   -0.182204    0.000312
  H      1.570738   -1.643448    0.000506
  H     -2.020997    1.056447    0.000120
  H     -2.906961   -0.575387    0.000032

 Total Charge           Charge          ....    0
 Multiplicity           Mult            ....    1
 Number of Electrons    NEL             ....   38
 Basis Dimension        Dim             ....  345

ORBITAL ENERGIES
----------------

  NO   OCC          E(Eh)            E(eV)
   0   2.0000     -20.516348      -558.2782
   1   2.0000     -15.587801      -424.1656
   2   2.0000     -11.355699      -309.0043
   3   2.0000     -11.253036      -306.2107
   4   2.0000     -11.247239      -306.0529
   5   2.0000      -1.379974       -37.5510
   6   2.0000      -1.213493       -33.0208
   7   2.0000      -1.069029       -29.0898
   8   2.0000      -0.878514       -23.9056
   9   2.0000      -0.772010       -21.0074
  10   2.0000      -0.719767       -19.5859
  11   2.0000      -0.694529       -18.8991
  12   2.0000      -0.616079       -16.7644
  13   2.0000      -0.600492       -16.3402
  14   2.0000      -0.577542       -15.7157
  15   2.0000      -0.540895       -14.7185
  16   2.0000      -0.429694       -11.6926
  17   2.0000      -0.417110       -11.3501
  18   2.0000      -0.391576       -10.6553
  19   0.0000       0.021595         0.5876
  20   0.0000       0.032370         0.8808
  21   0.0000       0.042338         1.1521
  22   0.0000       0.057126         1.5545
  23   0.0000       0.060855         1.6560

MULLIKEN ATOMIC CHARGES
-----------------------
   0 C :    0.023652
   1 C :    0.616681
   2 N :   -0.356472
   3 O :   -0.789814
   4 C :   -1.005616
   5 H :    0.365295
   6 H :    0.133741
   7 H :    0.149968
   8 H :    0.445342
   9 H :    0.417222
Sum of atomic charges:   -0.0000000

LOEWDIN ATOMIC CHARGES
----------------------
   0 C :    0.173210
   1 C :   -0.727754
   2 N :    0.840196
   3 O :    0.420754
   4 C :    0.536803
   5 H :   -0.212106
   6 H :   -0.293686
   7 H :   -0.312503
   8 H :   -0.213942
   9 H :   -0.210972

  Mayer bond orders larger than 0.100000
B(  0-C ,  1-C ) :   0.6696 B(  0-C ,  2-N ) :  -0.1530 B(  0-C ,  3-O ) :  -0.1169
B(  0-C ,  4-C ) :   1.4383 B(  0-C ,  5-H ) :   0.8885 B(  1-C ,  2-N ) :   1.0496
B(  1-C ,  3-O ) :   1.4808 B(  2-N ,  6-H ) :   1.0609 B(  2-N ,  7-H ) :   1.0219
B(  4-C ,  8-H ) :   0.7876 B(  4-C ,  9-H ) :   0.8593

MP2 TOTAL ENERGY:     -246.852607009 Eh
FINAL SINGLE POINT ENERGY      -246.852607008633

DIPOLE MOMENT
-------------
                                X             Y             Z
Electronic contribution:      1.58346       1.54219      -0.00022
Nuclear contribution   :     -1.59279      -3.06404       0.00083
                        -----------------------------------------
Total Dipole Moment    :     -0.00933      -1.52185       0.00061
                        -----------------------------------------
Magnitude (a.u.)       :      1.52188
Magnitude (Debye)      :      3.86831

Rotational constants in cm-1:     0.358857     0.140694     0.101069
Rotational constants in MHz : 10758.275794  4217.885922  3029.960624

                             ****ORCA TERMINATED NORMALLY****
TOTAL RUN TIME: 0 days 0 hours 1 minutes 34 seconds 371 msec
