                         Program Version 5.0.3 -  RELEASE  -
|  1> !ri-mp2 aug-cc-pvtz aug-cc-pvtz/c tightscf
|  2> %pal nprocs 16 end
|  3>
|  4> * xyz 0 1
|  5> C     -0.574872   -0.536672        0.000000
|  6> N     -1.065007   -1.579735        0.000000
|  7> C      0.000000    0.768522        0.000000
|  8> H     -0.704356    1.590862        0.000000
|  9> C      1.313391    0.985354        0.000000
| 10> H      2.024361    0.171397        0.000000
| 11> H      1.703931    1.992659        0.000000
| 12> *
| 13>
| 14>                          ****END OF INPUT****

CARTESIAN COORDINATES (ANGSTROEM)
---------------------------------
  C     -0.574872   -0.536672    0.000000
  N     -1.065007   -1.579735    0.000000
  C      0.000000    0.768522    0.000000
  H     -0.704356    1.590862    0.000000
  C      1.313391    0.985354    0.000000
  H      2.024361    0.171397    0.000000
  H      1.703931    1.992659    0.000000

 Total Charge           Charge          ....    0
 Multiplicity           Mult            ....    1
 Number of Electrons    NEL             ....   28
 Basis Dimension        Dim             ....  253

ORBITAL ENERGIES
----------------

  NO   OCC          E(Eh)            E(eV)
   0   2.0000     -15.576924      -423.8697
   1   2.0000     -11.292870      -307.2946
   2   2.0000     -11.283058      -307.0276
   3   2.0000     -11.280048      -306.9457
   4   2.0000      -1.227869       -33.4120
   5   2.0000      -1.102839       -30.0098
   6   2.0000      -0.888993       -24.1907
   7   2.0000      -0.730168       -19.8689
   8   2.0000      -0.663908       -18.0658
   9   2.0000      -0.587526       -15.9874
  10   2.0000      -0.555722       -15.1220
  11   2.0000      -0.522316       -14.2129
  12   2.0000      -0.472869       -12.8674
  13   2.0000      -0.399787       -10.8787
  14   0.0000       0.021949         0.5973
  15   0.0000       0.035123         0.9558
  16   0.0000       0.043731         1.1900
  17   0.0000       0.059687         1.6242
  18   0.0000       0.079634         2.1670

MULLIKEN ATOMIC CHARGES
-----------------------
   0 C :    0.439442
   1 N :   -0.601815
   2 C :    0.021617
   3 H :    0.380126
   4 C :   -1.075924
   5 H :    0.337989
   6 H :    0.498564
Sum of atomic charges:   -0.0000000

LOEWDIN ATOMIC CHARGES
----------------------
   0 C :   -0.270834
   1 N :    0.250719
   2 C :    0.109565
   3 H :   -0.210626
   4 C :    0.534806
   5 H :   -0.204491
   6 H :   -0.209139

  Mayer bond orders larger than 0.100000
B(  0-C ,  1-N ) :   2.3165 B(  0-C ,  2-C ) :   1.0793 B(  1-N ,  2-C ) :  -0.1313
B(  2-C ,  3-H ) :   0.8407 B(  2-C ,  4-C ) :   1.5747 B(  4-C ,  5-H ) :   0.9863
B(  4-C ,  6-H ) :   0.6560

MP2 TOTAL ENERGY:     -170.493036376 Eh
FINAL SINGLE POINT ENERGY      -170.493036376301

DIPOLE MOMENT
-------------
                                X             Y             Z
Electronic contribution:     -2.09135      -2.23742       0.00000
Nuclear contribution   :      2.99050       3.71191       0.00000
                        -----------------------------------------
Total Dipole Moment    :      0.89915       1.47449       0.00000
                        -----------------------------------------
Magnitude (a.u.)       :      1.72702
Magnitude (Debye)      :      4.38973

Rotational constants in cm-1:     1.716867     0.165861     0.151249
Rotational constants in MHz : 51470.366326  4972.384372  4534.336863

                             ****ORCA TERMINATED NORMALLY****
TOTAL RUN TIME: 0 days 0 hours 0 minutes 44 seconds 833 msec
