                         Program Version 5.0.3 -  RELEASE  -
|  1> !ri-mp2 aug-cc-pvtz aug-cc-pvtz/c tightscf
|  2> %pal nprocs 16 end
|  3> %maxcore 3800
|  4>
|  5> * xyz 0 1
|  6> C      0.000000    0.000000   -0.139949
|  7> C      0.000000    0.000000    1.250982
|  8> C      0.000000    1.278325    1.873143
|  9> C      0.000000   -1.278325    1.873143
| 10> C      0.000000    1.157671   -0.947530
| 11> C      0.000000   -1.157671   -0.947530
| 12> C      0.000000    2.419948    1.100100
| 13> C      0.000000   -2.419948    1.100100
| 14> C      0.000000    2.381426   -0.319988
| 15> C      0.000000   -2.381426   -0.319988
| 16> C      0.000000    0.679125   -2.336932
| 17> C      0.000000   -0.679125   -2.336932
| 18> H      0.000000    3.385258    1.589050
| 19> H      0.000000   -3.385258    1.589050
| 20> H      0.000000    1.356296    2.952947
| 21> H      0.000000   -1.356296    2.952947
| 22> H      0.000000    3.310213   -0.876427
| 23> H      0.000000   -3.310213   -0.876427
| 24> H      0.000000    1.311632   -3.211425
| 25> H      0.000000   -1.311632   -3.211425
| 26> *
| 27>
| 28>                          ****END OF INPUT****

CARTESIAN COORDINATES (ANGSTROEM)
---------------------------------
  C      0.000000    0.000000   -0.139949
  C      0.000000    0.000000    1.250982
  C      0.000000    1.278325    1.873143
  C      0.000000   -1.278325    1.873143
  C      0.000000    1.157671   -0.947530
  C      0.000000   -1.157671   -0.947530
  C      0.000000    2.419948    1.100100
  C      0.000000   -2.419948    1.100100
  C      0.000000    2.381426   -0.319988
  C      0.000000   -2.381426   -0.319988
  C      0.000000    0.679125   -2.336932
  C      0.000000   -0.679125   -2.336932
  H      0.000000    3.385258    1.589050
  H      0.000000   -3.385258    1.589050
  H      0.000000    1.356296    2.952947
  H      0.000000   -1.356296    2.952947
  H      0.000000    3.310213   -0.876427
  H      0.000000   -3.310213   -0.876427
  H      0.000000    1.311632   -3.211425
  H      0.000000   -1.311632   -3.211425

 Total Charge           Charge          ....    0
 Multiplicity           Mult            ....    1
 Number of Electrons    NEL             ....   80
 Basis Dimension        Dim             ....  736

ORBITAL ENERGIES
----------------

  NO   OCC          E(Eh)            E(eV)
   0   2.0000     -11.247500      -306.0600
   1   2.0000     -11.247500      -306.0600
   2   2.0000     -11.244027      -305.9655
   3   2.0000     -11.243857      -305.9609
   4   2.0000     -11.240953      -305.8819
   5   2.0000     -11.239692      -305.8476
   6   2.0000     -11.239247      -305.8355
   7   2.0000     -11.239238      -305.8352
   8   2.0000     -11.238250      -305.8083
   9   2.0000     -11.236939      -305.7727
  10   2.0000     -11.236855      -305.7704
  11   2.0000     -11.214718      -305.1680
  12   2.0000      -1.202043       -32.7093
  13   2.0000      -1.114640       -30.3309
  14   2.0000      -1.113284       -30.2940
  15   2.0000      -1.015621       -27.6365
  16   2.0000      -0.992629       -27.0108
  17   2.0000      -0.977175       -26.5903
  18   2.0000      -0.874623       -23.7997
  19   2.0000      -0.843030       -22.9400
  20   2.0000      -0.792990       -21.5784
  21   2.0000      -0.783533       -21.3210
  22   2.0000      -0.709465       -19.3055
  23   2.0000      -0.694936       -18.9102
  24   2.0000      -0.659643       -17.9498
  25   2.0000      -0.633834       -17.2475
  26   2.0000      -0.615016       -16.7354
  27   2.0000      -0.588674       -16.0186
  28   2.0000      -0.584327       -15.9003
  29   2.0000      -0.560628       -15.2555
  30   2.0000      -0.554434       -15.0869
  31   2.0000      -0.548727       -14.9316
  32   2.0000      -0.514663       -14.0047
  33   2.0000      -0.484619       -13.1872
  34   2.0000      -0.475669       -12.9436
  35   2.0000      -0.453113       -12.3298
  36   2.0000      -0.446739       -12.1564
  37   2.0000      -0.323168        -8.7938
  38   2.0000      -0.303221        -8.2510
  39   2.0000      -0.302165        -8.2223
  40   0.0000       0.029167         0.7937
  41   0.0000       0.029813         0.8112
  42   0.0000       0.031101         0.8463
  43   0.0000       0.040495         1.1019
  44   0.0000       0.040801         1.1102

MULLIKEN ATOMIC CHARGES
-----------------------
   0 C :    1.325828
   1 C :    0.878094
   2 C :   -1.075985
   3 C :   -1.076002
   4 C :    0.730208
   5 C :    0.730192
   6 C :   -0.491853
   7 C :   -0.491924
   8 C :   -0.921911
   9 C :   -0.921881
  10 C :   -0.728194
  11 C :   -0.728148
  12 H :    0.800591
  13 H :    0.800549
  14 H :    0.012529
  15 H :    0.012571
  16 H :   -0.017864
  17 H :   -0.017830
  18 H :    0.590494
  19 H :    0.590533
Sum of atomic charges:   -0.0000000

LOEWDIN ATOMIC CHARGES
----------------------
   0 C :   -0.172474
   1 C :   -0.099102
   2 C :    0.241842
   3 C :    0.241842
   4 C :   -0.105902
   5 C :   -0.105902
   6 C :    0.213224
   7 C :    0.213224
   8 C :    0.253647
   9 C :    0.253647
  10 C :    0.259563
  11 C :    0.259563
  12 H :   -0.191368
  13 H :   -0.191368
  14 H :   -0.178025
  15 H :   -0.178025
  16 H :   -0.177182
  17 H :   -0.177182
  18 H :   -0.180011
  19 H :   -0.180011

  Mayer bond orders larger than 0.100000
B(  0-C ,  1-C ) :  -0.3298 B(  0-C ,  4-C ) :  -0.1515 B(  0-C ,  5-C ) :  -0.1515
B(  0-C ,  6-C ) :  -0.3045 B(  0-C ,  7-C ) :  -0.3044 B(  0-C ,  8-C ) :  -0.1013
B(  0-C ,  9-C ) :  -0.1014 B(  0-C , 10-C ) :   0.2294 B(  0-C , 11-C ) :   0.2294
B(  0-C , 12-H ) :   0.2339 B(  0-C , 13-H ) :   0.2339 B(  0-C , 16-H ) :  -0.2167
B(  0-C , 17-H ) :  -0.2168 B(  1-C ,  2-C ) :   0.1620 B(  1-C ,  3-C ) :   0.1621
B(  1-C ,  6-C ) :   0.4403 B(  1-C ,  7-C ) :   0.4403 B(  1-C ,  8-C ) :   0.1605
B(  1-C ,  9-C ) :   0.1606 B(  1-C , 10-C ) :   0.1164 B(  1-C , 11-C ) :   0.1165
B(  1-C , 14-H ) :  -0.1341 B(  1-C , 15-H ) :  -0.1342 B(  2-C ,  3-C ) :   0.6088
B(  2-C ,  6-C ) :   1.1406 B(  2-C ,  8-C ) :  -0.3230 B(  2-C ,  9-C ) :   0.1105
B(  2-C , 14-H ) :   1.6842 B(  2-C , 16-H ) :   0.2248 B(  3-C ,  7-C ) :   1.1407
B(  3-C ,  8-C ) :   0.1105 B(  3-C ,  9-C ) :  -0.3230 B(  3-C , 15-H ) :   1.6841
B(  3-C , 17-H ) :   0.2248 B(  4-C ,  5-C ) :   0.4066 B(  4-C ,  6-C ) :   0.3852
B(  4-C ,  8-C ) :   0.5127 B(  4-C ,  9-C ) :  -0.1563 B(  4-C , 11-C ) :   0.1072
B(  4-C , 12-H ) :  -0.1407 B(  4-C , 14-H ) :  -0.1250 B(  4-C , 18-H ) :  -0.1415
B(  5-C ,  7-C ) :   0.3851 B(  5-C ,  8-C ) :  -0.1563 B(  5-C ,  9-C ) :   0.5127
B(  5-C , 10-C ) :   0.1072 B(  5-C , 13-H ) :  -0.1408 B(  5-C , 15-H ) :  -0.1249
B(  5-C , 19-H ) :  -0.1415 B(  6-C ,  8-C ) :   0.8015 B(  6-C , 14-H ) :  -0.2438
B(  6-C , 16-H ) :  -0.2319 B(  7-C ,  9-C ) :   0.8016 B(  7-C , 15-H ) :  -0.2437
B(  7-C , 17-H ) :  -0.2319 B(  8-C ,  9-C ) :   0.1064 B(  8-C , 10-C ) :   0.2533
B(  8-C , 14-H ) :   0.2525 B(  8-C , 16-H ) :   1.8339 B(  9-C , 11-C ) :   0.2533
B(  9-C , 15-H ) :   0.2524 B(  9-C , 17-H ) :   1.8338 B( 10-C , 11-C ) :   1.6583
B( 10-C , 12-H ) :   0.1035 B( 10-C , 14-H ) :  -0.1356 B( 10-C , 16-H ) :  -0.2648
B( 10-C , 18-H ) :   0.6172 B( 11-C , 13-H ) :   0.1035 B( 11-C , 15-H ) :  -0.1356
B( 11-C , 17-H ) :  -0.2649 B( 11-C , 19-H ) :   0.6171 B( 12-H , 14-H ) :  -0.1532
B( 12-H , 16-H ) :  -0.1740 B( 13-H , 15-H ) :  -0.1532 B( 13-H , 17-H ) :  -0.1740
B( 14-H , 16-H ) :   0.2135 B( 15-H , 17-H ) :   0.2134 B( 16-H , 17-H ) :   0.1352

MP2 TOTAL ENERGY:     -461.116208788 Eh
FINAL SINGLE POINT ENERGY      -461.116208788328

DIPOLE MOMENT
-------------
                                X             Y             Z
Electronic contribution:      0.00000       0.00000      -0.82634
Nuclear contribution   :      0.00000       0.00000       0.89665
                        -----------------------------------------
Total Dipole Moment    :      0.00000       0.00000       0.07031
                        -----------------------------------------
Magnitude (a.u.)       :      0.07031
Magnitude (Debye)      :      0.17871

Rotational constants in cm-1:     0.050683     0.040936     0.022645
Rotational constants in MHz :  1519.432608  1227.219940   678.891109

                             ****ORCA TERMINATED NORMALLY****
TOTAL RUN TIME: 0 days 0 hours 20 minutes 43 seconds 171 msec
