                         Program Version 5.0.3 -  RELEASE  -
|  1> !ri-mp2 aug-cc-pvtz aug-cc-pvtz/c tightscf
|  2> %pal nprocs 16 end
|  3>
|  4> * xyz 0 1
|  5> C      0.082897    1.078427    0.000000
|  6> C      0.082897   -0.051210    1.054630
|  7> C      0.082897   -0.051210   -1.054630
|  8> N     -0.374490   -0.989590    0.000000
|  9> H     -0.845440    1.645623    0.000000
| 10> H      0.926741    1.763706    0.000000
| 11> H      1.090133   -0.261322    1.431487
| 12> H     -0.597396    0.043257    1.901760
| 13> H     -0.597396    0.043257   -1.901760
| 14> H      1.090133   -0.261322   -1.431487
| 15> H      0.062512   -1.902110    0.000000
| 16> *
| 17>
| 18>                          ****END OF INPUT****

CARTESIAN COORDINATES (ANGSTROEM)
---------------------------------
  C      0.082897    1.078427    0.000000
  C      0.082897   -0.051210    1.054630
  C      0.082897   -0.051210   -1.054630
  N     -0.374490   -0.989590    0.000000
  H     -0.845440    1.645623    0.000000
  H      0.926741    1.763706    0.000000
  H      1.090133   -0.261322    1.431487
  H     -0.597396    0.043257    1.901760
  H     -0.597396    0.043257   -1.901760
  H      1.090133   -0.261322   -1.431487
  H      0.062512   -1.902110    0.000000

 Total Charge           Charge          ....    0
 Multiplicity           Mult            ....    1
 Number of Electrons    NEL             ....   32
 Basis Dimension        Dim             ....  345

ORBITAL ENERGIES
----------------

  NO   OCC          E(Eh)            E(eV)
   0   2.0000     -15.537196      -422.7886
   1   2.0000     -11.247602      -306.0628
   2   2.0000     -11.247600      -306.0628
   3   2.0000     -11.220834      -305.3344
   4   2.0000      -1.224554       -33.3218
   5   2.0000      -0.969470       -26.3806
   6   2.0000      -0.909683       -24.7537
   7   2.0000      -0.764673       -20.8078
   8   2.0000      -0.687812       -18.7163
   9   2.0000      -0.652023       -17.7424
  10   2.0000      -0.551621       -15.0104
  11   2.0000      -0.529245       -14.4015
  12   2.0000      -0.517520       -14.0824
  13   2.0000      -0.469250       -12.7689
  14   2.0000      -0.453557       -12.3419
  15   2.0000      -0.369834       -10.0637
  16   0.0000       0.030263         0.8235
  17   0.0000       0.039020         1.0618
  18   0.0000       0.040485         1.1016
  19   0.0000       0.042450         1.1551
  20   0.0000       0.059798         1.6272

MULLIKEN ATOMIC CHARGES
-----------------------
   0 C :   -0.662682
   1 C :   -0.429404
   2 C :   -0.429404
   3 N :   -0.490454
   4 H :    0.265551
   5 H :    0.330145
   6 H :    0.298497
   7 H :    0.377551
   8 H :    0.377551
   9 H :    0.298497
  10 H :    0.064152
Sum of atomic charges:    0.0000000

LOEWDIN ATOMIC CHARGES
----------------------
   0 C :    0.318195
   1 C :    0.190540
   2 C :    0.190540
   3 N :    0.568965
   4 H :   -0.160169
   5 H :   -0.159811
   6 H :   -0.152098
   7 H :   -0.158110
   8 H :   -0.158110
   9 H :   -0.152098
  10 H :   -0.327845

  Mayer bond orders larger than 0.100000
B(  0-C ,  1-C ) :   1.0242 B(  0-C ,  2-C ) :   1.0242 B(  0-C ,  4-H ) :   0.9450
B(  0-C ,  5-H ) :   0.8719 B(  1-C ,  3-N ) :   0.7906 B(  1-C ,  6-H ) :   0.9196
B(  1-C ,  7-H ) :   0.8454 B(  2-C ,  3-N ) :   0.7906 B(  2-C ,  8-H ) :   0.8454
B(  2-C ,  9-H ) :   0.9196 B(  3-N , 10-H ) :   0.9860

MP2 TOTAL ENERGY:     -172.879503623 Eh
FINAL SINGLE POINT ENERGY      -172.879503623288

DIPOLE MOMENT
-------------
                                X             Y             Z
Electronic contribution:     -0.64704      -1.01049      -0.00000
Nuclear contribution   :      1.18635       1.12130       0.00000
                        -----------------------------------------
Total Dipole Moment    :      0.53931       0.11080      -0.00000
                        -----------------------------------------
Magnitude (a.u.)       :      0.55058
Magnitude (Debye)      :      1.39945

Rotational constants in cm-1:     0.382903     0.380721     0.220264
Rotational constants in MHz : 11479.134176 11413.721908  6603.360783

                             ****ORCA TERMINATED NORMALLY****
TOTAL RUN TIME: 0 days 0 hours 1 minutes 34 seconds 788 msec
