                         Program Version 5.0.3 -  RELEASE  -
|  1> !ri-mp2 aug-cc-pvtz aug-cc-pvtz/c tightscf
|  2> %pal nprocs 16 end
|  3>
|  4> * xyz 0 1
|  5> C      0.000000    1.439760   -0.621675
|  6> C      0.000000    0.686345   -1.839508
|  7> C      0.000000   -0.686345   -1.839508
|  8> C      0.000000   -1.439760   -0.621675
|  9> C      0.000000   -0.673165    2.041672
| 10> C      0.000000    0.673165    2.041672
| 11> C      0.000000    0.709390    0.520531
| 12> C      0.000000   -0.709390    0.520531
| 13> H      0.000000    2.521064   -0.642939
| 14> H      0.000000    1.216563   -2.782280
| 15> H      0.000000   -1.216563   -2.782280
| 16> H      0.000000   -2.521064   -0.642939
| 17> H      0.000000   -1.421348    2.819103
| 18> H      0.000000    1.421348    2.819103
| 19> *
| 20>
| 21>                          ****END OF INPUT****

CARTESIAN COORDINATES (ANGSTROEM)
---------------------------------
  C      0.000000    1.439760   -0.621675
  C      0.000000    0.686345   -1.839508
  C      0.000000   -0.686345   -1.839508
  C      0.000000   -1.439760   -0.621675
  C      0.000000   -0.673165    2.041672
  C      0.000000    0.673165    2.041672
  C      0.000000    0.709390    0.520531
  C      0.000000   -0.709390    0.520531
  H      0.000000    2.521064   -0.642939
  H      0.000000    1.216563   -2.782280
  H      0.000000   -1.216563   -2.782280
  H      0.000000   -2.521064   -0.642939
  H      0.000000   -1.421348    2.819103
  H      0.000000    1.421348    2.819103

 Total Charge           Charge          ....    0
 Multiplicity           Mult            ....    1
 Number of Electrons    NEL             ....   54
 Basis Dimension        Dim             ....  506

ORBITAL ENERGIES
----------------

  NO   OCC          E(Eh)            E(eV)
   0   2.0000     -11.260312      -306.4087
   1   2.0000     -11.258707      -306.3650
   2   2.0000     -11.244153      -305.9690
   3   2.0000     -11.243084      -305.9399
   4   2.0000     -11.232693      -305.6571
   5   2.0000     -11.232665      -305.6564
   6   2.0000     -11.230366      -305.5938
   7   2.0000     -11.229017      -305.5571
   8   2.0000      -1.198159       -32.6036
   9   2.0000      -1.099151       -29.9094
  10   2.0000      -1.015515       -27.6336
  11   2.0000      -0.950134       -25.8545
  12   2.0000      -0.838954       -22.8291
  13   2.0000      -0.817928       -22.2569
  14   2.0000      -0.754439       -20.5293
  15   2.0000      -0.702949       -19.1282
  16   2.0000      -0.650771       -17.7084
  17   2.0000      -0.622899       -16.9499
  18   2.0000      -0.574381       -15.6297
  19   2.0000      -0.562942       -15.3184
  20   2.0000      -0.553060       -15.0495
  21   2.0000      -0.533699       -14.5227
  22   2.0000      -0.478315       -13.0156
  23   2.0000      -0.471485       -12.8298
  24   2.0000      -0.420717       -11.4483
  25   2.0000      -0.346645        -9.4327
  26   2.0000      -0.274934        -7.4813
  27   0.0000       0.029202         0.7946
  28   0.0000       0.031742         0.8637
  29   0.0000       0.033076         0.9000
  30   0.0000       0.044209         1.2030
  31   0.0000       0.047582         1.2948

MULLIKEN ATOMIC CHARGES
-----------------------
   0 C :   -0.900009
   1 C :   -0.423099
   2 C :   -0.423099
   3 C :   -0.900009
   4 C :   -0.688609
   5 C :   -0.688609
   6 C :    0.765742
   7 C :    0.765742
   8 H :    0.271393
   9 H :    0.442799
  10 H :    0.442799
  11 H :    0.271393
  12 H :    0.531782
  13 H :    0.531782
Sum of atomic charges:    0.0000000

LOEWDIN ATOMIC CHARGES
----------------------
   0 C :    0.228964
   1 C :    0.183312
   2 C :    0.183312
   3 C :    0.228964
   4 C :    0.292244
   5 C :    0.292244
   6 C :   -0.131440
   7 C :   -0.131440
   8 H :   -0.191034
   9 H :   -0.195808
  10 H :   -0.195808
  11 H :   -0.191034
  12 H :   -0.186238
  13 H :   -0.186238

  Mayer bond orders larger than 0.100000
B(  0-C ,  1-C ) :   1.0988 B(  0-C ,  4-C ) :   0.1142 B(  0-C ,  6-C ) :   0.8932
B(  0-C ,  8-H ) :   1.1863 B(  1-C ,  2-C ) :   1.2674 B(  1-C ,  7-C ) :   0.1012
B(  1-C ,  9-H ) :   0.8374 B(  1-C , 10-H ) :  -0.1207 B(  2-C ,  3-C ) :   1.0988
B(  2-C ,  6-C ) :   0.1012 B(  2-C ,  9-H ) :  -0.1207 B(  2-C , 10-H ) :   0.8374
B(  3-C ,  5-C ) :   0.1142 B(  3-C ,  7-C ) :   0.8932 B(  3-C , 11-H ) :   1.1863
B(  4-C ,  5-C ) :   1.4698 B(  4-C ,  7-C ) :   0.5838 B(  4-C , 12-H ) :   0.8505
B(  5-C ,  6-C ) :   0.5838 B(  5-C , 13-H ) :   0.8505 B(  6-C ,  7-C ) :   1.1719
B(  6-C , 10-H ) :   0.1173 B(  7-C ,  9-H ) :   0.1173

MP2 TOTAL ENERGY:     -307.700716185 Eh
FINAL SINGLE POINT ENERGY      -307.700716184849

DIPOLE MOMENT
-------------
                                X             Y             Z
Electronic contribution:     -0.00000      -0.00000       1.55084
Nuclear contribution   :      0.00000      -0.00000      -1.20369
                        -----------------------------------------
Total Dipole Moment    :     -0.00000      -0.00000       0.34715
                        -----------------------------------------
Magnitude (a.u.)       :      0.34715
Magnitude (Debye)      :      0.88239

Rotational constants in cm-1:     0.162162     0.073403     0.050530
Rotational constants in MHz :  4861.499657  2200.563360  1514.860175

                             ****ORCA TERMINATED NORMALLY****
TOTAL RUN TIME: 0 days 0 hours 5 minutes 8 seconds 352 msec
