                         Program Version 5.0.3 -  RELEASE  -
|  1> !ri-mp2 aug-cc-pvtz aug-cc-pvtz/c tightscf
|  2> %pal nprocs 16 end
|  3>
|  4> * xyz 0 1
|  5> H      2.844792   -0.788170    0.777220
|  6> H      3.404575    0.345604   -0.245141
|  7> N      2.637944   -0.294370   -0.082906
|  8> H      1.280732    1.064160    0.901267
|  9> H      1.287489    1.091764   -0.849294
| 10> C      1.367895    0.430365    0.012626
| 11> H      0.282574   -1.185743   -0.904827
| 12> H      0.265487   -1.235933    0.844398
| 13> C      0.206748   -0.556935   -0.013182
| 14> O     -1.337293    1.297083    0.023560
| 15> C     -1.152003    0.113743    0.002622
| 16> H     -1.923395   -1.652577   -0.039753
| 17> O     -2.218170   -0.734777   -0.013051
| 18> *
| 19>
| 20>                          ****END OF INPUT****

CARTESIAN COORDINATES (ANGSTROEM)
---------------------------------
  H      2.844792   -0.788170    0.777220
  H      3.404575    0.345604   -0.245141
  N      2.637944   -0.294370   -0.082906
  H      1.280732    1.064160    0.901267
  H      1.287489    1.091764   -0.849294
  C      1.367895    0.430365    0.012626
  H      0.282574   -1.185743   -0.904827
  H      0.265487   -1.235933    0.844398
  C      0.206748   -0.556935   -0.013182
  O     -1.337293    1.297083    0.023560
  C     -1.152003    0.113743    0.002622
  H     -1.923395   -1.652577   -0.039753
  O     -2.218170   -0.734777   -0.013051

 Total Charge           Charge          ....    0
 Multiplicity           Mult            ....    1
 Number of Electrons    NEL             ....   48
 Basis Dimension        Dim             ....  437

ORBITAL ENERGIES
----------------

  NO   OCC          E(Eh)            E(eV)
   0   2.0000     -20.613124      -560.9116
   1   2.0000     -20.547173      -559.1170
   2   2.0000     -15.554043      -423.2470
   3   2.0000     -11.386778      -309.8500
   4   2.0000     -11.264668      -306.5272
   5   2.0000     -11.258015      -306.3462
   6   2.0000      -1.459833       -39.7241
   7   2.0000      -1.366100       -37.1735
   8   2.0000      -1.193690       -32.4820
   9   2.0000      -1.045702       -28.4550
  10   2.0000      -0.880634       -23.9633
  11   2.0000      -0.819457       -22.2986
  12   2.0000      -0.728966       -19.8362
  13   2.0000      -0.685702       -18.6589
  14   2.0000      -0.664158       -18.0727
  15   2.0000      -0.644198       -17.5295
  16   2.0000      -0.622931       -16.9508
  17   2.0000      -0.597289       -16.2531
  18   2.0000      -0.563234       -15.3264
  19   2.0000      -0.534709       -14.5502
  20   2.0000      -0.511140       -13.9088
  21   2.0000      -0.482466       -13.1286
  22   2.0000      -0.452750       -12.3200
  23   2.0000      -0.405524       -11.0349
  24   0.0000       0.021049         0.5728
  25   0.0000       0.029616         0.8059
  26   0.0000       0.038316         1.0426
  27   0.0000       0.045860         1.2479
  28   0.0000       0.055488         1.5099

MULLIKEN ATOMIC CHARGES
-----------------------
   0 H :    0.101249
   1 H :    0.096911
   2 N :   -0.602598
   3 H :    0.291680
   4 H :    0.298584
   5 C :   -0.117300
   6 H :    0.301977
   7 H :    0.267236
   8 C :   -0.219874
   9 O :   -0.708701
  10 C :    0.525089
  11 H :    0.216778
  12 O :   -0.451031
Sum of atomic charges:   -0.0000000

LOEWDIN ATOMIC CHARGES
----------------------
   0 H :   -0.326465
   1 H :   -0.325728
   2 N :    0.839635
   3 H :   -0.146393
   4 H :   -0.152086
   5 C :    0.139281
   6 H :   -0.150638
   7 H :   -0.150571
   8 C :    0.263753
   9 O :    0.449041
  10 C :   -0.780457
  11 H :   -0.488465
  12 O :    0.829093

  Mayer bond orders larger than 0.100000
B(  0-H ,  2-N ) :   1.0011 B(  1-H ,  2-N ) :   1.0045 B(  2-N ,  5-C ) :   0.7168
B(  3-H ,  5-C ) :   0.9261 B(  4-H ,  5-C ) :   0.9208 B(  5-C ,  8-C ) :   0.9390
B(  6-H ,  8-C ) :   0.9015 B(  7-H ,  8-C ) :   0.9272 B(  8-C , 10-C ) :   0.6453
B(  9-O , 10-C ) :   1.5171 B( 10-C , 12-O ) :   0.8557 B( 11-H , 12-O ) :   0.9481

MP2 TOTAL ENERGY:     -323.198634260 Eh
FINAL SINGLE POINT ENERGY      -323.198634259778

DIPOLE MOMENT
-------------
                                X             Y             Z
Electronic contribution:     -6.41775       1.17871      -0.14061
Nuclear contribution   :      7.48921      -2.38159       0.48927
                        -----------------------------------------
Total Dipole Moment    :      1.07147      -1.20288       0.34865
                        -----------------------------------------
Magnitude (a.u.)       :      1.64818
Magnitude (Debye)      :      4.18935

Rotational constants in cm-1:     0.304285     0.061500     0.052386
Rotational constants in MHz :  9122.234882  1843.737930  1570.494781

                             ****ORCA TERMINATED NORMALLY****
TOTAL RUN TIME: 0 days 0 hours 2 minutes 38 seconds 472 msec
