                         Program Version 5.0.3 -  RELEASE  -
|  1> !ri-mp2 aug-cc-pvtz aug-cc-pvtz/c tightscf
|  2> %pal nprocs 16 end
|  3> %maxcore 3800
|  4>
|  5> * xyz 0 1
|  6> C      0.322882   -1.211271    0.752902
|  7> C      0.322882   -1.211271   -0.752902
|  8> C     -0.466950   -2.251492    0.000000
|  9> C     -0.345255   -0.092908    1.527147
| 10> C     -0.345255   -0.092908   -1.527147
| 11> C      0.322882    1.274175    1.311568
| 12> C      0.322882    1.274175   -1.311568
| 13> C     -0.056876    1.976267    0.000000
| 14> H      1.240243   -1.564633   -1.210344
| 15> H     -0.116933   -3.274616    0.000000
| 16> H     -1.545089   -2.152272    0.000000
| 17> H     -1.402559   -0.021790    1.258165
| 18> H     -0.326225   -0.345142    2.590759
| 19> H     -0.326225   -0.345142   -2.590759
| 20> H     -1.402559   -0.021790   -1.258165
| 21> H      0.048720    1.937680    2.136366
| 22> H      1.410002    1.155998    1.365948
| 23> H      1.410002    1.155998   -1.365948
| 24> H      0.048720    1.937680   -2.136366
| 25> H     -1.139984    2.143490    0.000000
| 26> H      0.398488    2.970578    0.000000
| 27> H      1.240243   -1.564633    1.210344
| 28> *
| 29>
| 30>                          ****END OF INPUT****

CARTESIAN COORDINATES (ANGSTROEM)
---------------------------------
  C      0.322882   -1.211271    0.752902
  C      0.322882   -1.211271   -0.752902
  C     -0.466950   -2.251492    0.000000
  C     -0.345255   -0.092908    1.527147
  C     -0.345255   -0.092908   -1.527147
  C      0.322882    1.274175    1.311568
  C      0.322882    1.274175   -1.311568
  C     -0.056876    1.976267    0.000000
  H      1.240243   -1.564633   -1.210344
  H     -0.116933   -3.274616    0.000000
  H     -1.545089   -2.152272    0.000000
  H     -1.402559   -0.021790    1.258165
  H     -0.326225   -0.345142    2.590759
  H     -0.326225   -0.345142   -2.590759
  H     -1.402559   -0.021790   -1.258165
  H      0.048720    1.937680    2.136366
  H      1.410002    1.155998    1.365948
  H      1.410002    1.155998   -1.365948
  H      0.048720    1.937680   -2.136366
  H     -1.139984    2.143490    0.000000
  H      0.398488    2.970578    0.000000
  H      1.240243   -1.564633    1.210344

 Total Charge           Charge          ....    0
 Multiplicity           Mult            ....    1
 Number of Electrons    NEL             ....   62
 Basis Dimension        Dim             ....  690

ORBITAL ENERGIES
----------------

  NO   OCC          E(Eh)            E(eV)
   0   2.0000     -11.219734      -305.3045
   1   2.0000     -11.219002      -305.2846
   2   2.0000     -11.215245      -305.1823
   3   2.0000     -11.215111      -305.1787
   4   2.0000     -11.215100      -305.1784
   5   2.0000     -11.213314      -305.1298
   6   2.0000     -11.212694      -305.1129
   7   2.0000     -11.212407      -305.1051
   8   2.0000      -1.151234       -31.3267
   9   2.0000      -1.065324       -28.9889
  10   2.0000      -1.023635       -27.8545
  11   2.0000      -0.925108       -25.1735
  12   2.0000      -0.870237       -23.6804
  13   2.0000      -0.801170       -21.8010
  14   2.0000      -0.768215       -20.9042
  15   2.0000      -0.729246       -19.8438
  16   2.0000      -0.668803       -18.1991
  17   2.0000      -0.632584       -17.2135
  18   2.0000      -0.615687       -16.7537
  19   2.0000      -0.583390       -15.8748
  20   2.0000      -0.559670       -15.2294
  21   2.0000      -0.556605       -15.1460
  22   2.0000      -0.516886       -14.0652
  23   2.0000      -0.510180       -13.8827
  24   2.0000      -0.504267       -13.7218
  25   2.0000      -0.464998       -12.6532
  26   2.0000      -0.460349       -12.5267
  27   2.0000      -0.456012       -12.4087
  28   2.0000      -0.446422       -12.1478
  29   2.0000      -0.393033       -10.6950
  30   2.0000      -0.379804       -10.3350
  31   0.0000       0.030166         0.8209
  32   0.0000       0.033684         0.9166
  33   0.0000       0.034105         0.9280
  34   0.0000       0.036220         0.9856
  35   0.0000       0.047884         1.3030

MULLIKEN ATOMIC CHARGES
-----------------------
   0 C :   -0.136832
   1 C :   -0.136832
   2 C :   -1.248306
   3 C :   -0.249723
   4 C :   -0.249723
   5 C :   -0.527619
   6 C :   -0.527619
   7 C :   -0.386956
   8 H :    0.432648
   9 H :    0.504508
  10 H :    0.082531
  11 H :    0.151674
  12 H :    0.217647
  13 H :    0.217647
  14 H :    0.151674
  15 H :    0.260399
  16 H :    0.127762
  17 H :    0.127762
  18 H :    0.260399
  19 H :    0.183895
  20 H :    0.312418
  21 H :    0.432648
Sum of atomic charges:   -0.0000000

LOEWDIN ATOMIC CHARGES
----------------------
   0 C :    0.057017
   1 C :    0.057017
   2 C :    0.400877
   3 C :    0.306914
   4 C :    0.306914
   5 C :    0.302085
   6 C :    0.302085
   7 C :    0.294375
   8 H :   -0.130420
   9 H :   -0.155889
  10 H :   -0.156487
  11 H :   -0.149607
  12 H :   -0.142463
  13 H :   -0.142463
  14 H :   -0.149607
  15 H :   -0.148221
  16 H :   -0.140338
  17 H :   -0.140338
  18 H :   -0.148221
  19 H :   -0.145511
  20 H :   -0.147298
  21 H :   -0.130420

  Mayer bond orders larger than 0.100000
B(  0-C ,  1-C ) :   0.3601 B(  0-C ,  2-C ) :   0.9655 B(  0-C ,  3-C ) :   0.7873
B(  0-C ,  5-C ) :   0.1127 B(  0-C , 21-H ) :   0.6467 B(  1-C ,  2-C ) :   0.9655
B(  1-C ,  4-C ) :   0.7873 B(  1-C ,  6-C ) :   0.1127 B(  1-C ,  8-H ) :   0.6467
B(  2-C ,  9-H ) :   0.5588 B(  2-C , 10-H ) :   1.2478 B(  3-C ,  5-C ) :   0.9229
B(  3-C , 11-H ) :   1.0769 B(  3-C , 12-H ) :   0.9775 B(  4-C ,  6-C ) :   0.9229
B(  4-C , 13-H ) :   0.9775 B(  4-C , 14-H ) :   1.0769 B(  5-C ,  7-C ) :   0.8474
B(  5-C , 15-H ) :   0.9479 B(  5-C , 16-H ) :   1.0841 B(  6-C ,  7-C ) :   0.8474
B(  6-C , 17-H ) :   1.0841 B(  6-C , 18-H ) :   0.9479 B(  7-C , 19-H ) :   1.0320
B(  7-C , 20-H ) :   0.9148

MP2 TOTAL ENERGY:     -312.563154936 Eh
FINAL SINGLE POINT ENERGY      -312.563154935666

DIPOLE MOMENT
-------------
                                X             Y             Z
Electronic contribution:      0.52752      -2.06973       0.00000
Nuclear contribution   :     -0.48938       2.12531      -0.00000
                        -----------------------------------------
Total Dipole Moment    :      0.03814       0.05557       0.00000
                        -----------------------------------------
Magnitude (a.u.)       :      0.06740
Magnitude (Debye)      :      0.17132

Rotational constants in cm-1:     0.100211     0.066798     0.045395
Rotational constants in MHz :  3004.259896  2002.538777  1360.913889

                             ****ORCA TERMINATED NORMALLY****
TOTAL RUN TIME: 0 days 0 hours 13 minutes 25 seconds 269 msec
