                         Program Version 5.0.3 -  RELEASE  -
|  1> !ri-mp2 aug-cc-pvtz aug-cc-pvtz/c tightscf
|  2> %pal nprocs 16 end
|  3>
|  4> * xyz 0 1
|  5> C      0.307786   -2.544530        0.000000
|  6> C      1.429809   -1.720826        0.000000
|  7> C     -0.966751   -1.987681        0.000000
|  8> C      1.277760   -0.342753        0.000000
|  9> C     -1.123948   -0.608404        0.000000
| 10> C      0.000000    0.220374        0.000000
| 11> C     -0.110623    1.700856        0.000000
| 12> O      0.823931    2.465863        0.000000
| 13> O     -1.394622    2.140425        0.000000
| 14> H      0.427051   -3.619739        0.000000
| 15> H      2.420556   -2.154119        0.000000
| 16> H     -1.837930   -2.628373        0.000000
| 17> H      2.135639    0.314086        0.000000
| 18> H     -2.111190   -0.171656        0.000000
| 19> H     -1.352794    3.107284        0.000000
| 20> *
| 21>
| 22>                          ****END OF INPUT****

CARTESIAN COORDINATES (ANGSTROEM)
---------------------------------
  C      0.307786   -2.544530    0.000000
  C      1.429809   -1.720826    0.000000
  C     -0.966751   -1.987681    0.000000
  C      1.277760   -0.342753    0.000000
  C     -1.123948   -0.608404    0.000000
  C      0.000000    0.220374    0.000000
  C     -0.110623    1.700856    0.000000
  O      0.823931    2.465863    0.000000
  O     -1.394622    2.140425    0.000000
  H      0.427051   -3.619739    0.000000
  H      2.420556   -2.154119    0.000000
  H     -1.837930   -2.628373    0.000000
  H      2.135639    0.314086    0.000000
  H     -2.111190   -0.171656    0.000000
  H     -1.352794    3.107284    0.000000

 Total Charge           Charge          ....    0
 Multiplicity           Mult            ....    1
 Number of Electrons    NEL             ....   64
 Basis Dimension        Dim             ....  552

ORBITAL ENERGIES
----------------

  NO   OCC          E(Eh)            E(eV)
   0   2.0000     -20.613981      -560.9349
   1   2.0000     -20.548794      -559.1611
   2   2.0000     -11.391304      -309.9731
   3   2.0000     -11.257259      -306.3256
   4   2.0000     -11.255751      -306.2845
   5   2.0000     -11.255650      -306.2818
   6   2.0000     -11.252956      -306.2085
   7   2.0000     -11.246814      -306.0414
   8   2.0000     -11.246084      -306.0215
   9   2.0000      -1.466197       -39.8973
  10   2.0000      -1.361834       -37.0574
  11   2.0000      -1.173368       -31.9290
  12   2.0000      -1.051898       -28.6236
  13   2.0000      -1.033202       -28.1149
  14   2.0000      -0.901318       -24.5261
  15   2.0000      -0.846121       -23.0241
  16   2.0000      -0.804516       -21.8920
  17   2.0000      -0.733989       -19.9729
  18   2.0000      -0.706398       -19.2221
  19   2.0000      -0.677895       -18.4465
  20   2.0000      -0.641921       -17.4676
  21   2.0000      -0.635326       -17.2881
  22   2.0000      -0.629235       -17.1224
  23   2.0000      -0.605934       -16.4883
  24   2.0000      -0.588042       -16.0014
  25   2.0000      -0.528853       -14.3908
  26   2.0000      -0.520955       -14.1759
  27   2.0000      -0.508627       -13.8404
  28   2.0000      -0.486559       -13.2400
  29   2.0000      -0.458231       -12.4691
  30   2.0000      -0.356789        -9.7087
  31   2.0000      -0.351787        -9.5726
  32   0.0000       0.025723         0.7000
  33   0.0000       0.031485         0.8568
  34   0.0000       0.035132         0.9560
  35   0.0000       0.045060         1.2261
  36   0.0000       0.052619         1.4318

MULLIKEN ATOMIC CHARGES
-----------------------
   0 C :   -0.260483
   1 C :   -0.488795
   2 C :   -0.634553
   3 C :   -1.040877
   4 C :   -0.755526
   5 C :    1.772184
   6 C :    0.496980
   7 O :   -0.871938
   8 O :   -0.453347
   9 H :    0.419274
  10 H :    0.492651
  11 H :    0.489047
  12 H :    0.276110
  13 H :    0.298789
  14 H :    0.260485
Sum of atomic charges:   -0.0000000

LOEWDIN ATOMIC CHARGES
----------------------
   0 C :    0.207088
   1 C :    0.212005
   2 C :    0.209113
   3 C :    0.207464
   4 C :    0.208303
   5 C :   -0.137407
   6 C :   -0.800220
   7 O :    0.454644
   8 O :    0.832653
   9 H :   -0.178559
  10 H :   -0.183742
  11 H :   -0.184413
  12 H :   -0.182940
  13 H :   -0.192250
  14 H :   -0.471737

  Mayer bond orders larger than 0.100000
B(  0-C ,  1-C ) :   1.1397 B(  0-C ,  2-C ) :   1.1627 B(  0-C ,  9-H ) :   0.8896
B(  1-C ,  3-C ) :   1.2799 B(  1-C ,  9-H ) :  -0.1388 B(  1-C , 10-H ) :   0.7728
B(  2-C ,  4-C ) :   1.2303 B(  2-C ,  9-H ) :  -0.1638 B(  2-C , 11-H ) :   0.7788
B(  3-C ,  5-C ) :   0.2685 B(  3-C ,  6-C ) :   0.2219 B(  3-C ,  9-H ) :   0.1584
B(  3-C , 10-H ) :  -0.1523 B(  3-C , 12-H ) :   1.0565 B(  4-C ,  5-C ) :   0.3547
B(  4-C ,  6-C ) :   0.2066 B(  4-C ,  9-H ) :   0.1008 B(  4-C , 11-H ) :  -0.1174
B(  4-C , 13-H ) :   1.0932 B(  5-C ,  6-C ) :   0.2356 B(  5-C , 12-H ) :  -0.1074
B(  6-C ,  7-O ) :   1.2089 B(  6-C ,  8-O ) :   0.9624 B(  8-O , 14-H ) :   0.9210

MP2 TOTAL ENERGY:     -420.062136795 Eh
FINAL SINGLE POINT ENERGY      -420.062136795193

DIPOLE MOMENT
-------------
                                X             Y             Z
Electronic contribution:     -0.18549       4.21254      -0.00000
Nuclear contribution   :     -0.32250      -4.99978       0.00000
                        -----------------------------------------
Total Dipole Moment    :     -0.50798      -0.78723      -0.00000
                        -----------------------------------------
Magnitude (a.u.)       :      0.93690
Magnitude (Debye)      :      2.38141

Rotational constants in cm-1:     0.129986     0.040954     0.031142
Rotational constants in MHz :  3896.878269  1227.770858   933.619738

                             ****ORCA TERMINATED NORMALLY****
TOTAL RUN TIME: 0 days 0 hours 6 minutes 47 seconds 549 msec
