                         Program Version 5.0.3 -  RELEASE  -
|  1> !ri-mp2 aug-cc-pvtz aug-cc-pvtz/c tightscf
|  2> %pal nprocs 16 end
|  3>
|  4> * xyz 0 1
|  5> F     3.940309   -0.700508    0.000001
|  6> O     0.078593   -0.377057    0.000001
|  7> O     2.113751    0.544697    0.000000
|  8> O     0.337726    1.902359   -0.000003
|  9> C     0.818126    0.821984    0.000000
| 10> C    -1.226279   -0.291508    0.000001
| 11> C     2.589453   -0.807507    0.000001
| 12> C    -2.427483   -0.308785    0.000000
| 13> C    -3.790073   -0.312892    0.000000
| 14> C    -4.994397   -0.317938    0.000000
| 15> H     2.268129   -1.318104    0.905799
| 16> H     2.268129   -1.318107   -0.905795
| 17> H    -6.055687   -0.319329    0.000000
| 18> *
| 19>
| 20>                          ****END OF INPUT****

CARTESIAN COORDINATES (ANGSTROEM)
---------------------------------
  F      3.940309   -0.700508    0.000001
  O      0.078593   -0.377057    0.000001
  O      2.113751    0.544697    0.000000
  O      0.337726    1.902359   -0.000003
  C      0.818126    0.821984    0.000000
  C     -1.226279   -0.291508    0.000001
  C      2.589453   -0.807507    0.000001
  C     -2.427483   -0.308785    0.000000
  C     -3.790073   -0.312892    0.000000
  C     -4.994397   -0.317938    0.000000
  H      2.268129   -1.318104    0.905799
  H      2.268129   -1.318107   -0.905795
  H     -6.055687   -0.319329    0.000000

 Total Charge           Charge          ....    0
 Multiplicity           Mult            ....    1
 Number of Electrons    NEL             ....   72
 Basis Dimension        Dim             ....  529

ORBITAL ENERGIES
----------------

  NO   OCC          E(Eh)            E(eV)
   0   2.0000     -26.332546      -716.5450
   1   2.0000     -20.697034      -563.1949
   2   2.0000     -20.662091      -562.2441
   3   2.0000     -20.592974      -560.3633
   4   2.0000     -11.487351      -312.5867
   5   2.0000     -11.418938      -310.7251
   6   2.0000     -11.334995      -308.4409
   7   2.0000     -11.272301      -306.7349
   8   2.0000     -11.267509      -306.6045
   9   2.0000     -11.256682      -306.3099
  10   2.0000      -1.655922       -45.0599
  11   2.0000      -1.564755       -42.5791
  12   2.0000      -1.470240       -40.0073
  13   2.0000      -1.428741       -38.8780
  14   2.0000      -1.102151       -29.9911
  15   2.0000      -1.037526       -28.2325
  16   2.0000      -1.016826       -27.6692
  17   2.0000      -0.939360       -25.5613
  18   2.0000      -0.842089       -22.9144
  19   2.0000      -0.825430       -22.4611
  20   2.0000      -0.789247       -21.4765
  21   2.0000      -0.776076       -21.1181
  22   2.0000      -0.736513       -20.0415
  23   2.0000      -0.727954       -19.8086
  24   2.0000      -0.717337       -19.5197
  25   2.0000      -0.695213       -18.9177
  26   2.0000      -0.661921       -18.0118
  27   2.0000      -0.644504       -17.5378
  28   2.0000      -0.607014       -16.5177
  29   2.0000      -0.584060       -15.8931
  30   2.0000      -0.526160       -14.3176
  31   2.0000      -0.509562       -13.8659
  32   2.0000      -0.495124       -13.4730
  33   2.0000      -0.490310       -13.3420
  34   2.0000      -0.374024       -10.1777
  35   2.0000      -0.365378        -9.9424
  36   0.0000       0.023307         0.6342
  37   0.0000       0.028453         0.7742
  38   0.0000       0.037695         1.0257
  39   0.0000       0.057825         1.5735
  40   0.0000       0.059591         1.6215

MULLIKEN ATOMIC CHARGES
-----------------------
   0 F :   -0.439047
   1 O :   -0.126529
   2 O :   -0.306017
   3 O :   -0.563700
   4 C :    0.429289
   5 C :   -0.192023
   6 C :    0.062348
   7 C :    1.174964
   8 C :   -0.226289
   9 C :   -0.956750
  10 H :    0.383008
  11 H :    0.383008
  12 H :    0.377738
Sum of atomic charges:    0.0000000

LOEWDIN ATOMIC CHARGES
----------------------
   0 F :    0.489656
   1 O :    0.504885
   2 O :    0.558717
   3 O :    0.460062
   4 C :   -1.060171
   5 C :   -0.202027
   6 C :   -0.313113
   7 C :   -0.077172
   8 C :   -0.109620
   9 C :    0.398793
  10 H :   -0.179890
  11 H :   -0.179890
  12 H :   -0.290231

  Mayer bond orders larger than 0.100000
B(  0-F ,  6-C ) :   0.7531 B(  1-O ,  4-C ) :   1.1021 B(  1-O ,  5-C ) :   0.6803
B(  1-O ,  7-C ) :  -0.2297 B(  2-O ,  4-C ) :   1.1155 B(  2-O ,  6-C ) :   0.7932
B(  3-O ,  4-C ) :   1.8044 B(  5-C ,  8-C ) :  -0.8832 B(  5-C ,  9-C ) :   2.2463
B(  5-C , 12-H ) :   0.1168 B(  6-C , 10-H ) :   0.8641 B(  6-C , 11-H ) :   0.8641
B(  7-C ,  8-C ) :   2.5152 B(  7-C ,  9-C ) :  -1.6860 B(  7-C , 12-H ) :  -0.1200
B(  8-C ,  9-C ) :   1.3625 B(  8-C , 12-H ) :  -0.1565 B(  9-C , 12-H ) :   1.0683

MP2 TOTAL ENERGY:     -554.922327678 Eh
FINAL SINGLE POINT ENERGY      -554.922327678208

DIPOLE MOMENT
-------------
                                X             Y             Z
Electronic contribution:      4.89962       0.87131       0.00000
Nuclear contribution   :     -5.11150      -2.12332       0.00000
                        -----------------------------------------
Total Dipole Moment    :     -0.21188      -1.25200       0.00000
                        -----------------------------------------
Magnitude (a.u.)       :      1.26981
Magnitude (Debye)      :      3.22759

Rotational constants in cm-1:     0.168626     0.015803     0.014490
Rotational constants in MHz :  5055.289341   473.773188   434.408372

                             ****ORCA TERMINATED NORMALLY****
TOTAL RUN TIME: 0 days 0 hours 4 minutes 39 seconds 575 msec
