                         Program Version 5.0.3 -  RELEASE  -
|  1> !ri-mp2 aug-cc-pvtz aug-cc-pvtz/c tightscf
|  2> %pal nprocs 16 end
|  3>
|  4> * xyz 0 1
|  5> C      2.419842   -0.781506        0.000000
|  6> C      2.384977    0.620139        0.000000
|  7> C      1.250934   -1.517608        0.000000
|  8> C      1.179130    1.298960        0.000000
|  9> C     -1.312092   -1.405181        0.000000
| 10> C     -2.275718   -0.456495        0.000000
| 11> C      0.014337   -0.856085        0.000000
| 12> C      0.000000    0.556152        0.000000
| 13> S     -1.639275    1.165435        0.000000
| 14> H      3.374674   -1.289610        0.000000
| 15> H      3.311216    1.178597        0.000000
| 16> H      1.282913   -2.599422        0.000000
| 17> H      1.154241    2.380060        0.000000
| 18> H     -1.519954   -2.465202        0.000000
| 19> H     -3.343153   -0.601646        0.000000
| 20> *
| 21>
| 22>                          ****END OF INPUT****

CARTESIAN COORDINATES (ANGSTROEM)
---------------------------------
  C      2.419842   -0.781506    0.000000
  C      2.384977    0.620139    0.000000
  C      1.250934   -1.517608    0.000000
  C      1.179130    1.298960    0.000000
  C     -1.312092   -1.405181    0.000000
  C     -2.275718   -0.456495    0.000000
  C      0.014337   -0.856085    0.000000
  C      0.000000    0.556152    0.000000
  S     -1.639275    1.165435    0.000000
  H      3.374674   -1.289610    0.000000
  H      3.311216    1.178597    0.000000
  H      1.282913   -2.599422    0.000000
  H      1.154241    2.380060    0.000000
  H     -1.519954   -2.465202    0.000000
  H     -3.343153   -0.601646    0.000000

 Total Charge           Charge          ....    0
 Multiplicity           Mult            ....    1
 Number of Electrons    NEL             ....   70
 Basis Dimension        Dim             ....  556

ORBITAL ENERGIES
----------------

  NO   OCC          E(Eh)            E(eV)
   0   2.0000     -91.981330     -2502.9392
   1   2.0000     -11.270292      -306.6802
   2   2.0000     -11.270269      -306.6796
   3   2.0000     -11.247683      -306.0650
   4   2.0000     -11.244437      -305.9767
   5   2.0000     -11.242373      -305.9205
   6   2.0000     -11.241557      -305.8983
   7   2.0000     -11.239371      -305.8388
   8   2.0000     -11.236798      -305.7688
   9   2.0000      -8.981444      -244.3975
  10   2.0000      -6.662519      -181.2964
  11   2.0000      -6.661958      -181.2811
  12   2.0000      -6.661073      -181.2570
  13   2.0000      -1.192878       -32.4599
  14   2.0000      -1.115148       -30.3447
  15   2.0000      -1.042933       -28.3796
  16   2.0000      -0.990570       -26.9548
  17   2.0000      -0.960227       -26.1291
  18   2.0000      -0.841932       -22.9101
  19   2.0000      -0.799982       -21.7686
  20   2.0000      -0.773950       -21.0602
  21   2.0000      -0.688409       -18.7326
  22   2.0000      -0.661661       -18.0047
  23   2.0000      -0.641085       -17.4448
  24   2.0000      -0.598965       -16.2987
  25   2.0000      -0.596647       -16.2356
  26   2.0000      -0.550104       -14.9691
  27   2.0000      -0.545324       -14.8390
  28   2.0000      -0.513567       -13.9749
  29   2.0000      -0.501679       -13.6514
  30   2.0000      -0.466977       -12.7071
  31   2.0000      -0.458504       -12.4765
  32   2.0000      -0.389669       -10.6034
  33   2.0000      -0.318546        -8.6681
  34   2.0000      -0.300426        -8.1750
  35   0.0000       0.029169         0.7937
  36   0.0000       0.030306         0.8247
  37   0.0000       0.034983         0.9519
  38   0.0000       0.043875         1.1939
  39   0.0000       0.048488         1.3194

MULLIKEN ATOMIC CHARGES
-----------------------
   0 C :   -0.473775
   1 C :   -0.205760
   2 C :   -1.108764
   3 C :   -1.072937
   4 C :   -0.896217
   5 C :   -0.460834
   6 C :    1.165045
   7 C :    0.876031
   8 S :   -0.453070
   9 H :    0.587487
  10 H :    0.477911
  11 H :    0.111945
  12 H :    0.446294
  13 H :    0.516024
  14 H :    0.490619
Sum of atomic charges:   -0.0000000

LOEWDIN ATOMIC CHARGES
----------------------
   0 C :    0.192538
   1 C :    0.186980
   2 C :    0.216260
   3 C :    0.143366
   4 C :    0.110607
   5 C :   -0.172389
   6 C :   -0.236745
   7 C :   -0.507402
   8 S :    1.258692
   9 H :   -0.188483
  10 H :   -0.188023
  11 H :   -0.178397
  12 H :   -0.192300
  13 H :   -0.185460
  14 H :   -0.259247

  Mayer bond orders larger than 0.100000
B(  0-C ,  1-C ) :   0.9075 B(  0-C ,  2-C ) :   1.2917 B(  0-C ,  4-C ) :   0.1084
B(  0-C ,  9-H ) :   0.5502 B(  0-C , 11-H ) :  -0.1063 B(  1-C ,  2-C ) :  -0.1929
B(  1-C ,  3-C ) :   1.3228 B(  1-C ,  6-C ) :   0.1980 B(  1-C ,  7-C ) :  -0.1719
B(  1-C , 10-H ) :   0.7948 B(  2-C ,  4-C ) :   0.1827 B(  2-C ,  6-C ) :   0.3396
B(  2-C ,  7-C ) :  -0.1582 B(  2-C ,  9-H ) :  -0.1619 B(  2-C , 11-H ) :   1.5626
B(  3-C ,  6-C ) :   0.1352 B(  3-C ,  7-C ) :   0.9611 B(  3-C , 10-H ) :  -0.1361
B(  3-C , 12-H ) :   0.8035 B(  4-C ,  5-C ) :   1.4940 B(  4-C ,  6-C ) :   0.4719
B(  4-C , 11-H ) :  -0.1295 B(  4-C , 13-H ) :   0.6869 B(  5-C ,  6-C ) :  -0.1590
B(  5-C ,  7-C ) :  -0.1338 B(  5-C ,  8-S ) :   1.0614 B(  5-C , 14-H ) :   0.7927
B(  6-C ,  7-C ) :   0.8435 B(  6-C ,  8-S ) :   0.3044 B(  7-C ,  8-S ) :   0.5871

MP2 TOTAL ENERGY:     -705.538087834 Eh
FINAL SINGLE POINT ENERGY      -705.538087833801

DIPOLE MOMENT
-------------
                                X             Y             Z
Electronic contribution:     -4.13703       3.01457       0.00000
Nuclear contribution   :      4.22280      -3.36332       0.00000
                        -----------------------------------------
Total Dipole Moment    :      0.08577      -0.34875       0.00000
                        -----------------------------------------
Magnitude (a.u.)       :      0.35914
Magnitude (Debye)      :      0.91286

Rotational constants in cm-1:     0.105510     0.043608     0.030855
Rotational constants in MHz :  3163.105964  1307.346647   925.024004

                             ****ORCA TERMINATED NORMALLY****
TOTAL RUN TIME: 0 days 0 hours 7 minutes 43 seconds 226 msec
