                         Program Version 5.0.3 -  RELEASE  -
|  1> !ri-mp2 aug-cc-pvtz aug-cc-pvtz/c tightscf
|  2> %pal nprocs 16 end
|  3>
|  4> * xyz 0 1
|  5> C    -1.522244     0.801625    0.000000
|  6> H    -1.971604     1.251554    0.886835
|  7> H    -1.971604     1.251554   -0.886835
|  8> C    -1.522244    -0.801625    0.000000
|  9> H    -1.971604    -1.251554   -0.886835
| 10> H    -1.971604    -1.251554    0.886835
| 11> C     1.522244    -0.801625    0.000000
| 12> H     1.971604    -1.251554    0.886835
| 13> H     1.971604    -1.251554   -0.886835
| 14> C     0.000000    -0.656608    0.000000
| 15> C     0.000000     0.656608    0.000000
| 16> C     1.522244     0.801625    0.000000
| 17> H     1.971604     1.251554   -0.886835
| 18> H     1.971604     1.251554    0.886835
| 19> *
| 20>
| 21>                          ****END OF INPUT****

CARTESIAN COORDINATES (ANGSTROEM)
---------------------------------
  C     -1.522244    0.801625    0.000000
  H     -1.971604    1.251554    0.886835
  H     -1.971604    1.251554   -0.886835
  C     -1.522244   -0.801625    0.000000
  H     -1.971604   -1.251554   -0.886835
  H     -1.971604   -1.251554    0.886835
  C      1.522244   -0.801625    0.000000
  H      1.971604   -1.251554    0.886835
  H      1.971604   -1.251554   -0.886835
  C      0.000000   -0.656608    0.000000
  C      0.000000    0.656608    0.000000
  C      1.522244    0.801625    0.000000
  H      1.971604    1.251554   -0.886835
  H      1.971604    1.251554    0.886835

 Total Charge           Charge          ....    0
 Multiplicity           Mult            ....    1
 Number of Electrons    NEL             ....   44
 Basis Dimension        Dim             ....  460

ORBITAL ENERGIES
----------------

  NO   OCC          E(Eh)            E(eV)
   0   2.0000     -11.238379      -305.8118
   1   2.0000     -11.238372      -305.8116
   2   2.0000     -11.237936      -305.7998
   3   2.0000     -11.237918      -305.7993
   4   2.0000     -11.204155      -304.8806
   5   2.0000     -11.202169      -304.8265
   6   2.0000      -1.174353       -31.9558
   7   2.0000      -1.036738       -28.2111
   8   2.0000      -0.882845       -24.0234
   9   2.0000      -0.849139       -23.1062
  10   2.0000      -0.833665       -22.6852
  11   2.0000      -0.652412       -17.7530
  12   2.0000      -0.637988       -17.3605
  13   2.0000      -0.603794       -16.4301
  14   2.0000      -0.600146       -16.3308
  15   2.0000      -0.536497       -14.5988
  16   2.0000      -0.516632       -14.0583
  17   2.0000      -0.504434       -13.7263
  18   2.0000      -0.444853       -12.1051
  19   2.0000      -0.442436       -12.0393
  20   2.0000      -0.411976       -11.2104
  21   2.0000      -0.330681        -8.9983
  22   0.0000       0.032045         0.8720
  23   0.0000       0.034693         0.9441
  24   0.0000       0.038806         1.0560
  25   0.0000       0.039836         1.0840
  26   0.0000       0.048390         1.3168

MULLIKEN ATOMIC CHARGES
-----------------------
   0 C :   -0.754002
   1 H :    0.303362
   2 H :    0.303362
   3 C :   -0.754002
   4 H :    0.303362
   5 H :    0.303362
   6 C :   -0.754002
   7 H :    0.303362
   8 H :    0.303362
   9 C :    0.294558
  10 C :    0.294558
  11 C :   -0.754002
  12 H :    0.303362
  13 H :    0.303362
Sum of atomic charges:   -0.0000000

LOEWDIN ATOMIC CHARGES
----------------------
   0 C :    0.342008
   1 H :   -0.170467
   2 H :   -0.170467
   3 C :    0.342008
   4 H :   -0.170467
   5 H :   -0.170467
   6 C :    0.342008
   7 H :   -0.170467
   8 H :   -0.170467
   9 C :   -0.002149
  10 C :   -0.002149
  11 C :    0.342008
  12 H :   -0.170467
  13 H :   -0.170467

  Mayer bond orders larger than 0.100000
B(  0-C ,  1-H ) :   0.9216 B(  0-C ,  2-H ) :   0.9216 B(  0-C ,  3-C ) :   1.1644
B(  0-C , 10-C ) :   0.8310 B(  3-C ,  4-H ) :   0.9216 B(  3-C ,  5-H ) :   0.9216
B(  3-C ,  9-C ) :   0.8310 B(  6-C ,  7-H ) :   0.9216 B(  6-C ,  8-H ) :   0.9216
B(  6-C ,  9-C ) :   0.8310 B(  6-C , 11-C ) :   1.1644 B(  9-C , 10-C ) :   1.4682
B( 10-C , 11-C ) :   0.8310 B( 11-C , 12-H ) :   0.9216 B( 11-C , 13-H ) :   0.9216

MP2 TOTAL ENERGY:     -232.800120238 Eh
FINAL SINGLE POINT ENERGY      -232.800120238011

DIPOLE MOMENT
-------------
                                X             Y             Z
Electronic contribution:      0.00000       0.00000       0.00000
Nuclear contribution   :      0.00000       0.00000       0.00000
                        -----------------------------------------
Total Dipole Moment    :      0.00000       0.00000       0.00000
                        -----------------------------------------
Magnitude (a.u.)       :      0.00000
Magnitude (Debye)      :      0.00000

Rotational constants in cm-1:     0.280012     0.113125     0.085774
Rotational constants in MHz :  8394.534287  3391.409129  2571.426051

                             ****ORCA TERMINATED NORMALLY****
TOTAL RUN TIME: 0 days 0 hours 2 minutes 54 seconds 64 msec
