                         Program Version 5.0.3 -  RELEASE  -
|  1> !ri-mp2 aug-cc-pvtz aug-cc-pvtz/c tightscf
|  2> %pal nprocs 16 end
|  3>
|  4> * xyz 0 1
|  5> C     1.306673     0.778578   -0.253085
|  6> C     1.306673    -0.778578   -0.253085
|  7> C     0.000000    -0.786260    0.577788
|  8> C     0.000000     0.786260    0.577788
|  9> C    -1.306673     0.778578   -0.253085
| 10> C    -1.306673    -0.778578   -0.253085
| 11> H     1.235314     1.258625   -1.230081
| 12> H     2.159674     1.206785    0.272012
| 13> H     2.159674    -1.206785    0.272012
| 14> H     1.235314    -1.258625   -1.230081
| 15> H     0.000000    -1.384950    1.486430
| 16> H     0.000000     1.384950    1.486430
| 17> H    -2.159674     1.206785    0.272012
| 18> H    -1.235314     1.258625   -1.230081
| 19> H    -1.235314    -1.258625   -1.230081
| 20> H    -2.159674    -1.206785    0.272012
| 21> *
| 22>
| 23>                          ****END OF INPUT****

CARTESIAN COORDINATES (ANGSTROEM)
---------------------------------
  C      1.306673    0.778578   -0.253085
  C      1.306673   -0.778578   -0.253085
  C      0.000000   -0.786260    0.577788
  C      0.000000    0.786260    0.577788
  C     -1.306673    0.778578   -0.253085
  C     -1.306673   -0.778578   -0.253085
  H      1.235314    1.258625   -1.230081
  H      2.159674    1.206785    0.272012
  H      2.159674   -1.206785    0.272012
  H      1.235314   -1.258625   -1.230081
  H      0.000000   -1.384950    1.486430
  H      0.000000    1.384950    1.486430
  H     -2.159674    1.206785    0.272012
  H     -1.235314    1.258625   -1.230081
  H     -1.235314   -1.258625   -1.230081
  H     -2.159674   -1.206785    0.272012

 Total Charge           Charge          ....    0
 Multiplicity           Mult            ....    1
 Number of Electrons    NEL             ....   46
 Basis Dimension        Dim             ....  506

ORBITAL ENERGIES
----------------

  NO   OCC          E(Eh)            E(eV)
   0   2.0000     -11.217526      -305.2444
   1   2.0000     -11.217027      -305.2308
   2   2.0000     -11.213920      -305.1463
   3   2.0000     -11.213867      -305.1448
   4   2.0000     -11.213389      -305.1318
   5   2.0000     -11.213334      -305.1303
   6   2.0000      -1.154443       -31.4140
   7   2.0000      -1.006451       -27.3869
   8   2.0000      -0.919418       -25.0186
   9   2.0000      -0.842846       -22.9350
  10   2.0000      -0.813761       -22.1436
  11   2.0000      -0.692852       -18.8535
  12   2.0000      -0.673802       -18.3351
  13   2.0000      -0.615616       -16.7518
  14   2.0000      -0.606707       -16.5093
  15   2.0000      -0.564484       -15.3604
  16   2.0000      -0.533372       -14.5138
  17   2.0000      -0.489564       -13.3217
  18   2.0000      -0.476143       -12.9565
  19   2.0000      -0.453221       -12.3328
  20   2.0000      -0.431414       -11.7394
  21   2.0000      -0.402985       -10.9658
  22   2.0000      -0.390027       -10.6132
  23   0.0000       0.030134         0.8200
  24   0.0000       0.036946         1.0054
  25   0.0000       0.037819         1.0291
  26   0.0000       0.039409         1.0724
  27   0.0000       0.049806         1.3553

MULLIKEN ATOMIC CHARGES
-----------------------
   0 C :   -0.672047
   1 C :   -0.672047
   2 C :   -0.370643
   3 C :   -0.370643
   4 C :   -0.672047
   5 C :   -0.672047
   6 H :    0.297366
   7 H :    0.277067
   8 H :    0.277067
   9 H :    0.297366
  10 H :    0.565873
  11 H :    0.565873
  12 H :    0.277067
  13 H :    0.297366
  14 H :    0.297366
  15 H :    0.277067
Sum of atomic charges:   -0.0000000

LOEWDIN ATOMIC CHARGES
----------------------
   0 C :    0.341415
   1 C :    0.341415
   2 C :    0.071705
   3 C :    0.071705
   4 C :    0.341415
   5 C :    0.341415
   6 H :   -0.154441
   7 H :   -0.155613
   8 H :   -0.155613
   9 H :   -0.154441
  10 H :   -0.134426
  11 H :   -0.134426
  12 H :   -0.155613
  13 H :   -0.154441
  14 H :   -0.154441
  15 H :   -0.155613

  Mayer bond orders larger than 0.100000
B(  0-C ,  1-C ) :   1.0480 B(  0-C ,  3-C ) :   1.0534 B(  0-C ,  6-H ) :   0.9184
B(  0-C ,  7-H ) :   0.9187 B(  1-C ,  2-C ) :   1.0534 B(  1-C ,  8-H ) :   0.9187
B(  1-C ,  9-H ) :   0.9184 B(  2-C ,  3-C ) :   0.9588 B(  2-C ,  5-C ) :   1.0534
B(  2-C , 10-H ) :   0.4817 B(  3-C ,  4-C ) :   1.0534 B(  3-C , 11-H ) :   0.4817
B(  4-C ,  5-C ) :   1.0480 B(  4-C , 12-H ) :   0.9187 B(  4-C , 13-H ) :   0.9184
B(  5-C , 14-H ) :   0.9184 B(  5-C , 15-H ) :   0.9187

MP2 TOTAL ENERGY:     -234.072757711 Eh
FINAL SINGLE POINT ENERGY      -234.072757711173

DIPOLE MOMENT
-------------
                                X             Y             Z
Electronic contribution:     -0.00000       0.00000       0.96545
Nuclear contribution   :      0.00000      -0.00000      -0.90383
                        -----------------------------------------
Total Dipole Moment    :     -0.00000       0.00000       0.06162
                        -----------------------------------------
Magnitude (a.u.)       :      0.06162
Magnitude (Debye)      :      0.15662

Rotational constants in cm-1:     0.205477     0.130750     0.100890
Rotational constants in MHz :  6160.055033  3919.789220  3024.613607

                             ****ORCA TERMINATED NORMALLY****
TOTAL RUN TIME: 0 days 0 hours 4 minutes 25 seconds 669 msec
