                         Program Version 5.0.3 -  RELEASE  -
|  1> !ri-mp2 aug-cc-pvtz aug-cc-pvtz/c tightscf
|  2> %pal nprocs 16 end
|  3>
|  4> * xyz 0 1
|  5> C      0.007083   -2.289118        0.000000
|  6> C      1.204721   -1.583554        0.000000
|  7> C     -1.194960   -1.590256        0.000000
|  8> C      1.206584   -0.194173        0.000000
|  9> C     -1.203315   -0.201715        0.000000
| 10> C      0.000000    0.505241        0.000000
| 11> S     -0.086475    2.284006        0.000000
| 12> H      0.010418   -3.370141        0.000000
| 13> H      2.147471   -2.114249        0.000000
| 14> H     -2.134602   -2.126238        0.000000
| 15> H      2.146513    0.340962        0.000000
| 16> H     -2.144219    0.332370        0.000000
| 17> H      1.237336    2.514654        0.000000
| 18> *
| 19>
| 20>                          ****END OF INPUT****

CARTESIAN COORDINATES (ANGSTROEM)
---------------------------------
  C      0.007083   -2.289118    0.000000
  C      1.204721   -1.583554    0.000000
  C     -1.194960   -1.590256    0.000000
  C      1.206584   -0.194173    0.000000
  C     -1.203315   -0.201715    0.000000
  C      0.000000    0.505241    0.000000
  S     -0.086475    2.284006    0.000000
  H      0.010418   -3.370141    0.000000
  H      2.147471   -2.114249    0.000000
  H     -2.134602   -2.126238    0.000000
  H      2.146513    0.340962    0.000000
  H     -2.144219    0.332370    0.000000
  H      1.237336    2.514654    0.000000

 Total Charge           Charge          ....    0
 Multiplicity           Mult            ....    1
 Number of Electrons    NEL             ....   58
 Basis Dimension        Dim             ....  464

ORBITAL ENERGIES
----------------

  NO   OCC          E(Eh)            E(eV)
   0   2.0000     -91.969353     -2502.6133
   1   2.0000     -11.280104      -306.9472
   2   2.0000     -11.244464      -305.9774
   3   2.0000     -11.243819      -305.9599
   4   2.0000     -11.243052      -305.9390
   5   2.0000     -11.241541      -305.8979
   6   2.0000     -11.236877      -305.7710
   7   2.0000      -8.970215      -244.0920
   8   2.0000      -6.651592      -180.9990
   9   2.0000      -6.650560      -180.9709
  10   2.0000      -6.649550      -180.9435
  11   2.0000      -1.168212       -31.7887
  12   2.0000      -1.058648       -28.8073
  13   2.0000      -1.025957       -27.9177
  14   2.0000      -0.949903       -25.8482
  15   2.0000      -0.838999       -22.8303
  16   2.0000      -0.810678       -22.0597
  17   2.0000      -0.704933       -19.1822
  18   2.0000      -0.647367       -17.6158
  19   2.0000      -0.637025       -17.3343
  20   2.0000      -0.597682       -16.2638
  21   2.0000      -0.579575       -15.7711
  22   2.0000      -0.525772       -14.3070
  23   2.0000      -0.525561       -14.3012
  24   2.0000      -0.503733       -13.7073
  25   2.0000      -0.468908       -12.7596
  26   2.0000      -0.417306       -11.3555
  27   2.0000      -0.347640        -9.4598
  28   2.0000      -0.309655        -8.4261
  29   0.0000       0.028412         0.7731
  30   0.0000       0.032732         0.8907
  31   0.0000       0.036149         0.9837
  32   0.0000       0.047290         1.2868
  33   0.0000       0.050698         1.3796

MULLIKEN ATOMIC CHARGES
-----------------------
   0 C :   -0.400460
   1 C :   -0.317574
   2 C :   -0.303263
   3 C :   -0.963426
   4 C :   -0.922743
   5 C :    1.045423
   6 S :   -0.520157
   7 H :    0.453255
   8 H :    0.431775
   9 H :    0.404438
  10 H :    0.446955
  11 H :    0.555931
  12 H :    0.089847
Sum of atomic charges:    0.0000000

LOEWDIN ATOMIC CHARGES
----------------------
   0 C :    0.190956
   1 C :    0.184861
   2 C :    0.183965
   3 C :    0.121303
   4 C :    0.105497
   5 C :   -0.562397
   6 S :    1.312052
   7 H :   -0.188511
   8 H :   -0.183715
   9 H :   -0.183581
  10 H :   -0.207047
  11 H :   -0.202034
  12 H :   -0.571349

  Mayer bond orders larger than 0.100000
B(  0-C ,  1-C ) :   1.0571 B(  0-C ,  2-C ) :   1.0744 B(  0-C ,  3-C ) :   0.1523
B(  0-C ,  4-C ) :   0.1788 B(  0-C ,  7-H ) :   0.8000 B(  1-C ,  2-C ) :  -0.1031
B(  1-C ,  3-C ) :   1.1806 B(  1-C ,  8-H ) :   0.8970 B(  2-C ,  4-C ) :   1.1082
B(  2-C ,  9-H ) :   0.9333 B(  3-C ,  4-C ) :   0.3268 B(  3-C ,  5-C ) :   0.8306
B(  3-C , 10-H ) :   0.7680 B(  4-C ,  5-C ) :   1.0588 B(  4-C ,  6-S ) :   0.1541
B(  4-C , 11-H ) :   0.6083 B(  5-C ,  6-S ) :   0.5542 B(  6-S , 12-H ) :   1.1151

MP2 TOTAL ENERGY:     -629.468306564 Eh
FINAL SINGLE POINT ENERGY      -629.468306564206

DIPOLE MOMENT
-------------
                                X             Y             Z
Electronic contribution:     -0.93455       4.04429       0.00000
Nuclear contribution   :      1.25128      -4.44231       0.00000
                        -----------------------------------------
Total Dipole Moment    :      0.31673      -0.39802       0.00000
                        -----------------------------------------
Magnitude (a.u.)       :      0.50866
Magnitude (Debye)      :      1.29292

Rotational constants in cm-1:     0.187929     0.052407     0.040979
Rotational constants in MHz :  5633.971695  1571.119497  1228.526127

                             ****ORCA TERMINATED NORMALLY****
TOTAL RUN TIME: 0 days 0 hours 3 minutes 59 seconds 172 msec
