                         Program Version 5.0.3 -  RELEASE  -
|  1> !ri-mp2 aug-cc-pvtz aug-cc-pvtz/c tightscf
|  2> %pal nprocs 16 end
|  3>
|  4> * xyz 0 1
|  5> C     0.000000     1.390589       0.000000
|  6> C     1.204285     0.695294       0.000000
|  7> C    -1.204285     0.695294       0.000000
|  8> C     1.204285    -0.695294       0.000000
|  9> C    -1.204285    -0.695294       0.000000
| 10> C     0.000000    -1.390589       0.000000
| 11> H     0.000000     2.472617       0.000000
| 12> H     0.000000    -2.472617       0.000000
| 13> H    -2.141349     1.236308       0.000000
| 14> H     2.141349    -1.236308       0.000000
| 15> H     2.141349     1.236308       0.000000
| 16> H    -2.141349    -1.236308       0.000000
| 17> *
| 18>
| 19>                          ****END OF INPUT****

CARTESIAN COORDINATES (ANGSTROEM)
---------------------------------
  C      0.000000    1.390589    0.000000
  C      1.204285    0.695294    0.000000
  C     -1.204285    0.695294    0.000000
  C      1.204285   -0.695294    0.000000
  C     -1.204285   -0.695294    0.000000
  C      0.000000   -1.390589    0.000000
  H      0.000000    2.472617    0.000000
  H      0.000000   -2.472617    0.000000
  H     -2.141349    1.236308    0.000000
  H      2.141349   -1.236308    0.000000
  H      2.141349    1.236308    0.000000
  H     -2.141349   -1.236308    0.000000

 Total Charge           Charge          ....    0
 Multiplicity           Mult            ....    1
 Number of Electrons    NEL             ....   42
 Basis Dimension        Dim             ....  414

ORBITAL ENERGIES
----------------

  NO   OCC          E(Eh)            E(eV)
   0   2.0000     -11.235319      -305.7286
   1   2.0000     -11.234733      -305.7126
   2   2.0000     -11.234733      -305.7126
   3   2.0000     -11.233468      -305.6782
   4   2.0000     -11.233468      -305.6782
   5   2.0000     -11.232851      -305.6614
   6   2.0000      -1.152339       -31.3567
   7   2.0000      -1.015771       -27.6405
   8   2.0000      -1.015771       -27.6405
   9   2.0000      -0.824498       -22.4357
  10   2.0000      -0.824498       -22.4357
  11   2.0000      -0.710428       -19.3317
  12   2.0000      -0.642999       -17.4969
  13   2.0000      -0.620481       -16.8842
  14   2.0000      -0.588258       -16.0073
  15   2.0000      -0.588258       -16.0073
  16   2.0000      -0.503785       -13.7087
  17   2.0000      -0.494714       -13.4618
  18   2.0000      -0.494713       -13.4618
  19   2.0000      -0.337438        -9.1822
  20   2.0000      -0.337438        -9.1821
  21   0.0000       0.029985         0.8159
  22   0.0000       0.034998         0.9523
  23   0.0000       0.034998         0.9523
  24   0.0000       0.048359         1.3159
  25   0.0000       0.048359         1.3159

MULLIKEN ATOMIC CHARGES
-----------------------
   0 C :   -0.447363
   1 C :   -0.447390
   2 C :   -0.447394
   3 C :   -0.447396
   4 C :   -0.447392
   5 C :   -0.447366
   6 H :    0.447437
   7 H :    0.447434
   8 H :    0.447355
   9 H :    0.447360
  10 H :    0.447355
  11 H :    0.447360
Sum of atomic charges:    0.0000000

LOEWDIN ATOMIC CHARGES
----------------------
   0 C :    0.187130
   1 C :    0.187129
   2 C :    0.187129
   3 C :    0.187129
   4 C :    0.187129
   5 C :    0.187130
   6 H :   -0.187129
   7 H :   -0.187129
   8 H :   -0.187129
   9 H :   -0.187129
  10 H :   -0.187129
  11 H :   -0.187129

  Mayer bond orders larger than 0.100000
B(  0-C ,  1-C ) :   1.1594 B(  0-C ,  2-C ) :   1.1594 B(  0-C ,  6-H ) :   0.8250
B(  1-C ,  3-C ) :   1.1594 B(  1-C , 10-H ) :   0.8251 B(  2-C ,  4-C ) :   1.1594
B(  2-C ,  8-H ) :   0.8251 B(  3-C ,  5-C ) :   1.1594 B(  3-C ,  9-H ) :   0.8251
B(  4-C ,  5-C ) :   1.1594 B(  4-C , 11-H ) :   0.8251 B(  5-C ,  7-H ) :   0.8250

MP2 TOTAL ENERGY:     -231.744508616 Eh
FINAL SINGLE POINT ENERGY      -231.744508615548

DIPOLE MOMENT
-------------
                                X             Y             Z
Electronic contribution:     -0.00000       0.00000       0.00000
Nuclear contribution   :      0.00000       0.00000       0.00000
                        -----------------------------------------
Total Dipole Moment    :     -0.00000       0.00000       0.00000
                        -----------------------------------------
Magnitude (a.u.)       :      0.00000
Magnitude (Debye)      :      0.00000

Rotational constants in cm-1:     0.191202     0.191202     0.095601
Rotational constants in MHz :  5732.099279  5732.098611  2866.049473

                             ****ORCA TERMINATED NORMALLY****
TOTAL RUN TIME: 0 days 0 hours 2 minutes 30 seconds 688 msec
