                         Program Version 5.0.3 -  RELEASE  -
|  1> !ri-mp2 aug-cc-pvtz aug-cc-pvtz/c tightscf
|  2> %pal nprocs 16 end
|  3> %maxcore 3800
|  4>
|  5> * xyz 0 1
|  6> C      0.000000    0.000000   -0.741117
|  7> C     -0.402579    1.130241   -1.461501
|  8> C      0.402579   -1.130241   -1.461501
|  9> C      0.403188   -1.130626   -2.850176
| 10> C      0.000000    0.000000   -3.551569
| 11> C     -0.403188    1.130626   -2.850176
| 12> C      0.000000    0.000000    0.741117
| 13> C      0.402579    1.130241    1.461501
| 14> C      0.403188    1.130626    2.850176
| 15> C      0.000000    0.000000    3.551569
| 16> C     -0.403188   -1.130626    2.850176
| 17> C     -0.402579   -1.130241    1.461501
| 18> H     -0.727357   -2.013375    3.385168
| 19> H     -0.727357    2.013375   -3.385168
| 20> H      0.000000    0.000000    4.633120
| 21> H      0.000000    0.000000   -4.633120
| 22> H      0.727357   -2.013375   -3.385168
| 23> H      0.727357    2.013375    3.385168
| 24> H      0.740949    2.008623    0.928761
| 25> H      0.740949   -2.008623   -0.928761
| 26> H     -0.740949   -2.008623    0.928761
| 27> H     -0.740949    2.008623   -0.928761
| 28> *
| 29>
| 30>                          ****END OF INPUT****

CARTESIAN COORDINATES (ANGSTROEM)
---------------------------------
  C      0.000000    0.000000   -0.741117
  C     -0.402579    1.130241   -1.461501
  C      0.402579   -1.130241   -1.461501
  C      0.403188   -1.130626   -2.850176
  C      0.000000    0.000000   -3.551569
  C     -0.403188    1.130626   -2.850176
  C      0.000000    0.000000    0.741117
  C      0.402579    1.130241    1.461501
  C      0.403188    1.130626    2.850176
  C      0.000000    0.000000    3.551569
  C     -0.403188   -1.130626    2.850176
  C     -0.402579   -1.130241    1.461501
  H     -0.727357   -2.013375    3.385168
  H     -0.727357    2.013375   -3.385168
  H      0.000000    0.000000    4.633120
  H      0.000000    0.000000   -4.633120
  H      0.727357   -2.013375   -3.385168
  H      0.727357    2.013375    3.385168
  H      0.740949    2.008623    0.928761
  H      0.740949   -2.008623   -0.928761
  H     -0.740949   -2.008623    0.928761
  H     -0.740949    2.008623   -0.928761

 Total Charge           Charge          ....    0
 Multiplicity           Mult            ....    1
 Number of Electrons    NEL             ....   82
 Basis Dimension        Dim             ....  782

ORBITAL ENERGIES
----------------

  NO   OCC          E(Eh)            E(eV)
   0   2.0000     -11.246897      -306.0436
   1   2.0000     -11.246152      -306.0233
   2   2.0000     -11.236110      -305.7501
   3   2.0000     -11.236110      -305.7501
   4   2.0000     -11.235820      -305.7422
   5   2.0000     -11.235820      -305.7422
   6   2.0000     -11.234196      -305.6980
   7   2.0000     -11.234196      -305.6980
   8   2.0000     -11.234055      -305.6942
   9   2.0000     -11.234050      -305.6940
  10   2.0000     -11.233498      -305.6790
  11   2.0000     -11.233498      -305.6790
  12   2.0000      -1.172191       -31.8969
  13   2.0000      -1.144276       -31.1373
  14   2.0000      -1.055794       -28.7296
  15   2.0000      -1.021871       -27.8065
  16   2.0000      -1.013250       -27.5719
  17   2.0000      -0.984973       -26.8025
  18   2.0000      -0.853970       -23.2377
  19   2.0000      -0.844055       -22.9679
  20   2.0000      -0.811919       -22.0934
  21   2.0000      -0.792341       -21.5607
  22   2.0000      -0.721466       -19.6321
  23   2.0000      -0.683642       -18.6029
  24   2.0000      -0.655583       -17.8393
  25   2.0000      -0.642047       -17.4710
  26   2.0000      -0.617084       -16.7917
  27   2.0000      -0.608967       -16.5708
  28   2.0000      -0.592710       -16.1285
  29   2.0000      -0.587200       -15.9785
  30   2.0000      -0.583445       -15.8763
  31   2.0000      -0.522281       -14.2120
  32   2.0000      -0.519353       -14.1323
  33   2.0000      -0.504825       -13.7370
  34   2.0000      -0.493326       -13.4241
  35   2.0000      -0.486170       -13.2294
  36   2.0000      -0.483633       -13.1603
  37   2.0000      -0.370382       -10.0786
  38   2.0000      -0.339530        -9.2391
  39   2.0000      -0.339417        -9.2360
  40   2.0000      -0.302682        -8.2364
  41   0.0000       0.028246         0.7686
  42   0.0000       0.030609         0.8329
  43   0.0000       0.031576         0.8592
  44   0.0000       0.039749         1.0816
  45   0.0000       0.041212         1.1214

MULLIKEN ATOMIC CHARGES
-----------------------
   0 C :    1.945702
   1 C :   -0.965033
   2 C :   -0.965030
   3 C :   -0.773250
   4 C :   -0.111396
   5 C :   -0.773245
   6 C :    1.945568
   7 C :   -0.964907
   8 C :   -0.773303
   9 C :   -0.111286
  10 C :   -0.773318
  11 C :   -0.964920
  12 H :    0.454781
  13 H :    0.454710
  14 H :    0.527327
  15 H :    0.527442
  16 H :    0.454755
  17 H :    0.454741
  18 H :    0.102629
  19 H :    0.102687
  20 H :    0.102627
  21 H :    0.102719
Sum of atomic charges:    0.0000000

LOEWDIN ATOMIC CHARGES
----------------------
   0 C :   -0.113057
   1 C :    0.216156
   2 C :    0.216156
   3 C :    0.202412
   4 C :    0.196150
   5 C :    0.202412
   6 C :   -0.113058
   7 C :    0.216156
   8 C :    0.202412
   9 C :    0.196150
  10 C :    0.202412
  11 C :    0.216156
  12 H :   -0.183967
  13 H :   -0.183967
  14 H :   -0.186504
  15 H :   -0.186504
  16 H :   -0.183967
  17 H :   -0.183967
  18 H :   -0.182895
  19 H :   -0.182895
  20 H :   -0.182895
  21 H :   -0.182895

  Mayer bond orders larger than 0.100000
B(  0-C ,  1-C ) :   0.3323 B(  0-C ,  2-C ) :   0.3324 B(  0-C ,  6-C ) :   0.1129
B(  0-C ,  7-C ) :   0.1428 B(  0-C ,  9-C ) :   0.1756 B(  0-C , 11-C ) :   0.1429
B(  0-C , 18-H ) :  -0.1297 B(  0-C , 19-H ) :  -0.1440 B(  0-C , 20-H ) :  -0.1297
B(  0-C , 21-H ) :  -0.1440 B(  1-C ,  2-C ) :  -0.2328 B(  1-C ,  3-C ) :   0.1134
B(  1-C ,  4-C ) :  -0.1159 B(  1-C ,  5-C ) :   1.3251 B(  1-C ,  6-C ) :   0.1429
B(  1-C , 13-H ) :  -0.1137 B(  1-C , 19-H ) :   0.1209 B(  1-C , 21-H ) :   1.5308
B(  2-C ,  3-C ) :   1.3252 B(  2-C ,  4-C ) :  -0.1160 B(  2-C ,  5-C ) :   0.1134
B(  2-C ,  6-C ) :   0.1429 B(  2-C , 16-H ) :  -0.1137 B(  2-C , 19-H ) :   1.5308
B(  2-C , 21-H ) :   0.1209 B(  3-C ,  4-C ) :   1.1839 B(  3-C ,  5-C ) :   0.1331
B(  3-C , 15-H ) :  -0.1961 B(  3-C , 16-H ) :   0.7740 B(  4-C ,  5-C ) :   1.1839
B(  4-C ,  6-C ) :   0.1756 B(  4-C , 15-H ) :   0.7128 B(  5-C , 13-H ) :   0.7741
B(  5-C , 15-H ) :  -0.1961 B(  6-C ,  7-C ) :   0.3324 B(  6-C , 11-C ) :   0.3323
B(  6-C , 18-H ) :  -0.1440 B(  6-C , 19-H ) :  -0.1297 B(  6-C , 20-H ) :  -0.1441
B(  6-C , 21-H ) :  -0.1297 B(  7-C ,  8-C ) :   1.3252 B(  7-C ,  9-C ) :  -0.1160
B(  7-C , 10-C ) :   0.1135 B(  7-C , 11-C ) :  -0.2330 B(  7-C , 17-H ) :  -0.1137
B(  7-C , 18-H ) :   1.5310 B(  7-C , 20-H ) :   0.1209 B(  8-C ,  9-C ) :   1.1838
B(  8-C , 10-C ) :   0.1331 B(  8-C , 11-C ) :   0.1135 B(  8-C , 14-H ) :  -0.1961
B(  8-C , 17-H ) :   0.7740 B(  9-C , 10-C ) :   1.1839 B(  9-C , 11-C ) :  -0.1160
B(  9-C , 14-H ) :   0.7130 B( 10-C , 11-C ) :   1.3252 B( 10-C , 12-H ) :   0.7740
B( 10-C , 14-H ) :  -0.1961 B( 11-C , 12-H ) :  -0.1137 B( 11-C , 18-H ) :   0.1209
B( 11-C , 20-H ) :   1.5310

MP2 TOTAL ENERGY:     -462.319625515 Eh
FINAL SINGLE POINT ENERGY      -462.319625514654

DIPOLE MOMENT
-------------
                                X             Y             Z
Electronic contribution:      0.00000      -0.00000       0.00000
Nuclear contribution   :      0.00000       0.00000      -0.00000
                        -----------------------------------------
Total Dipole Moment    :      0.00000      -0.00000       0.00000
                        -----------------------------------------
Magnitude (a.u.)       :      0.00000
Magnitude (Debye)      :      0.00000

Rotational constants in cm-1:     0.096140     0.018284     0.015942
Rotational constants in MHz :  2882.217325   548.130110   477.916535

                             ****ORCA TERMINATED NORMALLY****
TOTAL RUN TIME: 0 days 0 hours 20 minutes 17 seconds 316 msec
