                         Program Version 5.0.3 -  RELEASE  -
|  1> !ri-mp2 aug-cc-pvtz aug-cc-pvtz/c tightscf
|  2> %pal nprocs 16 end
|  3>
|  4> * xyz 0 1
|  5> O     -0.115324    2.385771   -0.820827
|  6> O      0.115324   -2.385771   -0.820827
|  7> C      0.379356    0.637546    0.860073
|  8> C     -0.379356   -0.637546    0.860073
|  9> C      0.115324    1.569774   -0.030466
| 10> C     -0.115324   -1.569774   -0.030466
| 11> H      1.150733    0.853280    1.588973
| 12> H     -1.150733   -0.853280    1.588973
| 13> *
| 14>
| 15>                          ****END OF INPUT****

CARTESIAN COORDINATES (ANGSTROEM)
---------------------------------
  O     -0.115324    2.385771   -0.820827
  O      0.115324   -2.385771   -0.820827
  C      0.379356    0.637546    0.860073
  C     -0.379356   -0.637546    0.860073
  C      0.115324    1.569774   -0.030466
  C     -0.115324   -1.569774   -0.030466
  H      1.150733    0.853280    1.588973
  H     -1.150733   -0.853280    1.588973

 Total Charge           Charge          ....    0
 Multiplicity           Mult            ....    1
 Number of Electrons    NEL             ....   42
 Basis Dimension        Dim             ....  322

ORBITAL ENERGIES
----------------

  NO   OCC          E(Eh)            E(eV)
   0   2.0000     -20.639725      -561.6355
   1   2.0000     -20.639725      -561.6355
   2   2.0000     -11.391971      -309.9913
   3   2.0000     -11.391971      -309.9913
   4   2.0000     -11.265806      -306.5582
   5   2.0000     -11.265123      -306.5396
   6   2.0000      -1.485876       -40.4327
   7   2.0000      -1.485367       -40.4189
   8   2.0000      -1.125432       -30.6245
   9   2.0000      -1.013168       -27.5697
  10   2.0000      -0.784611       -21.3504
  11   2.0000      -0.755284       -20.5523
  12   2.0000      -0.709557       -19.3080
  13   2.0000      -0.684924       -18.6377
  14   2.0000      -0.677518       -18.4362
  15   2.0000      -0.650119       -17.6906
  16   2.0000      -0.648701       -17.6520
  17   2.0000      -0.600643       -16.3443
  18   2.0000      -0.563541       -15.3347
  19   2.0000      -0.390411       -10.6236
  20   2.0000      -0.357524        -9.7287
  21   0.0000       0.023564         0.6412
  22   0.0000       0.035497         0.9659
  23   0.0000       0.054287         1.4772
  24   0.0000       0.056928         1.5491
  25   0.0000       0.085071         2.3149

MULLIKEN ATOMIC CHARGES
-----------------------
   0 O :   -0.429327
   1 O :   -0.429327
   2 C :   -0.184896
   3 C :   -0.184896
   4 C :    0.239394
   5 C :    0.239394
   6 H :    0.374830
   7 H :    0.374830
Sum of atomic charges:   -0.0000000

LOEWDIN ATOMIC CHARGES
----------------------
   0 O :    0.423730
   1 O :    0.423730
   2 C :    0.074134
   3 C :    0.074134
   4 C :   -0.260324
   5 C :   -0.260324
   6 H :   -0.237540
   7 H :   -0.237540

  Mayer bond orders larger than 0.100000
B(  0-O ,  2-C ) :  -0.1439 B(  0-O ,  4-C ) :   1.9639 B(  1-O ,  3-C ) :  -0.1439
B(  1-O ,  5-C ) :   1.9639 B(  2-C ,  3-C ) :   0.9610 B(  2-C ,  4-C ) :   1.4591
B(  2-C ,  6-H ) :   0.8310 B(  3-C ,  5-C ) :   1.4591 B(  3-C ,  7-H ) :   0.8310

MP2 TOTAL ENERGY:     -303.480813156 Eh
FINAL SINGLE POINT ENERGY      -303.480813155989

DIPOLE MOMENT
-------------
                                X             Y             Z
Electronic contribution:      0.00000       0.00000      -2.14407
Nuclear contribution   :      0.00000       0.00000       3.02996
                        -----------------------------------------
Total Dipole Moment    :      0.00000       0.00000       0.88588
                        -----------------------------------------
Magnitude (a.u.)       :      0.88588
Magnitude (Debye)      :      2.25174

Rotational constants in cm-1:     0.329587     0.064980     0.056775
Rotational constants in MHz :  9880.780873  1948.053999  1702.056797

                             ****ORCA TERMINATED NORMALLY****
TOTAL RUN TIME: 0 days 0 hours 1 minutes 25 seconds 6 msec
