                         Program Version 5.0.3 -  RELEASE  -
|  1> !ri-mp2 aug-cc-pvtz aug-cc-pvtz/c tightscf
|  2> %pal nprocs 16 end
|  3> %maxcore 3800
|  4>
|  5> * xyz 0 1
|  6> C    -2.260008    1.718793    0.000000
|  7> C     2.618522    1.097828    0.000000
|  8> C    -0.358514   -2.816621    0.000000
|  9> C    -1.636395    2.936436    0.000000
| 10> C     3.361226   -0.051059    0.000000
| 11> C    -1.724831   -2.885378    0.000000
| 12> C    -1.235698    0.719678    0.000000
| 13> C     1.241108    0.710307    0.000000
| 14> C    -0.005410   -1.429985    0.000000
| 15> C     0.000000    1.392828    0.000000
| 16> C     1.206225   -0.696414    0.000000
| 17> C    -1.206225   -0.696414    0.000000
| 18> N    -0.273028    2.739129    0.000000
| 19> N     2.508669   -1.133115    0.000000
| 20> N    -2.235641   -1.606014    0.000000
| 21> H    -3.326106    1.566758    0.000000
| 22> H     3.019905    2.097113    0.000000
| 23> H     0.306200   -3.663871    0.000000
| 24> H    -2.050289    3.929412    0.000000
| 25> H     4.428115   -0.189104    0.000000
| 26> H    -2.377826   -3.740308    0.000000
| 27> H     0.415105    3.468383    0.000000
| 28> H     2.796155   -2.093683    0.000000
| 29> H    -3.211260   -1.374700    0.000000
| 30> *
| 31>
| 32>                          ****END OF INPUT****

CARTESIAN COORDINATES (ANGSTROEM)
---------------------------------
  C     -2.260008    1.718793    0.000000
  C      2.618522    1.097828    0.000000
  C     -0.358514   -2.816621    0.000000
  C     -1.636395    2.936436    0.000000
  C      3.361226   -0.051059    0.000000
  C     -1.724831   -2.885378    0.000000
  C     -1.235698    0.719678    0.000000
  C      1.241108    0.710307    0.000000
  C     -0.005410   -1.429985    0.000000
  C      0.000000    1.392828    0.000000
  C      1.206225   -0.696414    0.000000
  C     -1.206225   -0.696414    0.000000
  N     -0.273028    2.739129    0.000000
  N      2.508669   -1.133115    0.000000
  N     -2.235641   -1.606014    0.000000
  H     -3.326106    1.566758    0.000000
  H      3.019905    2.097113    0.000000
  H      0.306200   -3.663871    0.000000
  H     -2.050289    3.929412    0.000000
  H      4.428115   -0.189104    0.000000
  H     -2.377826   -3.740308    0.000000
  H      0.415105    3.468383    0.000000
  H      2.796155   -2.093683    0.000000
  H     -3.211260   -1.374700    0.000000

 Total Charge           Charge          ....    0
 Multiplicity           Mult            ....    1
 Number of Electrons    NEL             ....  102
 Basis Dimension        Dim             ....  897

ORBITAL ENERGIES
----------------

  NO   OCC          E(Eh)            E(eV)
   0   2.0000     -15.597642      -424.4334
   1   2.0000     -15.597642      -424.4334
   2   2.0000     -15.597641      -424.4334
   3   2.0000     -11.258888      -306.3699
   4   2.0000     -11.258879      -306.3697
   5   2.0000     -11.258879      -306.3697
   6   2.0000     -11.256258      -306.2983
   7   2.0000     -11.256258      -306.2983
   8   2.0000     -11.256257      -306.2983
   9   2.0000     -11.214232      -305.1548
  10   2.0000     -11.214232      -305.1548
  11   2.0000     -11.214200      -305.1539
  12   2.0000     -11.212846      -305.1170
  13   2.0000     -11.212846      -305.1170
  14   2.0000     -11.212838      -305.1168
  15   2.0000      -1.298080       -35.3225
  16   2.0000      -1.284311       -34.9479
  17   2.0000      -1.284310       -34.9479
  18   2.0000      -1.099183       -29.9103
  19   2.0000      -1.053931       -28.6789
  20   2.0000      -1.053931       -28.6789
  21   2.0000      -1.004977       -27.3468
  22   2.0000      -0.957986       -26.0681
  23   2.0000      -0.957986       -26.0681
  24   2.0000      -0.817988       -22.2586
  25   2.0000      -0.817988       -22.2586
  26   2.0000      -0.812443       -22.1077
  27   2.0000      -0.780090       -21.2273
  28   2.0000      -0.772974       -21.0337
  29   2.0000      -0.772974       -21.0337
  30   2.0000      -0.677626       -18.4391
  31   2.0000      -0.670820       -18.2540
  32   2.0000      -0.670820       -18.2540
  33   2.0000      -0.600536       -16.3414
  34   2.0000      -0.594171       -16.1682
  35   2.0000      -0.588049       -16.0016
  36   2.0000      -0.588049       -16.0016
  37   2.0000      -0.577739       -15.7211
  38   2.0000      -0.566463       -15.4142
  39   2.0000      -0.566463       -15.4142
  40   2.0000      -0.559032       -15.2120
  41   2.0000      -0.559032       -15.2120
  42   2.0000      -0.543678       -14.7942
  43   2.0000      -0.498407       -13.5624
  44   2.0000      -0.498407       -13.5623
  45   2.0000      -0.405036       -11.0216
  46   2.0000      -0.374431       -10.1888
  47   2.0000      -0.374431       -10.1888
  48   2.0000      -0.319500        -8.6940
  49   2.0000      -0.248635        -6.7657
  50   2.0000      -0.248635        -6.7657
  51   0.0000       0.026436         0.7194
  52   0.0000       0.027046         0.7360
  53   0.0000       0.027047         0.7360
  54   0.0000       0.038195         1.0393
  55   0.0000       0.038196         1.0394

MULLIKEN ATOMIC CHARGES
-----------------------
   0 C :   -1.510131
   1 C :   -1.510266
   2 C :   -1.510169
   3 C :   -0.890827
   4 C :   -0.890834
   5 C :   -0.890849
   6 C :    1.239769
   7 C :    1.240061
   8 C :    1.239984
   9 C :    0.318895
  10 C :    0.318947
  11 C :    0.319035
  12 N :   -0.408108
  13 N :   -0.408160
  14 N :   -0.408190
  15 H :    0.521486
  16 H :    0.521477
  17 H :    0.521497
  18 H :    0.734605
  19 H :    0.734643
  20 H :    0.734620
  21 H :   -0.005838
  22 H :   -0.005815
  23 H :   -0.005833
Sum of atomic charges:   -0.0000000

LOEWDIN ATOMIC CHARGES
----------------------
   0 C :    0.222230
   1 C :    0.222231
   2 C :    0.222231
   3 C :    0.129492
   4 C :    0.129493
   5 C :    0.129493
   6 C :   -0.089385
   7 C :   -0.089385
   8 C :   -0.089384
   9 C :   -0.183320
  10 C :   -0.183321
  11 C :   -0.183320
  12 N :    0.543285
  13 N :    0.543284
  14 N :    0.543285
  15 H :   -0.195152
  16 H :   -0.195153
  17 H :   -0.195153
  18 H :   -0.178074
  19 H :   -0.178074
  20 H :   -0.178075
  21 H :   -0.249077
  22 H :   -0.249076
  23 H :   -0.249076

  Mayer bond orders larger than 0.100000
B(  0-C ,  3-C ) :   1.4142 B(  0-C ,  6-C ) :  -0.1630 B(  0-C ,  7-C ) :   0.3452
B(  0-C ,  8-C ) :   0.3729 B(  0-C ,  9-C ) :   1.0235 B(  0-C , 10-C ) :  -0.3617
B(  0-C , 11-C ) :  -0.4230 B(  0-C , 12-N ) :  -0.1325 B(  0-C , 15-H ) :   0.7148
B(  1-C ,  4-C ) :   1.4142 B(  1-C ,  6-C ) :   0.3728 B(  1-C ,  7-C ) :  -0.1633
B(  1-C ,  8-C ) :   0.3451 B(  1-C ,  9-C ) :  -0.4225 B(  1-C , 10-C ) :   1.0233
B(  1-C , 11-C ) :  -0.3617 B(  1-C , 13-N ) :  -0.1325 B(  1-C , 16-H ) :   0.7148
B(  2-C ,  5-C ) :   1.4142 B(  2-C ,  6-C ) :   0.3453 B(  2-C ,  7-C ) :   0.3730
B(  2-C ,  8-C ) :  -0.1629 B(  2-C ,  9-C ) :  -0.3618 B(  2-C , 10-C ) :  -0.4227
B(  2-C , 11-C ) :   1.0231 B(  2-C , 14-N ) :  -0.1325 B(  2-C , 17-H ) :   0.7148
B(  3-C ,  6-C ) :  -0.6547 B(  3-C ,  7-C ) :  -0.2043 B(  3-C ,  8-C ) :  -0.1083
B(  3-C , 10-C ) :   0.1137 B(  3-C , 11-C ) :   0.2709 B(  3-C , 12-N ) :   1.3583
B(  3-C , 18-H ) :   0.2991 B(  4-C ,  6-C ) :  -0.1082 B(  4-C ,  7-C ) :  -0.6547
B(  4-C ,  8-C ) :  -0.2043 B(  4-C ,  9-C ) :   0.2708 B(  4-C , 11-C ) :   0.1137
B(  4-C , 13-N ) :   1.3583 B(  4-C , 19-H ) :   0.2991 B(  5-C ,  6-C ) :  -0.2041
B(  5-C ,  7-C ) :  -0.1083 B(  5-C ,  8-C ) :  -0.6552 B(  5-C ,  9-C ) :   0.1138
B(  5-C , 10-C ) :   0.2706 B(  5-C , 14-N ) :   1.3584 B(  5-C , 20-H ) :   0.2991
B(  6-C ,  7-C ) :  -0.4743 B(  6-C ,  8-C ) :  -0.4749 B(  6-C ,  9-C ) :  -0.1900
B(  6-C , 10-C ) :   0.5768 B(  6-C , 11-C ) :   2.0837 B(  6-C , 12-N ) :  -0.7361
B(  6-C , 21-H ) :  -0.1252 B(  7-C ,  8-C ) :  -0.4747 B(  7-C ,  9-C ) :   2.0829
B(  7-C , 10-C ) :  -0.1893 B(  7-C , 11-C ) :   0.5766 B(  7-C , 13-N ) :  -0.7365
B(  7-C , 22-H ) :  -0.1251 B(  8-C ,  9-C ) :   0.5767 B(  8-C , 10-C ) :   2.0841
B(  8-C , 11-C ) :  -0.1889 B(  8-C , 14-N ) :  -0.7362 B(  8-C , 23-H ) :  -0.1251
B(  9-C , 10-C ) :  -1.4323 B(  9-C , 11-C ) :  -1.4320 B(  9-C , 12-N ) :   0.5682
B(  9-C , 13-N ) :   0.1395 B(  9-C , 16-H ) :   0.1397 B(  9-C , 21-H ) :   0.1092
B( 10-C , 11-C ) :  -1.4327 B( 10-C , 13-N ) :   0.5681 B( 10-C , 14-N ) :   0.1396
B( 10-C , 17-H ) :   0.1399 B( 10-C , 22-H ) :   0.1091 B( 11-C , 12-N ) :   0.1396
B( 11-C , 14-N ) :   0.5680 B( 11-C , 15-H ) :   0.1397 B( 11-C , 23-H ) :   0.1092
B( 12-N , 21-H ) :   1.3002 B( 13-N , 22-H ) :   1.3002 B( 14-N , 23-H ) :   1.3002

MP2 TOTAL ENERGY:     -625.744485756 Eh
FINAL SINGLE POINT ENERGY      -625.744485755624

DIPOLE MOMENT
-------------
                                X             Y             Z
Electronic contribution:      0.00000      -0.00000      -0.00000
Nuclear contribution   :     -0.00000       0.00000       0.00000
                        -----------------------------------------
Total Dipole Moment    :     -0.00000      -0.00000      -0.00000
                        -----------------------------------------
Magnitude (a.u.)       :      0.00000
Magnitude (Debye)      :      0.00000

Rotational constants in cm-1:     0.025998     0.025998     0.012999
Rotational constants in MHz :   779.390853   779.390774   389.695407

                             ****ORCA TERMINATED NORMALLY****
TOTAL RUN TIME: 0 days 0 hours 34 minutes 38 seconds 943 msec
