                         Program Version 5.0.3 -  RELEASE  -
|  1> !ri-mp2 aug-cc-pvtz aug-cc-pvtz/c tightscf
|  2> %pal nprocs 16 end
|  3>
|  4> * xyz 0 1
|  5> C      2.784969   -0.371669   -0.128185
|  6> C      1.353327   -0.290285    0.397998
|  7> C      0.523956    0.782957   -0.309707
|  8> C     -0.898001    0.948281    0.219480
|  9> S     -1.902817   -0.567172   -0.109965
| 10> H      3.355821   -1.140150    0.394167
| 11> H      3.309752    0.577267    0.001618
| 12> H      2.800602   -0.614167   -1.192643
| 13> H      1.367691   -0.079826    1.471581
| 14> H      0.869424   -1.263165    0.287020
| 15> H      0.488279    0.573674   -1.382567
| 16> H      1.026483    1.749510   -0.202216
| 17> H     -0.887504    1.133147    1.293120
| 18> H     -1.385788    1.786314   -0.273539
| 19> H     -3.085182   -0.063565    0.285377
| 20> *
| 21>
| 22>                          ****END OF INPUT****

CARTESIAN COORDINATES (ANGSTROEM)
---------------------------------
  C      2.784969   -0.371669   -0.128185
  C      1.353327   -0.290285    0.397998
  C      0.523956    0.782957   -0.309707
  C     -0.898001    0.948281    0.219480
  S     -1.902817   -0.567172   -0.109965
  H      3.355821   -1.140150    0.394167
  H      3.309752    0.577267    0.001618
  H      2.800602   -0.614167   -1.192643
  H      1.367691   -0.079826    1.471581
  H      0.869424   -1.263165    0.287020
  H      0.488279    0.573674   -1.382567
  H      1.026483    1.749510   -0.202216
  H     -0.887504    1.133147    1.293120
  H     -1.385788    1.786314   -0.273539
  H     -3.085182   -0.063565    0.285377

 Total Charge           Charge          ....    0
 Multiplicity           Mult            ....    1
 Number of Electrons    NEL             ....   50
 Basis Dimension        Dim             ....  464

ORBITAL ENERGIES
----------------

  NO   OCC          E(Eh)            E(eV)
   0   2.0000     -91.947943     -2502.0307
   1   2.0000     -11.260660      -306.4182
   2   2.0000     -11.229635      -305.5739
   3   2.0000     -11.221157      -305.3432
   4   2.0000     -11.213717      -305.1408
   5   2.0000      -8.948821      -243.5098
   6   2.0000      -6.630150      -180.4156
   7   2.0000      -6.629178      -180.3891
   8   2.0000      -6.628171      -180.3617
   9   2.0000      -1.092012       -29.7151
  10   2.0000      -1.019261       -27.7355
  11   2.0000      -0.932430       -25.3727
  12   2.0000      -0.845364       -23.0035
  13   2.0000      -0.785426       -21.3725
  14   2.0000      -0.647334       -17.6148
  15   2.0000      -0.614428       -16.7194
  16   2.0000      -0.595088       -16.1932
  17   2.0000      -0.571616       -15.5545
  18   2.0000      -0.528056       -14.3691
  19   2.0000      -0.514492       -14.0000
  20   2.0000      -0.485013       -13.1979
  21   2.0000      -0.477450       -12.9921
  22   2.0000      -0.470100       -12.7921
  23   2.0000      -0.437764       -11.9122
  24   2.0000      -0.352753        -9.5989
  25   0.0000       0.029551         0.8041
  26   0.0000       0.034218         0.9311
  27   0.0000       0.038695         1.0530
  28   0.0000       0.041575         1.1313
  29   0.0000       0.052815         1.4372

MULLIKEN ATOMIC CHARGES
-----------------------
   0 C :   -0.960788
   1 C :   -0.438786
   2 C :   -0.400027
   3 C :   -0.400949
   4 S :   -0.287188
   5 H :    0.277259
   6 H :    0.269903
   7 H :    0.268046
   8 H :    0.247111
   9 H :    0.294017
  10 H :    0.311619
  11 H :    0.276492
  12 H :    0.230631
  13 H :    0.274053
  14 H :    0.038607
Sum of atomic charges:    0.0000000

LOEWDIN ATOMIC CHARGES
----------------------
   0 C :    0.578191
   1 C :    0.229286
   2 C :    0.180736
   3 C :   -0.079024
   4 S :    1.274662
   5 H :   -0.172802
   6 H :   -0.171699
   7 H :   -0.170229
   8 H :   -0.149128
   9 H :   -0.176292
  10 H :   -0.159930
  11 H :   -0.150247
  12 H :   -0.220358
  13 H :   -0.223784
  14 H :   -0.589382

  Mayer bond orders larger than 0.100000
B(  0-C ,  1-C ) :   0.8953 B(  0-C ,  5-H ) :   0.9749 B(  0-C ,  6-H ) :   0.9531
B(  0-C ,  7-H ) :   0.9537 B(  1-C ,  2-C ) :   0.8627 B(  1-C ,  8-H ) :   0.9642
B(  1-C ,  9-H ) :   0.9382 B(  2-C ,  3-C ) :   0.9911 B(  2-C , 10-H ) :   0.9103
B(  2-C , 11-H ) :   0.9274 B(  3-C ,  4-S ) :   0.9047 B(  3-C , 12-H ) :   0.9448
B(  3-C , 13-H ) :   0.9593 B(  4-S , 14-H ) :   1.0841

MP2 TOTAL ENERGY:     -555.804030723 Eh
FINAL SINGLE POINT ENERGY      -555.804030722728

DIPOLE MOMENT
-------------
                                X             Y             Z
Electronic contribution:     -8.06026      -2.16634      -0.50747
Nuclear contribution   :      8.24488       2.78694       0.71358
                        -----------------------------------------
Total Dipole Moment    :      0.18462       0.62059       0.20611
                        -----------------------------------------
Magnitude (a.u.)       :      0.67948
Magnitude (Debye)      :      1.72711

Rotational constants in cm-1:     0.310060     0.055798     0.050659
Rotational constants in MHz :  9295.369299  1672.775156  1518.704158

                             ****ORCA TERMINATED NORMALLY****
TOTAL RUN TIME: 0 days 0 hours 3 minutes 25 seconds 495 msec
