                         Program Version 5.0.3 -  RELEASE  -
|  1> !ri-mp2 aug-cc-pvtz aug-cc-pvtz/c tightscf
|  2> %pal nprocs 16 end
|  3>
|  4> * xyz 0 1
|  5> C     0.000000     1.843020    0.753782
|  6> C     0.427743     0.611952    0.000000
|  7> C     0.000000     1.843020   -0.753782
|  8> C    -0.427743    -0.611952    0.000000
|  9> C     0.000000    -1.843020    0.753782
| 10> C     0.000000    -1.843020   -0.753782
| 11> H     0.754138     2.423213    1.266843
| 12> H    -0.956630     1.813429    1.257842
| 13> H     1.492677     0.407118    0.000000
| 14> H    -0.956630     1.813429   -1.257842
| 15> H     0.754138     2.423213   -1.266843
| 16> H    -1.492677    -0.407118    0.000000
| 17> H    -0.754138    -2.423213    1.266843
| 18> H     0.956630    -1.813429    1.257842
| 19> H     0.956630    -1.813429   -1.257842
| 20> H    -0.754138    -2.423213   -1.266843
| 21> *
| 22>
| 23>                          ****END OF INPUT****

CARTESIAN COORDINATES (ANGSTROEM)
---------------------------------
  C      0.000000    1.843020    0.753782
  C      0.427743    0.611952    0.000000
  C      0.000000    1.843020   -0.753782
  C     -0.427743   -0.611952    0.000000
  C      0.000000   -1.843020    0.753782
  C      0.000000   -1.843020   -0.753782
  H      0.754138    2.423213    1.266843
  H     -0.956630    1.813429    1.257842
  H      1.492677    0.407118    0.000000
  H     -0.956630    1.813429   -1.257842
  H      0.754138    2.423213   -1.266843
  H     -1.492677   -0.407118    0.000000
  H     -0.754138   -2.423213    1.266843
  H      0.956630   -1.813429    1.257842
  H      0.956630   -1.813429   -1.257842
  H     -0.754138   -2.423213   -1.266843

 Total Charge           Charge          ....    0
 Multiplicity           Mult            ....    1
 Number of Electrons    NEL             ....   46
 Basis Dimension        Dim             ....  506

ORBITAL ENERGIES
----------------

  NO   OCC          E(Eh)            E(eV)
   0   2.0000     -11.229463      -305.5692
   1   2.0000     -11.228776      -305.5505
   2   2.0000     -11.219454      -305.2969
   3   2.0000     -11.219451      -305.2968
   4   2.0000     -11.218811      -305.2794
   5   2.0000     -11.218806      -305.2792
   6   2.0000      -1.159185       -31.5430
   7   2.0000      -1.110789       -30.2261
   8   2.0000      -0.866248       -23.5718
   9   2.0000      -0.824252       -22.4290
  10   2.0000      -0.812606       -22.1121
  11   2.0000      -0.765352       -20.8263
  12   2.0000      -0.667872       -18.1737
  13   2.0000      -0.658854       -17.9283
  14   2.0000      -0.615661       -16.7530
  15   2.0000      -0.572784       -15.5862
  16   2.0000      -0.513173       -13.9641
  17   2.0000      -0.511653       -13.9228
  18   2.0000      -0.486275       -13.2322
  19   2.0000      -0.471126       -12.8200
  20   2.0000      -0.438312       -11.9271
  21   2.0000      -0.398669       -10.8483
  22   2.0000      -0.367664       -10.0046
  23   0.0000       0.031451         0.8558
  24   0.0000       0.034843         0.9481
  25   0.0000       0.035709         0.9717
  26   0.0000       0.037176         1.0116
  27   0.0000       0.052635         1.4323

MULLIKEN ATOMIC CHARGES
-----------------------
   0 C :   -1.083594
   1 C :    0.231039
   2 C :   -1.083594
   3 C :    0.231039
   4 C :   -1.083594
   5 C :   -1.083594
   6 H :    0.346761
   7 H :    0.298204
   8 H :    0.646218
   9 H :    0.298204
  10 H :    0.346761
  11 H :    0.646218
  12 H :    0.346761
  13 H :    0.298204
  14 H :    0.298204
  15 H :    0.346761
Sum of atomic charges:   -0.0000000

LOEWDIN ATOMIC CHARGES
----------------------
   0 C :    0.372162
   1 C :    0.030473
   2 C :    0.372162
   3 C :    0.030473
   4 C :    0.372162
   5 C :    0.372162
   6 H :   -0.160844
   7 H :   -0.159393
   8 H :   -0.134325
   9 H :   -0.159393
  10 H :   -0.160844
  11 H :   -0.134325
  12 H :   -0.160844
  13 H :   -0.159393
  14 H :   -0.159393
  15 H :   -0.160844

  Mayer bond orders larger than 0.100000
B(  0-C ,  1-C ) :   0.5328 B(  0-C ,  2-C ) :   1.4925 B(  0-C ,  3-C ) :  -0.1234
B(  0-C ,  6-H ) :   0.8655 B(  0-C ,  7-H ) :   0.9196 B(  0-C ,  8-H ) :  -0.2417
B(  0-C , 11-H ) :  -0.1008 B(  1-C ,  2-C ) :   0.5328 B(  1-C ,  3-C ) :   0.7044
B(  1-C ,  4-C ) :  -0.1234 B(  1-C ,  5-C ) :  -0.1234 B(  1-C ,  8-H ) :   0.5913
B(  2-C ,  3-C ) :  -0.1234 B(  2-C ,  8-H ) :  -0.2417 B(  2-C ,  9-H ) :   0.9196
B(  2-C , 10-H ) :   0.8655 B(  2-C , 11-H ) :  -0.1008 B(  3-C ,  4-C ) :   0.5328
B(  3-C ,  5-C ) :   0.5328 B(  3-C , 11-H ) :   0.5913 B(  4-C ,  5-C ) :   1.4925
B(  4-C ,  8-H ) :  -0.1008 B(  4-C , 11-H ) :  -0.2417 B(  4-C , 12-H ) :   0.8655
B(  4-C , 13-H ) :   0.9196 B(  5-C ,  8-H ) :  -0.1008 B(  5-C , 11-H ) :  -0.2417
B(  5-C , 14-H ) :   0.9196 B(  5-C , 15-H ) :   0.8655

MP2 TOTAL ENERGY:     -234.071279941 Eh
FINAL SINGLE POINT ENERGY      -234.071279940875

DIPOLE MOMENT
-------------
                                X             Y             Z
Electronic contribution:      0.00000      -0.00000       0.00000
Nuclear contribution   :     -0.00000       0.00000      -0.00000
                        -----------------------------------------
Total Dipole Moment    :      0.00000      -0.00000       0.00000
                        -----------------------------------------
Magnitude (a.u.)       :      0.00000
Magnitude (Debye)      :      0.00000

Rotational constants in cm-1:     0.308189     0.075148     0.067451
Rotational constants in MHz :  9239.280437  2252.867815  2022.127919

                             ****ORCA TERMINATED NORMALLY****
TOTAL RUN TIME: 0 days 0 hours 4 minutes 22 seconds 491 msec
