                         Program Version 5.0.3 -  RELEASE  -
|  1> !ri-mp2 aug-cc-pvtz aug-cc-pvtz/c tightscf
|  2> %pal nprocs 16 end
|  3>
|  4> * xyz 0 1
|  5> O      3.189684   -0.076657   -0.064099
|  6> O     -3.189684    0.076659   -0.064103
|  7> C      0.681541   -0.006531   -0.008790
|  8> C     -0.681541    0.006524   -0.008791
|  9> C      1.886110   -0.000033    0.003758
| 10> C     -1.886111    0.000032    0.003757
| 11> H      3.604742    0.550174    0.542991
| 12> H     -3.604744   -0.550143    0.543017
| 13> *
| 14>
| 15>                          ****END OF INPUT****

CARTESIAN COORDINATES (ANGSTROEM)
---------------------------------
  O      3.189684   -0.076657   -0.064099
  O     -3.189684    0.076659   -0.064103
  C      0.681541   -0.006531   -0.008790
  C     -0.681541    0.006524   -0.008791
  C      1.886110   -0.000033    0.003758
  C     -1.886111    0.000032    0.003757
  H      3.604742    0.550174    0.542991
  H     -3.604744   -0.550143    0.543017

 Total Charge           Charge          ....    0
 Multiplicity           Mult            ....    1
 Number of Electrons    NEL             ....   42
 Basis Dimension        Dim             ....  322

ORBITAL ENERGIES
----------------

  NO   OCC          E(Eh)            E(eV)
   0   2.0000     -20.643842      -561.7475
   1   2.0000     -20.643842      -561.7475
   2   2.0000     -11.304798      -307.6192
   3   2.0000     -11.304789      -307.6190
   4   2.0000     -11.243038      -305.9386
   5   2.0000     -11.241786      -305.9046
   6   2.0000      -1.455645       -39.6101
   7   2.0000      -1.455595       -39.6088
   8   2.0000      -1.075293       -29.2602
   9   2.0000      -1.006765       -27.3955
  10   2.0000      -0.855906       -23.2904
  11   2.0000      -0.818337       -22.2681
  12   2.0000      -0.768822       -20.9207
  13   2.0000      -0.674543       -18.3552
  14   2.0000      -0.671868       -18.2825
  15   2.0000      -0.628266       -17.0960
  16   2.0000      -0.628067       -17.0906
  17   2.0000      -0.463914       -12.6237
  18   2.0000      -0.463449       -12.6111
  19   2.0000      -0.336192        -9.1482
  20   2.0000      -0.335395        -9.1266
  21   0.0000       0.021929         0.5967
  22   0.0000       0.025056         0.6818
  23   0.0000       0.072790         1.9807
  24   0.0000       0.078240         2.1290
  25   0.0000       0.078951         2.1484

MULLIKEN ATOMIC CHARGES
-----------------------
   0 O :   -0.439654
   1 O :   -0.439655
   2 C :    0.334457
   3 C :    0.334457
   4 C :   -0.128939
   5 C :   -0.128938
   6 H :    0.234136
   7 H :    0.234137
Sum of atomic charges:   -0.0000000

LOEWDIN ATOMIC CHARGES
----------------------
   0 O :    0.767311
   1 O :    0.767310
   2 C :   -0.123253
   3 C :   -0.123252
   4 C :   -0.183012
   5 C :   -0.183013
   6 H :   -0.461046
   7 H :   -0.461044

  Mayer bond orders larger than 0.100000
B(  0-O ,  2-C ) :   0.1838 B(  0-O ,  4-C ) :   0.7203 B(  0-O ,  5-C ) :  -0.1579
B(  0-O ,  6-H ) :   0.9742 B(  1-O ,  3-C ) :   0.1838 B(  1-O ,  4-C ) :  -0.1579
B(  1-O ,  5-C ) :   0.7203 B(  1-O ,  7-H ) :   0.9742 B(  2-C ,  3-C ) :   1.7540
B(  2-C ,  4-C ) :   1.3256 B(  2-C ,  5-C ) :  -1.2026 B(  3-C ,  4-C ) :  -1.2025
B(  3-C ,  5-C ) :   1.3256 B(  4-C ,  5-C ) :   2.5186

MP2 TOTAL ENERGY:     -303.393718142 Eh
FINAL SINGLE POINT ENERGY      -303.393718142213

DIPOLE MOMENT
-------------
                                X             Y             Z
Electronic contribution:     -0.00000      -0.00001      -0.19840
Nuclear contribution   :     -0.00000       0.00003       1.04199
                        -----------------------------------------
Total Dipole Moment    :     -0.00000       0.00002       0.84359
                        -----------------------------------------
Magnitude (a.u.)       :      0.84359
Magnitude (Debye)      :      2.14424

Rotational constants in cm-1:    11.400909     0.037536     0.037531
Rotational constants in MHz : 341790.640996  1125.292412  1125.165354

                             ****ORCA TERMINATED NORMALLY****
TOTAL RUN TIME: 0 days 0 hours 1 minutes 21 seconds 917 msec
