                         Program Version 5.0.3 -  RELEASE  -
|  1> !ri-mp2 aug-cc-pvtz aug-cc-pvtz/c tightscf
|  2> %pal nprocs 16 end
|  3>
|  4> * xyz 0 1
|  5> C     -0.252798    0.723681    0.616235
|  6> C      0.252798    1.571360   -0.551646
|  7> C      0.252798   -0.723681    0.616235
|  8> C     -0.252798   -1.571360   -0.551646
|  9> H     -0.104388    2.599202   -0.473491
| 10> H      0.083428   -1.182319   -1.513402
| 11> H     -1.344623   -1.601548   -0.570383
| 12> H     -0.083428    1.182319   -1.513402
| 13> H      0.104388   -2.599202   -0.473491
| 14> H      1.344623    1.601548   -0.570383
| 15> H     -1.347442    0.719895    0.615666
| 16> H      0.047102    1.198634    1.554079
| 17> H      1.347442   -0.719895    0.615666
| 18> H     -0.047102   -1.198634    1.554079
| 19> *
| 20>
| 21>                          ****END OF INPUT****

CARTESIAN COORDINATES (ANGSTROEM)
---------------------------------
  C     -0.252798    0.723681    0.616235
  C      0.252798    1.571360   -0.551646
  C      0.252798   -0.723681    0.616235
  C     -0.252798   -1.571360   -0.551646
  H     -0.104388    2.599202   -0.473491
  H      0.083428   -1.182319   -1.513402
  H     -1.344623   -1.601548   -0.570383
  H     -0.083428    1.182319   -1.513402
  H      0.104388   -2.599202   -0.473491
  H      1.344623    1.601548   -0.570383
  H     -1.347442    0.719895    0.615666
  H      0.047102    1.198634    1.554079
  H      1.347442   -0.719895    0.615666
  H     -0.047102   -1.198634    1.554079

 Total Charge           Charge          ....    0
 Multiplicity           Mult            ....    1
 Number of Electrons    NEL             ....   34
 Basis Dimension        Dim             ....  414

ORBITAL ENERGIES
----------------

  NO   OCC          E(Eh)            E(eV)
   0   2.0000     -11.215126      -305.1791
   1   2.0000     -11.214528      -305.1628
   2   2.0000     -11.208153      -304.9893
   3   2.0000     -11.208152      -304.9893
   4   2.0000      -1.068063       -29.0635
   5   2.0000      -0.975445       -26.5432
   6   2.0000      -0.872696       -23.7473
   7   2.0000      -0.776127       -21.1195
   8   2.0000      -0.621748       -16.9186
   9   2.0000      -0.618086       -16.8190
  10   2.0000      -0.573243       -15.5987
  11   2.0000      -0.533071       -14.5056
  12   2.0000      -0.530444       -14.4341
  13   2.0000      -0.503248       -13.6941
  14   2.0000      -0.462086       -12.5740
  15   2.0000      -0.457878       -12.4595
  16   2.0000      -0.456514       -12.4224
  17   0.0000       0.031900         0.8680
  18   0.0000       0.037818         1.0291
  19   0.0000       0.039183         1.0662
  20   0.0000       0.040750         1.1089
  21   0.0000       0.057148         1.5551

MULLIKEN ATOMIC CHARGES
-----------------------
   0 C :   -0.411221
   1 C :   -0.940269
   2 C :   -0.411221
   3 C :   -0.940269
   4 H :    0.287380
   5 H :    0.296811
   6 H :    0.263451
   7 H :    0.296811
   8 H :    0.287380
   9 H :    0.263451
  10 H :    0.245890
  11 H :    0.257958
  12 H :    0.245890
  13 H :    0.257958
Sum of atomic charges:   -0.0000000

LOEWDIN ATOMIC CHARGES
----------------------
   0 C :    0.255235
   1 C :    0.573563
   2 C :    0.255235
   3 C :    0.573563
   4 H :   -0.173438
   5 H :   -0.181042
   6 H :   -0.168734
   7 H :   -0.181042
   8 H :   -0.173438
   9 H :   -0.168734
  10 H :   -0.151825
  11 H :   -0.153758
  12 H :   -0.151825
  13 H :   -0.153758

  Mayer bond orders larger than 0.100000
B(  0-C ,  1-C ) :   0.8630 B(  0-C ,  2-C ) :   0.8728 B(  0-C , 10-H ) :   0.9511
B(  0-C , 11-H ) :   0.9601 B(  1-C ,  4-H ) :   0.9587 B(  1-C ,  7-H ) :   0.9279
B(  1-C ,  9-H ) :   0.9568 B(  2-C ,  3-C ) :   0.8630 B(  2-C , 12-H ) :   0.9511
B(  2-C , 13-H ) :   0.9601 B(  3-C ,  5-H ) :   0.9279 B(  3-C ,  6-H ) :   0.9568
B(  3-C ,  8-H ) :   0.9587

MP2 TOTAL ENERGY:     -158.084034387 Eh
FINAL SINGLE POINT ENERGY      -158.084034386844

DIPOLE MOMENT
-------------
                                X             Y             Z
Electronic contribution:      0.00000      -0.00000       0.88828
Nuclear contribution   :      0.00000      -0.00000      -0.85148
                        -----------------------------------------
Total Dipole Moment    :      0.00000      -0.00000       0.03680
                        -----------------------------------------
Magnitude (a.u.)       :      0.03680
Magnitude (Debye)      :      0.09354

Rotational constants in cm-1:     0.447713     0.156290     0.134036
Rotational constants in MHz : 13422.112160  4685.460288  4018.290901

                             ****ORCA TERMINATED NORMALLY****
TOTAL RUN TIME: 0 days 0 hours 2 minutes 2 seconds 133 msec
