                         Program Version 5.0.3 -  RELEASE  -
|  1> !ri-mp2 aug-cc-pvtz aug-cc-pvtz/c tightscf
|  2> %pal nprocs 16 end
|  3>
|  4> * xyz 0 1
|  5> C     -0.275084   -0.023840    0.000001
|  6> C     -1.476686    0.011199   -0.000006
|  7> C      1.173929   -0.141273    0.000002
|  8> C     -2.928915    0.034761    0.000001
|  9> N      1.835717    1.050955    0.000032
| 10> O      1.744529   -1.217101   -0.000005
| 11> H     -3.308404    0.552873    0.882157
| 12> H     -3.334521   -0.977755   -0.000225
| 13> H     -3.308412    0.553273   -0.881917
| 14> H      2.841046    1.040814   -0.000076
| 15> H      1.344570    1.925831   -0.000104
| 16> *
| 17>
| 18>                          ****END OF INPUT****

CARTESIAN COORDINATES (ANGSTROEM)
---------------------------------
  C     -0.275084   -0.023840    0.000001
  C     -1.476686    0.011199   -0.000006
  C      1.173929   -0.141273    0.000002
  C     -2.928915    0.034761    0.000001
  N      1.835717    1.050955    0.000032
  O      1.744529   -1.217101   -0.000005
  H     -3.308404    0.552873    0.882157
  H     -3.334521   -0.977755   -0.000225
  H     -3.308412    0.553273   -0.881917
  H      2.841046    1.040814   -0.000076
  H      1.344570    1.925831   -0.000104

 Total Charge           Charge          ....    0
 Multiplicity           Mult            ....    1
 Number of Electrons    NEL             ....   44
 Basis Dimension        Dim             ....  391

ORBITAL ENERGIES
----------------

  NO   OCC          E(Eh)            E(eV)
   0   2.0000     -20.527647      -558.5857
   1   2.0000     -15.592138      -424.2836
   2   2.0000     -11.378043      -309.6123
   3   2.0000     -11.263939      -306.5074
   4   2.0000     -11.260860      -306.4236
   5   2.0000     -11.236965      -305.7734
   6   2.0000      -1.389668       -37.8148
   7   2.0000      -1.220294       -33.2059
   8   2.0000      -1.082013       -29.4431
   9   2.0000      -0.990843       -26.9622
  10   2.0000      -0.872804       -23.7502
  11   2.0000      -0.759279       -20.6610
  12   2.0000      -0.697380       -18.9767
  13   2.0000      -0.651799       -17.7364
  14   2.0000      -0.617027       -16.7902
  15   2.0000      -0.609093       -16.5743
  16   2.0000      -0.606774       -16.5112
  17   2.0000      -0.583684       -15.8828
  18   2.0000      -0.453153       -12.3309
  19   2.0000      -0.420566       -11.4442
  20   2.0000      -0.399975       -10.8839
  21   2.0000      -0.399841       -10.8802
  22   0.0000       0.021775         0.5925
  23   0.0000       0.029665         0.8072
  24   0.0000       0.042959         1.1690
  25   0.0000       0.044233         1.2036
  26   0.0000       0.054741         1.4896

MULLIKEN ATOMIC CHARGES
-----------------------
   0 C :    1.123599
   1 C :   -0.279181
   2 C :    0.061000
   3 C :   -1.053433
   4 N :   -0.322668
   5 O :   -0.731095
   6 H :    0.296044
   7 H :    0.300801
   8 H :    0.296029
   9 H :    0.138766
  10 H :    0.170139
Sum of atomic charges:    0.0000000

LOEWDIN ATOMIC CHARGES
----------------------
   0 C :    0.057976
   1 C :    0.088846
   2 C :   -0.774332
   3 C :    0.528574
   4 N :    0.830234
   5 O :    0.411688
   6 H :   -0.181613
   7 H :   -0.180164
   8 H :   -0.181614
   9 H :   -0.292553
  10 H :   -0.307041

  Mayer bond orders larger than 0.100000
B(  0-C ,  1-C ) :   2.0461 B(  0-C ,  2-C ) :   0.1578 B(  0-C ,  3-C ) :  -0.2194
B(  0-C ,  4-N ) :  -0.2031 B(  0-C ,  5-O ) :  -0.1527 B(  1-C ,  2-C ) :   0.1095
B(  1-C ,  3-C ) :   1.2924 B(  2-C ,  3-C ) :   0.1956 B(  2-C ,  4-N ) :   1.1571
B(  2-C ,  5-O ) :   1.5090 B(  3-C ,  6-H ) :   0.9358 B(  3-C ,  7-H ) :   0.9442
B(  3-C ,  8-H ) :   0.9358 B(  4-N ,  9-H ) :   1.0422 B(  4-N , 10-H ) :   1.0175

MP2 TOTAL ENERGY:     -284.842957855 Eh
FINAL SINGLE POINT ENERGY      -284.842957854913

DIPOLE MOMENT
-------------
                                X             Y             Z
Electronic contribution:      4.71642      -1.51325       0.00003
Nuclear contribution   :     -5.69610       3.06515      -0.00016
                        -----------------------------------------
Total Dipole Moment    :     -0.97967       1.55190      -0.00014
                        -----------------------------------------
Magnitude (a.u.)       :      1.83525
Magnitude (Debye)      :      4.66484

Rotational constants in cm-1:     0.357153     0.058718     0.050905
Rotational constants in MHz : 10707.170596  1760.335423  1526.107154

                             ****ORCA TERMINATED NORMALLY****
TOTAL RUN TIME: 0 days 0 hours 1 minutes 59 seconds 133 msec
