                         Program Version 5.0.3 -  RELEASE  -
|  1> !ri-mp2 aug-cc-pvtz aug-cc-pvtz/c tightscf
|  2> %pal nprocs 16 end
|  3>
|  4> * xyz 0 1
|  5> C      0.571069   -2.149970        0.000000
|  6> C      1.611083   -1.227341        0.000000
|  7> C     -0.754728   -1.717051        0.000000
|  8> C      1.324206    0.131604        0.000000
|  9> C     -1.041517   -0.362317        0.000000
| 10> C      0.000000    0.570512        0.000000
| 11> C     -0.284070    2.020789        0.000000
| 12> O     -1.388905    2.512174        0.000000
| 13> H      0.790975   -3.209245        0.000000
| 14> H      2.637810   -1.566777        0.000000
| 15> H     -1.558218   -2.441065        0.000000
| 16> H      2.126678    0.859329        0.000000
| 17> H     -2.060939   -0.001955        0.000000
| 18> H      0.618676    2.664963        0.000000
| 19> *
| 20>
| 21>                          ****END OF INPUT****

CARTESIAN COORDINATES (ANGSTROEM)
---------------------------------
  C      0.571069   -2.149970    0.000000
  C      1.611083   -1.227341    0.000000
  C     -0.754728   -1.717051    0.000000
  C      1.324206    0.131604    0.000000
  C     -1.041517   -0.362317    0.000000
  C      0.000000    0.570512    0.000000
  C     -0.284070    2.020789    0.000000
  O     -1.388905    2.512174    0.000000
  H      0.790975   -3.209245    0.000000
  H      2.637810   -1.566777    0.000000
  H     -1.558218   -2.441065    0.000000
  H      2.126678    0.859329    0.000000
  H     -2.060939   -0.001955    0.000000
  H      0.618676    2.664963    0.000000

 Total Charge           Charge          ....    0
 Multiplicity           Mult            ....    1
 Number of Electrons    NEL             ....   56
 Basis Dimension        Dim             ....  506

ORBITAL ENERGIES
----------------

  NO   OCC          E(Eh)            E(eV)
   0   2.0000     -20.556145      -559.3611
   1   2.0000     -11.335284      -308.4488
   2   2.0000     -11.260940      -306.4258
   3   2.0000     -11.258386      -306.3563
   4   2.0000     -11.254336      -306.2461
   5   2.0000     -11.252536      -306.1971
   6   2.0000     -11.251077      -306.1574
   7   2.0000     -11.249472      -306.1137
   8   2.0000      -1.393082       -37.9077
   9   2.0000      -1.175454       -31.9857
  10   2.0000      -1.052831       -28.6490
  11   2.0000      -1.036353       -28.2006
  12   2.0000      -0.895704       -24.3734
  13   2.0000      -0.848562       -23.0905
  14   2.0000      -0.793914       -21.6035
  15   2.0000      -0.722301       -19.6548
  16   2.0000      -0.680598       -18.5200
  17   2.0000      -0.655611       -17.8401
  18   2.0000      -0.622446       -16.9376
  19   2.0000      -0.617262       -16.7966
  20   2.0000      -0.606589       -16.5061
  21   2.0000      -0.556791       -15.1511
  22   2.0000      -0.532074       -14.4785
  23   2.0000      -0.511152       -13.9092
  24   2.0000      -0.504688       -13.7332
  25   2.0000      -0.429392       -11.6844
  26   2.0000      -0.357363        -9.7243
  27   2.0000      -0.353891        -9.6299
  28   0.0000       0.024040         0.6542
  29   0.0000       0.030245         0.8230
  30   0.0000       0.036466         0.9923
  31   0.0000       0.045724         1.2442
  32   0.0000       0.052191         1.4202

MULLIKEN ATOMIC CHARGES
-----------------------
   0 C :   -0.193577
   1 C :   -0.605716
   2 C :   -0.627152
   3 C :   -0.916165
   4 C :   -0.765174
   5 C :    1.695274
   6 C :   -0.159158
   7 O :   -0.830346
   8 H :    0.394550
   9 H :    0.522102
  10 H :    0.522834
  11 H :    0.203891
  12 H :    0.226839
  13 H :    0.531800
Sum of atomic charges:    0.0000000

LOEWDIN ATOMIC CHARGES
----------------------
   0 C :    0.207526
   1 C :    0.208009
   2 C :    0.211456
   3 C :    0.196713
   4 C :    0.212401
   5 C :   -0.150988
   6 C :   -0.233537
   7 O :    0.438030
   8 H :   -0.179185
   9 H :   -0.184426
  10 H :   -0.183193
  11 H :   -0.179252
  12 H :   -0.177771
  13 H :   -0.185781

  Mayer bond orders larger than 0.100000
B(  0-C ,  1-C ) :   1.1766 B(  0-C ,  2-C ) :   1.0861 B(  0-C ,  3-C ) :  -0.1426
B(  0-C ,  6-C ) :   0.1154 B(  0-C ,  8-H ) :   0.9076 B(  1-C ,  2-C ) :   0.1227
B(  1-C ,  3-C ) :   1.2203 B(  1-C ,  8-H ) :  -0.1664 B(  1-C ,  9-H ) :   0.7124
B(  1-C , 11-H ) :  -0.1107 B(  2-C ,  4-C ) :   1.2546 B(  2-C ,  8-H ) :  -0.1559
B(  2-C , 10-H ) :   0.7016 B(  3-C ,  5-C ) :   0.3380 B(  3-C ,  8-H ) :   0.1320
B(  3-C ,  9-H ) :  -0.1356 B(  3-C , 11-H ) :   1.3889 B(  3-C , 12-H ) :   0.1273
B(  4-C ,  5-C ) :   0.4604 B(  4-C ,  6-C ) :   0.1482 B(  4-C ,  8-H ) :   0.1663
B(  4-C , 10-H ) :  -0.1326 B(  4-C , 11-H ) :   0.1216 B(  4-C , 12-H ) :   1.1371
B(  5-C ,  6-C ) :   0.4132 B(  5-C ,  7-O ) :  -0.1432 B(  5-C , 11-H ) :  -0.1851
B(  5-C , 12-H ) :  -0.1450 B(  6-C ,  7-O ) :   1.4531 B(  6-C , 13-H ) :   0.7012
B(  7-O , 13-H ) :  -0.1341

MP2 TOTAL ENERGY:     -344.896714171 Eh
FINAL SINGLE POINT ENERGY      -344.896714170936

DIPOLE MOMENT
-------------
                                X             Y             Z
Electronic contribution:     -1.46689       2.58606       0.00000
Nuclear contribution   :      2.51037      -3.62236       0.00000
                        -----------------------------------------
Total Dipole Moment    :      1.04348      -1.03630       0.00000
                        -----------------------------------------
Magnitude (a.u.)       :      1.47064
Magnitude (Debye)      :      3.73807

Rotational constants in cm-1:     0.176044     0.052234     0.040282
Rotational constants in MHz :  5277.666222  1565.928994  1207.618261

                             ****ORCA TERMINATED NORMALLY****
TOTAL RUN TIME: 0 days 0 hours 5 minutes 22 seconds 908 msec
