                         Program Version 5.0.3 -  RELEASE  -
|  1> !ri-mp2 aug-cc-pvtz aug-cc-pvtz/c tightscf
|  2> %pal nprocs 16 end
|  3>
|  4> * xyz 0 1
|  5> C      0.000000    0.000000    1.438198
|  6> C      0.000000    0.000000   -1.438198
|  7> O      0.000000    0.000000    2.656988
|  8> O      0.000000    0.000000   -2.656988
|  9> C      0.000000    1.265716    0.667837
| 10> C      0.000000   -1.265716    0.667837
| 11> C      0.000000   -1.265716   -0.667837
| 12> C      0.000000    1.265716   -0.667837
| 13> H      0.000000    2.176019    1.252736
| 14> H      0.000000   -2.176019    1.252736
| 15> H      0.000000   -2.176019   -1.252736
| 16> H      0.000000    2.176019   -1.252736
| 17> *
| 18>
| 19>                          ****END OF INPUT****

CARTESIAN COORDINATES (ANGSTROEM)
---------------------------------
  C      0.000000    0.000000    1.438198
  C      0.000000    0.000000   -1.438198
  O      0.000000    0.000000    2.656988
  O      0.000000    0.000000   -2.656988
  C      0.000000    1.265716    0.667837
  C      0.000000   -1.265716    0.667837
  C      0.000000   -1.265716   -0.667837
  C      0.000000    1.265716   -0.667837
  H      0.000000    2.176019    1.252736
  H      0.000000   -2.176019    1.252736
  H      0.000000   -2.176019   -1.252736
  H      0.000000    2.176019   -1.252736

 Total Charge           Charge          ....    0
 Multiplicity           Mult            ....    1
 Number of Electrons    NEL             ....   56
 Basis Dimension        Dim             ....  460

ORBITAL ENERGIES
----------------

  NO   OCC          E(Eh)            E(eV)
   0   2.0000     -20.580656      -560.0281
   1   2.0000     -20.580656      -560.0281
   2   2.0000     -11.362639      -309.1931
   3   2.0000     -11.362630      -309.1929
   4   2.0000     -11.284001      -307.0533
   5   2.0000     -11.283969      -307.0524
   6   2.0000     -11.282283      -307.0065
   7   2.0000     -11.282267      -307.0061
   8   2.0000      -1.416292       -38.5393
   9   2.0000      -1.413810       -38.4717
  10   2.0000      -1.162942       -31.6453
  11   2.0000      -1.079443       -29.3731
  12   2.0000      -0.967051       -26.3148
  13   2.0000      -0.876245       -23.8438
  14   2.0000      -0.833073       -22.6691
  15   2.0000      -0.719411       -19.5762
  16   2.0000      -0.716033       -19.4843
  17   2.0000      -0.691276       -18.8106
  18   2.0000      -0.644134       -17.5278
  19   2.0000      -0.631320       -17.1791
  20   2.0000      -0.607623       -16.5343
  21   2.0000      -0.598188       -16.2775
  22   2.0000      -0.586811       -15.9679
  23   2.0000      -0.556545       -15.1444
  24   2.0000      -0.466456       -12.6929
  25   2.0000      -0.443882       -12.0786
  26   2.0000      -0.418318       -11.3830
  27   2.0000      -0.413574       -11.2539
  28   0.0000       0.001499         0.0408
  29   0.0000       0.025791         0.7018
  30   0.0000       0.029848         0.8122
  31   0.0000       0.039051         1.0626
  32   0.0000       0.048543         1.3209

MULLIKEN ATOMIC CHARGES
-----------------------
   0 C :    1.070679
   1 C :    1.070679
   2 O :   -0.998608
   3 O :   -0.998608
   4 C :   -0.595693
   5 C :   -0.595693
   6 C :   -0.595693
   7 C :   -0.595693
   8 H :    0.559658
   9 H :    0.559658
  10 H :    0.559658
  11 H :    0.559658
Sum of atomic charges:   -0.0000000

LOEWDIN ATOMIC CHARGES
----------------------
   0 C :   -0.561173
   1 C :   -0.561173
   2 O :    0.469420
   3 O :    0.469420
   4 C :    0.226091
   5 C :    0.226091
   6 C :    0.226091
   7 C :    0.226091
   8 H :   -0.180214
   9 H :   -0.180214
  10 H :   -0.180214
  11 H :   -0.180214

  Mayer bond orders larger than 0.100000
B(  0-C ,  1-C ) :   0.1536 B(  0-C ,  2-O ) :   0.9771 B(  0-C ,  4-C ) :   0.8821
B(  0-C ,  5-C ) :   0.8821 B(  1-C ,  3-O ) :   0.9771 B(  1-C ,  6-C ) :   0.8821
B(  1-C ,  7-C ) :   0.8821 B(  4-C ,  5-C ) :   0.2475 B(  4-C ,  6-C ) :  -0.1317
B(  4-C ,  7-C ) :   1.8347 B(  4-C ,  8-H ) :   0.5384 B(  5-C ,  6-C ) :   1.8347
B(  5-C ,  7-C ) :  -0.1317 B(  5-C ,  9-H ) :   0.5384 B(  6-C ,  7-C ) :   0.2475
B(  6-C , 10-H ) :   0.5384 B(  7-C , 11-H ) :   0.5384

MP2 TOTAL ENERGY:     -380.765275678 Eh
FINAL SINGLE POINT ENERGY      -380.765275677535

DIPOLE MOMENT
-------------
                                X             Y             Z
Electronic contribution:     -0.00000       0.00000       0.00000
Nuclear contribution   :      0.00000       0.00000       0.00000
                        -----------------------------------------
Total Dipole Moment    :     -0.00000       0.00000       0.00000
                        -----------------------------------------
Magnitude (a.u.)       :      0.00000
Magnitude (Debye)      :      0.00000

Rotational constants in cm-1:     0.175491     0.055574     0.042208
Rotational constants in MHz :  5261.080204  1666.073907  1265.360682

                             ****ORCA TERMINATED NORMALLY****
TOTAL RUN TIME: 0 days 0 hours 3 minutes 35 seconds 804 msec
