                         Program Version 5.0.3 -  RELEASE  -
|  1> !ri-mp2 aug-cc-pvtz aug-cc-pvtz/c tightscf
|  2> %pal nprocs 16 end
|  3>
|  4> * xyz 0 1
|  5> H     -1.102142   -2.369592    0.000000
|  6> H     -1.825210   -0.706722    0.000000
|  7> C     -0.167576    1.451617    0.000000
|  8> H     -1.252508    1.558566    0.000000
|  9> H      0.244759    2.460062    0.000000
| 10> C      0.285460    0.631379    1.227651
| 11> H     -0.356020    0.801607    2.094810
| 12> H      1.301459    0.910417    1.518369
| 13> C      0.285460    0.631379   -1.227651
| 14> H      1.301459    0.910417   -1.518369
| 15> H     -0.356020    0.801607   -2.094810
| 16> C     -0.922260   -1.303615    0.000000
| 17> C      0.285460   -0.812956    0.755445
| 18> H      0.866098   -1.537728    1.309572
| 19> C      0.285460   -0.812956   -0.755445
| 20> H      0.866098   -1.537728   -1.309572
| 21> *
| 22>
| 23>                          ****END OF INPUT****

CARTESIAN COORDINATES (ANGSTROEM)
---------------------------------
  H     -1.102142   -2.369592    0.000000
  H     -1.825210   -0.706722    0.000000
  C     -0.167576    1.451617    0.000000
  H     -1.252508    1.558566    0.000000
  H      0.244759    2.460062    0.000000
  C      0.285460    0.631379    1.227651
  H     -0.356020    0.801607    2.094810
  H      1.301459    0.910417    1.518369
  C      0.285460    0.631379   -1.227651
  H      1.301459    0.910417   -1.518369
  H     -0.356020    0.801607   -2.094810
  C     -0.922260   -1.303615    0.000000
  C      0.285460   -0.812956    0.755445
  H      0.866098   -1.537728    1.309572
  C      0.285460   -0.812956   -0.755445
  H      0.866098   -1.537728   -1.309572

 Total Charge           Charge          ....    0
 Multiplicity           Mult            ....    1
 Number of Electrons    NEL             ....   46
 Basis Dimension        Dim             ....  506

ORBITAL ENERGIES
----------------

  NO   OCC          E(Eh)            E(eV)
   0   2.0000     -11.220735      -305.3317
   1   2.0000     -11.220015      -305.3121
   2   2.0000     -11.216119      -305.2061
   3   2.0000     -11.216002      -305.2029
   4   2.0000     -11.215800      -305.1974
   5   2.0000     -11.214617      -305.1653
   6   2.0000      -1.167696       -31.7746
   7   2.0000      -1.021433       -27.7946
   8   2.0000      -0.956293       -26.0221
   9   2.0000      -0.843172       -22.9439
  10   2.0000      -0.758086       -20.6286
  11   2.0000      -0.746273       -20.3071
  12   2.0000      -0.683886       -18.6095
  13   2.0000      -0.625703       -17.0262
  14   2.0000      -0.590442       -16.0668
  15   2.0000      -0.559905       -15.2358
  16   2.0000      -0.546719       -14.8770
  17   2.0000      -0.492521       -13.4022
  18   2.0000      -0.473992       -12.8980
  19   2.0000      -0.469311       -12.7706
  20   2.0000      -0.462188       -12.5768
  21   2.0000      -0.399492       -10.8707
  22   2.0000      -0.385236       -10.4828
  23   0.0000       0.030201         0.8218
  24   0.0000       0.036744         0.9998
  25   0.0000       0.037634         1.0241
  26   0.0000       0.038193         1.0393
  27   0.0000       0.054669         1.4876

MULLIKEN ATOMIC CHARGES
-----------------------
   0 H :    0.383448
   1 H :    0.252263
   2 C :   -0.429145
   3 H :    0.179346
   4 H :    0.357756
   5 C :   -0.457367
   6 H :    0.287322
   7 H :    0.176513
   8 C :   -0.457367
   9 H :    0.176513
  10 H :    0.287322
  11 C :   -1.188310
  12 C :   -0.321848
  13 H :    0.537701
  14 C :   -0.321848
  15 H :    0.537701
Sum of atomic charges:    0.0000000

LOEWDIN ATOMIC CHARGES
----------------------
   0 H :   -0.156293
   1 H :   -0.158259
   2 C :    0.304230
   3 H :   -0.156371
   4 H :   -0.145465
   5 C :    0.315861
   6 H :   -0.143381
   7 H :   -0.146222
   8 C :    0.315861
   9 H :   -0.146222
  10 H :   -0.143381
  11 C :    0.388486
  12 C :    0.068346
  13 H :   -0.132768
  14 C :    0.068346
  15 H :   -0.132768

  Mayer bond orders larger than 0.100000
B(  0-H , 11-C ) :   0.8053 B(  1-H , 11-C ) :   0.9786 B(  2-C ,  3-H ) :   1.0412
B(  2-C ,  4-H ) :   0.8757 B(  2-C ,  5-C ) :   0.9267 B(  2-C ,  8-C ) :   0.9267
B(  5-C ,  6-H ) :   0.9078 B(  5-C ,  7-H ) :   1.0455 B(  5-C , 12-C ) :   0.7686
B(  8-C ,  9-H ) :   1.0455 B(  8-C , 10-H ) :   0.9078 B(  8-C , 14-C ) :   0.7686
B( 11-C , 12-C ) :   0.9352 B( 11-C , 14-C ) :   0.9352 B( 12-C , 13-H ) :   0.5386
B( 12-C , 14-C ) :   0.6543 B( 14-C , 15-H ) :   0.5386

MP2 TOTAL ENERGY:     -234.111346490 Eh
FINAL SINGLE POINT ENERGY      -234.111346490175

DIPOLE MOMENT
-------------
                                X             Y             Z
Electronic contribution:      0.39733      -1.33135      -0.00000
Nuclear contribution   :     -0.32815       1.35762       0.00000
                        -----------------------------------------
Total Dipole Moment    :      0.06918       0.02627      -0.00000
                        -----------------------------------------
Magnitude (a.u.)       :      0.07400
Magnitude (Debye)      :      0.18809

Rotational constants in cm-1:     0.185897     0.141100     0.103726
Rotational constants in MHz :  5573.039996  4230.078504  3109.633443

                             ****ORCA TERMINATED NORMALLY****
TOTAL RUN TIME: 0 days 0 hours 4 minutes 23 seconds 303 msec
