                         Program Version 5.0.3 -  RELEASE  -
|  1> !ri-mp2 aug-cc-pvtz aug-cc-pvtz/c tightscf
|  2> %pal nprocs 16 end
|  3>
|  4> * xyz 0 1
|  5> H    -0.140619    0.678735    2.076979
|  6> H     1.129568    1.686573    1.231058
|  7> C     0.276344    1.019981    1.138037
|  8> H    -0.140619    0.678735   -2.076979
|  9> H     1.129568    1.686573   -1.231058
| 10> C     0.276344    1.019981   -1.138037
| 11> C     0.276344    0.034656    0.000000
| 12> H    -1.743752    1.161245    0.000000
| 13> C    -0.668943    1.198926    0.000000
| 14> N    -0.181839   -2.488939    0.000000
| 15> C     0.013033   -1.351758    0.000000
| 16> *
| 17>
| 18>                          ****END OF INPUT****

CARTESIAN COORDINATES (ANGSTROEM)
---------------------------------
  H     -0.140619    0.678735    2.076979
  H      1.129568    1.686573    1.231058
  C      0.276344    1.019981    1.138037
  H     -0.140619    0.678735   -2.076979
  H      1.129568    1.686573   -1.231058
  C      0.276344    1.019981   -1.138037
  C      0.276344    0.034656    0.000000
  H     -1.743752    1.161245    0.000000
  C     -0.668943    1.198926    0.000000
  N     -0.181839   -2.488939    0.000000
  C      0.013033   -1.351758    0.000000

 Total Charge           Charge          ....    0
 Multiplicity           Mult            ....    1
 Number of Electrons    NEL             ....   42
 Basis Dimension        Dim             ....  391

ORBITAL ENERGIES
----------------

  NO   OCC          E(Eh)            E(eV)
   0   2.0000     -15.567051      -423.6010
   1   2.0000     -11.294102      -307.3281
   2   2.0000     -11.282378      -307.0091
   3   2.0000     -11.278812      -306.9121
   4   2.0000     -11.278700      -306.9090
   5   2.0000     -11.277105      -306.8656
   6   2.0000      -1.265977       -34.4490
   7   2.0000      -1.211757       -32.9736
   8   2.0000      -0.970719       -26.4146
   9   2.0000      -0.911917       -24.8145
  10   2.0000      -0.825050       -22.4508
  11   2.0000      -0.748240       -20.3607
  12   2.0000      -0.637361       -17.3435
  13   2.0000      -0.632166       -17.2021
  14   2.0000      -0.564228       -15.3534
  15   2.0000      -0.554777       -15.0963
  16   2.0000      -0.522202       -14.2098
  17   2.0000      -0.516190       -14.0462
  18   2.0000      -0.496912       -13.5217
  19   2.0000      -0.437947       -11.9171
  20   2.0000      -0.374994       -10.2041
  21   0.0000       0.023944         0.6516
  22   0.0000       0.033596         0.9142
  23   0.0000       0.033638         0.9153
  24   0.0000       0.047142         1.2828
  25   0.0000       0.056766         1.5447

MULLIKEN ATOMIC CHARGES
-----------------------
   0 H :    0.418312
   1 H :    0.267959
   2 C :   -0.889901
   3 H :    0.418312
   4 H :    0.267959
   5 C :   -0.889901
   6 C :    0.632580
   7 H :    0.588281
   8 C :   -0.449983
   9 N :   -0.782655
  10 C :    0.419037
Sum of atomic charges:   -0.0000000

LOEWDIN ATOMIC CHARGES
----------------------
   0 H :   -0.141700
   1 H :   -0.148303
   2 C :    0.388732
   3 H :   -0.141700
   4 H :   -0.148303
   5 C :    0.388732
   6 C :   -0.290394
   7 H :   -0.130471
   8 C :    0.159104
   9 N :    0.257119
  10 C :   -0.192816

  Mayer bond orders larger than 0.100000
B(  0-H ,  2-C ) :   0.7564 B(  1-H ,  2-C ) :   0.9872 B(  2-C ,  6-C ) :   0.8723
B(  2-C ,  8-C ) :   1.0619 B(  3-H ,  5-C ) :   0.7564 B(  4-H ,  5-C ) :   0.9872
B(  5-C ,  6-C ) :   0.8723 B(  5-C ,  8-C ) :   1.0619 B(  6-C ,  7-H ) :   0.1007
B(  6-C ,  8-C ) :   0.2331 B(  6-C , 10-C ) :   0.8850 B(  7-H ,  8-C ) :   0.5135
B(  9-N , 10-C ) :   2.0985

MP2 TOTAL ENERGY:     -247.695732074 Eh
FINAL SINGLE POINT ENERGY      -247.695732073997

DIPOLE MOMENT
-------------
                                X             Y             Z
Electronic contribution:     -0.24888      -4.09993       0.00000
Nuclear contribution   :      0.23242       5.86069       0.00000
                        -----------------------------------------
Total Dipole Moment    :     -0.01646       1.76076       0.00000
                        -----------------------------------------
Magnitude (a.u.)       :      1.76084
Magnitude (Debye)      :      4.47569

Rotational constants in cm-1:     0.295953     0.097529     0.083613
Rotational constants in MHz :  8872.442664  2923.835547  2506.661098

                             ****ORCA TERMINATED NORMALLY****
TOTAL RUN TIME: 0 days 0 hours 2 minutes 24 seconds 869 msec
