                         Program Version 5.0.3 -  RELEASE  -
|  1> !ri-mp2 aug-cc-pvtz aug-cc-pvtz/c tightscf
|  2> %pal nprocs 16 end
|  3>
|  4> * xyz 0 1
|  5> C     -1.498796    0.606364    0.000000
|  6> C      2.286416   -0.364870    0.000000
|  7> C      0.000000    0.740162    0.000000
|  8> C      0.773358   -0.572830    0.000000
|  9> O     -2.103883   -0.435720    0.000000
| 10> H     -2.049279    1.570818    0.000000
| 11> H      2.612258    0.192076    0.881024
| 12> H      2.813086   -1.319587    0.000000
| 13> H      2.612258    0.192076   -0.881024
| 14> H      0.262254    1.359651    0.867455
| 15> H      0.262254    1.359651   -0.867455
| 16> H      0.476183   -1.160935    0.870082
| 17> H      0.476183   -1.160935   -0.870082
| 18> *
| 19>
| 20>                          ****END OF INPUT****

CARTESIAN COORDINATES (ANGSTROEM)
---------------------------------
  C     -1.498796    0.606364    0.000000
  C      2.286416   -0.364870    0.000000
  C      0.000000    0.740162    0.000000
  C      0.773358   -0.572830    0.000000
  O     -2.103883   -0.435720    0.000000
  H     -2.049279    1.570818    0.000000
  H      2.612258    0.192076    0.881024
  H      2.813086   -1.319587    0.000000
  H      2.612258    0.192076   -0.881024
  H      0.262254    1.359651    0.867455
  H      0.262254    1.359651   -0.867455
  H      0.476183   -1.160935    0.870082
  H      0.476183   -1.160935   -0.870082

 Total Charge           Charge          ....    0
 Multiplicity           Mult            ....    1
 Number of Electrons    NEL             ....   40
 Basis Dimension        Dim             ....  414

ORBITAL ENERGIES
----------------

  NO   OCC          E(Eh)            E(eV)
   0   2.0000     -20.557358      -559.3941
   1   2.0000     -11.331591      -308.3483
   2   2.0000     -11.242994      -305.9374
   3   2.0000     -11.227644      -305.5197
   4   2.0000     -11.219951      -305.3104
   5   2.0000      -1.395189       -37.9650
   6   2.0000      -1.081164       -29.4200
   7   2.0000      -0.977610       -26.6021
   8   2.0000      -0.848932       -23.1006
   9   2.0000      -0.769733       -20.9455
  10   2.0000      -0.674716       -18.3599
  11   2.0000      -0.648771       -17.6540
  12   2.0000      -0.635120       -17.2825
  13   2.0000      -0.570205       -15.5161
  14   2.0000      -0.569453       -15.4956
  15   2.0000      -0.515153       -14.0180
  16   2.0000      -0.506056       -13.7705
  17   2.0000      -0.491476       -13.3737
  18   2.0000      -0.479937       -13.0597
  19   2.0000      -0.419033       -11.4025
  20   0.0000       0.026890         0.7317
  21   0.0000       0.033603         0.9144
  22   0.0000       0.038633         1.0513
  23   0.0000       0.043013         1.1704
  24   0.0000       0.054836         1.4922

MULLIKEN ATOMIC CHARGES
-----------------------
   0 C :   -0.164949
   1 C :   -0.916786
   2 C :   -0.248370
   3 C :   -0.330234
   4 O :   -0.731603
   5 H :    0.477176
   6 H :    0.269552
   7 H :    0.280280
   8 H :    0.269552
   9 H :    0.296245
  10 H :    0.296245
  11 H :    0.251446
  12 H :    0.251446
Sum of atomic charges:   -0.0000000

LOEWDIN ATOMIC CHARGES
----------------------
   0 C :   -0.210613
   1 C :    0.578038
   2 C :    0.247158
   3 C :    0.242793
   4 O :    0.442878
   5 H :   -0.177358
   6 H :   -0.171600
   7 H :   -0.172041
   8 H :   -0.171600
   9 H :   -0.153594
  10 H :   -0.153594
  11 H :   -0.150234
  12 H :   -0.150234

  Mayer bond orders larger than 0.100000
B(  0-C ,  2-C ) :   0.7730 B(  0-C ,  4-O ) :   1.5885 B(  0-C ,  5-H ) :   0.7435
B(  1-C ,  3-C ) :   0.8900 B(  1-C ,  6-H ) :   0.9491 B(  1-C ,  7-H ) :   0.9704
B(  1-C ,  8-H ) :   0.9491 B(  2-C ,  3-C ) :   0.9263 B(  2-C ,  9-H ) :   0.9287
B(  2-C , 10-H ) :   0.9287 B(  3-C , 11-H ) :   0.9481 B(  3-C , 12-H ) :   0.9481

MP2 TOTAL ENERGY:     -232.003981456 Eh
FINAL SINGLE POINT ENERGY      -232.003981455601

DIPOLE MOMENT
-------------
                                X             Y             Z
Electronic contribution:     -6.92294      -0.18955      -0.00000
Nuclear contribution   :      7.74288       1.06885       0.00000
                        -----------------------------------------
Total Dipole Moment    :      0.81994       0.87931      -0.00000
                        -----------------------------------------
Magnitude (a.u.)       :      1.20228
Magnitude (Debye)      :      3.05595

Rotational constants in cm-1:     0.511563     0.084220     0.075292
Rotational constants in MHz : 15336.287146  2524.866719  2257.186240

                             ****ORCA TERMINATED NORMALLY****
TOTAL RUN TIME: 0 days 0 hours 2 minutes 24 seconds 695 msec
