                         Program Version 5.0.3 -  RELEASE  -
|  1> !ri-mp2 aug-cc-pvtz aug-cc-pvtz/c tightscf
|  2> %pal nprocs 16 end
|  3> %maxcore 3800
|  4>
|  5> * xyz 0 1
|  6> C    -2.229408    1.746979    0.000000
|  7> C     2.627632    1.057235    0.000000
|  8> C    -0.398224   -2.804213    0.000000
|  9> C    -1.554337    2.916926    0.000000
| 10> C     3.303300   -0.112368    0.000000
| 11> C    -1.748963   -2.804558    0.000000
| 12> C    -1.230229    0.713698    0.000000
| 13> C     1.233195    0.708561    0.000000
| 14> C    -0.002966   -1.422258    0.000000
| 15> C     0.000000    1.375748    0.000000
| 16> C     1.191433   -0.687874    0.000000
| 17> C    -1.191433   -0.687874    0.000000
| 18> O    -0.195326    2.723963    0.000000
| 19> O     2.456685   -1.192825    0.000000
| 20> O    -2.261359   -1.531139    0.000000
| 21> H    -3.298343    1.627719    0.000000
| 22> H     3.058818    2.042589    0.000000
| 23> H     0.239525   -3.670309    0.000000
| 24> H    -1.873962    3.943054    0.000000
| 25> H     4.351766   -0.348628    0.000000
| 26> H    -2.477803   -3.594426    0.000000
| 27> *
| 28>
| 29>                          ****END OF INPUT****

CARTESIAN COORDINATES (ANGSTROEM)
---------------------------------
  C     -2.229408    1.746979    0.000000
  C      2.627632    1.057235    0.000000
  C     -0.398224   -2.804213    0.000000
  C     -1.554337    2.916926    0.000000
  C      3.303300   -0.112368    0.000000
  C     -1.748963   -2.804558    0.000000
  C     -1.230229    0.713698    0.000000
  C      1.233195    0.708561    0.000000
  C     -0.002966   -1.422258    0.000000
  C      0.000000    1.375748    0.000000
  C      1.191433   -0.687874    0.000000
  C     -1.191433   -0.687874    0.000000
  O     -0.195326    2.723963    0.000000
  O      2.456685   -1.192825    0.000000
  O     -2.261359   -1.531139    0.000000
  H     -3.298343    1.627719    0.000000
  H      3.058818    2.042589    0.000000
  H      0.239525   -3.670309    0.000000
  H     -1.873962    3.943054    0.000000
  H      4.351766   -0.348628    0.000000
  H     -2.477803   -3.594426    0.000000

 Total Charge           Charge          ....    0
 Multiplicity           Mult            ....    1
 Number of Electrons    NEL             ....  102
 Basis Dimension        Dim             ....  828

ORBITAL ENERGIES
----------------

  NO   OCC          E(Eh)            E(eV)
   0   2.0000     -20.627492      -561.3026
   1   2.0000     -20.627491      -561.3026
   2   2.0000     -20.627491      -561.3026
   3   2.0000     -11.306497      -307.6654
   4   2.0000     -11.306487      -307.6652
   5   2.0000     -11.306487      -307.6652
   6   2.0000     -11.299437      -307.4733
   7   2.0000     -11.299437      -307.4733
   8   2.0000     -11.299437      -307.4733
   9   2.0000     -11.245035      -305.9930
  10   2.0000     -11.245035      -305.9930
  11   2.0000     -11.244998      -305.9920
  12   2.0000     -11.241269      -305.8905
  13   2.0000     -11.241269      -305.8905
  14   2.0000     -11.241267      -305.8904
  15   2.0000      -1.465616       -39.8814
  16   2.0000      -1.461722       -39.7755
  17   2.0000      -1.461722       -39.7755
  18   2.0000      -1.162868       -31.6432
  19   2.0000      -1.100791       -29.9541
  20   2.0000      -1.100791       -29.9541
  21   2.0000      -1.046050       -28.4645
  22   2.0000      -0.996476       -27.1155
  23   2.0000      -0.996476       -27.1155
  24   2.0000      -0.852886       -23.2082
  25   2.0000      -0.849195       -23.1078
  26   2.0000      -0.849195       -23.1078
  27   2.0000      -0.781728       -21.2719
  28   2.0000      -0.781728       -21.2719
  29   2.0000      -0.769287       -20.9334
  30   2.0000      -0.710533       -19.3346
  31   2.0000      -0.685615       -18.6565
  32   2.0000      -0.685615       -18.6565
  33   2.0000      -0.664525       -18.0826
  34   2.0000      -0.637264       -17.3408
  35   2.0000      -0.637264       -17.3408
  36   2.0000      -0.611597       -16.6424
  37   2.0000      -0.607529       -16.5317
  38   2.0000      -0.607528       -16.5317
  39   2.0000      -0.577622       -15.7179
  40   2.0000      -0.577622       -15.7179
  41   2.0000      -0.576890       -15.6980
  42   2.0000      -0.560088       -15.2408
  43   2.0000      -0.523124       -14.2349
  44   2.0000      -0.523124       -14.2349
  45   2.0000      -0.474678       -12.9166
  46   2.0000      -0.421056       -11.4575
  47   2.0000      -0.421055       -11.4575
  48   2.0000      -0.363966        -9.9040
  49   2.0000      -0.288765        -7.8577
  50   2.0000      -0.288765        -7.8577
  51   0.0000       0.028380         0.7723
  52   0.0000       0.029074         0.7911
  53   0.0000       0.029074         0.7912
  54   0.0000       0.041197         1.1210
  55   0.0000       0.041198         1.1211

MULLIKEN ATOMIC CHARGES
-----------------------
   0 C :   -1.217284
   1 C :   -1.217317
   2 C :   -1.217275
   3 C :   -0.738371
   4 C :   -0.738299
   5 C :   -0.738372
   6 C :    0.364032
   7 C :    0.364180
   8 C :    0.364194
   9 C :    1.139376
  10 C :    1.139423
  11 C :    1.139663
  12 O :   -0.875904
  13 O :   -0.875924
  14 O :   -0.875912
  15 H :    0.521744
  16 H :    0.521759
  17 H :    0.521820
  18 H :    0.806126
  19 H :    0.806169
  20 H :    0.806172
Sum of atomic charges:    0.0000000

LOEWDIN ATOMIC CHARGES
----------------------
   0 C :    0.231787
   1 C :    0.231787
   2 C :    0.231787
   3 C :    0.002467
   4 C :    0.002467
   5 C :    0.002467
   6 C :   -0.110235
   7 C :   -0.110235
   8 C :   -0.110235
   9 C :   -0.347482
  10 C :   -0.347481
  11 C :   -0.347481
  12 O :    0.595350
  13 O :    0.595350
  14 O :    0.595350
  15 H :   -0.183039
  16 H :   -0.183039
  17 H :   -0.183038
  18 H :   -0.188848
  19 H :   -0.188848
  20 H :   -0.188848

  Mayer bond orders larger than 0.100000
B(  0-C ,  3-C ) :   1.5502 B(  0-C ,  6-C ) :   0.3453 B(  0-C ,  7-C ) :   0.3245
B(  0-C ,  8-C ) :   0.1483 B(  0-C ,  9-C ) :   0.3866 B(  0-C , 10-C ) :  -0.1487
B(  0-C , 11-C ) :  -0.3442 B(  0-C , 12-O ) :   0.1278 B(  0-C , 15-H ) :   0.7382
B(  1-C ,  4-C ) :   1.5502 B(  1-C ,  6-C ) :   0.1483 B(  1-C ,  7-C ) :   0.3452
B(  1-C ,  8-C ) :   0.3244 B(  1-C ,  9-C ) :  -0.3439 B(  1-C , 10-C ) :   0.3866
B(  1-C , 11-C ) :  -0.1487 B(  1-C , 13-O ) :   0.1277 B(  1-C , 16-H ) :   0.7381
B(  2-C ,  5-C ) :   1.5502 B(  2-C ,  6-C ) :   0.3245 B(  2-C ,  7-C ) :   0.1483
B(  2-C ,  8-C ) :   0.3452 B(  2-C ,  9-C ) :  -0.1487 B(  2-C , 10-C ) :  -0.3438
B(  2-C , 11-C ) :   0.3864 B(  2-C , 14-O ) :   0.1277 B(  2-C , 17-H ) :   0.7380
B(  3-C ,  6-C ) :  -0.4613 B(  3-C ,  7-C ) :  -0.1509 B(  3-C , 11-C ) :   0.2618
B(  3-C , 12-O ) :   1.3733 B(  3-C , 18-H ) :   0.2376 B(  4-C ,  7-C ) :  -0.4613
B(  4-C ,  8-C ) :  -0.1510 B(  4-C ,  9-C ) :   0.2619 B(  4-C , 13-O ) :   1.3734
B(  4-C , 19-H ) :   0.2375 B(  5-C ,  6-C ) :  -0.1509 B(  5-C ,  8-C ) :  -0.4614
B(  5-C , 10-C ) :   0.2618 B(  5-C , 14-O ) :   1.3733 B(  5-C , 20-H ) :   0.2375
B(  6-C ,  9-C ) :   1.2922 B(  6-C , 10-C ) :   0.2062 B(  6-C , 11-C ) :   1.6108
B(  6-C , 12-O ) :  -0.5091 B(  6-C , 14-O ) :   0.4743 B(  7-C ,  9-C ) :   1.6106
B(  7-C , 10-C ) :   1.2922 B(  7-C , 11-C ) :   0.2061 B(  7-C , 12-O ) :   0.4742
B(  7-C , 13-O ) :  -0.5090 B(  8-C ,  9-C ) :   0.2062 B(  8-C , 10-C ) :   1.6109
B(  8-C , 11-C ) :   1.2922 B(  8-C , 13-O ) :   0.4741 B(  8-C , 14-O ) :  -0.5089
B(  9-C , 10-C ) :  -0.8080 B(  9-C , 11-C ) :  -0.8079 B(  9-C , 12-O ) :   0.3305
B(  9-C , 13-O ) :  -0.1137 B( 10-C , 11-C ) :  -0.8078 B( 10-C , 13-O ) :   0.3303
B( 10-C , 14-O ) :  -0.1138 B( 11-C , 12-O ) :  -0.1138 B( 11-C , 14-O ) :   0.3303

MP2 TOTAL ENERGY:     -685.279555106 Eh
FINAL SINGLE POINT ENERGY      -685.279555105917

DIPOLE MOMENT
-------------
                                X             Y             Z
Electronic contribution:     -0.00000       0.00000       0.00000
Nuclear contribution   :      0.00000      -0.00000       0.00000
                        -----------------------------------------
Total Dipole Moment    :     -0.00000       0.00000       0.00000
                        -----------------------------------------
Magnitude (a.u.)       :      0.00000
Magnitude (Debye)      :      0.00000

Rotational constants in cm-1:     0.026334     0.026334     0.013167
Rotational constants in MHz :   789.467552   789.467415   394.733742

                             ****ORCA TERMINATED NORMALLY****
TOTAL RUN TIME: 0 days 0 hours 27 minutes 10 seconds 498 msec
