                         Program Version 5.0.3 -  RELEASE  -
|  1> !ri-mp2 aug-cc-pvtz aug-cc-pvtz/c tightscf
|  2> %pal nprocs 16 end
|  3>
|  4> * xyz 0 1
|  5> C      1.454366    0.512277    0.000000
|  6> C     -2.231561   -0.577773    0.000000
|  7> C      0.000000    0.631202    0.000000
|  8> C     -0.713585   -0.731881    0.000000
|  9> N      2.598842    0.398853    0.000000
| 10> H     -2.575965   -0.034286    0.881826
| 11> H     -2.575965   -0.034286   -0.881826
| 12> H     -2.719763   -1.552135    0.000000
| 13> H     -0.295422    1.212550    0.876647
| 14> H     -0.295422    1.212550   -0.876647
| 15> H     -0.392342   -1.299658    0.874523
| 16> H     -0.392342   -1.299658   -0.874523
| 17> *
| 18>
| 19>                          ****END OF INPUT****

CARTESIAN COORDINATES (ANGSTROEM)
---------------------------------
  C      1.454366    0.512277    0.000000
  C     -2.231561   -0.577773    0.000000
  C      0.000000    0.631202    0.000000
  C     -0.713585   -0.731881    0.000000
  N      2.598842    0.398853    0.000000
  H     -2.575965   -0.034286    0.881826
  H     -2.575965   -0.034286   -0.881826
  H     -2.719763   -1.552135    0.000000
  H     -0.295422    1.212550    0.876647
  H     -0.295422    1.212550   -0.876647
  H     -0.392342   -1.299658    0.874523
  H     -0.392342   -1.299658   -0.874523

 Total Charge           Charge          ....    0
 Multiplicity           Mult            ....    1
 Number of Electrons    NEL             ....   38
 Basis Dimension        Dim             ....  391

ORBITAL ENERGIES
----------------

  NO   OCC          E(Eh)            E(eV)
   0   2.0000     -15.565032      -423.5461
   1   2.0000     -11.281863      -306.9951
   2   2.0000     -11.269889      -306.6693
   3   2.0000     -11.252809      -306.2045
   4   2.0000     -11.235270      -305.7272
   5   2.0000      -1.219672       -33.1890
   6   2.0000      -1.101367       -29.9697
   7   2.0000      -0.988394       -26.8956
   8   2.0000      -0.848017       -23.0757
   9   2.0000      -0.703477       -19.1426
  10   2.0000      -0.671774       -18.2799
  11   2.0000      -0.604725       -16.4554
  12   2.0000      -0.585209       -15.9244
  13   2.0000      -0.562845       -15.3158
  14   2.0000      -0.531800       -14.4710
  15   2.0000      -0.519273       -14.1301
  16   2.0000      -0.507121       -13.7995
  17   2.0000      -0.456936       -12.4339
  18   2.0000      -0.453763       -12.3475
  19   0.0000       0.023396         0.6366
  20   0.0000       0.033871         0.9217
  21   0.0000       0.035707         0.9716
  22   0.0000       0.042301         1.1511
  23   0.0000       0.057002         1.5511

MULLIKEN ATOMIC CHARGES
-----------------------
   0 C :    0.051493
   1 C :   -0.936595
   2 C :   -0.089290
   3 C :   -0.408285
   4 N :   -0.590271
   5 H :    0.281628
   6 H :    0.281628
   7 H :    0.280335
   8 H :    0.302968
   9 H :    0.302968
  10 H :    0.261711
  11 H :    0.261711
Sum of atomic charges:    0.0000000

LOEWDIN ATOMIC CHARGES
----------------------
   0 C :   -0.209188
   1 C :    0.584918
   2 C :    0.225567
   3 C :    0.256308
   4 N :    0.254644
   5 H :   -0.168148
   6 H :   -0.168148
   7 H :   -0.168910
   8 H :   -0.156721
   9 H :   -0.156721
  10 H :   -0.146801
  11 H :   -0.146801

  Mayer bond orders larger than 0.100000
B(  0-C ,  2-C ) :   0.8839 B(  0-C ,  4-N ) :   2.2114 B(  1-C ,  3-C ) :   0.9015
B(  1-C ,  5-H ) :   0.9355 B(  1-C ,  6-H ) :   0.9355 B(  1-C ,  7-H ) :   0.9651
B(  2-C ,  3-C ) :   0.8750 B(  2-C ,  8-H ) :   0.9231 B(  2-C ,  9-H ) :   0.9231
B(  3-C , 10-H ) :   0.9446 B(  3-C , 11-H ) :   0.9446

MP2 TOTAL ENERGY:     -210.947082181 Eh
FINAL SINGLE POINT ENERGY      -210.947082180694

DIPOLE MOMENT
-------------
                                X             Y             Z
Electronic contribution:      7.76272       1.86186      -0.00000
Nuclear contribution   :     -9.53385      -1.85120       0.00000
                        -----------------------------------------
Total Dipole Moment    :     -1.77113       0.01066      -0.00000
                        -----------------------------------------
Magnitude (a.u.)       :      1.77116
Magnitude (Debye)      :      4.50194

Rotational constants in cm-1:     0.803269     0.075347     0.071612
Rotational constants in MHz : 24081.403932  2258.842702  2146.874022

                             ****ORCA TERMINATED NORMALLY****
TOTAL RUN TIME: 0 days 0 hours 2 minutes 12 seconds 287 msec
