                         Program Version 5.0.3 -  RELEASE  -
|  1> !ri-mp2 aug-cc-pvtz aug-cc-pvtz/c tightscf
|  2> %pal nprocs 16 end
|  3>
|  4> * xyz 0 1
|  5> C    -0.742813     0.000000   -0.317669
|  6> C     0.742813     0.000000   -0.317669
|  7> C     0.000000     1.134528    0.312889
|  8> C     0.000000    -1.134528    0.312889
|  9> H     0.000000    -1.232016    1.397188
| 10> H     0.000000     1.232016    1.397188
| 11> H     0.000000    -2.078551   -0.219647
| 12> H     0.000000     2.078551   -0.219647
| 13> H    -1.425483     0.000000   -1.148859
| 14> H     1.425483     0.000000   -1.148859
| 15> *
| 16>
| 17>                          ****END OF INPUT****

CARTESIAN COORDINATES (ANGSTROEM)
---------------------------------
  C     -0.742813    0.000000   -0.317669
  C      0.742813    0.000000   -0.317669
  C      0.000000    1.134528    0.312889
  C      0.000000   -1.134528    0.312889
  H      0.000000   -1.232016    1.397188
  H      0.000000    1.232016    1.397188
  H      0.000000   -2.078551   -0.219647
  H      0.000000    2.078551   -0.219647
  H     -1.425483    0.000000   -1.148859
  H      1.425483    0.000000   -1.148859

 Total Charge           Charge          ....    0
 Multiplicity           Mult            ....    1
 Number of Electrons    NEL             ....   30
 Basis Dimension        Dim             ....  322

ORBITAL ENERGIES
----------------

  NO   OCC          E(Eh)            E(eV)
   0   2.0000     -11.238952      -305.8274
   1   2.0000     -11.238812      -305.8236
   2   2.0000     -11.235826      -305.7424
   3   2.0000     -11.235218      -305.7258
   4   2.0000      -1.215181       -33.0668
   5   2.0000      -0.929531       -25.2938
   6   2.0000      -0.786092       -21.3906
   7   2.0000      -0.785323       -21.3697
   8   2.0000      -0.693534       -18.8720
   9   2.0000      -0.589333       -16.0366
  10   2.0000      -0.581934       -15.8352
  11   2.0000      -0.514599       -14.0029
  12   2.0000      -0.458627       -12.4799
  13   2.0000      -0.434293       -11.8177
  14   2.0000      -0.354849        -9.6559
  15   0.0000       0.030267         0.8236
  16   0.0000       0.037874         1.0306
  17   0.0000       0.040898         1.1129
  18   0.0000       0.041580         1.1315
  19   0.0000       0.056492         1.5372

MULLIKEN ATOMIC CHARGES
-----------------------
   0 C :   -0.577730
   1 C :   -0.577730
   2 C :   -0.633013
   3 C :   -0.633013
   4 H :    0.248908
   5 H :    0.248908
   6 H :    0.400718
   7 H :    0.400718
   8 H :    0.561117
   9 H :    0.561117
Sum of atomic charges:    0.0000000

LOEWDIN ATOMIC CHARGES
----------------------
   0 C :    0.118141
   1 C :    0.118141
   2 C :    0.353419
   3 C :    0.353419
   4 H :   -0.162777
   5 H :   -0.162777
   6 H :   -0.157945
   7 H :   -0.157945
   8 H :   -0.150838
   9 H :   -0.150838

  Mayer bond orders larger than 0.100000
B(  0-C ,  1-C ) :   0.5941 B(  0-C ,  2-C ) :   0.9600 B(  0-C ,  3-C ) :   0.9600
B(  0-C ,  8-H ) :   0.5205 B(  1-C ,  2-C ) :   0.9600 B(  1-C ,  3-C ) :   0.9600
B(  1-C ,  9-H ) :   0.5205 B(  2-C ,  3-C ) :  -0.1408 B(  2-C ,  5-H ) :   0.9953
B(  2-C ,  7-H ) :   0.7551 B(  3-C ,  4-H ) :   0.9953 B(  3-C ,  6-H ) :   0.7551

MP2 TOTAL ENERGY:     -155.604023022 Eh
FINAL SINGLE POINT ENERGY      -155.604023022427

DIPOLE MOMENT
-------------
                                X             Y             Z
Electronic contribution:      0.00000      -0.00000      -0.33137
Nuclear contribution   :      0.00000       0.00000       0.05975
                        -----------------------------------------
Total Dipole Moment    :      0.00000      -0.00000      -0.27162
                        -----------------------------------------
Magnitude (a.u.)       :      0.27162
Magnitude (Debye)      :      0.69040

Rotational constants in cm-1:     0.584916     0.311260     0.280769
Rotational constants in MHz : 17535.339368  9331.341366  8417.231477

                             ****ORCA TERMINATED NORMALLY****
TOTAL RUN TIME: 0 days 0 hours 1 minutes 19 seconds 703 msec
