                         Program Version 5.0.3 -  RELEASE  -
|  1> !ri-mp2 aug-cc-pvtz aug-cc-pvtz/c tightscf
|  2> %pal nprocs 16 end
|  3> %maxcore 3800
|  4>
|  5> * xyz 0 1
|  6> C      0.680345   -3.295333    0.000000
|  7> C      0.681769   -2.594527    1.200390
|  8> C      0.681769   -2.594527   -1.200390
|  9> C      0.681769   -1.204878    1.197095
| 10> C      0.681769   -1.204878   -1.197095
| 11> C      0.679166   -0.487390    0.000000
| 12> C     -2.241322    3.689088    0.000000
| 13> C      0.640208    1.021053    0.000000
| 14> C     -0.822953    3.121120    0.000000
| 15> C     -0.786838    1.592902    0.000000
| 16> H      0.683708   -4.377103    0.000000
| 17> H      0.687861   -3.130232    2.140693
| 18> H      0.687861   -3.130232   -2.140693
| 19> H      0.689431   -0.667833    2.138051
| 20> H      0.689431   -0.667833   -2.138051
| 21> H     -2.797599    3.361340    0.880573
| 22> H     -2.797599    3.361340   -0.880573
| 23> H     -2.234070    4.779958    0.000000
| 24> H      1.173513    1.399551    0.875815
| 25> H      1.173513    1.399551   -0.875815
| 26> H     -0.280474    3.494116    0.873994
| 27> H     -0.280474    3.494116   -0.873994
| 28> H     -1.324598    1.213739    0.873915
| 29> H     -1.324598    1.213739   -0.873915
| 30> *
| 31>
| 32>                          ****END OF INPUT****

CARTESIAN COORDINATES (ANGSTROEM)
---------------------------------
  C      0.680345   -3.295333    0.000000
  C      0.681769   -2.594527    1.200390
  C      0.681769   -2.594527   -1.200390
  C      0.681769   -1.204878    1.197095
  C      0.681769   -1.204878   -1.197095
  C      0.679166   -0.487390    0.000000
  C     -2.241322    3.689088    0.000000
  C      0.640208    1.021053    0.000000
  C     -0.822953    3.121120    0.000000
  C     -0.786838    1.592902    0.000000
  H      0.683708   -4.377103    0.000000
  H      0.687861   -3.130232    2.140693
  H      0.687861   -3.130232   -2.140693
  H      0.689431   -0.667833    2.138051
  H      0.689431   -0.667833   -2.138051
  H     -2.797599    3.361340    0.880573
  H     -2.797599    3.361340   -0.880573
  H     -2.234070    4.779958    0.000000
  H      1.173513    1.399551    0.875815
  H      1.173513    1.399551   -0.875815
  H     -0.280474    3.494116    0.873994
  H     -0.280474    3.494116   -0.873994
  H     -1.324598    1.213739    0.873915
  H     -1.324598    1.213739   -0.873915

 Total Charge           Charge          ....    0
 Multiplicity           Mult            ....    1
 Number of Electrons    NEL             ....   74
 Basis Dimension        Dim             ....  782

ORBITAL ENERGIES
----------------

  NO   OCC          E(Eh)            E(eV)
   0   2.0000     -11.236381      -305.7575
   1   2.0000     -11.231038      -305.6121
   2   2.0000     -11.230853      -305.6071
   3   2.0000     -11.227122      -305.5055
   4   2.0000     -11.226653      -305.4927
   5   2.0000     -11.226544      -305.4898
   6   2.0000     -11.224665      -305.4387
   7   2.0000     -11.218842      -305.2802
   8   2.0000     -11.218223      -305.2634
   9   2.0000     -11.211366      -305.0768
  10   2.0000      -1.154018       -31.4024
  11   2.0000      -1.081697       -29.4345
  12   2.0000      -1.032599       -28.0985
  13   2.0000      -1.011153       -27.5149
  14   2.0000      -0.963752       -26.2250
  15   2.0000      -0.873947       -23.7813
  16   2.0000      -0.824337       -22.4314
  17   2.0000      -0.801600       -21.8126
  18   2.0000      -0.784962       -21.3599
  19   2.0000      -0.692364       -18.8402
  20   2.0000      -0.651456       -17.7270
  21   2.0000      -0.631740       -17.1905
  22   2.0000      -0.620058       -16.8726
  23   2.0000      -0.589842       -16.0504
  24   2.0000      -0.582550       -15.8520
  25   2.0000      -0.576786       -15.6951
  26   2.0000      -0.560811       -15.2604
  27   2.0000      -0.532172       -14.4811
  28   2.0000      -0.512935       -13.9577
  29   2.0000      -0.502004       -13.6602
  30   2.0000      -0.488388       -13.2897
  31   2.0000      -0.481629       -13.1058
  32   2.0000      -0.470489       -12.8027
  33   2.0000      -0.464581       -12.6419
  34   2.0000      -0.456495       -12.4219
  35   2.0000      -0.333876        -9.0852
  36   2.0000      -0.323126        -8.7927
  37   0.0000       0.028970         0.7883
  38   0.0000       0.031885         0.8676
  39   0.0000       0.033328         0.9069
  40   0.0000       0.037733         1.0268
  41   0.0000       0.042460         1.1554

MULLIKEN ATOMIC CHARGES
-----------------------
   0 C :   -0.106932
   1 C :   -0.701614
   2 C :   -0.701624
   3 C :   -0.994151
   4 C :   -0.994145
   5 C :    1.807323
   6 C :   -0.989801
   7 C :   -0.311800
   8 C :   -0.526237
   9 C :   -0.319593
  10 H :    0.384746
  11 H :    0.588207
  12 H :    0.588203
  13 H :    0.014595
  14 H :    0.014592
  15 H :    0.266684
  16 H :    0.266684
  17 H :    0.284273
  18 H :    0.206637
  19 H :    0.206639
  20 H :    0.248580
  21 H :    0.248579
  22 H :    0.260077
  23 H :    0.260078
Sum of atomic charges:    0.0000000

LOEWDIN ATOMIC CHARGES
----------------------
   0 C :    0.190155
   1 C :    0.195665
   2 C :    0.195665
   3 C :    0.217343
   4 C :    0.217343
   5 C :   -0.108835
   6 C :    0.579715
   7 C :    0.275360
   8 C :    0.258579
   9 C :    0.278032
  10 H :   -0.188733
  11 H :   -0.185255
  12 H :   -0.185255
  13 H :   -0.175823
  14 H :   -0.175823
  15 H :   -0.171093
  16 H :   -0.171093
  17 H :   -0.173928
  18 H :   -0.148338
  19 H :   -0.148338
  20 H :   -0.147510
  21 H :   -0.147510
  22 H :   -0.140163
  23 H :   -0.140163

  Mayer bond orders larger than 0.100000
B(  0-C ,  1-C ) :   1.1230 B(  0-C ,  2-C ) :   1.1230 B(  0-C ,  3-C ) :  -0.2211
B(  0-C ,  4-C ) :  -0.2211 B(  0-C , 10-H ) :   0.9215 B(  1-C ,  2-C ) :   0.2242
B(  1-C ,  3-C ) :   1.3761 B(  1-C , 10-H ) :  -0.1755 B(  1-C , 11-H ) :   0.5866
B(  2-C ,  4-C ) :   1.3761 B(  2-C , 10-H ) :  -0.1755 B(  2-C , 12-H ) :   0.5866
B(  3-C ,  4-C ) :  -0.2849 B(  3-C ,  5-C ) :   0.3979 B(  3-C ,  7-C ) :   0.1224
B(  3-C , 10-H ) :   0.1245 B(  3-C , 13-H ) :   1.6045 B(  3-C , 14-H ) :   0.2009
B(  4-C ,  5-C ) :   0.3979 B(  4-C ,  7-C ) :   0.1224 B(  4-C , 10-H ) :   0.1245
B(  4-C , 13-H ) :   0.2009 B(  4-C , 14-H ) :   1.6045 B(  5-C ,  7-C ) :   0.5111
B(  5-C , 13-H ) :  -0.2790 B(  5-C , 14-H ) :  -0.2790 B(  6-C ,  8-C ) :   0.9151
B(  6-C , 15-H ) :   0.9638 B(  6-C , 16-H ) :   0.9638 B(  6-C , 17-H ) :   0.9783
B(  7-C ,  9-C ) :   0.8752 B(  7-C , 13-H ) :  -0.1212 B(  7-C , 14-H ) :  -0.1212
B(  7-C , 18-H ) :   1.0674 B(  7-C , 19-H ) :   1.0674 B(  8-C ,  9-C ) :   0.8914
B(  8-C , 20-H ) :   0.9611 B(  8-C , 21-H ) :   0.9611 B(  9-C , 22-H ) :   0.9635
B(  9-C , 23-H ) :   0.9635 B( 13-H , 14-H ) :   0.1470

MP2 TOTAL ENERGY:     -388.650922793 Eh
FINAL SINGLE POINT ENERGY      -388.650922793388

DIPOLE MOMENT
-------------
                                X             Y             Z
Electronic contribution:      5.40240     -11.97240       0.00000
Nuclear contribution   :     -5.44024      12.16031       0.00000
                        -----------------------------------------
Total Dipole Moment    :     -0.03785       0.18790       0.00000
                        -----------------------------------------
Magnitude (a.u.)       :      0.19168
Magnitude (Debye)      :      0.48720

Rotational constants in cm-1:     0.122995     0.018457     0.017494
Rotational constants in MHz :  3687.284163   553.330675   524.445951

                             ****ORCA TERMINATED NORMALLY****
TOTAL RUN TIME: 0 days 0 hours 15 minutes 15 seconds 79 msec
