                         Program Version 5.0.3 -  RELEASE  -
|  1> !ri-mp2 aug-cc-pvtz aug-cc-pvtz/c tightscf
|  2> %pal nprocs 16 end
|  3> %maxcore 3800
|  4>
|  5> * xyz 0 1
|  6> C     -1.220553    0.008291    0.000000
|  7> C      0.018065    0.941134    0.000000
|  8> C      0.207716    1.430365    1.426632
|  9> C      0.207716    1.430365   -1.426632
| 10> C     -0.475923   -1.306583    0.000000
| 11> C      0.207716    0.053150    2.219513
| 12> C      0.207716    0.053150   -2.219513
| 13> C      0.362254   -1.260477   -1.348939
| 14> C      0.362254   -1.260477    1.348939
| 15> H     -1.853935    0.149273    0.874293
| 16> H     -1.853935    0.149273   -0.874293
| 17> H      0.882835    0.286335    0.000000
| 18> H      1.158855    1.951425    1.555610
| 19> H     -0.583800    2.082415    1.802671
| 20> H     -0.583800    2.082415   -1.802671
| 21> H      1.158855    1.951425   -1.555610
| 22> H     -1.113964   -2.193709    0.000000
| 23> H      1.006641    0.053850    2.962556
| 24> H     -0.719568   -0.025384    2.786768
| 25> H     -0.719568   -0.025384   -2.786768
| 26> H      1.006641    0.053850   -2.962556
| 27> H      1.419007   -1.432023   -1.131265
| 28> H      0.057484   -2.092626   -1.986451
| 29> H      0.057484   -2.092626    1.986451
| 30> H      1.419007   -1.432023    1.131265
| 31> *
| 32>
| 33>                          ****END OF INPUT****

CARTESIAN COORDINATES (ANGSTROEM)
---------------------------------
  C     -1.220553    0.008291    0.000000
  C      0.018065    0.941134    0.000000
  C      0.207716    1.430365    1.426632
  C      0.207716    1.430365   -1.426632
  C     -0.475923   -1.306583    0.000000
  C      0.207716    0.053150    2.219513
  C      0.207716    0.053150   -2.219513
  C      0.362254   -1.260477   -1.348939
  C      0.362254   -1.260477    1.348939
  H     -1.853935    0.149273    0.874293
  H     -1.853935    0.149273   -0.874293
  H      0.882835    0.286335    0.000000
  H      1.158855    1.951425    1.555610
  H     -0.583800    2.082415    1.802671
  H     -0.583800    2.082415   -1.802671
  H      1.158855    1.951425   -1.555610
  H     -1.113964   -2.193709    0.000000
  H      1.006641    0.053850    2.962556
  H     -0.719568   -0.025384    2.786768
  H     -0.719568   -0.025384   -2.786768
  H      1.006641    0.053850   -2.962556
  H      1.419007   -1.432023   -1.131265
  H      0.057484   -2.092626   -1.986451
  H      0.057484   -2.092626    1.986451
  H      1.419007   -1.432023    1.131265

 Total Charge           Charge          ....    0
 Multiplicity           Mult            ....    1
 Number of Electrons    NEL             ....   70
 Basis Dimension        Dim             ....  782

ORBITAL ENERGIES
----------------

  NO   OCC          E(Eh)            E(eV)
   0   2.0000     -11.223831      -305.4160
   1   2.0000     -11.219199      -305.2899
   2   2.0000     -11.219199      -305.2899
   3   2.0000     -11.218357      -305.2670
   4   2.0000     -11.218330      -305.2663
   5   2.0000     -11.218093      -305.2598
   6   2.0000     -11.218092      -305.2598
   7   2.0000     -11.207075      -304.9600
   8   2.0000     -11.200311      -304.7760
   9   2.0000      -1.145439       -31.1690
  10   2.0000      -1.039222       -28.2787
  11   2.0000      -1.013824       -27.5875
  12   2.0000      -0.960311       -26.1314
  13   2.0000      -0.913551       -24.8590
  14   2.0000      -0.852263       -23.1912
  15   2.0000      -0.786272       -21.3956
  16   2.0000      -0.784521       -21.3479
  17   2.0000      -0.718226       -19.5439
  18   2.0000      -0.652566       -17.7572
  19   2.0000      -0.634287       -17.2598
  20   2.0000      -0.612610       -16.6700
  21   2.0000      -0.604727       -16.4555
  22   2.0000      -0.558817       -15.2062
  23   2.0000      -0.539581       -14.6827
  24   2.0000      -0.527106       -14.3433
  25   2.0000      -0.509362       -13.8605
  26   2.0000      -0.503029       -13.6881
  27   2.0000      -0.486337       -13.2339
  28   2.0000      -0.481694       -13.1076
  29   2.0000      -0.467349       -12.7172
  30   2.0000      -0.461072       -12.5464
  31   2.0000      -0.449177       -12.2227
  32   2.0000      -0.416009       -11.3202
  33   2.0000      -0.408478       -11.1152
  34   2.0000      -0.387276       -10.5383
  35   0.0000       0.028512         0.7759
  36   0.0000       0.033360         0.9078
  37   0.0000       0.033667         0.9161
  38   0.0000       0.036576         0.9953
  39   0.0000       0.048327         1.3150

MULLIKEN ATOMIC CHARGES
-----------------------
   0 C :   -0.799780
   1 C :    0.983734
   2 C :   -0.972181
   3 C :   -0.972181
   4 C :   -0.268885
   5 C :   -0.449299
   6 C :   -0.449299
   7 C :   -0.602278
   8 C :   -0.602278
   9 H :    0.344330
  10 H :    0.344330
  11 H :    0.307788
  12 H :    0.169552
  13 H :    0.277180
  14 H :    0.277180
  15 H :    0.169552
  16 H :    0.451463
  17 H :    0.437652
  18 H :    0.058608
  19 H :    0.058608
  20 H :    0.437652
  21 H :    0.046841
  22 H :    0.352435
  23 H :    0.352435
  24 H :    0.046841
Sum of atomic charges:    0.0000000

LOEWDIN ATOMIC CHARGES
----------------------
   0 C :    0.311860
   1 C :   -0.008647
   2 C :    0.372668
   3 C :    0.372668
   4 C :    0.081569
   5 C :    0.354585
   6 C :    0.354585
   7 C :    0.362513
   8 C :    0.362513
   9 H :   -0.145473
  10 H :   -0.145473
  11 H :   -0.317708
  12 H :   -0.143589
  13 H :   -0.146725
  14 H :   -0.146725
  15 H :   -0.143589
  16 H :   -0.133703
  17 H :   -0.151624
  18 H :   -0.163271
  19 H :   -0.163271
  20 H :   -0.151624
  21 H :   -0.154305
  22 H :   -0.151466
  23 H :   -0.151466
  24 H :   -0.154305

  Mayer bond orders larger than 0.100000
B(  0-C ,  1-C ) :   0.7752 B(  0-C ,  4-C ) :   1.0395 B(  0-C ,  7-C ) :   0.1164
B(  0-C ,  8-C ) :   0.1164 B(  0-C ,  9-H ) :   0.9386 B(  0-C , 10-H ) :   0.9386
B(  1-C ,  2-C ) :   0.1344 B(  1-C ,  3-C ) :   0.1344 B(  1-C ,  5-C ) :  -0.1474
B(  1-C ,  6-C ) :  -0.1474 B(  1-C ,  7-C ) :  -0.1364 B(  1-C ,  8-C ) :  -0.1364
B(  1-C , 11-H ) :   1.0969 B(  2-C ,  5-C ) :   1.0966 B(  2-C ,  8-C ) :   0.1695
B(  2-C , 12-H ) :   1.0894 B(  2-C , 13-H ) :   1.0440 B(  2-C , 18-H ) :   0.1053
B(  3-C ,  6-C ) :   1.0966 B(  3-C ,  7-C ) :   0.1695 B(  3-C , 14-H ) :   1.0440
B(  3-C , 15-H ) :   1.0894 B(  3-C , 19-H ) :   0.1053 B(  4-C ,  7-C ) :   1.0460
B(  4-C ,  8-C ) :   1.0460 B(  4-C , 16-H ) :   0.7069 B(  5-C ,  8-C ) :   0.9357
B(  5-C , 17-H ) :   0.8015 B(  5-C , 18-H ) :   1.1426 B(  6-C ,  7-C ) :   0.9357
B(  6-C , 19-H ) :   1.1426 B(  6-C , 20-H ) :   0.8015 B(  7-C , 21-H ) :   1.1893
B(  7-C , 22-H ) :   0.8627 B(  8-C , 23-H ) :   0.8627 B(  8-C , 24-H ) :   1.1893

MP2 TOTAL ENERGY:     -351.749838846 Eh
FINAL SINGLE POINT ENERGY      -351.749838846447

DIPOLE MOMENT
-------------
                                X             Y             Z
Electronic contribution:     -0.74599       0.49931       0.00000
Nuclear contribution   :      0.78125      -0.56460       0.00000
                        -----------------------------------------
Total Dipole Moment    :      0.03526      -0.06528       0.00000
                        -----------------------------------------
Magnitude (a.u.)       :      0.07420
Magnitude (Debye)      :      0.18860

Rotational constants in cm-1:     0.085035     0.053859     0.040057
Rotational constants in MHz :  2549.299993  1614.654851  1200.879065

                             ****ORCA TERMINATED NORMALLY****
TOTAL RUN TIME: 0 days 0 hours 20 minutes 24 seconds 173 msec
