                         Program Version 5.0.3 -  RELEASE  -
|  1> !ri-mp2 aug-cc-pvtz aug-cc-pvtz/c tightscf
|  2> %pal nprocs 16 end
|  3> %maxcore 3800
|  4>
|  5> * xyz 0 1
|  6> C      0.000000    0.000000    1.295208
|  7> C     -0.017844    1.447195    0.777177
|  8> C     -1.244385   -0.739051    0.777177
|  9> C      0.017844    1.447195   -0.777177
| 10> C      0.000000    0.000000   -1.295208
| 11> C     -1.262230   -0.708144   -0.777177
| 12> C      1.262230   -0.708144    0.777177
| 13> C      1.244385   -0.739051   -0.777177
| 14> H      1.308838   -1.720784    1.182692
| 15> H      0.000000    0.000000   -2.387174
| 16> H     -2.149499   -0.186632   -1.142178
| 17> H      2.149499   -0.186632    1.142178
| 18> H     -1.308838   -1.720784   -1.182692
| 19> H      0.000000    0.000000    2.387174
| 20> H     -2.144662   -0.273094    1.182692
| 21> H      1.236378   -1.768205   -1.142178
| 22> H      0.835824    1.993879    1.182692
| 23> H     -0.835824    1.993879   -1.182692
| 24> H      2.144662   -0.273094   -1.182692
| 25> H     -0.913121    1.954837    1.142178
| 26> H     -1.236378   -1.768205    1.142178
| 27> H      0.913121    1.954837   -1.142178
| 28> *
| 29>
| 30>                          ****END OF INPUT****

CARTESIAN COORDINATES (ANGSTROEM)
---------------------------------
  C      0.000000    0.000000    1.295208
  C     -0.017844    1.447195    0.777177
  C     -1.244385   -0.739051    0.777177
  C      0.017844    1.447195   -0.777177
  C      0.000000    0.000000   -1.295208
  C     -1.262230   -0.708144   -0.777177
  C      1.262230   -0.708144    0.777177
  C      1.244385   -0.739051   -0.777177
  H      1.308838   -1.720784    1.182692
  H      0.000000    0.000000   -2.387174
  H     -2.149499   -0.186632   -1.142178
  H      2.149499   -0.186632    1.142178
  H     -1.308838   -1.720784   -1.182692
  H      0.000000    0.000000    2.387174
  H     -2.144662   -0.273094    1.182692
  H      1.236378   -1.768205   -1.142178
  H      0.835824    1.993879    1.182692
  H     -0.835824    1.993879   -1.182692
  H      2.144662   -0.273094   -1.182692
  H     -0.913121    1.954837    1.142178
  H     -1.236378   -1.768205    1.142178
  H      0.913121    1.954837   -1.142178

 Total Charge           Charge          ....    0
 Multiplicity           Mult            ....    1
 Number of Electrons    NEL             ....   62
 Basis Dimension        Dim             ....  690

ORBITAL ENERGIES
----------------

  NO   OCC          E(Eh)            E(eV)
   0   2.0000     -11.214907      -305.1731
   1   2.0000     -11.214896      -305.1728
   2   2.0000     -11.209929      -305.0377
   3   2.0000     -11.209929      -305.0377
   4   2.0000     -11.209857      -305.0357
   5   2.0000     -11.209380      -305.0227
   6   2.0000     -11.209380      -305.0227
   7   2.0000     -11.209323      -305.0212
   8   2.0000      -1.140845       -31.0440
   9   2.0000      -1.014118       -27.5955
  10   2.0000      -0.992788       -27.0151
  11   2.0000      -0.992788       -27.0151
  12   2.0000      -0.827522       -22.5180
  13   2.0000      -0.827522       -22.5180
  14   2.0000      -0.797954       -21.7134
  15   2.0000      -0.671882       -18.2828
  16   2.0000      -0.671010       -18.2591
  17   2.0000      -0.637856       -17.3569
  18   2.0000      -0.637856       -17.3569
  19   2.0000      -0.556708       -15.1488
  20   2.0000      -0.526843       -14.3361
  21   2.0000      -0.526843       -14.3361
  22   2.0000      -0.519921       -14.1478
  23   2.0000      -0.512700       -13.9513
  24   2.0000      -0.512700       -13.9513
  25   2.0000      -0.488986       -13.3060
  26   2.0000      -0.488986       -13.3060
  27   2.0000      -0.453679       -12.3452
  28   2.0000      -0.409400       -11.1403
  29   2.0000      -0.405952       -11.0465
  30   2.0000      -0.405952       -11.0465
  31   0.0000       0.029182         0.7941
  32   0.0000       0.034396         0.9360
  33   0.0000       0.037732         1.0267
  34   0.0000       0.037732         1.0267
  35   0.0000       0.049776         1.3545

MULLIKEN ATOMIC CHARGES
-----------------------
   0 C :   -0.033537
   1 C :   -0.655157
   2 C :   -0.655159
   3 C :   -0.655161
   4 C :   -0.033549
   5 C :   -0.655166
   6 C :   -0.655171
   7 C :   -0.655155
   8 H :    0.295651
   9 H :    0.473630
  10 H :    0.212841
  11 H :    0.212838
  12 H :    0.295645
  13 H :    0.473617
  14 H :    0.295595
  15 H :    0.212837
  16 H :    0.295617
  17 H :    0.295604
  18 H :    0.295611
  19 H :    0.212851
  20 H :    0.212853
  21 H :    0.212863
Sum of atomic charges:    0.0000000

LOEWDIN ATOMIC CHARGES
----------------------
   0 C :   -0.008798
   1 C :    0.329116
   2 C :    0.329115
   3 C :    0.329116
   4 C :   -0.008798
   5 C :    0.329116
   6 C :    0.329116
   7 C :    0.329115
   8 H :   -0.142771
   9 H :   -0.122399
  10 H :   -0.142612
  11 H :   -0.142612
  12 H :   -0.142771
  13 H :   -0.122399
  14 H :   -0.142771
  15 H :   -0.142612
  16 H :   -0.142771
  17 H :   -0.142771
  18 H :   -0.142771
  19 H :   -0.142612
  20 H :   -0.142612
  21 H :   -0.142612

  Mayer bond orders larger than 0.100000
B(  0-C ,  1-C ) :   0.8795 B(  0-C ,  2-C ) :   0.8795 B(  0-C ,  6-C ) :   0.8795
B(  0-C , 13-H ) :   0.7925 B(  1-C ,  3-C ) :   1.0765 B(  1-C , 16-H ) :   0.9133
B(  1-C , 19-H ) :   1.0177 B(  2-C ,  5-C ) :   1.0765 B(  2-C , 14-H ) :   0.9134
B(  2-C , 20-H ) :   1.0176 B(  3-C ,  4-C ) :   0.8795 B(  3-C , 17-H ) :   0.9133
B(  3-C , 21-H ) :   1.0176 B(  4-C ,  5-C ) :   0.8795 B(  4-C ,  7-C ) :   0.8795
B(  4-C ,  9-H ) :   0.7925 B(  5-C , 10-H ) :   1.0177 B(  5-C , 12-H ) :   0.9133
B(  6-C ,  7-C ) :   1.0765 B(  6-C ,  8-H ) :   0.9133 B(  6-C , 11-H ) :   1.0177
B(  7-C , 15-H ) :   1.0177 B(  7-C , 18-H ) :   0.9133

MP2 TOTAL ENERGY:     -312.598535715 Eh
FINAL SINGLE POINT ENERGY      -312.598535714904

DIPOLE MOMENT
-------------
                                X             Y             Z
Electronic contribution:     -0.00000      -0.00000      -0.00000
Nuclear contribution   :      0.00000       0.00000      -0.00000
                        -----------------------------------------
Total Dipole Moment    :     -0.00000       0.00000      -0.00000
                        -----------------------------------------
Magnitude (a.u.)       :      0.00000
Magnitude (Debye)      :      0.00000

Rotational constants in cm-1:     0.081289     0.078279     0.078279
Rotational constants in MHz :  2436.974860  2346.731374  2346.731216

                             ****ORCA TERMINATED NORMALLY****
TOTAL RUN TIME: 0 days 0 hours 12 minutes 45 seconds 527 msec
