                         Program Version 5.0.3 -  RELEASE  -
|  1> !ri-mp2 aug-cc-pvtz aug-cc-pvtz/c tightscf
|  2> %pal nprocs 16 end
|  3>
|  4> * xyz 0 1
|  5> C      1.747263   -1.406167        0.000000
|  6> C      2.223038   -0.087275        0.000000
|  7> C      0.389336   -1.682725        0.000000
|  8> C      1.351487    0.993360        0.000000
|  9> C     -1.940990   -0.463643        0.000000
| 10> C     -2.180642    0.864075        0.000000
| 11> C     -0.508089   -0.610981        0.000000
| 12> C      0.000000    0.695937        0.000000
| 13> O     -1.024824    1.601092        0.000000
| 14> H      2.457684   -2.221739        0.000000
| 15> H      3.289485    0.091942        0.000000
| 16> H      0.033887   -2.704379        0.000000
| 17> H      1.703212    2.015004        0.000000
| 18> H     -2.683681   -1.242643        0.000000
| 19> H     -3.090416    1.437594        0.000000
| 20> *
| 21>
| 22>                          ****END OF INPUT****

CARTESIAN COORDINATES (ANGSTROEM)
---------------------------------
  C      1.747263   -1.406167    0.000000
  C      2.223038   -0.087275    0.000000
  C      0.389336   -1.682725    0.000000
  C      1.351487    0.993360    0.000000
  C     -1.940990   -0.463643    0.000000
  C     -2.180642    0.864075    0.000000
  C     -0.508089   -0.610981    0.000000
  C      0.000000    0.695937    0.000000
  O     -1.024824    1.601092    0.000000
  H      2.457684   -2.221739    0.000000
  H      3.289485    0.091942    0.000000
  H      0.033887   -2.704379    0.000000
  H      1.703212    2.015004    0.000000
  H     -2.683681   -1.242643    0.000000
  H     -3.090416    1.437594    0.000000

 Total Charge           Charge          ....    0
 Multiplicity           Mult            ....    1
 Number of Electrons    NEL             ....   62
 Basis Dimension        Dim             ....  552

ORBITAL ENERGIES
----------------

  NO   OCC          E(Eh)            E(eV)
   0   2.0000     -20.621496      -561.1394
   1   2.0000     -11.301334      -307.5249
   2   2.0000     -11.293818      -307.3204
   3   2.0000     -11.242073      -305.9124
   4   2.0000     -11.240882      -305.8800
   5   2.0000     -11.239503      -305.8424
   6   2.0000     -11.238205      -305.8071
   7   2.0000     -11.236758      -305.7677
   8   2.0000     -11.232573      -305.6538
   9   2.0000      -1.457834       -39.6697
  10   2.0000      -1.156915       -31.4813
  11   2.0000      -1.084701       -29.5162
  12   2.0000      -1.018351       -27.7107
  13   2.0000      -0.994570       -27.0636
  14   2.0000      -0.858567       -23.3628
  15   2.0000      -0.818141       -22.2628
  16   2.0000      -0.801897       -21.8207
  17   2.0000      -0.717372       -19.5207
  18   2.0000      -0.680263       -18.5109
  19   2.0000      -0.663206       -18.0468
  20   2.0000      -0.642501       -17.4834
  21   2.0000      -0.613323       -16.6894
  22   2.0000      -0.596746       -16.2383
  23   2.0000      -0.575718       -15.6661
  24   2.0000      -0.560252       -15.2452
  25   2.0000      -0.522878       -14.2282
  26   2.0000      -0.494207       -13.4481
  27   2.0000      -0.493299       -13.4233
  28   2.0000      -0.410412       -11.1679
  29   2.0000      -0.328047        -8.9266
  30   2.0000      -0.303796        -8.2667
  31   0.0000       0.028832         0.7846
  32   0.0000       0.030864         0.8398
  33   0.0000       0.033592         0.9141
  34   0.0000       0.044182         1.2023
  35   0.0000       0.047381         1.2893

MULLIKEN ATOMIC CHARGES
-----------------------
   0 C :   -0.468827
   1 C :   -0.179778
   2 C :   -0.864267
   3 C :   -1.182039
   4 C :   -0.850859
   5 C :   -0.620105
   6 C :    1.421805
   7 C :    0.411234
   8 O :   -0.619403
   9 H :    0.675044
  10 H :    0.368626
  11 H :    0.014960
  12 H :    0.603463
  13 H :    0.539521
  14 H :    0.750623
Sum of atomic charges:   -0.0000000

LOEWDIN ATOMIC CHARGES
----------------------
   0 C :    0.188052
   1 C :    0.187817
   2 C :    0.225280
   3 C :    0.233424
   4 C :    0.225704
   5 C :   -0.002109
   6 C :   -0.152387
   7 C :   -0.384321
   8 O :    0.590152
   9 H :   -0.192096
  10 H :   -0.188849
  11 H :   -0.179057
  12 H :   -0.178711
  13 H :   -0.186576
  14 H :   -0.186321

  Mayer bond orders larger than 0.100000
B(  0-C ,  1-C ) :   0.9876 B(  0-C ,  2-C ) :   1.1561 B(  0-C ,  3-C ) :   0.3795
B(  0-C ,  4-C ) :   0.2610 B(  0-C ,  7-C ) :   0.1698 B(  0-C ,  9-H ) :   0.4595
B(  0-C , 10-H ) :  -0.2546 B(  0-C , 11-H ) :  -0.1182 B(  1-C ,  2-C ) :  -0.4050
B(  1-C ,  3-C ) :   1.3795 B(  1-C ,  6-C ) :   0.1504 B(  1-C ,  7-C ) :  -0.6045
B(  1-C ,  9-H ) :   0.1394 B(  1-C , 10-H ) :   0.8861 B(  1-C , 12-H ) :   0.1166
B(  2-C ,  6-C ) :   0.8407 B(  2-C ,  7-C ) :  -0.5725 B(  2-C ,  9-H ) :  -0.1307
B(  2-C , 10-H ) :   0.1239 B(  2-C , 11-H ) :   1.7199 B(  2-C , 13-H ) :   0.1391
B(  3-C ,  4-C ) :   0.1265 B(  3-C ,  7-C ) :   1.2453 B(  3-C , 12-H ) :   0.4018
B(  4-C ,  5-C ) :   1.4241 B(  4-C ,  6-C ) :   0.5617 B(  4-C ,  7-C ) :   0.2057
B(  4-C , 11-H ) :  -0.1330 B(  4-C , 13-H ) :   0.7278 B(  5-C ,  6-C ) :  -0.3398
B(  5-C ,  8-O ) :   1.2650 B(  5-C , 14-H ) :   0.3719 B(  6-C ,  7-C ) :   1.0292
B(  6-C ,  8-O ) :  -0.3050 B(  6-C , 11-H ) :  -0.2764 B(  6-C , 12-H ) :   0.1214
B(  7-C ,  8-O ) :   0.7000 B(  7-C ,  9-H ) :  -0.2042 B(  7-C , 10-H ) :   0.2221
B(  7-C , 11-H ) :   0.3995

MP2 TOTAL ENERGY:     -382.923525976 Eh
FINAL SINGLE POINT ENERGY      -382.923525975759

DIPOLE MOMENT
-------------
                                X             Y             Z
Electronic contribution:     -1.88058       2.28759      -0.00000
Nuclear contribution   :      1.66972      -2.56170       0.00000
                        -----------------------------------------
Total Dipole Moment    :     -0.21086      -0.27412      -0.00000
                        -----------------------------------------
Magnitude (a.u.)       :      0.34584
Magnitude (Debye)      :      0.87905

Rotational constants in cm-1:     0.131649     0.055565     0.039073
Rotational constants in MHz :  3946.752312  1665.787532  1171.386035

                             ****ORCA TERMINATED NORMALLY****
TOTAL RUN TIME: 0 days 0 hours 7 minutes 9 seconds 18 msec
