                         Program Version 5.0.3 -  RELEASE  -
|  1> !ri-mp2 aug-cc-pvtz aug-cc-pvtz/c tightscf
|  2> %pal nprocs 16 end
|  3>
|  4> * xyz 0 1
|  5> C      0.000000    0.000000    0.631617
|  6> C      0.000000    0.000000   -0.631617
|  7> C      0.000000    0.000000    1.943149
|  8> C      0.000000    0.000000   -1.943149
|  9> H      0.000000    0.924533    2.508102
| 10> H      0.000000   -0.924533    2.508102
| 11> H      0.000000    0.924533   -2.508102
| 12> H      0.000000   -0.924533   -2.508102
| 13> *
| 14>
| 15>                          ****END OF INPUT****

CARTESIAN COORDINATES (ANGSTROEM)
---------------------------------
  C      0.000000    0.000000    0.631617
  C      0.000000    0.000000   -0.631617
  C      0.000000    0.000000    1.943149
  C      0.000000    0.000000   -1.943149
  H      0.000000    0.924533    2.508102
  H      0.000000   -0.924533    2.508102
  H      0.000000    0.924533   -2.508102
  H      0.000000   -0.924533   -2.508102

 Total Charge           Charge          ....    0
 Multiplicity           Mult            ....    1
 Number of Electrons    NEL             ....   28
 Basis Dimension        Dim             ....  276

ORBITAL ENERGIES
----------------

  NO   OCC          E(Eh)            E(eV)
   0   2.0000     -11.258169      -306.3504
   1   2.0000     -11.255914      -306.2890
   2   2.0000     -11.253774      -306.2308
   3   2.0000     -11.253512      -306.2236
   4   2.0000      -1.094223       -29.7753
   5   2.0000      -1.016269       -27.6541
   6   2.0000      -0.896819       -24.4037
   7   2.0000      -0.691888       -18.8272
   8   2.0000      -0.652259       -17.7489
   9   2.0000      -0.626707       -17.0536
  10   2.0000      -0.604746       -16.4560
  11   2.0000      -0.477571       -12.9954
  12   2.0000      -0.375511       -10.2182
  13   2.0000      -0.336115        -9.1462
  14   0.0000       0.030155         0.8206
  15   0.0000       0.034423         0.9367
  16   0.0000       0.041151         1.1198
  17   0.0000       0.052713         1.4344
  18   0.0000       0.057993         1.5781

MULLIKEN ATOMIC CHARGES
-----------------------
   0 C :    0.793413
   1 C :    0.793413
   2 C :   -1.364246
   3 C :   -1.364246
   4 H :    0.285416
   5 H :    0.285416
   6 H :    0.285416
   7 H :    0.285416
Sum of atomic charges:   -0.0000000

LOEWDIN ATOMIC CHARGES
----------------------
   0 C :    0.023866
   1 C :    0.023866
   2 C :    0.458710
   3 C :    0.458710
   4 H :   -0.241288
   5 H :   -0.241288
   6 H :   -0.241288
   7 H :   -0.241288

  Mayer bond orders larger than 0.100000
B(  0-C ,  1-C ) :   1.5329 B(  0-C ,  2-C ) :   1.1908 B(  0-C ,  3-C ) :  -0.2535
B(  1-C ,  2-C ) :  -0.2535 B(  1-C ,  3-C ) :   1.1908 B(  2-C ,  3-C ) :   0.2019
B(  2-C ,  4-H ) :   1.0571 B(  2-C ,  5-H ) :   1.0571 B(  3-C ,  6-H ) :   1.0571
B(  3-C ,  7-H ) :   1.0571

MP2 TOTAL ENERGY:     -154.379075479 Eh
FINAL SINGLE POINT ENERGY      -154.379075478579

DIPOLE MOMENT
-------------
                                X             Y             Z
Electronic contribution:     -0.00000      -0.00000       0.00000
Nuclear contribution   :      0.00000       0.00000       0.00000
                        -----------------------------------------
Total Dipole Moment    :     -0.00000      -0.00000       0.00000
                        -----------------------------------------
Magnitude (a.u.)       :      0.00000
Magnitude (Debye)      :      0.00000

Rotational constants in cm-1:     4.891382     0.134164     0.130582
Rotational constants in MHz : 146639.930398  4022.124664  3914.748677

                             ****ORCA TERMINATED NORMALLY****
TOTAL RUN TIME: 0 days 0 hours 0 minutes 52 seconds 777 msec
