                         Program Version 5.0.3 -  RELEASE  -
|  1> !ri-mp2 aug-cc-pvtz aug-cc-pvtz/c tightscf
|  2> %pal nprocs 16 end
|  3>
|  4> * xyz 0 1
|  5> C      0.645070   -0.770527   -0.387053
|  6> C     -0.789799   -1.153566   -0.033586
|  7> C      0.710734    0.747733   -0.438274
|  8> C      1.457988   -0.021657    0.630098
|  9> C     -1.464834    0.179434    0.203670
| 10> C     -0.653112    1.204214   -0.052761
| 11> H      1.177895   -1.366546   -1.113656
| 12> H     -1.269345   -1.698798   -0.852718
| 13> H     -0.844021   -1.804885    0.843900
| 14> H      1.275524    1.279992   -1.191271
| 15> H      1.092367    0.049534    1.646341
| 16> H      2.533970   -0.086125    0.538571
| 17> H     -2.482396    0.264631    0.559582
| 18> H     -0.920271    2.248412    0.036679
| 19> *
| 20>
| 21>                          ****END OF INPUT****

CARTESIAN COORDINATES (ANGSTROEM)
---------------------------------
  C      0.645070   -0.770527   -0.387053
  C     -0.789799   -1.153566   -0.033586
  C      0.710734    0.747733   -0.438274
  C      1.457988   -0.021657    0.630098
  C     -1.464834    0.179434    0.203670
  C     -0.653112    1.204214   -0.052761
  H      1.177895   -1.366546   -1.113656
  H     -1.269345   -1.698798   -0.852718
  H     -0.844021   -1.804885    0.843900
  H      1.275524    1.279992   -1.191271
  H      1.092367    0.049534    1.646341
  H      2.533970   -0.086125    0.538571
  H     -2.482396    0.264631    0.559582
  H     -0.920271    2.248412    0.036679

 Total Charge           Charge          ....    0
 Multiplicity           Mult            ....    1
 Number of Electrons    NEL             ....   44
 Basis Dimension        Dim             ....  460

ORBITAL ENERGIES
----------------

  NO   OCC          E(Eh)            E(eV)
   0   2.0000     -11.228291      -305.5373
   1   2.0000     -11.227257      -305.5092
   2   2.0000     -11.224990      -305.4475
   3   2.0000     -11.222816      -305.3884
   4   2.0000     -11.222608      -305.3827
   5   2.0000     -11.219755      -305.3051
   6   2.0000      -1.178765       -32.0758
   7   2.0000      -1.032753       -28.1026
   8   2.0000      -0.956324       -26.0229
   9   2.0000      -0.827534       -22.5183
  10   2.0000      -0.764754       -20.8100
  11   2.0000      -0.727826       -19.8051
  12   2.0000      -0.695599       -18.9282
  13   2.0000      -0.619213       -16.8496
  14   2.0000      -0.573924       -15.6173
  15   2.0000      -0.563053       -15.3215
  16   2.0000      -0.522013       -14.2047
  17   2.0000      -0.509652       -13.8683
  18   2.0000      -0.475947       -12.9512
  19   2.0000      -0.443470       -12.0674
  20   2.0000      -0.399473       -10.8702
  21   2.0000      -0.329114        -8.9556
  22   0.0000       0.029909         0.8139
  23   0.0000       0.035924         0.9775
  24   0.0000       0.037420         1.0183
  25   0.0000       0.039858         1.0846
  26   0.0000       0.051632         1.4050

MULLIKEN ATOMIC CHARGES
-----------------------
   0 C :   -0.348800
   1 C :   -0.187653
   2 C :   -0.285066
   3 C :   -1.140176
   4 C :   -0.822779
   5 C :   -0.508907
   6 H :    0.563033
   7 H :    0.243272
   8 H :    0.257566
   9 H :    0.591678
  10 H :    0.388103
  11 H :    0.320444
  12 H :    0.534758
  13 H :    0.394527
Sum of atomic charges:    0.0000000

LOEWDIN ATOMIC CHARGES
----------------------
   0 C :    0.056635
   1 C :    0.284567
   2 C :    0.044559
   3 C :    0.381158
   4 C :    0.239340
   5 C :    0.238153
   6 H :   -0.134416
   7 H :   -0.150859
   8 H :   -0.149986
   9 H :   -0.140777
  10 H :   -0.155004
  11 H :   -0.156380
  12 H :   -0.179464
  13 H :   -0.177525

  Mayer bond orders larger than 0.100000
B(  0-C ,  1-C ) :   0.8203 B(  0-C ,  2-C ) :   0.6745 B(  0-C ,  3-C ) :   0.9849
B(  0-C ,  4-C ) :   0.2117 B(  0-C ,  5-C ) :  -0.1961 B(  0-C ,  6-H ) :   0.5255
B(  1-C ,  4-C ) :   0.8164 B(  1-C ,  7-H ) :   0.9721 B(  1-C ,  8-H ) :   0.9145
B(  2-C ,  3-C ) :   1.0192 B(  2-C ,  4-C ) :   0.1844 B(  2-C ,  5-C ) :   0.9106
B(  2-C ,  9-H ) :   0.5086 B(  3-C ,  6-H ) :  -0.1094 B(  3-C , 10-H ) :   0.8070
B(  3-C , 11-H ) :   0.8722 B(  4-C ,  5-C ) :   1.6142 B(  4-C , 12-H ) :   0.6575
B(  5-C , 13-H ) :   0.9550

MP2 TOTAL ENERGY:     -232.888409564 Eh
FINAL SINGLE POINT ENERGY      -232.888409564354

DIPOLE MOMENT
-------------
                                X             Y             Z
Electronic contribution:     -0.51067       1.06905      -0.52314
Nuclear contribution   :      0.58135      -1.14861       0.48204
                        -----------------------------------------
Total Dipole Moment    :      0.07068      -0.07955      -0.04109
                        -----------------------------------------
Magnitude (a.u.)       :      0.11407
Magnitude (Debye)      :      0.28995

Rotational constants in cm-1:     0.212335     0.150498     0.106940
Rotational constants in MHz :  6365.657738  4511.820652  3205.969987

                             ****ORCA TERMINATED NORMALLY****
TOTAL RUN TIME: 0 days 0 hours 3 minutes 25 seconds 595 msec
