                         Program Version 5.0.3 -  RELEASE  -
|  1> !ri-mp2 aug-cc-pvtz aug-cc-pvtz/c tightscf
|  2> %pal nprocs 16 end
|  3> %maxcore 3800
|  4>
|  5> * xyz 0 1
|  6> C     -1.791427   -0.546342   -0.470725
|  7> C     -1.753453    0.902887    0.021944
|  8> C     -0.346099    1.484644   -0.136504
|  9> C      0.713967    0.691652    0.641171
| 10> C      2.060839    0.553545   -0.118966
| 11> C      1.570404   -0.813571   -0.662948
| 12> C      0.552087   -0.854996    0.508236
| 13> C     -0.849517   -1.436058    0.348591
| 14> H     -2.807213   -0.943727   -0.416752
| 15> H     -1.508563   -0.568405   -1.527994
| 16> H     -2.059618    0.940911    1.073243
| 17> H     -2.471421    1.510461   -0.533276
| 18> H     -0.099323    1.483279   -1.202799
| 19> H     -0.319965    2.530882    0.176897
| 20> H      0.774332    1.062996    1.665761
| 21> H      2.903852    0.434272    0.561752
| 22> H      2.304420    1.332097   -0.842353
| 23> H      2.293715   -1.626176   -0.723529
| 24> H      1.084176   -0.713631   -1.633483
| 25> H      1.040476   -1.331839    1.360944
| 26> H     -1.285091   -1.564400    1.345109
| 27> H     -0.790577   -2.437289   -0.088318
| 28> *
| 29>
| 30>                          ****END OF INPUT****

CARTESIAN COORDINATES (ANGSTROEM)
---------------------------------
  C     -1.791427   -0.546342   -0.470725
  C     -1.753453    0.902887    0.021944
  C     -0.346099    1.484644   -0.136504
  C      0.713967    0.691652    0.641171
  C      2.060839    0.553545   -0.118966
  C      1.570404   -0.813571   -0.662948
  C      0.552087   -0.854996    0.508236
  C     -0.849517   -1.436058    0.348591
  H     -2.807213   -0.943727   -0.416752
  H     -1.508563   -0.568405   -1.527994
  H     -2.059618    0.940911    1.073243
  H     -2.471421    1.510461   -0.533276
  H     -0.099323    1.483279   -1.202799
  H     -0.319965    2.530882    0.176897
  H      0.774332    1.062996    1.665761
  H      2.903852    0.434272    0.561752
  H      2.304420    1.332097   -0.842353
  H      2.293715   -1.626176   -0.723529
  H      1.084176   -0.713631   -1.633483
  H      1.040476   -1.331839    1.360944
  H     -1.285091   -1.564400    1.345109
  H     -0.790577   -2.437289   -0.088318

 Total Charge           Charge          ....    0
 Multiplicity           Mult            ....    1
 Number of Electrons    NEL             ....   62
 Basis Dimension        Dim             ....  690

ORBITAL ENERGIES
----------------

  NO   OCC          E(Eh)            E(eV)
   0   2.0000     -11.216532      -305.2174
   1   2.0000     -11.215997      -305.2028
   2   2.0000     -11.212519      -305.1082
   3   2.0000     -11.212087      -305.0964
   4   2.0000     -11.211787      -305.0882
   5   2.0000     -11.211532      -305.0813
   6   2.0000     -11.211108      -305.0698
   7   2.0000     -11.210764      -305.0604
   8   2.0000      -1.143398       -31.1134
   9   2.0000      -1.057958       -28.7885
  10   2.0000      -1.002701       -27.2849
  11   2.0000      -0.916008       -24.9259
  12   2.0000      -0.868334       -23.6286
  13   2.0000      -0.817425       -22.2433
  14   2.0000      -0.786014       -21.3885
  15   2.0000      -0.703834       -19.1523
  16   2.0000      -0.661613       -18.0034
  17   2.0000      -0.621637       -16.9156
  18   2.0000      -0.607397       -16.5281
  19   2.0000      -0.592550       -16.1241
  20   2.0000      -0.576013       -15.6741
  21   2.0000      -0.534013       -14.5312
  22   2.0000      -0.517006       -14.0684
  23   2.0000      -0.495824       -13.4921
  24   2.0000      -0.492986       -13.4148
  25   2.0000      -0.480980       -13.0881
  26   2.0000      -0.467728       -12.7275
  27   2.0000      -0.445815       -12.1312
  28   2.0000      -0.419596       -11.4178
  29   2.0000      -0.410250       -11.1635
  30   2.0000      -0.399783       -10.8787
  31   0.0000       0.029631         0.8063
  32   0.0000       0.034321         0.9339
  33   0.0000       0.034695         0.9441
  34   0.0000       0.035963         0.9786
  35   0.0000       0.048561         1.3214

MULLIKEN ATOMIC CHARGES
-----------------------
   0 C :   -0.448761
   1 C :   -0.555825
   2 C :   -0.393056
   3 C :   -0.435892
   4 C :   -0.709786
   5 C :   -0.786119
   6 C :    0.149466
   7 C :   -0.540844
   8 H :    0.345568
   9 H :    0.144156
  10 H :    0.113185
  11 H :    0.319783
  12 H :    0.180252
  13 H :    0.287263
  14 H :    0.402212
  15 H :    0.182210
  16 H :    0.344884
  17 H :    0.397338
  18 H :    0.145858
  19 H :    0.482230
  20 H :    0.093312
  21 H :    0.282567
Sum of atomic charges:    0.0000000

LOEWDIN ATOMIC CHARGES
----------------------
   0 C :    0.289600
   1 C :    0.295502
   2 C :    0.302810
   3 C :    0.052110
   4 C :    0.341036
   5 C :    0.345232
   6 C :    0.044032
   7 C :    0.315439
   8 H :   -0.143348
   9 H :   -0.144729
  10 H :   -0.137155
  11 H :   -0.143113
  12 H :   -0.151020
  13 H :   -0.137787
  14 H :   -0.124112
  15 H :   -0.148327
  16 H :   -0.147261
  17 H :   -0.144888
  18 H :   -0.151904
  19 H :   -0.128115
  20 H :   -0.145159
  21 H :   -0.138844

  Mayer bond orders larger than 0.100000
B(  0-C ,  1-C ) :   0.8804 B(  0-C ,  7-C ) :   0.8871 B(  0-C ,  8-H ) :   0.8893
B(  0-C ,  9-H ) :   1.0537 B(  1-C ,  2-C ) :   0.8786 B(  1-C ,  3-C ) :   0.1000
B(  1-C , 10-H ) :   1.0883 B(  1-C , 11-H ) :   0.9033 B(  2-C ,  3-C ) :   0.8672
B(  2-C ,  6-C ) :   0.1355 B(  2-C , 12-H ) :   1.0660 B(  2-C , 13-H ) :   0.9430
B(  3-C ,  4-C ) :   1.1501 B(  3-C ,  6-C ) :   0.9179 B(  3-C , 14-H ) :   0.7286
B(  4-C ,  5-C ) :   1.1780 B(  4-C ,  6-C ) :  -0.3336 B(  4-C , 15-H ) :   1.0208
B(  4-C , 16-H ) :   0.8872 B(  5-C ,  6-C ) :   0.9205 B(  5-C , 17-H ) :   0.7811
B(  5-C , 18-H ) :   1.0886 B(  5-C , 19-H ) :  -0.1324 B(  6-C ,  7-C ) :   0.7895
B(  6-C , 19-H ) :   0.7589 B(  7-C , 20-H ) :   1.1359 B(  7-C , 21-H ) :   0.9533

MP2 TOTAL ENERGY:     -312.568606290 Eh
FINAL SINGLE POINT ENERGY      -312.568606290042

DIPOLE MOMENT
-------------
                                X             Y             Z
Electronic contribution:      0.95778      -0.12251       0.87063
Nuclear contribution   :     -0.99408       0.11563      -0.82924
                        -----------------------------------------
Total Dipole Moment    :     -0.03630      -0.00688       0.04139
                        -----------------------------------------
Magnitude (a.u.)       :      0.05548
Magnitude (Debye)      :      0.14102

Rotational constants in cm-1:     0.109144     0.066070     0.049362
Rotational constants in MHz :  3272.065183  1980.720649  1479.829471

                             ****ORCA TERMINATED NORMALLY****
TOTAL RUN TIME: 0 days 0 hours 12 minutes 44 seconds 423 msec
