                         Program Version 5.0.3 -  RELEASE  -
|  1> !ri-mp2 aug-cc-pvtz aug-cc-pvtz/c tightscf
|  2> %pal nprocs 16 end
|  3>
|  4> * xyz 0 1
|  5> C     0.000000     0.666639    1.212835
|  6> C     0.000000    -0.666639    1.212835
|  7> C     0.000000    -1.020958   -0.278406
|  8> C     0.000000     1.020958   -0.278406
|  9> C     1.063233     0.000000   -0.808697
| 10> C    -1.063233     0.000000   -0.808697
| 11> H     0.000000     1.359953    2.038801
| 12> H     0.000000    -1.359953    2.038801
| 13> H     0.000000    -2.068141   -0.567858
| 14> H     0.000000     2.068141   -0.567858
| 15> H     2.041135     0.000000   -0.329854
| 16> H    -2.041135     0.000000   -0.329854
| 17> H    -1.157060     0.000000   -1.895481
| 18> H     1.157060     0.000000   -1.895481
| 19> *
| 20>
| 21>                          ****END OF INPUT****

CARTESIAN COORDINATES (ANGSTROEM)
---------------------------------
  C      0.000000    0.666639    1.212835
  C      0.000000   -0.666639    1.212835
  C      0.000000   -1.020958   -0.278406
  C      0.000000    1.020958   -0.278406
  C      1.063233    0.000000   -0.808697
  C     -1.063233    0.000000   -0.808697
  H      0.000000    1.359953    2.038801
  H      0.000000   -1.359953    2.038801
  H      0.000000   -2.068141   -0.567858
  H      0.000000    2.068141   -0.567858
  H      2.041135    0.000000   -0.329854
  H     -2.041135    0.000000   -0.329854
  H     -1.157060    0.000000   -1.895481
  H      1.157060    0.000000   -1.895481

 Total Charge           Charge          ....    0
 Multiplicity           Mult            ....    1
 Number of Electrons    NEL             ....   44
 Basis Dimension        Dim             ....  460

ORBITAL ENERGIES
----------------

  NO   OCC          E(Eh)            E(eV)
   0   2.0000     -11.235582      -305.7357
   1   2.0000     -11.235557      -305.7350
   2   2.0000     -11.224325      -305.4294
   3   2.0000     -11.224302      -305.4288
   4   2.0000     -11.220871      -305.3354
   5   2.0000     -11.219133      -305.2881
   6   2.0000      -1.191828       -32.4313
   7   2.0000      -0.985900       -26.8277
   8   2.0000      -0.911791       -24.8111
   9   2.0000      -0.894078       -24.3291
  10   2.0000      -0.747104       -20.3297
  11   2.0000      -0.714737       -19.4490
  12   2.0000      -0.693521       -18.8717
  13   2.0000      -0.633430       -17.2365
  14   2.0000      -0.562536       -15.3074
  15   2.0000      -0.558596       -15.2002
  16   2.0000      -0.487500       -13.2655
  17   2.0000      -0.476344       -12.9620
  18   2.0000      -0.468730       -12.7548
  19   2.0000      -0.459545       -12.5048
  20   2.0000      -0.431658       -11.7460
  21   2.0000      -0.327142        -8.9020
  22   0.0000       0.028911         0.7867
  23   0.0000       0.034297         0.9333
  24   0.0000       0.036199         0.9850
  25   0.0000       0.039854         1.0845
  26   0.0000       0.050331         1.3696

MULLIKEN ATOMIC CHARGES
-----------------------
   0 C :   -0.713580
   1 C :   -0.713580
   2 C :   -0.252978
   3 C :   -0.252978
   4 C :   -0.818101
   5 C :   -0.818101
   6 H :    0.526742
   7 H :    0.526742
   8 H :    0.589167
   9 H :    0.589167
  10 H :    0.476272
  11 H :    0.476272
  12 H :    0.192478
  13 H :    0.192478
Sum of atomic charges:    0.0000000

LOEWDIN ATOMIC CHARGES
----------------------
   0 C :    0.242776
   1 C :    0.242776
   2 C :    0.033806
   3 C :    0.033806
   4 C :    0.341689
   5 C :    0.341689
   6 H :   -0.177178
   7 H :   -0.177178
   8 H :   -0.140243
   9 H :   -0.140243
  10 H :   -0.150211
  11 H :   -0.150211
  12 H :   -0.150639
  13 H :   -0.150639

  Mayer bond orders larger than 0.100000
B(  0-C ,  1-C ) :   1.5840 B(  0-C ,  3-C ) :   0.8740 B(  0-C ,  6-H ) :   0.7416
B(  1-C ,  2-C ) :   0.8740 B(  1-C ,  7-H ) :   0.7416 B(  2-C ,  3-C ) :  -0.1525
B(  2-C ,  4-C ) :   0.9629 B(  2-C ,  5-C ) :   0.9629 B(  2-C ,  8-H ) :   0.6163
B(  3-C ,  4-C ) :   0.9629 B(  3-C ,  5-C ) :   0.9629 B(  3-C ,  9-H ) :   0.6163
B(  4-C , 10-H ) :   0.7448 B(  4-C , 13-H ) :   1.0010 B(  5-C , 11-H ) :   0.7448
B(  5-C , 12-H ) :   1.0010

MP2 TOTAL ENERGY:     -232.861391442 Eh
FINAL SINGLE POINT ENERGY      -232.861391441615

DIPOLE MOMENT
-------------
                                X             Y             Z
Electronic contribution:     -0.00000      -0.00000       1.42514
Nuclear contribution   :      0.00000       0.00000      -1.55595
                        -----------------------------------------
Total Dipole Moment    :     -0.00000      -0.00000      -0.13081
                        -----------------------------------------
Magnitude (a.u.)       :      0.13081
Magnitude (Debye)      :      0.33251

Rotational constants in cm-1:     0.195291     0.156631     0.143544
Rotational constants in MHz :  5854.684100  4695.685850  4303.350513

                             ****ORCA TERMINATED NORMALLY****
TOTAL RUN TIME: 0 days 0 hours 3 minutes 34 seconds 203 msec
