                         Program Version 5.0.3 -  RELEASE  -
|  1> !ri-mp2 aug-cc-pvtz aug-cc-pvtz/c tightscf
|  2> %pal nprocs 16 end
|  3>
|  4> * xyz 0 1
|  5> C     0.000000     1.396197   -0.005270
|  6> C     1.209142    -0.698099   -0.005270
|  7> C    -1.209142    -0.698099   -0.005270
|  8> C     1.208834     0.697921   -0.006832
|  9> C    -1.208834     0.697921   -0.006832
| 10> C     0.000000    -1.395841   -0.006832
| 11> N     2.416644     1.395250   -0.064461
| 12> N    -2.416644     1.395250   -0.064461
| 13> N     0.000000    -2.790500   -0.064461
| 14> H     0.000000     2.479119   -0.023214
| 15> H     2.146980    -1.239560   -0.023214
| 16> H    -2.146980    -1.239560   -0.023214
| 17> H     3.222171     0.895252    0.273528
| 18> H     2.386397     2.342856    0.273528
| 19> H    -2.386397     2.342856    0.273528
| 20> H    -3.222171     0.895252    0.273528
| 21> H    -0.835774    -3.238108    0.273528
| 22> H     0.835774    -3.238108    0.273528
| 23> *
| 24>
| 25>                          ****END OF INPUT****

CARTESIAN COORDINATES (ANGSTROEM)
---------------------------------
  C      0.000000    1.396197   -0.005270
  C      1.209142   -0.698099   -0.005270
  C     -1.209142   -0.698099   -0.005270
  C      1.208834    0.697921   -0.006832
  C     -1.208834    0.697921   -0.006832
  C      0.000000   -1.395841   -0.006832
  N      2.416644    1.395250   -0.064461
  N     -2.416644    1.395250   -0.064461
  N      0.000000   -2.790500   -0.064461
  H      0.000000    2.479119   -0.023214
  H      2.146980   -1.239560   -0.023214
  H     -2.146980   -1.239560   -0.023214
  H      3.222171    0.895252    0.273528
  H      2.386397    2.342856    0.273528
  H     -2.386397    2.342856    0.273528
  H     -3.222171    0.895252    0.273528
  H     -0.835774   -3.238108    0.273528
  H      0.835774   -3.238108    0.273528

 Total Charge           Charge          ....    0
 Multiplicity           Mult            ....    1
 Number of Electrons    NEL             ....   66
 Basis Dimension        Dim             ....  621

ORBITAL ENERGIES
----------------

  NO   OCC          E(Eh)            E(eV)
   0   2.0000     -15.559561      -423.3972
   1   2.0000     -15.559561      -423.3972
   2   2.0000     -15.559561      -423.3972
   3   2.0000     -11.275571      -306.8239
   4   2.0000     -11.275568      -306.8238
   5   2.0000     -11.275568      -306.8238
   6   2.0000     -11.195011      -304.6317
   7   2.0000     -11.195011      -304.6317
   8   2.0000     -11.194977      -304.6308
   9   2.0000      -1.231360       -33.5070
  10   2.0000      -1.208588       -32.8873
  11   2.0000      -1.208588       -32.8873
  12   2.0000      -1.080599       -29.4046
  13   2.0000      -0.972097       -26.4521
  14   2.0000      -0.972097       -26.4521
  15   2.0000      -0.815852       -22.2005
  16   2.0000      -0.815852       -22.2005
  17   2.0000      -0.718512       -19.5517
  18   2.0000      -0.703291       -19.1375
  19   2.0000      -0.659521       -17.9465
  20   2.0000      -0.659521       -17.9465
  21   2.0000      -0.656710       -17.8700
  22   2.0000      -0.601414       -16.3653
  23   2.0000      -0.601414       -16.3653
  24   2.0000      -0.559591       -15.2272
  25   2.0000      -0.549494       -14.9525
  26   2.0000      -0.510195       -13.8831
  27   2.0000      -0.510194       -13.8831
  28   2.0000      -0.483309       -13.1515
  29   2.0000      -0.483309       -13.1515
  30   2.0000      -0.378813       -10.3080
  31   2.0000      -0.283548        -7.7157
  32   2.0000      -0.283548        -7.7157
  33   0.0000       0.025455         0.6927
  34   0.0000       0.031018         0.8440
  35   0.0000       0.031018         0.8440
  36   0.0000       0.044996         1.2244
  37   0.0000       0.044996         1.2244

MULLIKEN ATOMIC CHARGES
-----------------------
   0 C :   -0.836667
   1 C :   -0.836626
   2 C :   -0.836647
   3 C :    1.106208
   4 C :    1.106227
   5 C :    1.106209
   6 N :   -0.756371
   7 N :   -0.756375
   8 N :   -0.756369
   9 H :    0.382957
  10 H :    0.382901
  11 H :    0.382902
  12 H :    0.051942
  13 H :    0.051941
  14 H :    0.051942
  15 H :    0.051941
  16 H :    0.051944
  17 H :    0.051941
Sum of atomic charges:    0.0000000

LOEWDIN ATOMIC CHARGES
----------------------
   0 C :    0.227194
   1 C :    0.227195
   2 C :    0.227195
   3 C :   -0.265340
   4 C :   -0.265340
   5 C :   -0.265341
   6 N :    0.855704
   7 N :    0.855704
   8 N :    0.855704
   9 H :   -0.193303
  10 H :   -0.193303
  11 H :   -0.193303
  12 H :   -0.312128
  13 H :   -0.312128
  14 H :   -0.312128
  15 H :   -0.312128
  16 H :   -0.312128
  17 H :   -0.312128

  Mayer bond orders larger than 0.100000
B(  0-C ,  1-C ) :   0.4435 B(  0-C ,  2-C ) :   0.4435 B(  0-C ,  3-C ) :   0.6814
B(  0-C ,  4-C ) :   0.6813 B(  0-C ,  6-N ) :  -0.1446 B(  0-C ,  7-N ) :  -0.1446
B(  0-C ,  9-H ) :   0.7346 B(  1-C ,  2-C ) :   0.4435 B(  1-C ,  3-C ) :   0.6814
B(  1-C ,  5-C ) :   0.6814 B(  1-C ,  6-N ) :  -0.1445 B(  1-C ,  8-N ) :  -0.1446
B(  1-C , 10-H ) :   0.7347 B(  2-C ,  4-C ) :   0.6814 B(  2-C ,  5-C ) :   0.6814
B(  2-C ,  7-N ) :  -0.1445 B(  2-C ,  8-N ) :  -0.1446 B(  2-C , 11-H ) :   0.7347
B(  3-C ,  6-N ) :   0.6369 B(  4-C ,  7-N ) :   0.6369 B(  5-C ,  8-N ) :   0.6369
B(  6-N , 12-H ) :   1.1239 B(  6-N , 13-H ) :   1.1239 B(  7-N , 14-H ) :   1.1239
B(  7-N , 15-H ) :   1.1239 B(  8-N , 16-H ) :   1.1239 B(  8-N , 17-H ) :   1.1239

MP2 TOTAL ENERGY:     -397.556366130 Eh
FINAL SINGLE POINT ENERGY      -397.556366130464

DIPOLE MOMENT
-------------
                                X             Y             Z
Electronic contribution:     -0.00000       0.00000      -0.46501
Nuclear contribution   :      0.00000      -0.00000       1.58051
                        -----------------------------------------
Total Dipole Moment    :     -0.00000       0.00000       1.11550
                        -----------------------------------------
Magnitude (a.u.)       :      1.11550
Magnitude (Debye)      :      2.83537

Rotational constants in cm-1:     0.060736     0.060736     0.030435
Rotational constants in MHz :  1820.829574  1820.829510   912.425454

                             ****ORCA TERMINATED NORMALLY****
TOTAL RUN TIME: 0 days 0 hours 9 minutes 28 seconds 249 msec
