                         Program Version 5.0.3 -  RELEASE  -
|  1> !ri-mp2 aug-cc-pvtz aug-cc-pvtz/c tightscf
|  2> %pal nprocs 16 end
|  3>
|  4> * xyz 0 1
|  5> C     -1.045329   -0.494601    0.000000
|  6> C      2.460708    1.198934    0.000000
|  7> C      0.000000    0.591852    0.000000
|  8> C      1.432695    0.069636    0.000000
|  9> O     -0.842076   -1.681341    0.000000
| 10> O     -2.300401    0.024009    0.000000
| 11> H      2.354021    1.835295    0.881002
| 12> H      2.354021    1.835295   -0.881002
| 13> H      3.476451    0.802896    0.000000
| 14> H     -0.189161    1.228211    0.869185
| 15> H     -0.189161    1.228211   -0.869185
| 16> H      1.580358   -0.571042   -0.870771
| 17> H      1.580358   -0.571042    0.870771
| 18> H     -2.915516   -0.724098    0.000000
| 19> *
| 20>
| 21>                          ****END OF INPUT****

CARTESIAN COORDINATES (ANGSTROEM)
---------------------------------
  C     -1.045329   -0.494601    0.000000
  C      2.460708    1.198934    0.000000
  C      0.000000    0.591852    0.000000
  C      1.432695    0.069636    0.000000
  O     -0.842076   -1.681341    0.000000
  O     -2.300401    0.024009    0.000000
  H      2.354021    1.835295    0.881002
  H      2.354021    1.835295   -0.881002
  H      3.476451    0.802896    0.000000
  H     -0.189161    1.228211    0.869185
  H     -0.189161    1.228211   -0.869185
  H      1.580358   -0.571042   -0.870771
  H      1.580358   -0.571042    0.870771
  H     -2.915516   -0.724098    0.000000

 Total Charge           Charge          ....    0
 Multiplicity           Mult            ....    1
 Number of Electrons    NEL             ....   48
 Basis Dimension        Dim             ....  460

ORBITAL ENERGIES
----------------

  NO   OCC          E(Eh)            E(eV)
   0   2.0000     -20.611238      -560.8603
   1   2.0000     -20.550195      -559.1992
   2   2.0000     -11.385560      -309.8168
   3   2.0000     -11.247132      -306.0500
   4   2.0000     -11.228948      -305.5552
   5   2.0000     -11.220295      -305.3198
   6   2.0000      -1.463659       -39.8282
   7   2.0000      -1.361596       -37.0509
   8   2.0000      -1.084585       -29.5131
   9   2.0000      -0.980192       -26.6724
  10   2.0000      -0.854547       -23.2534
  11   2.0000      -0.787347       -21.4248
  12   2.0000      -0.703308       -19.1380
  13   2.0000      -0.687478       -18.7072
  14   2.0000      -0.665895       -18.1199
  15   2.0000      -0.613691       -16.6994
  16   2.0000      -0.597837       -16.2680
  17   2.0000      -0.574726       -15.6391
  18   2.0000      -0.545154       -14.8344
  19   2.0000      -0.509529       -13.8650
  20   2.0000      -0.493382       -13.4256
  21   2.0000      -0.484888       -13.1945
  22   2.0000      -0.481981       -13.1154
  23   2.0000      -0.451816       -12.2946
  24   0.0000       0.028215         0.7678
  25   0.0000       0.033961         0.9241
  26   0.0000       0.040184         1.0935
  27   0.0000       0.041269         1.1230
  28   0.0000       0.052679         1.4335

MULLIKEN ATOMIC CHARGES
-----------------------
   0 C :    0.398218
   1 C :   -0.923884
   2 C :   -0.078646
   3 C :   -0.338489
   4 O :   -0.751365
   5 O :   -0.438440
   6 H :    0.269673
   7 H :    0.269673
   8 H :    0.285040
   9 H :    0.281113
  10 H :    0.281113
  11 H :    0.247973
  12 H :    0.247973
  13 H :    0.250047
Sum of atomic charges:    0.0000000

LOEWDIN ATOMIC CHARGES
----------------------
   0 C :   -0.783022
   1 C :    0.580680
   2 C :    0.260178
   3 C :    0.245405
   4 O :    0.457279
   5 O :    0.827738
   6 H :   -0.170502
   7 H :   -0.170502
   8 H :   -0.171325
   9 H :   -0.149750
  10 H :   -0.149750
  11 H :   -0.149667
  12 H :   -0.149667
  13 H :   -0.477097

  Mayer bond orders larger than 0.100000
B(  0-C ,  2-C ) :   0.6109 B(  0-C ,  4-O ) :   1.4563 B(  0-C ,  5-O ) :   1.0143
B(  1-C ,  3-C ) :   0.9024 B(  1-C ,  6-H ) :   0.9500 B(  1-C ,  7-H ) :   0.9500
B(  1-C ,  8-H ) :   0.9666 B(  2-C ,  3-C ) :   0.9342 B(  2-C ,  9-H ) :   0.9251
B(  2-C , 10-H ) :   0.9251 B(  3-C , 11-H ) :   0.9494 B(  3-C , 12-H ) :   0.9494
B(  5-O , 13-H ) :   0.9593

MP2 TOTAL ENERGY:     -307.172269958 Eh
FINAL SINGLE POINT ENERGY      -307.172269958473

DIPOLE MOMENT
-------------
                                X             Y             Z
Electronic contribution:     -8.18712      -4.44949       0.00000
Nuclear contribution   :      8.18724       5.15433       0.00000
                        -----------------------------------------
Total Dipole Moment    :      0.00013       0.70484       0.00000
                        -----------------------------------------
Magnitude (a.u.)       :      0.70484
Magnitude (Debye)      :      1.79156

Rotational constants in cm-1:     0.301441     0.060809     0.052043
Rotational constants in MHz :  9036.966220  1822.996551  1560.220896

                             ****ORCA TERMINATED NORMALLY****
TOTAL RUN TIME: 0 days 0 hours 3 minutes 19 seconds 702 msec
