                         Program Version 5.0.3 -  RELEASE  -
|  1> !ri-mp2 aug-cc-pvtz aug-cc-pvtz/c tightscf
|  2> %pal nprocs 16 end
|  3>
|  4> * xyz 0 1
|  5> C     -2.571902    0.046888    0.020768
|  6> C     -1.848389    1.223950   -0.131564
|  7> C     -1.902431   -1.166543    0.145550
|  8> C     -0.459401    1.189827   -0.147202
|  9> C     -0.515903   -1.202319    0.120287
| 10> C      0.218670   -0.023721   -0.016122
| 11> C      1.715052   -0.135921   -0.035243
| 12> N      2.416666    1.006941    0.237137
| 13> O      2.280280   -1.184451   -0.295323
| 14> H     -3.653148    0.074322    0.035323
| 15> H     -2.364586    2.167480   -0.245942
| 16> H     -2.462548   -2.084753    0.259361
| 17> H      0.086801    2.111464   -0.297061
| 18> H      0.020859   -2.136416    0.202736
| 19> H      1.984571    1.789885    0.692283
| 20> H      3.414974    0.912074    0.317082
| 21> *
| 22>
| 23>                          ****END OF INPUT****

CARTESIAN COORDINATES (ANGSTROEM)
---------------------------------
  C     -2.571902    0.046888    0.020768
  C     -1.848389    1.223950   -0.131564
  C     -1.902431   -1.166543    0.145550
  C     -0.459401    1.189827   -0.147202
  C     -0.515903   -1.202319    0.120287
  C      0.218670   -0.023721   -0.016122
  C      1.715052   -0.135921   -0.035243
  N      2.416666    1.006941    0.237137
  O      2.280280   -1.184451   -0.295323
  H     -3.653148    0.074322    0.035323
  H     -2.364586    2.167480   -0.245942
  H     -2.462548   -2.084753    0.259361
  H      0.086801    2.111464   -0.297061
  H      0.020859   -2.136416    0.202736
  H      1.984571    1.789885    0.692283
  H      3.414974    0.912074    0.317082

 Total Charge           Charge          ....    0
 Multiplicity           Mult            ....    1
 Number of Electrons    NEL             ....   64
 Basis Dimension        Dim             ....  575

ORBITAL ENERGIES
----------------

  NO   OCC          E(Eh)            E(eV)
   0   2.0000     -20.521161      -558.4092
   1   2.0000     -15.585830      -424.1120
   2   2.0000     -11.357939      -309.0652
   3   2.0000     -11.255683      -306.2827
   4   2.0000     -11.253546      -306.2246
   5   2.0000     -11.250950      -306.1539
   6   2.0000     -11.246890      -306.0434
   7   2.0000     -11.246316      -306.0278
   8   2.0000     -11.243871      -305.9613
   9   2.0000      -1.384192       -37.6658
  10   2.0000      -1.214467       -33.0473
  11   2.0000      -1.167526       -31.7700
  12   2.0000      -1.041845       -28.3500
  13   2.0000      -1.030265       -28.0349
  14   2.0000      -0.880675       -23.9644
  15   2.0000      -0.842002       -22.9120
  16   2.0000      -0.792716       -21.5709
  17   2.0000      -0.748485       -20.3673
  18   2.0000      -0.698982       -19.0203
  19   2.0000      -0.673917       -18.3382
  20   2.0000      -0.641274       -17.4499
  21   2.0000      -0.621780       -16.9195
  22   2.0000      -0.603396       -16.4192
  23   2.0000      -0.597019       -16.2457
  24   2.0000      -0.578104       -15.7310
  25   2.0000      -0.524492       -14.2722
  26   2.0000      -0.510459       -13.8903
  27   2.0000      -0.506244       -13.7756
  28   2.0000      -0.433976       -11.8091
  29   2.0000      -0.418021       -11.3749
  30   2.0000      -0.352820        -9.6007
  31   2.0000      -0.348616        -9.4863
  32   0.0000       0.022182         0.6036
  33   0.0000       0.028896         0.7863
  34   0.0000       0.035225         0.9585
  35   0.0000       0.044925         1.2225
  36   0.0000       0.051693         1.4066

MULLIKEN ATOMIC CHARGES
-----------------------
   0 C :   -0.250311
   1 C :   -0.773813
   2 C :   -0.506323
   3 C :   -0.834845
   4 C :   -0.977143
   5 C :    1.870332
   6 C :    0.600819
   7 N :   -0.424108
   8 O :   -0.822074
   9 H :    0.491821
  10 H :    0.441333
  11 H :    0.469979
  12 H :    0.160552
  13 H :    0.252672
  14 H :    0.163384
  15 H :    0.137724
Sum of atomic charges:    0.0000000

LOEWDIN ATOMIC CHARGES
----------------------
   0 C :    0.204129
   1 C :    0.206090
   2 C :    0.211866
   3 C :    0.205644
   4 C :    0.210705
   5 C :   -0.115397
   6 C :   -0.677812
   7 N :    0.852050
   8 O :    0.441056
   9 H :   -0.180615
  10 H :   -0.184271
  11 H :   -0.182748
  12 H :   -0.190373
  13 H :   -0.185069
  14 H :   -0.322700
  15 H :   -0.292554

  Mayer bond orders larger than 0.100000
B(  0-C ,  1-C ) :   1.2035 B(  0-C ,  2-C ) :   1.1086 B(  0-C ,  9-H ) :   0.7679
B(  1-C ,  3-C ) :   1.3070 B(  1-C ,  4-C ) :   0.1306 B(  1-C ,  5-C ) :  -0.1605
B(  1-C ,  9-H ) :  -0.1767 B(  1-C , 10-H ) :   0.8333 B(  2-C ,  4-C ) :   1.1834
B(  2-C ,  9-H ) :  -0.1478 B(  2-C , 11-H ) :   0.8093 B(  3-C ,  5-C ) :   0.4027
B(  3-C ,  6-C ) :   0.1926 B(  3-C , 10-H ) :  -0.1082 B(  3-C , 12-H ) :   1.3833
B(  3-C , 13-H ) :   0.1103 B(  4-C ,  5-C ) :   0.4021 B(  4-C ,  6-C ) :   0.1609
B(  4-C ,  9-H ) :   0.1587 B(  4-C , 11-H ) :  -0.1489 B(  4-C , 13-H ) :   1.1482
B(  5-C ,  6-C ) :   0.1462 B(  5-C ,  7-N ) :  -0.1259 B(  5-C , 12-H ) :  -0.1429
B(  5-C , 13-H ) :  -0.1143 B(  6-C ,  7-N ) :   0.9825 B(  6-C ,  8-O ) :   1.2728
B(  7-N , 14-H ) :   1.0294 B(  7-N , 15-H ) :   1.0223

MP2 TOTAL ENERGY:     -400.193847041 Eh
FINAL SINGLE POINT ENERGY      -400.193847040573

DIPOLE MOMENT
-------------
                                X             Y             Z
Electronic contribution:      2.16067      -1.51988      -0.41760
Nuclear contribution   :     -2.90021       2.79935       0.95305
                        -----------------------------------------
Total Dipole Moment    :     -0.73954       1.27947       0.53545
                        -----------------------------------------
Magnitude (a.u.)       :      1.57183
Magnitude (Debye)      :      3.99528

Rotational constants in cm-1:     0.128088     0.040569     0.031259
Rotational constants in MHz :  3839.973529  1216.221507   937.118121

                             ****ORCA TERMINATED NORMALLY****
TOTAL RUN TIME: 0 days 0 hours 7 minutes 48 seconds 444 msec
