                         Program Version 5.0.3 -  RELEASE  -
|  1> !ri-mp2 aug-cc-pvtz aug-cc-pvtz/c tightscf
|  2> %pal nprocs 16 end
|  3>
|  4> * xyz 0 1
|  5> C     -2.731329   -0.188210    0.027569
|  6> H     -2.896131   -0.208886    1.106914
|  7> H     -3.510969    0.433548   -0.413737
|  8> H     -2.869306   -1.205115   -0.346583
|  9> C     -1.343418    0.351342   -0.308883
| 10> H     -1.217269    0.398690   -1.393390
| 11> H     -1.233985    1.372797    0.054840
| 12> C     -0.221272   -0.497474    0.289364
| 13> H     -0.261557   -1.517699   -0.100776
| 14> H     -0.357479   -0.572869    1.373168
| 15> N      2.159806   -0.790578   -0.170020
| 16> H      3.099748   -0.446011   -0.265813
| 17> H      1.999084   -1.780108   -0.196024
| 18> C      1.158613    0.105753    0.066900
| 19> O      1.369207    1.303904    0.115231
| 20> *
| 21>
| 22>                          ****END OF INPUT****

CARTESIAN COORDINATES (ANGSTROEM)
---------------------------------
  C     -2.731329   -0.188210    0.027569
  H     -2.896131   -0.208886    1.106914
  H     -3.510969    0.433548   -0.413737
  H     -2.869306   -1.205115   -0.346583
  C     -1.343418    0.351342   -0.308883
  H     -1.217269    0.398690   -1.393390
  H     -1.233985    1.372797    0.054840
  C     -0.221272   -0.497474    0.289364
  H     -0.261557   -1.517699   -0.100776
  H     -0.357479   -0.572869    1.373168
  N      2.159806   -0.790578   -0.170020
  H      3.099748   -0.446011   -0.265813
  H      1.999084   -1.780108   -0.196024
  C      1.158613    0.105753    0.066900
  O      1.369207    1.303904    0.115231

 Total Charge           Charge          ....    0
 Multiplicity           Mult            ....    1
 Number of Electrons    NEL             ....   48
 Basis Dimension        Dim             ....  483

ORBITAL ENERGIES
----------------

  NO   OCC          E(Eh)            E(eV)
   0   2.0000     -20.515332      -558.2506
   1   2.0000     -15.584644      -424.0797
   2   2.0000     -11.349513      -308.8359
   3   2.0000     -11.239633      -305.8460
   4   2.0000     -11.223885      -305.4175
   5   2.0000     -11.216617      -305.2197
   6   2.0000      -1.378772       -37.5183
   7   2.0000      -1.210142       -32.9296
   8   2.0000      -1.072886       -29.1947
   9   2.0000      -0.963655       -26.2224
  10   2.0000      -0.836027       -22.7494
  11   2.0000      -0.781756       -21.2727
  12   2.0000      -0.722654       -19.6644
  13   2.0000      -0.670910       -18.2564
  14   2.0000      -0.637973       -17.3601
  15   2.0000      -0.600994       -16.3539
  16   2.0000      -0.586704       -15.9650
  17   2.0000      -0.563514       -15.3340
  18   2.0000      -0.527276       -14.3479
  19   2.0000      -0.503839       -13.7102
  20   2.0000      -0.484271       -13.1777
  21   2.0000      -0.476898       -12.9771
  22   2.0000      -0.419625       -11.4186
  23   2.0000      -0.413894       -11.2626
  24   0.0000       0.022002         0.5987
  25   0.0000       0.033148         0.9020
  26   0.0000       0.039986         1.0881
  27   0.0000       0.041373         1.1258
  28   0.0000       0.053899         1.4667

MULLIKEN ATOMIC CHARGES
-----------------------
   0 C :   -0.955310
   1 H :    0.270220
   2 H :    0.280734
   3 H :    0.263495
   4 C :   -0.389787
   5 H :    0.253764
   6 H :    0.263724
   7 C :   -0.081061
   8 H :    0.222780
   9 H :    0.294520
  10 N :   -0.369992
  11 H :    0.162180
  12 H :    0.111067
  13 C :    0.513118
  14 O :   -0.839452
Sum of atomic charges:    0.0000000

LOEWDIN ATOMIC CHARGES
----------------------
   0 C :    0.579470
   1 H :   -0.171079
   2 H :   -0.171831
   3 H :   -0.171700
   4 C :    0.252209
   5 H :   -0.143843
   6 H :   -0.159288
   7 C :    0.272319
   8 H :   -0.161912
   9 H :   -0.143629
  10 N :    0.853267
  11 H :   -0.293632
  12 H :   -0.308212
  13 C :   -0.668437
  14 O :    0.436299

  Mayer bond orders larger than 0.100000
B(  0-C ,  1-H ) :   0.9530 B(  0-C ,  2-H ) :   0.9718 B(  0-C ,  3-H ) :   0.9590
B(  0-C ,  4-C ) :   0.8764 B(  4-C ,  5-H ) :   0.9308 B(  4-C ,  6-H ) :   0.9715
B(  4-C ,  7-C ) :   0.9205 B(  7-C ,  8-H ) :   0.9545 B(  7-C ,  9-H ) :   0.9113
B(  7-C , 10-N ) :  -0.1025 B(  7-C , 13-C ) :   0.5631 B( 10-N , 11-H ) :   1.0280
B( 10-N , 12-H ) :   1.0888 B( 10-N , 13-C ) :   0.9858 B( 13-C , 14-O ) :   1.3541

MP2 TOTAL ENERGY:     -287.304042566 Eh
FINAL SINGLE POINT ENERGY      -287.304042565607

DIPOLE MOMENT
-------------
                                X             Y             Z
Electronic contribution:      7.37689       2.08948       0.10803
Nuclear contribution   :     -7.46411      -3.63162      -0.18685
                        -----------------------------------------
Total Dipole Moment    :     -0.08722      -1.54215      -0.07882
                        -----------------------------------------
Magnitude (a.u.)       :      1.54662
Magnitude (Debye)      :      3.93120

Rotational constants in cm-1:     0.286145     0.060804     0.052762
Rotational constants in MHz :  8578.396467  1822.843819  1581.776498

                             ****ORCA TERMINATED NORMALLY****
TOTAL RUN TIME: 0 days 0 hours 3 minutes 48 seconds 778 msec
