                         Program Version 5.0.3 -  RELEASE  -
|  1> !ri-mp2 aug-cc-pvtz aug-cc-pvtz/c tightscf
|  2> %pal nprocs 16 end
|  3>
|  4> * xyz 0 1
|  5> C      0.000000    0.000000    2.038408
|  6> C      0.000000    0.000000   -2.171450
|  7> C      0.000000    1.205362   -1.477349
|  8> C      0.000000   -1.205362   -1.477349
|  9> C      0.000000    1.211491   -0.090773
| 10> C      0.000000   -1.211491   -0.090773
| 11> C      0.000000    0.000000    0.608724
| 12> N      0.000000    0.000000    3.190989
| 13> H      0.000000    0.000000   -3.252992
| 14> H      0.000000    2.142437   -2.016824
| 15> H      0.000000   -2.142437   -2.016824
| 16> H      0.000000    2.143254    0.456544
| 17> H      0.000000   -2.143254    0.456544
| 18> *
| 19>
| 20>                          ****END OF INPUT****

CARTESIAN COORDINATES (ANGSTROEM)
---------------------------------
  C      0.000000    0.000000    2.038408
  C      0.000000    0.000000   -2.171450
  C      0.000000    1.205362   -1.477349
  C      0.000000   -1.205362   -1.477349
  C      0.000000    1.211491   -0.090773
  C      0.000000   -1.211491   -0.090773
  C      0.000000    0.000000    0.608724
  N      0.000000    0.000000    3.190989
  H      0.000000    0.000000   -3.252992
  H      0.000000    2.142437   -2.016824
  H      0.000000   -2.142437   -2.016824
  H      0.000000    2.143254    0.456544
  H      0.000000   -2.143254    0.456544

 Total Charge           Charge          ....    0
 Multiplicity           Mult            ....    1
 Number of Electrons    NEL             ....   54
 Basis Dimension        Dim             ....  483

ORBITAL ENERGIES
----------------

  NO   OCC          E(Eh)            E(eV)
   0   2.0000     -15.572535      -423.7502
   1   2.0000     -11.290686      -307.2352
   2   2.0000     -11.276259      -306.8426
   3   2.0000     -11.271565      -306.7149
   4   2.0000     -11.271514      -306.7135
   5   2.0000     -11.266697      -306.5824
   6   2.0000     -11.261250      -306.4342
   7   2.0000     -11.261101      -306.4301
   8   2.0000      -1.227530       -33.4028
   9   2.0000      -1.185039       -32.2465
  10   2.0000      -1.064483       -28.9660
  11   2.0000      -1.049169       -28.5493
  12   2.0000      -0.889309       -24.1993
  13   2.0000      -0.860305       -23.4101
  14   2.0000      -0.767356       -20.8808
  15   2.0000      -0.700718       -19.0675
  16   2.0000      -0.662966       -18.0402
  17   2.0000      -0.638026       -17.3616
  18   2.0000      -0.619569       -16.8593
  19   2.0000      -0.566073       -15.4036
  20   2.0000      -0.556082       -15.1318
  21   2.0000      -0.536347       -14.5947
  22   2.0000      -0.530842       -14.4449
  23   2.0000      -0.484002       -13.1704
  24   2.0000      -0.469180       -12.7670
  25   2.0000      -0.367525       -10.0009
  26   2.0000      -0.359555        -9.7840
  27   0.0000       0.021066         0.5732
  28   0.0000       0.029418         0.8005
  29   0.0000       0.035827         0.9749
  30   0.0000       0.048239         1.3126
  31   0.0000       0.052051         1.4164

MULLIKEN ATOMIC CHARGES
-----------------------
   0 C :    0.769074
   1 C :   -0.146030
   2 C :   -0.533869
   3 C :   -0.533869
   4 C :   -1.106792
   5 C :   -1.106792
   6 C :    1.987324
   7 N :   -0.880959
   8 H :    0.417373
   9 H :    0.508980
  10 H :    0.508980
  11 H :    0.058290
  12 H :    0.058290
Sum of atomic charges:    0.0000000

LOEWDIN ATOMIC CHARGES
----------------------
   0 C :   -0.240827
   1 C :    0.211124
   2 C :    0.211448
   3 C :    0.211448
   4 C :    0.208521
   5 C :    0.208521
   6 C :   -0.198650
   7 N :    0.268600
   8 H :   -0.177414
   9 H :   -0.180589
  10 H :   -0.180589
  11 H :   -0.170797
  12 H :   -0.170797

  Mayer bond orders larger than 0.100000
B(  0-C ,  1-C ) :   0.1961 B(  0-C ,  4-C ) :   0.3651 B(  0-C ,  5-C ) :   0.3651
B(  0-C ,  6-C ) :   0.6962 B(  0-C ,  7-N ) :   1.5266 B(  0-C ,  9-H ) :   0.1146
B(  0-C , 10-H ) :   0.1146 B(  0-C , 11-H ) :  -0.1242 B(  0-C , 12-H ) :  -0.1242
B(  1-C ,  2-C ) :   1.0988 B(  1-C ,  3-C ) :   1.0988 B(  1-C ,  4-C ) :  -0.1371
B(  1-C ,  5-C ) :  -0.1371 B(  1-C ,  8-H ) :   0.8775 B(  2-C ,  4-C ) :   1.2896
B(  2-C ,  5-C ) :   0.1120 B(  2-C ,  6-C ) :   0.1441 B(  2-C ,  8-H ) :  -0.1896
B(  2-C ,  9-H ) :   0.7696 B(  3-C ,  4-C ) :   0.1120 B(  3-C ,  5-C ) :   1.2896
B(  3-C ,  6-C ) :   0.1441 B(  3-C ,  8-H ) :  -0.1896 B(  3-C , 10-H ) :   0.7696
B(  4-C ,  5-C ) :  -0.1277 B(  4-C ,  6-C ) :   0.1358 B(  4-C ,  7-N ) :   0.1260
B(  4-C ,  8-H ) :   0.1518 B(  4-C ,  9-H ) :  -0.1536 B(  4-C , 11-H ) :   1.5999
B(  4-C , 12-H ) :   0.2105 B(  5-C ,  6-C ) :   0.1358 B(  5-C ,  7-N ) :   0.1260
B(  5-C ,  8-H ) :   0.1518 B(  5-C , 10-H ) :  -0.1536 B(  5-C , 11-H ) :   0.2105
B(  5-C , 12-H ) :   1.5999 B(  6-C , 11-H ) :  -0.3138 B(  6-C , 12-H ) :  -0.3138
B( 11-H , 12-H ) :   0.1227

MP2 TOTAL ENERGY:     -323.834912248 Eh
FINAL SINGLE POINT ENERGY      -323.834912248229

DIPOLE MOMENT
-------------
                                X             Y             Z
Electronic contribution:     -0.00000      -0.00000       4.28263
Nuclear contribution   :      0.00000       0.00000      -6.24957
                        -----------------------------------------
Total Dipole Moment    :     -0.00000      -0.00000      -1.96694
                        -----------------------------------------
Magnitude (a.u.)       :      1.96694
Magnitude (Debye)      :      4.99956

Rotational constants in cm-1:     0.190110     0.051847     0.040737
Rotational constants in MHz :  5699.365942  1554.322711  1221.261946

                             ****ORCA TERMINATED NORMALLY****
TOTAL RUN TIME: 0 days 0 hours 4 minutes 31 seconds 211 msec
