                         Program Version 5.0.3 -  RELEASE  -
|  1> !ri-mp2 aug-cc-pvtz aug-cc-pvtz/c tightscf
|  2> %pal nprocs 16 end
|  3>
|  4> * xyz 0 1
|  5> C      2.202488    0.116111   -0.000012
|  6> C      3.288179   -0.927156    0.000005
|  7> C     -3.962455   -0.357641   -0.000017
|  8> C     -2.678902    0.470725    0.000022
|  9> C     -1.415543   -0.392205   -0.000009
| 10> C     -0.151969    0.444179    0.000021
| 11> O      2.380920    1.308789   -0.000020
| 12> O      0.980632   -0.454908    0.000000
| 13> H      3.191841   -1.565826   -0.877925
| 14> H      3.192067   -1.565518    0.878188
| 15> H      4.258416   -0.440768   -0.000192
| 16> H     -4.016737   -1.000104   -0.880951
| 17> H     -4.016742   -1.000179    0.880862
| 18> H     -4.846288    0.281106    0.000008
| 19> H     -2.669921    1.127959   -0.874214
| 20> H     -2.669927    1.127886    0.874314
| 21> H     -1.412843   -1.045046    0.876714
| 22> H     -1.412842   -1.044982   -0.876781
| 23> H     -0.090109    1.085203   -0.880362
| 24> H     -0.090117    1.085149    0.880444
| 25> *
| 26>
| 27>                          ****END OF INPUT****

CARTESIAN COORDINATES (ANGSTROEM)
---------------------------------
  C      2.202488    0.116111   -0.000012
  C      3.288179   -0.927156    0.000005
  C     -3.962455   -0.357641   -0.000017
  C     -2.678902    0.470725    0.000022
  C     -1.415543   -0.392205   -0.000009
  C     -0.151969    0.444179    0.000021
  O      2.380920    1.308789   -0.000020
  O      0.980632   -0.454908    0.000000
  H      3.191841   -1.565826   -0.877925
  H      3.192067   -1.565518    0.878188
  H      4.258416   -0.440768   -0.000192
  H     -4.016737   -1.000104   -0.880951
  H     -4.016742   -1.000179    0.880862
  H     -4.846288    0.281106    0.000008
  H     -2.669921    1.127959   -0.874214
  H     -2.669927    1.127886    0.874314
  H     -1.412843   -1.045046    0.876714
  H     -1.412842   -1.044982   -0.876781
  H     -0.090109    1.085203   -0.880362
  H     -0.090117    1.085149    0.880444

 Total Charge           Charge          ....    0
 Multiplicity           Mult            ....    1
 Number of Electrons    NEL             ....   64
 Basis Dimension        Dim             ....  644

ORBITAL ENERGIES
----------------

  NO   OCC          E(Eh)            E(eV)
   0   2.0000     -20.597706      -560.4921
   1   2.0000     -20.540696      -558.9408
   2   2.0000     -11.376938      -309.5822
   3   2.0000     -11.284575      -307.0689
   4   2.0000     -11.238262      -305.8087
   5   2.0000     -11.227441      -305.5142
   6   2.0000     -11.226112      -305.4780
   7   2.0000     -11.217365      -305.2400
   8   2.0000      -1.454469       -39.5781
   9   2.0000      -1.354969       -36.8706
  10   2.0000      -1.086261       -29.5587
  11   2.0000      -1.028053       -27.9747
  12   2.0000      -0.979832       -26.6626
  13   2.0000      -0.876826       -23.8596
  14   2.0000      -0.805760       -21.9258
  15   2.0000      -0.774298       -21.0697
  16   2.0000      -0.687116       -18.6974
  17   2.0000      -0.686756       -18.6876
  18   2.0000      -0.666027       -18.1235
  19   2.0000      -0.635700       -17.2983
  20   2.0000      -0.593870       -16.1600
  21   2.0000      -0.592430       -16.1208
  22   2.0000      -0.570062       -15.5122
  23   2.0000      -0.561495       -15.2791
  24   2.0000      -0.543469       -14.7885
  25   2.0000      -0.521186       -14.1822
  26   2.0000      -0.504935       -13.7400
  27   2.0000      -0.485071       -13.1994
  28   2.0000      -0.483010       -13.1434
  29   2.0000      -0.475688       -12.9441
  30   2.0000      -0.456708       -12.4277
  31   2.0000      -0.443656       -12.0725
  32   0.0000       0.028161         0.7663
  33   0.0000       0.030760         0.8370
  34   0.0000       0.037386         1.0173
  35   0.0000       0.038800         1.0558
  36   0.0000       0.046825         1.2742

MULLIKEN ATOMIC CHARGES
-----------------------
   0 C :    0.272024
   1 C :   -0.636252
   2 C :   -0.984894
   3 C :   -0.404675
   4 C :   -0.323126
   5 C :   -0.274831
   6 O :   -0.715483
   7 O :   -0.257002
   8 H :    0.265292
   9 H :    0.265288
  10 H :    0.365753
  11 H :    0.265539
  12 H :    0.265540
  13 H :    0.289091
  14 H :    0.253354
  15 H :    0.253349
  16 H :    0.247572
  17 H :    0.247570
  18 H :    0.302948
  19 H :    0.302941
Sum of atomic charges:    0.0000000

LOEWDIN ATOMIC CHARGES
----------------------
   0 C :   -0.829809
   1 C :    0.582621
   2 C :    0.580771
   3 C :    0.254788
   4 C :    0.268100
   5 C :    0.050497
   6 O :    0.450156
   7 O :    0.581748
   8 H :   -0.176667
   9 H :   -0.176660
  10 H :   -0.186555
  11 H :   -0.170431
  12 H :   -0.170431
  13 H :   -0.172641
  14 H :   -0.146978
  15 H :   -0.146978
  16 H :   -0.143953
  17 H :   -0.143952
  18 H :   -0.151816
  19 H :   -0.151813

  Mayer bond orders larger than 0.100000
B(  0-C ,  1-C ) :   0.7136 B(  0-C ,  6-O ) :   1.5742 B(  0-C ,  7-O ) :   1.0026
B(  1-C ,  8-H ) :   0.9704 B(  1-C ,  9-H ) :   0.9704 B(  1-C , 10-H ) :   0.8846
B(  2-C ,  3-C ) :   0.8961 B(  2-C , 11-H ) :   0.9613 B(  2-C , 12-H ) :   0.9613
B(  2-C , 13-H ) :   0.9655 B(  3-C ,  4-C ) :   0.8732 B(  3-C , 14-H ) :   0.9429
B(  3-C , 15-H ) :   0.9429 B(  4-C ,  5-C ) :   0.9803 B(  4-C ,  7-O ) :  -0.1581
B(  4-C , 16-H ) :   0.9511 B(  4-C , 17-H ) :   0.9511 B(  5-C ,  7-O ) :   0.8174
B(  5-C , 18-H ) :   0.9366 B(  5-C , 19-H ) :   0.9366

MP2 TOTAL ENERGY:     -385.608650293 Eh
FINAL SINGLE POINT ENERGY      -385.608650292915

DIPOLE MOMENT
-------------
                                X             Y             Z
Electronic contribution:     10.43375       2.27113      -0.00008
Nuclear contribution   :    -10.89615      -3.04389       0.00011
                        -----------------------------------------
Total Dipole Moment    :     -0.46240      -0.77276       0.00003
                        -----------------------------------------
Magnitude (a.u.)       :      0.90054
Magnitude (Debye)      :      2.28899

Rotational constants in cm-1:     0.235481     0.023620     0.021900
Rotational constants in MHz :  7059.546847   708.112316   656.555372

                             ****ORCA TERMINATED NORMALLY****
TOTAL RUN TIME: 0 days 0 hours 7 minutes 57 seconds 826 msec
