                         Program Version 5.0.3 -  RELEASE  -
|  1> !ri-mp2 aug-cc-pvtz aug-cc-pvtz/c tightscf
|  2> %pal nprocs 16 end
|  3>
|  4> * xyz 0 1
|  5> C     -0.266056    1.055248    0.669094
|  6> C     -0.266056    1.055248   -0.669094
|  7> C     -0.266056   -0.460196    0.760307
|  8> C     -0.266056   -0.460196   -0.760307
|  9> C      0.922329   -1.012414    0.000000
| 10> H     -0.135836    1.824369    1.417771
| 11> H     -0.135836    1.824369   -1.417771
| 12> H     -0.878809   -1.079524    1.397279
| 13> H     -0.878809   -1.079524   -1.397279
| 14> H      1.855860   -0.463241    0.000000
| 15> H      1.024808   -2.092588    0.000000
| 16> *
| 17>
| 18>                          ****END OF INPUT****

CARTESIAN COORDINATES (ANGSTROEM)
---------------------------------
  C     -0.266056    1.055248    0.669094
  C     -0.266056    1.055248   -0.669094
  C     -0.266056   -0.460196    0.760307
  C     -0.266056   -0.460196   -0.760307
  C      0.922329   -1.012414    0.000000
  H     -0.135836    1.824369    1.417771
  H     -0.135836    1.824369   -1.417771
  H     -0.878809   -1.079524    1.397279
  H     -0.878809   -1.079524   -1.397279
  H      1.855860   -0.463241    0.000000
  H      1.024808   -2.092588    0.000000

 Total Charge           Charge          ....    0
 Multiplicity           Mult            ....    1
 Number of Electrons    NEL             ....   36
 Basis Dimension        Dim             ....  368

ORBITAL ENERGIES
----------------

  NO   OCC          E(Eh)            E(eV)
   0   2.0000     -11.237847      -305.7974
   1   2.0000     -11.234616      -305.7095
   2   2.0000     -11.233998      -305.6926
   3   2.0000     -11.233388      -305.6760
   4   2.0000     -11.231753      -305.6315
   5   2.0000      -1.204283       -32.7702
   6   2.0000      -0.993170       -27.0255
   7   2.0000      -0.853183       -23.2163
   8   2.0000      -0.808018       -21.9873
   9   2.0000      -0.702080       -19.1046
  10   2.0000      -0.695988       -18.9388
  11   2.0000      -0.613274       -16.6880
  12   2.0000      -0.599944       -16.3253
  13   2.0000      -0.509666       -13.8687
  14   2.0000      -0.478402       -13.0180
  15   2.0000      -0.429826       -11.6962
  16   2.0000      -0.429790       -11.6952
  17   2.0000      -0.321372        -8.7450
  18   0.0000       0.030687         0.8350
  19   0.0000       0.036718         0.9991
  20   0.0000       0.036971         1.0060
  21   0.0000       0.041899         1.1401
  22   0.0000       0.052541         1.4297

MULLIKEN ATOMIC CHARGES
-----------------------
   0 C :   -0.667612
   1 C :   -0.667612
   2 C :   -0.272847
   3 C :   -0.272847
   4 C :   -0.968833
   5 H :    0.501031
   6 H :    0.501031
   7 H :    0.543733
   8 H :    0.543733
   9 H :    0.437497
  10 H :    0.322726
Sum of atomic charges:    0.0000000

LOEWDIN ATOMIC CHARGES
----------------------
   0 C :    0.263394
   1 C :    0.263394
   2 C :    0.041703
   3 C :    0.041703
   4 C :    0.378356
   5 H :   -0.183992
   6 H :   -0.183992
   7 H :   -0.150677
   8 H :   -0.150677
   9 H :   -0.162276
  10 H :   -0.156937

  Mayer bond orders larger than 0.100000
B(  0-C ,  1-C ) :   1.5029 B(  0-C ,  2-C ) :   0.9456 B(  0-C ,  3-C ) :  -0.1386
B(  0-C ,  5-H ) :   0.7966 B(  1-C ,  2-C ) :  -0.1386 B(  1-C ,  3-C ) :   0.9456
B(  1-C ,  6-H ) :   0.7966 B(  2-C ,  3-C ) :   0.7969 B(  2-C ,  4-C ) :   0.9860
B(  2-C ,  7-H ) :   0.5591 B(  3-C ,  4-C ) :   0.9860 B(  3-C ,  8-H ) :   0.5591
B(  4-C ,  9-H ) :   0.7634 B(  4-C , 10-H ) :   0.8579

MP2 TOTAL ENERGY:     -193.603418039 Eh
FINAL SINGLE POINT ENERGY      -193.603418038863

DIPOLE MOMENT
-------------
                                X             Y             Z
Electronic contribution:     -0.79556       0.94322       0.00000
Nuclear contribution   :      0.87079      -1.09045       0.00000
                        -----------------------------------------
Total Dipole Moment    :      0.07523      -0.14723       0.00000
                        -----------------------------------------
Magnitude (a.u.)       :      0.16534
Magnitude (Debye)      :      0.42026

Rotational constants in cm-1:     0.365449     0.217370     0.174361
Rotational constants in MHz : 10955.896496  6516.578012  5227.217693

                             ****ORCA TERMINATED NORMALLY****
TOTAL RUN TIME: 0 days 0 hours 1 minutes 48 seconds 60 msec
