                         Program Version 5.0.3 -  RELEASE  -
|  1> !ri-mp2 aug-cc-pvtz aug-cc-pvtz/c tightscf
|  2> %pal nprocs 16 end
|  3>
|  4> * xyz 0 1
|  5> C      0.000000    1.455634   -0.133697
|  6> C      0.000000    0.700529    1.053581
|  7> C      0.000000   -0.700529    1.053581
|  8> C      0.000000   -1.455634   -0.133697
|  9> C      0.000000   -0.620534   -1.230930
| 10> C      0.000000    0.620534   -1.230930
| 11> H      0.000000    2.535415   -0.135167
| 12> H      0.000000    1.224463    2.001444
| 13> H      0.000000   -1.224463    2.001444
| 14> H      0.000000   -2.535415   -0.135167
| 15> *
| 16>
| 17>                          ****END OF INPUT****

CARTESIAN COORDINATES (ANGSTROEM)
---------------------------------
  C      0.000000    1.455634   -0.133697
  C      0.000000    0.700529    1.053581
  C      0.000000   -0.700529    1.053581
  C      0.000000   -1.455634   -0.133697
  C      0.000000   -0.620534   -1.230930
  C      0.000000    0.620534   -1.230930
  H      0.000000    2.535415   -0.135167
  H      0.000000    1.224463    2.001444
  H      0.000000   -1.224463    2.001444
  H      0.000000   -2.535415   -0.135167

 Total Charge           Charge          ....    0
 Multiplicity           Mult            ....    1
 Number of Electrons    NEL             ....   40
 Basis Dimension        Dim             ....  368

ORBITAL ENERGIES
----------------

  NO   OCC          E(Eh)            E(eV)
   0   2.0000     -11.275080      -306.8105
   1   2.0000     -11.275066      -306.8101
   2   2.0000     -11.254065      -306.2387
   3   2.0000     -11.252882      -306.2065
   4   2.0000     -11.250473      -306.1409
   5   2.0000     -11.247350      -306.0559
   6   2.0000      -1.178746       -32.0753
   7   2.0000      -1.032775       -28.1032
   8   2.0000      -1.018882       -27.7252
   9   2.0000      -0.851196       -23.1622
  10   2.0000      -0.796858       -21.6836
  11   2.0000      -0.695507       -18.9257
  12   2.0000      -0.647740       -17.6259
  13   2.0000      -0.637170       -17.3383
  14   2.0000      -0.555018       -15.1028
  15   2.0000      -0.550592       -14.9824
  16   2.0000      -0.531524       -14.4635
  17   2.0000      -0.376635       -10.2488
  18   2.0000      -0.357813        -9.7366
  19   2.0000      -0.355439        -9.6720
  20   0.0000       0.027849         0.7578
  21   0.0000       0.032265         0.8780
  22   0.0000       0.039086         1.0636
  23   0.0000       0.044791         1.2188
  24   0.0000       0.061453         1.6722

MULLIKEN ATOMIC CHARGES
-----------------------
   0 C :   -0.440546
   1 C :   -0.250128
   2 C :   -0.250128
   3 C :   -0.440547
   4 C :   -0.207670
   5 C :   -0.207670
   6 H :    0.493873
   7 H :    0.404472
   8 H :    0.404472
   9 H :    0.493873
Sum of atomic charges:    0.0000000

LOEWDIN ATOMIC CHARGES
----------------------
   0 C :    0.143127
   1 C :    0.173569
   2 C :    0.173569
   3 C :    0.143127
   4 C :    0.074006
   5 C :    0.074006
   6 H :   -0.201125
   7 H :   -0.189576
   8 H :   -0.189576
   9 H :   -0.201125

  Mayer bond orders larger than 0.100000
B(  0-C ,  1-C ) :   1.2249 B(  0-C ,  5-C ) :   1.1928 B(  0-C ,  6-H ) :   0.7227
B(  1-C ,  2-C ) :   1.0324 B(  1-C ,  4-C ) :   0.1238 B(  1-C ,  7-H ) :   0.9117
B(  2-C ,  3-C ) :   1.2249 B(  2-C ,  5-C ) :   0.1238 B(  2-C ,  8-H ) :   0.9117
B(  3-C ,  4-C ) :   1.1928 B(  3-C ,  9-H ) :   0.7227 B(  4-C ,  5-C ) :   2.5671

MP2 TOTAL ENERGY:     -230.426579355 Eh
FINAL SINGLE POINT ENERGY      -230.426579354682

DIPOLE MOMENT
-------------
                                X             Y             Z
Electronic contribution:     -0.00000       0.00000      -2.96504
Nuclear contribution   :      0.00000       0.00000       3.68473
                        -----------------------------------------
Total Dipole Moment    :     -0.00000       0.00000       0.71969
                        -----------------------------------------
Magnitude (a.u.)       :      0.71969
Magnitude (Debye)      :      1.82931

Rotational constants in cm-1:     0.236022     0.191738     0.105794
Rotational constants in MHz :  7075.753978  5748.163081  3171.619685

                             ****ORCA TERMINATED NORMALLY****
TOTAL RUN TIME: 0 days 0 hours 1 minutes 42 seconds 979 msec
