                         Program Version 5.0.3 -  RELEASE  -
|  1> !ri-mp2 aug-cc-pvtz aug-cc-pvtz/c tightscf
|  2> %pal nprocs 16 end
|  3>
|  4> * xyz 0 1
|  5> C     -0.244446   -0.536702    0.764733
|  6> C     -0.244446   -0.536702   -0.764733
|  7> C     -0.244446    0.993902    0.781471
|  8> C     -0.244446    0.993902   -0.781471
|  9> C      0.939024   -1.048468    0.000000
| 10> H     -0.797183   -1.171910    1.441963
| 11> H     -0.797183   -1.171910   -1.441963
| 12> H      0.607058    1.464190    1.277074
| 13> H      0.607058    1.464190   -1.277074
| 14> H     -1.160667    1.417563    1.188390
| 15> H     -1.160667    1.417563   -1.188390
| 16> H      1.871038   -0.492128    0.000000
| 17> H      1.063120   -2.123147    0.000000
| 18> *
| 19>
| 20>                          ****END OF INPUT****

CARTESIAN COORDINATES (ANGSTROEM)
---------------------------------
  C     -0.244446   -0.536702    0.764733
  C     -0.244446   -0.536702   -0.764733
  C     -0.244446    0.993902    0.781471
  C     -0.244446    0.993902   -0.781471
  C      0.939024   -1.048468    0.000000
  H     -0.797183   -1.171910    1.441963
  H     -0.797183   -1.171910   -1.441963
  H      0.607058    1.464190    1.277074
  H      0.607058    1.464190   -1.277074
  H     -1.160667    1.417563    1.188390
  H     -1.160667    1.417563   -1.188390
  H      1.871038   -0.492128    0.000000
  H      1.063120   -2.123147    0.000000

 Total Charge           Charge          ....    0
 Multiplicity           Mult            ....    1
 Number of Electrons    NEL             ....   38
 Basis Dimension        Dim             ....  414

ORBITAL ENERGIES
----------------

  NO   OCC          E(Eh)            E(eV)
   0   2.0000     -11.226749      -305.4954
   1   2.0000     -11.226095      -305.4776
   2   2.0000     -11.221144      -305.3429
   3   2.0000     -11.221017      -305.3394
   4   2.0000     -11.220505      -305.3255
   5   2.0000      -1.183716       -32.2105
   6   2.0000      -0.979829       -26.6625
   7   2.0000      -0.887432       -24.1483
   8   2.0000      -0.796816       -21.6825
   9   2.0000      -0.726601       -19.7718
  10   2.0000      -0.685793       -18.6614
  11   2.0000      -0.609865       -16.5953
  12   2.0000      -0.595799       -16.2125
  13   2.0000      -0.531879       -14.4732
  14   2.0000      -0.520891       -14.1742
  15   2.0000      -0.464256       -12.6330
  16   2.0000      -0.459470       -12.5028
  17   2.0000      -0.403676       -10.9846
  18   2.0000      -0.371864       -10.1189
  19   0.0000       0.030422         0.8278
  20   0.0000       0.037780         1.0280
  21   0.0000       0.038119         1.0373
  22   0.0000       0.039580         1.0770
  23   0.0000       0.054896         1.4938

MULLIKEN ATOMIC CHARGES
-----------------------
   0 C :   -0.443979
   1 C :   -0.443979
   2 C :   -0.558797
   3 C :   -0.558797
   4 C :   -0.945900
   5 H :    0.542572
   6 H :    0.542572
   7 H :    0.296709
   8 H :    0.296709
   9 H :    0.293046
  10 H :    0.293046
  11 H :    0.299098
  12 H :    0.387700
Sum of atomic charges:   -0.0000000

LOEWDIN ATOMIC CHARGES
----------------------
   0 C :    0.091900
   1 C :    0.091900
   2 C :    0.330489
   3 C :    0.330489
   4 C :    0.358174
   5 H :   -0.140616
   6 H :   -0.140616
   7 H :   -0.150822
   8 H :   -0.150822
   9 H :   -0.155908
  10 H :   -0.155908
  11 H :   -0.150906
  12 H :   -0.157353

  Mayer bond orders larger than 0.100000
B(  0-C ,  1-C ) :   0.6074 B(  0-C ,  2-C ) :   0.9070 B(  0-C ,  4-C ) :   0.9717
B(  0-C ,  5-H ) :   0.5329 B(  1-C ,  3-C ) :   0.9070 B(  1-C ,  4-C ) :   0.9717
B(  1-C ,  6-H ) :   0.5329 B(  2-C ,  3-C ) :   1.1013 B(  2-C ,  7-H ) :   0.8837
B(  2-C ,  9-H ) :   0.9151 B(  3-C ,  8-H ) :   0.8837 B(  3-C , 10-H ) :   0.9151
B(  4-C , 11-H ) :   0.9031 B(  4-C , 12-H ) :   0.8035

MP2 TOTAL ENERGY:     -194.846694265 Eh
FINAL SINGLE POINT ENERGY      -194.846694264852

DIPOLE MOMENT
-------------
                                X             Y             Z
Electronic contribution:     -0.33705      -0.86848       0.00000
Nuclear contribution   :      0.24366       0.84276       0.00000
                        -----------------------------------------
Total Dipole Moment    :     -0.09339      -0.02572       0.00000
                        -----------------------------------------
Magnitude (a.u.)       :      0.09687
Magnitude (Debye)      :      0.24622

Rotational constants in cm-1:     0.306317     0.203983     0.159486
Rotational constants in MHz :  9183.148758  6115.264763  4781.267908

                             ****ORCA TERMINATED NORMALLY****
TOTAL RUN TIME: 0 days 0 hours 2 minutes 28 seconds 145 msec
