                         Program Version 5.0.3 -  RELEASE  -
|  1> !ri-mp2 aug-cc-pvtz aug-cc-pvtz/c tightscf
|  2> %pal nprocs 16 end
|  3>
|  4> * xyz 0 1
|  5> O     -1.034291   -0.277068    0.000000
|  6> C      0.000000    0.628638    0.000000
|  7> O     -0.070941    1.813015    0.000000
|  8> C      1.084794   -0.444247    0.000000
|  9> H      1.709429   -0.440463    0.889880
| 10> H      1.709429   -0.440463   -0.889880
| 11> C     -0.101764   -1.414106    0.000000
| 12> H     -0.237589   -2.014177   -0.895897
| 13> H     -0.237589   -2.014177    0.895897
| 14> *
| 15>
| 16>                          ****END OF INPUT****

CARTESIAN COORDINATES (ANGSTROEM)
---------------------------------
  O     -1.034291   -0.277068    0.000000
  C      0.000000    0.628638    0.000000
  O     -0.070941    1.813015    0.000000
  C      1.084794   -0.444247    0.000000
  H      1.709429   -0.440463    0.889880
  H      1.709429   -0.440463   -0.889880
  C     -0.101764   -1.414106    0.000000
  H     -0.237589   -2.014177   -0.895897
  H     -0.237589   -2.014177    0.895897

 Total Charge           Charge          ....    0
 Multiplicity           Mult            ....    1
 Number of Electrons    NEL             ....   38
 Basis Dimension        Dim             ....  322

ORBITAL ENERGIES
----------------

  NO   OCC          E(Eh)            E(eV)
   0   2.0000     -20.607490      -560.7583
   1   2.0000     -20.558544      -559.4264
   2   2.0000     -11.389603      -309.9269
   3   2.0000     -11.316607      -307.9405
   4   2.0000     -11.269839      -306.6679
   5   2.0000      -1.467682       -39.9377
   6   2.0000      -1.384509       -37.6744
   7   2.0000      -1.058831       -28.8123
   8   2.0000      -0.923630       -25.1333
   9   2.0000      -0.760853       -20.7039
  10   2.0000      -0.713687       -19.4204
  11   2.0000      -0.701899       -19.0996
  12   2.0000      -0.681773       -18.5520
  13   2.0000      -0.577353       -15.7106
  14   2.0000      -0.573260       -15.5992
  15   2.0000      -0.567804       -15.4507
  16   2.0000      -0.525069       -14.2879
  17   2.0000      -0.465959       -12.6794
  18   2.0000      -0.449031       -12.2188
  19   0.0000       0.022476         0.6116
  20   0.0000       0.035083         0.9546
  21   0.0000       0.036351         0.9892
  22   0.0000       0.056131         1.5274
  23   0.0000       0.058777         1.5994

MULLIKEN ATOMIC CHARGES
-----------------------
   0 O :   -0.446110
   1 C :    0.519119
   2 O :   -0.611186
   3 C :   -0.456788
   4 H :    0.313584
   5 H :    0.313584
   6 C :   -0.312738
   7 H :    0.340268
   8 H :    0.340268
Sum of atomic charges:    0.0000000

LOEWDIN ATOMIC CHARGES
----------------------
   0 O :    0.551306
   1 C :   -0.784574
   2 O :    0.418013
   3 C :    0.338810
   4 H :   -0.155787
   5 H :   -0.155787
   6 C :    0.105830
   7 H :   -0.158906
   8 H :   -0.158906

  Mayer bond orders larger than 0.100000
B(  0-O ,  1-C ) :   1.0162 B(  0-O ,  6-C ) :   0.6837 B(  1-C ,  2-O ) :   1.6343
B(  1-C ,  3-C ) :   0.8282 B(  3-C ,  4-H ) :   0.8904 B(  3-C ,  5-H ) :   0.8904
B(  3-C ,  6-C ) :   1.0368 B(  6-C ,  7-H ) :   0.8897 B(  6-C ,  8-H ) :   0.8897

MP2 TOTAL ENERGY:     -266.707904434 Eh
FINAL SINGLE POINT ENERGY      -266.707904433884

DIPOLE MOMENT
-------------
                                X             Y             Z
Electronic contribution:     -1.95531       3.18586       0.00000
Nuclear contribution   :      2.89798      -4.83787       0.00000
                        -----------------------------------------
Total Dipole Moment    :      0.94268      -1.65201       0.00000
                        -----------------------------------------
Magnitude (a.u.)       :      1.90205
Magnitude (Debye)      :      4.83462

Rotational constants in cm-1:     0.416316     0.174738     0.129141
Rotational constants in MHz : 12480.851450  5238.513616  3871.538350

                             ****ORCA TERMINATED NORMALLY****
TOTAL RUN TIME: 0 days 0 hours 1 minutes 29 seconds 969 msec
