                         Program Version 5.0.3 -  RELEASE  -
|  1> !ri-mp2 aug-cc-pvtz aug-cc-pvtz/c tightscf
|  2> %pal nprocs 16 end
|  3>
|  4> * xyz 0 1
|  5> C      2.295875   -0.194875    0.152817
|  6> C      1.760211    1.086177    0.147384
|  7> C      1.459304   -1.293258   -0.029852
|  8> C      0.392585    1.267430   -0.038587
|  9> C      0.097012   -1.108725   -0.219163
| 10> C     -0.452614    0.175941   -0.226405
| 11> C     -1.935484    0.370754   -0.429766
| 12> O     -2.736278   -0.345146    0.513236
| 13> H      3.357833   -0.339687    0.298826
| 14> H      2.403036    1.944269    0.291616
| 15> H      1.872130   -2.293318   -0.028077
| 16> H     -0.021144    2.268461   -0.038507
| 17> H     -0.552474   -1.963339   -0.357038
| 18> H     -2.174626    1.438864   -0.408291
| 19> H     -2.241931   -0.013856   -1.403463
| 20> H     -2.453932   -0.100885    1.400478
| 21> *
| 22>
| 23>                          ****END OF INPUT****

CARTESIAN COORDINATES (ANGSTROEM)
---------------------------------
  C      2.295875   -0.194875    0.152817
  C      1.760211    1.086177    0.147384
  C      1.459304   -1.293258   -0.029852
  C      0.392585    1.267430   -0.038587
  C      0.097012   -1.108725   -0.219163
  C     -0.452614    0.175941   -0.226405
  C     -1.935484    0.370754   -0.429766
  O     -2.736278   -0.345146    0.513236
  H      3.357833   -0.339687    0.298826
  H      2.403036    1.944269    0.291616
  H      1.872130   -2.293318   -0.028077
  H     -0.021144    2.268461   -0.038507
  H     -0.552474   -1.963339   -0.357038
  H     -2.174626    1.438864   -0.408291
  H     -2.241931   -0.013856   -1.403463
  H     -2.453932   -0.100885    1.400478

 Total Charge           Charge          ....    0
 Multiplicity           Mult            ....    1
 Number of Electrons    NEL             ....   58
 Basis Dimension        Dim             ....  552

ORBITAL ENERGIES
----------------

  NO   OCC          E(Eh)            E(eV)
   0   2.0000     -20.560264      -559.4732
   1   2.0000     -11.283734      -307.0460
   2   2.0000     -11.242281      -305.9180
   3   2.0000     -11.239084      -305.8310
   4   2.0000     -11.238321      -305.8103
   5   2.0000     -11.237764      -305.7951
   6   2.0000     -11.236744      -305.7674
   7   2.0000     -11.235185      -305.7249
   8   2.0000      -1.359941       -37.0059
   9   2.0000      -1.159307       -31.5463
  10   2.0000      -1.042188       -28.3594
  11   2.0000      -1.019714       -27.7478
  12   2.0000      -0.923158       -25.1204
  13   2.0000      -0.833056       -22.6686
  14   2.0000      -0.807873       -21.9833
  15   2.0000      -0.712865       -19.3980
  16   2.0000      -0.682236       -18.5646
  17   2.0000      -0.649438       -17.6721
  18   2.0000      -0.622454       -16.9378
  19   2.0000      -0.607417       -16.5287
  20   2.0000      -0.595926       -16.2160
  21   2.0000      -0.588354       -16.0099
  22   2.0000      -0.535294       -14.5661
  23   2.0000      -0.506263       -13.7761
  24   2.0000      -0.499103       -13.5813
  25   2.0000      -0.482981       -13.1426
  26   2.0000      -0.453045       -12.3280
  27   2.0000      -0.342010        -9.3066
  28   2.0000      -0.336161        -9.1474
  29   0.0000       0.027642         0.7522
  30   0.0000       0.032794         0.8924
  31   0.0000       0.035782         0.9737
  32   0.0000       0.044240         1.2038
  33   0.0000       0.047057         1.2805

MULLIKEN ATOMIC CHARGES
-----------------------
   0 C :   -0.271710
   1 C :   -0.458136
   2 C :   -0.574901
   3 C :   -1.034556
   4 C :   -0.960016
   5 C :    1.430236
   6 C :   -0.115236
   7 O :   -0.617004
   8 H :    0.419548
   9 H :    0.525351
  10 H :    0.402049
  11 H :    0.079212
  12 H :    0.393615
  13 H :    0.246596
  14 H :    0.354282
  15 H :    0.180668
Sum of atomic charges:    0.0000000

LOEWDIN ATOMIC CHARGES
----------------------
   0 C :    0.193825
   1 C :    0.197457
   2 C :    0.199193
   3 C :    0.208163
   4 C :    0.213535
   5 C :   -0.118031
   6 C :    0.037515
   7 O :    0.805400
   8 H :   -0.186278
   9 H :   -0.185437
  10 H :   -0.184795
  11 H :   -0.182921
  12 H :   -0.173218
  13 H :   -0.168968
  14 H :   -0.161915
  15 H :   -0.493525

  Mayer bond orders larger than 0.100000
B(  0-C ,  1-C ) :   1.0784 B(  0-C ,  2-C ) :   1.0410 B(  0-C ,  8-H ) :   0.8643
B(  1-C ,  3-C ) :   1.1475 B(  1-C ,  5-C ) :   0.1137 B(  1-C ,  8-H ) :  -0.1436
B(  1-C ,  9-H ) :   0.7317 B(  2-C ,  4-C ) :   1.2014 B(  2-C ,  5-C ) :   0.1242
B(  2-C ,  8-H ) :  -0.1399 B(  2-C , 10-H ) :   0.9375 B(  3-C ,  4-C ) :   0.1627
B(  3-C ,  5-C ) :   0.3483 B(  3-C ,  8-H ) :   0.1644 B(  3-C ,  9-H ) :  -0.1582
B(  3-C , 11-H ) :   1.5349 B(  3-C , 12-H ) :   0.1780 B(  4-C ,  5-C ) :   0.5502
B(  4-C , 12-H ) :   0.9340 B(  5-C ,  6-C ) :   0.5747 B(  5-C , 11-H ) :  -0.1728
B(  5-C , 12-H ) :  -0.1253 B(  6-C ,  7-O ) :   0.8454 B(  6-C , 13-H ) :   1.0240
B(  6-C , 14-H ) :   0.9253 B(  7-O , 15-H ) :   1.0126

MP2 TOTAL ENERGY:     -346.096011864 Eh
FINAL SINGLE POINT ENERGY      -346.096011863857

DIPOLE MOMENT
-------------
                                X             Y             Z
Electronic contribution:      0.38615      -0.56369       0.35853
Nuclear contribution   :      0.14682       0.94188      -0.23809
                        -----------------------------------------
Total Dipole Moment    :      0.53297       0.37819       0.12045
                        -----------------------------------------
Magnitude (a.u.)       :      0.66452
Magnitude (Debye)      :      1.68908

Rotational constants in cm-1:     0.159517     0.048877     0.039632
Rotational constants in MHz :  4782.193647  1465.305170  1188.140529

                             ****ORCA TERMINATED NORMALLY****
TOTAL RUN TIME: 0 days 0 hours 5 minutes 58 seconds 906 msec
