                         Program Version 5.0.3 -  RELEASE  -
|  1> !ri-mp2 aug-cc-pvtz aug-cc-pvtz/c tightscf
|  2> %pal nprocs 16 end
|  3> %maxcore 3800
|  4>
|  5> * xyz 0 1
|  6> C      3.111158    0.691977    0.000194
|  7> C      1.909382    1.439432    0.000379
|  8> C      0.753239    0.709064   -0.000071
|  9> C     -0.753239    0.709064    0.000071
| 10> C     -0.753239   -0.709064   -0.000071
| 11> C      0.753239   -0.709064    0.000071
| 12> C      1.909382   -1.439432   -0.000379
| 13> C      3.111158   -0.691977   -0.000194
| 14> C     -1.909382   -1.439432    0.000379
| 15> C     -3.111158   -0.691977    0.000194
| 16> C     -3.111158    0.691977   -0.000194
| 17> C     -1.909382    1.439432   -0.000379
| 18> H      4.056913    1.217403    0.000417
| 19> H      1.930044    2.520654    0.000453
| 20> H      1.930044   -2.520654   -0.000453
| 21> H      4.056913   -1.217403   -0.000417
| 22> H     -1.930044   -2.520654    0.000453
| 23> H     -4.056913   -1.217403    0.000417
| 24> H     -4.056913    1.217403   -0.000417
| 25> H     -1.930044    2.520654   -0.000453
| 26> *
| 27>
| 28>                          ****END OF INPUT****

CARTESIAN COORDINATES (ANGSTROEM)
---------------------------------
  C      3.111158    0.691977    0.000194
  C      1.909382    1.439432    0.000379
  C      0.753239    0.709064   -0.000071
  C     -0.753239    0.709064    0.000071
  C     -0.753239   -0.709064   -0.000071
  C      0.753239   -0.709064    0.000071
  C      1.909382   -1.439432   -0.000379
  C      3.111158   -0.691977   -0.000194
  C     -1.909382   -1.439432    0.000379
  C     -3.111158   -0.691977    0.000194
  C     -3.111158    0.691977   -0.000194
  C     -1.909382    1.439432   -0.000379
  H      4.056913    1.217403    0.000417
  H      1.930044    2.520654    0.000453
  H      1.930044   -2.520654   -0.000453
  H      4.056913   -1.217403   -0.000417
  H     -1.930044   -2.520654    0.000453
  H     -4.056913   -1.217403    0.000417
  H     -4.056913    1.217403   -0.000417
  H     -1.930044    2.520654   -0.000453

 Total Charge           Charge          ....    0
 Multiplicity           Mult            ....    1
 Number of Electrons    NEL             ....   80
 Basis Dimension        Dim             ....  736

ORBITAL ENERGIES
----------------

  NO   OCC          E(Eh)            E(eV)
   0   2.0000     -11.250037      -306.1291
   1   2.0000     -11.249414      -306.1121
   2   2.0000     -11.248955      -306.0996
   3   2.0000     -11.248326      -306.0825
   4   2.0000     -11.241282      -305.8908
   5   2.0000     -11.241279      -305.8908
   6   2.0000     -11.241233      -305.8895
   7   2.0000     -11.241226      -305.8893
   8   2.0000     -11.239240      -305.8353
   9   2.0000     -11.239240      -305.8353
  10   2.0000     -11.237997      -305.8015
  11   2.0000     -11.237997      -305.8014
  12   2.0000      -1.211664       -32.9711
  13   2.0000      -1.139112       -30.9968
  14   2.0000      -1.078537       -29.3485
  15   2.0000      -1.032891       -28.1064
  16   2.0000      -1.013473       -27.5780
  17   2.0000      -0.961085       -26.1525
  18   2.0000      -0.883303       -24.0359
  19   2.0000      -0.842943       -22.9376
  20   2.0000      -0.783095       -21.3091
  21   2.0000      -0.779409       -21.2088
  22   2.0000      -0.716894       -19.5077
  23   2.0000      -0.656784       -17.8720
  24   2.0000      -0.652637       -17.7592
  25   2.0000      -0.648792       -17.6545
  26   2.0000      -0.623103       -16.9555
  27   2.0000      -0.601005       -16.3542
  28   2.0000      -0.585364       -15.9286
  29   2.0000      -0.562397       -15.3036
  30   2.0000      -0.554702       -15.0942
  31   2.0000      -0.537485       -14.6257
  32   2.0000      -0.485281       -13.2052
  33   2.0000      -0.484693       -13.1892
  34   2.0000      -0.479544       -13.0491
  35   2.0000      -0.479458       -13.0467
  36   2.0000      -0.386818       -10.5258
  37   2.0000      -0.368680       -10.0323
  38   2.0000      -0.331980        -9.0336
  39   2.0000      -0.271661        -7.3923
  40   0.0000       0.028943         0.7876
  41   0.0000       0.030032         0.8172
  42   0.0000       0.030492         0.8297
  43   0.0000       0.039409         1.0724
  44   0.0000       0.041376         1.1259

MULLIKEN ATOMIC CHARGES
-----------------------
   0 C :   -0.344220
   1 C :   -1.267407
   2 C :    0.889389
   3 C :    0.889433
   4 C :    0.889323
   5 C :    0.889363
   6 C :   -1.267363
   7 C :   -0.344239
   8 C :   -1.267293
   9 C :   -0.344211
  10 C :   -0.344242
  11 C :   -1.267350
  12 H :    0.491855
  13 H :    0.230419
  14 H :    0.230398
  15 H :    0.491837
  16 H :    0.230473
  17 H :    0.491679
  18 H :    0.491768
  19 H :    0.230385
Sum of atomic charges:   -0.0000000

LOEWDIN ATOMIC CHARGES
----------------------
   0 C :    0.193785
   1 C :    0.246096
   2 C :   -0.065545
   3 C :   -0.065545
   4 C :   -0.065545
   5 C :   -0.065546
   6 C :    0.246096
   7 C :    0.193785
   8 C :    0.246096
   9 C :    0.193785
  10 C :    0.193785
  11 C :    0.246096
  12 H :   -0.191103
  13 H :   -0.183232
  14 H :   -0.183232
  15 H :   -0.191103
  16 H :   -0.183232
  17 H :   -0.191103
  18 H :   -0.191103
  19 H :   -0.183232

  Mayer bond orders larger than 0.100000
B(  0-C ,  1-C ) :   1.1622 B(  0-C ,  7-C ) :   1.1152 B(  0-C , 12-H ) :   0.7626
B(  0-C , 15-H ) :  -0.1057 B(  1-C ,  2-C ) :   0.3859 B(  1-C ,  5-C ) :   0.1057
B(  1-C ,  6-C ) :   0.1736 B(  1-C , 11-C ) :   0.1325 B(  1-C , 12-H ) :  -0.1348
B(  1-C , 13-H ) :   1.2805 B(  2-C ,  3-C ) :   0.4963 B(  2-C ,  4-C ) :   0.3277
B(  2-C ,  5-C ) :   0.9024 B(  2-C ,  6-C ) :   0.1057 B(  2-C , 12-H ) :  -0.1034
B(  2-C , 18-H ) :   0.1196 B(  2-C , 19-H ) :  -0.3025 B(  3-C ,  4-C ) :   0.9028
B(  3-C ,  5-C ) :   0.3276 B(  3-C ,  8-C ) :   0.1059 B(  3-C , 11-C ) :   0.3857
B(  3-C , 12-H ) :   0.1196 B(  3-C , 13-H ) :  -0.3025 B(  3-C , 18-H ) :  -0.1034
B(  4-C ,  5-C ) :   0.4963 B(  4-C ,  8-C ) :   0.3859 B(  4-C , 11-C ) :   0.1058
B(  4-C , 14-H ) :  -0.3025 B(  4-C , 15-H ) :   0.1195 B(  4-C , 17-H ) :  -0.1034
B(  5-C ,  6-C ) :   0.3859 B(  5-C , 15-H ) :  -0.1034 B(  5-C , 16-H ) :  -0.3025
B(  5-C , 17-H ) :   0.1196 B(  6-C ,  7-C ) :   1.1622 B(  6-C ,  8-C ) :   0.1325
B(  6-C , 14-H ) :   1.2806 B(  6-C , 15-H ) :  -0.1348 B(  7-C , 12-H ) :  -0.1057
B(  7-C , 15-H ) :   0.7626 B(  8-C ,  9-C ) :   1.1622 B(  8-C , 11-C ) :   0.1735
B(  8-C , 16-H ) :   1.2804 B(  8-C , 17-H ) :  -0.1347 B(  9-C , 10-C ) :   1.1151
B(  9-C , 17-H ) :   0.7628 B(  9-C , 18-H ) :  -0.1057 B( 10-C , 11-C ) :   1.1622
B( 10-C , 17-H ) :  -0.1057 B( 10-C , 18-H ) :   0.7627 B( 11-C , 18-H ) :  -0.1348
B( 11-C , 19-H ) :   1.2806

MP2 TOTAL ENERGY:     -461.053773747 Eh
FINAL SINGLE POINT ENERGY      -461.053773746706

DIPOLE MOMENT
-------------
                                X             Y             Z
Electronic contribution:     -0.00000      -0.00000       0.00000
Nuclear contribution   :     -0.00000       0.00000       0.00000
                        -----------------------------------------
Total Dipole Moment    :     -0.00000      -0.00000       0.00000
                        -----------------------------------------
Magnitude (a.u.)       :      0.00000
Magnitude (Debye)      :      0.00000

Rotational constants in cm-1:     0.094547     0.022512     0.018183
Rotational constants in MHz :  2834.441975   674.894468   545.102838

                             ****ORCA TERMINATED NORMALLY****
TOTAL RUN TIME: 0 days 0 hours 16 minutes 12 seconds 612 msec
