                         Program Version 5.0.3 -  RELEASE  -
|  1> !ri-mp2 aug-cc-pvtz aug-cc-pvtz/c tightscf
|  2> %pal nprocs 16 end
|  3>
|  4> * xyz 0 1
|  5> C      0.000000    0.771638   -1.378323
|  6> H     -0.624422    1.190682   -2.165746
|  7> H      1.015837    1.139927   -1.539367
|  8> C      0.000000   -0.771638   -1.378323
|  9> H      0.624422   -1.190682   -2.165746
| 10> H     -1.015837   -1.139927   -1.539367
| 11> C      0.473205   -1.145341    0.031186
| 12> H      1.566143   -1.166083    0.089614
| 13> H      0.115834   -2.102523    0.407428
| 14> C     -0.473205    1.145341    0.031186
| 15> H     -0.115834    2.102523    0.407428
| 16> H     -1.566143    1.166083    0.089614
| 17> C      0.000000    0.000000    0.924314
| 18> O      0.000000    0.000000    2.129486
| 19> *
| 20>
| 21>                          ****END OF INPUT****

CARTESIAN COORDINATES (ANGSTROEM)
---------------------------------
  C      0.000000    0.771638   -1.378323
  H     -0.624422    1.190682   -2.165746
  H      1.015837    1.139927   -1.539367
  C      0.000000   -0.771638   -1.378323
  H      0.624422   -1.190682   -2.165746
  H     -1.015837   -1.139927   -1.539367
  C      0.473205   -1.145341    0.031186
  H      1.566143   -1.166083    0.089614
  H      0.115834   -2.102523    0.407428
  C     -0.473205    1.145341    0.031186
  H     -0.115834    2.102523    0.407428
  H     -1.566143    1.166083    0.089614
  C      0.000000    0.000000    0.924314
  O      0.000000    0.000000    2.129486

 Total Charge           Charge          ....    0
 Multiplicity           Mult            ....    1
 Number of Electrons    NEL             ....   46
 Basis Dimension        Dim             ....  460

ORBITAL ENERGIES
----------------

  NO   OCC          E(Eh)            E(eV)
   0   2.0000     -20.542998      -559.0034
   1   2.0000     -11.326769      -308.2171
   2   2.0000     -11.237117      -305.7775
   3   2.0000     -11.236591      -305.7632
   4   2.0000     -11.235690      -305.7387
   5   2.0000     -11.235663      -305.7379
   6   2.0000      -1.385595       -37.7040
   7   2.0000      -1.130383       -30.7593
   8   2.0000      -0.991895       -26.9908
   9   2.0000      -0.940016       -25.5791
  10   2.0000      -0.810721       -22.0609
  11   2.0000      -0.733923       -19.9711
  12   2.0000      -0.671280       -18.2665
  13   2.0000      -0.664251       -18.0752
  14   2.0000      -0.595954       -16.2167
  15   2.0000      -0.593919       -16.1614
  16   2.0000      -0.567797       -15.4506
  17   2.0000      -0.557890       -15.1809
  18   2.0000      -0.507158       -13.8005
  19   2.0000      -0.492696       -13.4069
  20   2.0000      -0.481986       -13.1155
  21   2.0000      -0.477359       -12.9896
  22   2.0000      -0.395329       -10.7574
  23   0.0000       0.026208         0.7132
  24   0.0000       0.034802         0.9470
  25   0.0000       0.035587         0.9684
  26   0.0000       0.041006         1.1158
  27   0.0000       0.056068         1.5257

MULLIKEN ATOMIC CHARGES
-----------------------
   0 C :   -0.516385
   1 H :    0.312373
   2 H :    0.231781
   3 C :   -0.516385
   4 H :    0.312373
   5 H :    0.231781
   6 C :   -0.421307
   7 H :    0.249177
   8 H :    0.325118
   9 C :   -0.421307
  10 H :    0.325118
  11 H :    0.249177
  12 C :    0.501031
  13 O :   -0.862545
Sum of atomic charges:   -0.0000000

LOEWDIN ATOMIC CHARGES
----------------------
   0 C :    0.293976
   1 H :   -0.145099
   2 H :   -0.145997
   3 C :    0.293976
   4 H :   -0.145099
   5 H :   -0.145997
   6 C :    0.309943
   7 H :   -0.144557
   8 H :   -0.148631
   9 C :    0.309943
  10 H :   -0.148631
  11 H :   -0.144557
  12 C :   -0.491641
  13 O :    0.452373

  Mayer bond orders larger than 0.100000
B(  0-C ,  1-H ) :   0.9151 B(  0-C ,  2-H ) :   0.9811 B(  0-C ,  3-C ) :   0.9299
B(  0-C ,  9-C ) :   0.9789 B(  3-C ,  4-H ) :   0.9151 B(  3-C ,  5-H ) :   0.9811
B(  3-C ,  6-C ) :   0.9789 B(  6-C ,  7-H ) :   0.9510 B(  6-C ,  8-H ) :   0.9137
B(  6-C , 12-C ) :   0.7746 B(  9-C , 10-H ) :   0.9137 B(  9-C , 11-H ) :   0.9510
B(  9-C , 12-C ) :   0.7746 B( 12-C , 13-O ) :   1.2344

MP2 TOTAL ENERGY:     -270.043152043 Eh
FINAL SINGLE POINT ENERGY      -270.043152042657

DIPOLE MOMENT
-------------
                                X             Y             Z
Electronic contribution:      0.00000      -0.00000       5.12509
Nuclear contribution   :     -0.00000      -0.00000      -6.55506
                        -----------------------------------------
Total Dipole Moment    :      0.00000      -0.00000      -1.42998
                        -----------------------------------------
Magnitude (a.u.)       :      1.42998
Magnitude (Debye)      :      3.63471

Rotational constants in cm-1:     0.221334     0.111716     0.080114
Rotational constants in MHz :  6635.422607  3349.151502  2401.742791

                             ****ORCA TERMINATED NORMALLY****
TOTAL RUN TIME: 0 days 0 hours 3 minutes 36 seconds 787 msec
