                         Program Version 5.0.3 -  RELEASE  -
|  1> !ri-mp2 aug-cc-pvtz aug-cc-pvtz/c tightscf
|  2> %pal nprocs 16 end
|  3>
|  4> * xyz 0 1
|  5> C     0.000000     0.667446    0.812417
|  6> C     0.000000    -0.667446    0.812417
|  7> C     0.000000     0.784886   -0.698476
|  8> C     0.000000    -0.784886   -0.698476
|  9> H     0.000000     1.411038    1.598258
| 10> H     0.000000    -1.411038    1.598258
| 11> H     0.886543     1.242452   -1.140953
| 12> H    -0.886543    -1.242452   -1.140953
| 13> H    -0.886543     1.242452   -1.140953
| 14> H     0.886543    -1.242452   -1.140953
| 15> *
| 16>
| 17>                          ****END OF INPUT****

CARTESIAN COORDINATES (ANGSTROEM)
---------------------------------
  C      0.000000    0.667446    0.812417
  C      0.000000   -0.667446    0.812417
  C      0.000000    0.784886   -0.698476
  C      0.000000   -0.784886   -0.698476
  H      0.000000    1.411038    1.598258
  H      0.000000   -1.411038    1.598258
  H      0.886543    1.242452   -1.140953
  H     -0.886543   -1.242452   -1.140953
  H     -0.886543    1.242452   -1.140953
  H      0.886543   -1.242452   -1.140953

 Total Charge           Charge          ....    0
 Multiplicity           Mult            ....    1
 Number of Electrons    NEL             ....   30
 Basis Dimension        Dim             ....  322

ORBITAL ENERGIES
----------------

  NO   OCC          E(Eh)            E(eV)
   0   2.0000     -11.226880      -305.4989
   1   2.0000     -11.225865      -305.4713
   2   2.0000     -11.225648      -305.4654
   3   2.0000     -11.224895      -305.4449
   4   2.0000      -1.145513       -31.1710
   5   2.0000      -0.897899       -24.4331
   6   2.0000      -0.876852       -23.8604
   7   2.0000      -0.707300       -19.2466
   8   2.0000      -0.674530       -18.3549
   9   2.0000      -0.622596       -16.9417
  10   2.0000      -0.533358       -14.5134
  11   2.0000      -0.506061       -13.7706
  12   2.0000      -0.462424       -12.5832
  13   2.0000      -0.455167       -12.3857
  14   2.0000      -0.350988        -9.5509
  15   0.0000       0.031785         0.8649
  16   0.0000       0.037611         1.0234
  17   0.0000       0.040106         1.0913
  18   0.0000       0.043766         1.1909
  19   0.0000       0.054365         1.4793

MULLIKEN ATOMIC CHARGES
-----------------------
   0 C :   -0.678654
   1 C :   -0.678654
   2 C :   -0.474819
   3 C :   -0.474819
   4 H :    0.499624
   5 H :    0.499624
   6 H :    0.326925
   7 H :    0.326925
   8 H :    0.326925
   9 H :    0.326925
Sum of atomic charges:    0.0000000

LOEWDIN ATOMIC CHARGES
----------------------
   0 C :    0.245028
   1 C :    0.245028
   2 C :    0.269195
   3 C :    0.269195
   4 H :   -0.186083
   5 H :   -0.186083
   6 H :   -0.164070
   7 H :   -0.164070
   8 H :   -0.164070
   9 H :   -0.164070

  Mayer bond orders larger than 0.100000
B(  0-C ,  1-C ) :   1.3731 B(  0-C ,  2-C ) :   0.9845 B(  0-C ,  4-H ) :   0.7727
B(  1-C ,  3-C ) :   0.9845 B(  1-C ,  5-H ) :   0.7727 B(  2-C ,  3-C ) :   1.1641
B(  2-C ,  6-H ) :   0.8707 B(  2-C ,  8-H ) :   0.8707 B(  3-C ,  7-H ) :   0.8707
B(  3-C ,  9-H ) :   0.8707

MP2 TOTAL ENERGY:     -155.623346675 Eh
FINAL SINGLE POINT ENERGY      -155.623346674761

DIPOLE MOMENT
-------------
                                X             Y             Z
Electronic contribution:      0.00000       0.00000       1.38373
Nuclear contribution   :      0.00000       0.00000      -1.42417
                        -----------------------------------------
Total Dipole Moment    :      0.00000       0.00000      -0.04044
                        -----------------------------------------
Magnitude (a.u.)       :      0.04044
Magnitude (Debye)      :      0.10280

Rotational constants in cm-1:     0.433279     0.410082     0.228804
Rotational constants in MHz : 12989.382311 12293.961324  6859.383718

                             ****ORCA TERMINATED NORMALLY****
TOTAL RUN TIME: 0 days 0 hours 1 minutes 6 seconds 359 msec
