                         Program Version 5.0.3 -  RELEASE  -
|  1> !ri-mp2 aug-cc-pvtz aug-cc-pvtz/c tightscf
|  2> %pal nprocs 16 end
|  3>
|  4> * xyz 0 1
|  5> C      0.385941   -0.723508    0.267146
|  6> Cl     1.900475    0.227545   -0.033923
|  7> C     -0.769906   -0.104546   -0.461481
|  8> C     -1.663184    0.846606    0.196657
|  9> O     -2.059013   -0.518958    0.002364
| 10> H      0.215602   -0.732869    1.339395
| 11> H      0.583531   -1.733301   -0.081694
| 12> H     -0.670754   -0.061183   -1.541492
| 13> H     -1.474553    1.128875    1.226754
| 14> H     -2.206901    1.570555   -0.399129
| 15> *
| 16>
| 17>                          ****END OF INPUT****

CARTESIAN COORDINATES (ANGSTROEM)
---------------------------------
  C      0.385941   -0.723508    0.267146
  Cl     1.900475    0.227545   -0.033923
  C     -0.769906   -0.104546   -0.461481
  C     -1.663184    0.846606    0.196657
  O     -2.059013   -0.518958    0.002364
  H      0.215602   -0.732869    1.339395
  H      0.583531   -1.733301   -0.081694
  H     -0.670754   -0.061183   -1.541492
  H     -1.474553    1.128875    1.226754
  H     -2.206901    1.570555   -0.399129

 Total Charge           Charge          ....    0
 Multiplicity           Mult            ....    1
 Number of Electrons    NEL             ....   48
 Basis Dimension        Dim             ....  349

ORBITAL ENERGIES
----------------

  NO   OCC          E(Eh)            E(eV)
   0   2.0000    -104.834311     -2852.6866
   1   2.0000     -20.586124      -560.1769
   2   2.0000     -11.308215      -307.7122
   3   2.0000     -11.307529      -307.6935
   4   2.0000     -11.297334      -307.4161
   5   2.0000     -10.558218      -287.3037
   6   2.0000      -8.025016      -218.3718
   7   2.0000      -8.023264      -218.3241
   8   2.0000      -8.023223      -218.3230
   9   2.0000      -1.426622       -38.8203
  10   2.0000      -1.140341       -31.0303
  11   2.0000      -0.985890       -26.8274
  12   2.0000      -0.923297       -25.1242
  13   2.0000      -0.830334       -22.5945
  14   2.0000      -0.716708       -19.5026
  15   2.0000      -0.672369       -18.2961
  16   2.0000      -0.621566       -16.9137
  17   2.0000      -0.591691       -16.1007
  18   2.0000      -0.556637       -15.1469
  19   2.0000      -0.530925       -14.4472
  20   2.0000      -0.472565       -12.8591
  21   2.0000      -0.460397       -12.5280
  22   2.0000      -0.442798       -12.0492
  23   2.0000      -0.441774       -12.0213
  24   0.0000       0.030717         0.8358
  25   0.0000       0.036374         0.9898
  26   0.0000       0.037477         1.0198
  27   0.0000       0.054537         1.4840
  28   0.0000       0.059299         1.6136

MULLIKEN ATOMIC CHARGES
-----------------------
   0 C :   -0.211311
   1 Cl:   -0.338590
   2 C :    0.136688
   3 C :   -0.677169
   4 O :   -0.719578
   5 H :    0.293035
   6 H :    0.258574
   7 H :    0.448998
   8 H :    0.390994
   9 H :    0.418358
Sum of atomic charges:   -0.0000000

LOEWDIN ATOMIC CHARGES
----------------------
   0 C :   -0.246824
   1 Cl:    0.868576
   2 C :   -0.319812
   3 C :    0.128060
   4 O :    0.533841
   5 H :   -0.239526
   6 H :   -0.235906
   7 H :   -0.158697
   8 H :   -0.165745
   9 H :   -0.163966

  Mayer bond orders larger than 0.100000
B(  0-C ,  1-Cl) :   0.8348 B(  0-C ,  2-C ) :   0.8646 B(  0-C ,  5-H ) :   0.9341
B(  0-C ,  6-H ) :   0.9565 B(  2-C ,  3-C ) :   1.1354 B(  2-C ,  4-O ) :   0.5789
B(  2-C ,  7-H ) :   0.7728 B(  3-C ,  4-O ) :   0.9580 B(  3-C ,  8-H ) :   0.8447
B(  3-C ,  9-H ) :   0.8126

MP2 TOTAL ENERGY:     -651.865637676 Eh
FINAL SINGLE POINT ENERGY      -651.865637675790

DIPOLE MOMENT
-------------
                                X             Y             Z
Electronic contribution:      5.99848       0.36534      -0.52462
Nuclear contribution   :     -6.14246      -0.15749       0.57718
                        -----------------------------------------
Total Dipole Moment    :     -0.14398       0.20785       0.05256
                        -----------------------------------------
Magnitude (a.u.)       :      0.25825
Magnitude (Debye)      :      0.65643

Rotational constants in cm-1:     0.442381     0.065966     0.061513
Rotational constants in MHz : 13262.263575  1977.621316  1844.127932

                             ****ORCA TERMINATED NORMALLY****
TOTAL RUN TIME: 0 days 0 hours 1 minutes 43 seconds 379 msec
