                         Program Version 5.0.3 -  RELEASE  -
|  1> !ri-mp2 aug-cc-pvtz aug-cc-pvtz/c tightscf
|  2> %pal nprocs 16 end
|  3>
|  4> * xyz 0 1
|  5> C     -1.267259    0.731652    0.227515
|  6> C      0.000000    1.463304   -0.227515
|  7> C     -1.267259   -0.731652   -0.227515
|  8> C      0.000000   -1.463304    0.227515
|  9> C      1.267259   -0.731652   -0.227515
| 10> C      1.267259    0.731652    0.227515
| 11> H      2.155238    1.244327   -0.149267
| 12> H     -2.155238    1.244327   -0.149267
| 13> H      0.000000    2.488655    0.149267
| 14> H      2.155238   -1.244327    0.149267
| 15> H      1.329045   -0.767324   -1.320511
| 16> H     -1.329045   -0.767324   -1.320511
| 17> H      0.000000    1.534649   -1.320511
| 18> H      0.000000   -2.488655   -0.149267
| 19> H      0.000000   -1.534649    1.320511
| 20> H     -2.155238   -1.244327    0.149267
| 21> H     -1.329045    0.767324    1.320511
| 22> H      1.329045    0.767324    1.320511
| 23> *
| 24>
| 25>                          ****END OF INPUT****

CARTESIAN COORDINATES (ANGSTROEM)
---------------------------------
  C     -1.267259    0.731652    0.227515
  C      0.000000    1.463304   -0.227515
  C     -1.267259   -0.731652   -0.227515
  C      0.000000   -1.463304    0.227515
  C      1.267259   -0.731652   -0.227515
  C      1.267259    0.731652    0.227515
  H      2.155238    1.244327   -0.149267
  H     -2.155238    1.244327   -0.149267
  H      0.000000    2.488655    0.149267
  H      2.155238   -1.244327    0.149267
  H      1.329045   -0.767324   -1.320511
  H     -1.329045   -0.767324   -1.320511
  H      0.000000    1.534649   -1.320511
  H      0.000000   -2.488655   -0.149267
  H      0.000000   -1.534649    1.320511
  H     -2.155238   -1.244327    0.149267
  H     -1.329045    0.767324    1.320511
  H      1.329045    0.767324    1.320511

 Total Charge           Charge          ....    0
 Multiplicity           Mult            ....    1
 Number of Electrons    NEL             ....   48
 Basis Dimension        Dim             ....  552

ORBITAL ENERGIES
----------------

  NO   OCC          E(Eh)            E(eV)
   0   2.0000     -11.212020      -305.0946
   1   2.0000     -11.211737      -305.0869
   2   2.0000     -11.211737      -305.0869
   3   2.0000     -11.211129      -305.0703
   4   2.0000     -11.211129      -305.0703
   5   2.0000     -11.210817      -305.0618
   6   2.0000      -1.108954       -30.1762
   7   2.0000      -0.997915       -27.1546
   8   2.0000      -0.997914       -27.1546
   9   2.0000      -0.825611       -22.4660
  10   2.0000      -0.825611       -22.4660
  11   2.0000      -0.747243       -20.3335
  12   2.0000      -0.644847       -17.5472
  13   2.0000      -0.605012       -16.4632
  14   2.0000      -0.593211       -16.1421
  15   2.0000      -0.593211       -16.1421
  16   2.0000      -0.522350       -14.2139
  17   2.0000      -0.522349       -14.2138
  18   2.0000      -0.510918       -13.9028
  19   2.0000      -0.478156       -13.0113
  20   2.0000      -0.478156       -13.0113
  21   2.0000      -0.447236       -12.1699
  22   2.0000      -0.424593       -11.5537
  23   2.0000      -0.424592       -11.5537
  24   0.0000       0.031296         0.8516
  25   0.0000       0.036133         0.9832
  26   0.0000       0.036133         0.9832
  27   0.0000       0.038448         1.0462
  28   0.0000       0.053027         1.4429

MULLIKEN ATOMIC CHARGES
-----------------------
   0 C :   -0.486257
   1 C :   -0.486248
   2 C :   -0.486256
   3 C :   -0.486248
   4 C :   -0.486257
   5 C :   -0.486256
   6 H :    0.313826
   7 H :    0.313827
   8 H :    0.313823
   9 H :    0.313827
  10 H :    0.172427
  11 H :    0.172428
  12 H :    0.172430
  13 H :    0.313823
  14 H :    0.172430
  15 H :    0.313826
  16 H :    0.172427
  17 H :    0.172428
Sum of atomic charges:    0.0000000

LOEWDIN ATOMIC CHARGES
----------------------
   0 C :    0.287136
   1 C :    0.287137
   2 C :    0.287136
   3 C :    0.287137
   4 C :    0.287136
   5 C :    0.287136
   6 H :   -0.144460
   7 H :   -0.144460
   8 H :   -0.144460
   9 H :   -0.144460
  10 H :   -0.142676
  11 H :   -0.142676
  12 H :   -0.142676
  13 H :   -0.144460
  14 H :   -0.142676
  15 H :   -0.144460
  16 H :   -0.142676
  17 H :   -0.142676

  Mayer bond orders larger than 0.100000
B(  0-C ,  1-C ) :   0.8853 B(  0-C ,  2-C ) :   0.8853 B(  0-C ,  7-H ) :   0.9108
B(  0-C , 16-H ) :   1.0242 B(  1-C ,  5-C ) :   0.8853 B(  1-C ,  8-H ) :   0.9108
B(  1-C , 12-H ) :   1.0242 B(  2-C ,  3-C ) :   0.8853 B(  2-C , 11-H ) :   1.0242
B(  2-C , 15-H ) :   0.9108 B(  3-C ,  4-C ) :   0.8853 B(  3-C , 13-H ) :   0.9108
B(  3-C , 14-H ) :   1.0242 B(  4-C ,  5-C ) :   0.8853 B(  4-C ,  9-H ) :   0.9108
B(  4-C , 10-H ) :   1.0242 B(  5-C ,  6-H ) :   0.9108 B(  5-C , 17-H ) :   1.0242

MP2 TOTAL ENERGY:     -235.346043236 Eh
FINAL SINGLE POINT ENERGY      -235.346043236096

DIPOLE MOMENT
-------------
                                X             Y             Z
Electronic contribution:      0.00000      -0.00000       0.00000
Nuclear contribution   :      0.00000       0.00000       0.00000
                        -----------------------------------------
Total Dipole Moment    :      0.00000      -0.00000       0.00000
                        -----------------------------------------
Magnitude (a.u.)       :      0.00000
Magnitude (Debye)      :      0.00000

Rotational constants in cm-1:     0.143569     0.143569     0.081828
Rotational constants in MHz :  4304.102418  4304.099905  2453.136105

                             ****ORCA TERMINATED NORMALLY****
TOTAL RUN TIME: 0 days 0 hours 5 minutes 40 seconds 886 msec
