                         Program Version 5.0.3 -  RELEASE  -
|  1> !ri-mp2 aug-cc-pvtz aug-cc-pvtz/c tightscf
|  2> %pal nprocs 16 end
|  3>
|  4> * xyz 0 1
|  5> C      0.000000    0.000000    1.772157
|  6> C      0.703601    1.107660    0.968327
|  7> C     -0.703601   -1.107660    0.968327
|  8> C      0.000000    1.576287   -0.314065
|  9> C      0.000000   -1.576287   -0.314065
| 10> C      0.302469    0.703389   -1.539522
| 11> C     -0.302469   -0.703389   -1.539522
| 12> H     -0.742021    0.456246    2.433052
| 13> H      0.742021   -0.456246    2.433052
| 14> H      1.710243    0.776893    0.696626
| 15> H     -1.710243   -0.776893    0.696626
| 16> H      0.847619    1.961484    1.634661
| 17> H     -0.847619   -1.961484    1.634661
| 18> H      0.331829    2.593009   -0.538454
| 19> H     -0.331829   -2.593009   -0.538454
| 20> H     -1.081166    1.642958   -0.154172
| 21> H      1.081166   -1.642958   -0.154172
| 22> H      1.390576    0.624307   -1.637984
| 23> H     -1.390576   -0.624307   -1.637984
| 24> H     -0.042785    1.221357   -2.438645
| 25> H      0.042785   -1.221357   -2.438645
| 26> *
| 27>
| 28>                          ****END OF INPUT****

CARTESIAN COORDINATES (ANGSTROEM)
---------------------------------
  C      0.000000    0.000000    1.772157
  C      0.703601    1.107660    0.968327
  C     -0.703601   -1.107660    0.968327
  C      0.000000    1.576287   -0.314065
  C      0.000000   -1.576287   -0.314065
  C      0.302469    0.703389   -1.539522
  C     -0.302469   -0.703389   -1.539522
  H     -0.742021    0.456246    2.433052
  H      0.742021   -0.456246    2.433052
  H      1.710243    0.776893    0.696626
  H     -1.710243   -0.776893    0.696626
  H      0.847619    1.961484    1.634661
  H     -0.847619   -1.961484    1.634661
  H      0.331829    2.593009   -0.538454
  H     -0.331829   -2.593009   -0.538454
  H     -1.081166    1.642958   -0.154172
  H      1.081166   -1.642958   -0.154172
  H      1.390576    0.624307   -1.637984
  H     -1.390576   -0.624307   -1.637984
  H     -0.042785    1.221357   -2.438645
  H      0.042785   -1.221357   -2.438645

 Total Charge           Charge          ....    0
 Multiplicity           Mult            ....    1
 Number of Electrons    NEL             ....   56
 Basis Dimension        Dim             ....  644

ORBITAL ENERGIES
----------------

  NO   OCC          E(Eh)            E(eV)
   0   2.0000     -11.212194      -305.0993
   1   2.0000     -11.212070      -305.0959
   2   2.0000     -11.211810      -305.0889
   3   2.0000     -11.211558      -305.0820
   4   2.0000     -11.211167      -305.0714
   5   2.0000     -11.210934      -305.0650
   6   2.0000     -11.210774      -305.0607
   7   2.0000      -1.101333       -29.9688
   8   2.0000      -1.022216       -27.8159
   9   2.0000      -1.021465       -27.7955
  10   2.0000      -0.877992       -23.8914
  11   2.0000      -0.877385       -23.8749
  12   2.0000      -0.763600       -20.7786
  13   2.0000      -0.745937       -20.2980
  14   2.0000      -0.643381       -17.5073
  15   2.0000      -0.618551       -16.8316
  16   2.0000      -0.607614       -16.5340
  17   2.0000      -0.586003       -15.9460
  18   2.0000      -0.553686       -15.0666
  19   2.0000      -0.548964       -14.9381
  20   2.0000      -0.519168       -14.1273
  21   2.0000      -0.514413       -13.9979
  22   2.0000      -0.460473       -12.5301
  23   2.0000      -0.458829       -12.4854
  24   2.0000      -0.453731       -12.3466
  25   2.0000      -0.439747       -11.9661
  26   2.0000      -0.432360       -11.7651
  27   2.0000      -0.431789       -11.7496
  28   0.0000       0.030900         0.8408
  29   0.0000       0.034191         0.9304
  30   0.0000       0.035546         0.9673
  31   0.0000       0.037935         1.0323
  32   0.0000       0.050464         1.3732

MULLIKEN ATOMIC CHARGES
-----------------------
   0 C :   -0.448055
   1 C :   -0.392301
   2 C :   -0.392301
   3 C :   -0.475648
   4 C :   -0.475648
   5 C :   -0.426008
   6 C :   -0.426008
   7 H :    0.219829
   8 H :    0.219829
   9 H :    0.166621
  10 H :    0.166621
  11 H :    0.288860
  12 H :    0.288860
  13 H :    0.226804
  14 H :    0.226804
  15 H :    0.142538
  16 H :    0.142538
  17 H :    0.179875
  18 H :    0.179875
  19 H :    0.293459
  20 H :    0.293459
Sum of atomic charges:   -0.0000000

LOEWDIN ATOMIC CHARGES
----------------------
   0 C :    0.301666
   1 C :    0.295786
   2 C :    0.295786
   3 C :    0.296457
   4 C :    0.296457
   5 C :    0.291372
   6 C :    0.291372
   7 H :   -0.149202
   8 H :   -0.149202
   9 H :   -0.153935
  10 H :   -0.153935
  11 H :   -0.148497
  12 H :   -0.148497
  13 H :   -0.149142
  14 H :   -0.149142
  15 H :   -0.140220
  16 H :   -0.140220
  17 H :   -0.147234
  18 H :   -0.147234
  19 H :   -0.146219
  20 H :   -0.146219

  Mayer bond orders larger than 0.100000
B(  0-C ,  1-C ) :   0.8181 B(  0-C ,  2-C ) :   0.8181 B(  0-C ,  7-H ) :   1.0123
B(  0-C ,  8-H ) :   1.0123 B(  1-C ,  3-C ) :   0.8984 B(  1-C ,  9-H ) :   1.0715
B(  1-C , 11-H ) :   0.9343 B(  2-C ,  4-C ) :   0.8984 B(  2-C , 10-H ) :   1.0715
B(  2-C , 12-H ) :   0.9343 B(  3-C ,  5-C ) :   0.8690 B(  3-C , 13-H ) :   0.9747
B(  3-C , 15-H ) :   1.0596 B(  4-C ,  6-C ) :   0.8690 B(  4-C , 14-H ) :   0.9747
B(  4-C , 16-H ) :   1.0596 B(  5-C ,  6-C ) :   0.8509 B(  5-C , 17-H ) :   1.0384
B(  5-C , 19-H ) :   0.9354 B(  6-C , 18-H ) :   1.0384 B(  6-C , 20-H ) :   0.9354

MP2 TOTAL ENERGY:     -274.561051562 Eh
FINAL SINGLE POINT ENERGY      -274.561051562456

DIPOLE MOMENT
-------------
                                X             Y             Z
Electronic contribution:      0.00000       0.00000       0.00793
Nuclear contribution   :      0.00000       0.00000      -0.01053
                        -----------------------------------------
Total Dipole Moment    :      0.00000       0.00000      -0.00260
                        -----------------------------------------
Magnitude (a.u.)       :      0.00260
Magnitude (Debye)      :      0.00661

Rotational constants in cm-1:     0.103897     0.095032     0.056832
Rotational constants in MHz :  3114.760494  2848.991878  1703.769191

                             ****ORCA TERMINATED NORMALLY****
TOTAL RUN TIME: 0 days 0 hours 9 minutes 9 seconds 665 msec
