                         Program Version 5.0.3 -  RELEASE  -
|  1> !ri-mp2 aug-cc-pvtz aug-cc-pvtz/c tightscf
|  2> %pal nprocs 16 end
|  3> %maxcore 3800
|  4>
|  5> * xyz 0 1
|  6> C     -0.924984    1.455665    0.000000
|  7> C     -0.134405    1.385461    1.310207
|  8> C     -0.134405    1.385461   -1.310207
|  9> C      0.629237    0.082662    1.610338
| 10> C      0.629237    0.082662   -1.610338
| 11> C     -0.134405   -1.227318    1.323869
| 12> C     -0.134405   -1.227318   -1.323869
| 13> C      0.207639   -1.929091    0.000000
| 14> H     -1.479369    2.398329    0.000000
| 15> H      0.570283    2.221967    1.352098
| 16> H      0.570283    2.221967   -1.352098
| 17> H     -0.845053    1.554786    2.124992
| 18> H     -0.845053    1.554786   -2.124992
| 19> H     -1.689785    0.675570    0.000000
| 20> H      0.902756    0.108766    2.667617
| 21> H      0.902756    0.108766   -2.667617
| 22> H      1.576536    0.069346    1.069122
| 23> H      1.576536    0.069346   -1.069122
| 24> H     -1.212799   -1.052435    1.383389
| 25> H     -1.212799   -1.052435   -1.383389
| 26> H      0.088126   -1.939415    2.121981
| 27> H      0.088126   -1.939415   -2.121981
| 28> H      1.281288   -2.147303    0.000000
| 29> H     -0.292875   -2.901727    0.000000
| 30> *
| 31>
| 32>                          ****END OF INPUT****

CARTESIAN COORDINATES (ANGSTROEM)
---------------------------------
  C     -0.924984    1.455665    0.000000
  C     -0.134405    1.385461    1.310207
  C     -0.134405    1.385461   -1.310207
  C      0.629237    0.082662    1.610338
  C      0.629237    0.082662   -1.610338
  C     -0.134405   -1.227318    1.323869
  C     -0.134405   -1.227318   -1.323869
  C      0.207639   -1.929091    0.000000
  H     -1.479369    2.398329    0.000000
  H      0.570283    2.221967    1.352098
  H      0.570283    2.221967   -1.352098
  H     -0.845053    1.554786    2.124992
  H     -0.845053    1.554786   -2.124992
  H     -1.689785    0.675570    0.000000
  H      0.902756    0.108766    2.667617
  H      0.902756    0.108766   -2.667617
  H      1.576536    0.069346    1.069122
  H      1.576536    0.069346   -1.069122
  H     -1.212799   -1.052435    1.383389
  H     -1.212799   -1.052435   -1.383389
  H      0.088126   -1.939415    2.121981
  H      0.088126   -1.939415   -2.121981
  H      1.281288   -2.147303    0.000000
  H     -0.292875   -2.901727    0.000000

 Total Charge           Charge          ....    0
 Multiplicity           Mult            ....    1
 Number of Electrons    NEL             ....   64
 Basis Dimension        Dim             ....  736

ORBITAL ENERGIES
----------------

  NO   OCC          E(Eh)            E(eV)
   0   2.0000     -11.212998      -305.1212
   1   2.0000     -11.212025      -305.0947
   2   2.0000     -11.212015      -305.0944
   3   2.0000     -11.211896      -305.0912
   4   2.0000     -11.211792      -305.0884
   5   2.0000     -11.210542      -305.0544
   6   2.0000     -11.210534      -305.0541
   7   2.0000     -11.209955      -305.0384
   8   2.0000      -1.099583       -29.9212
   9   2.0000      -1.037511       -28.2321
  10   2.0000      -1.035439       -28.1757
  11   2.0000      -0.918282       -24.9877
  12   2.0000      -0.914517       -24.8853
  13   2.0000      -0.793262       -21.5857
  14   2.0000      -0.790814       -21.5191
  15   2.0000      -0.736156       -20.0318
  16   2.0000      -0.643546       -17.5118
  17   2.0000      -0.629479       -17.1290
  18   2.0000      -0.596546       -16.2328
  19   2.0000      -0.590194       -16.0600
  20   2.0000      -0.573209       -15.5978
  21   2.0000      -0.567109       -15.4318
  22   2.0000      -0.550335       -14.9754
  23   2.0000      -0.507600       -13.8125
  24   2.0000      -0.485124       -13.2009
  25   2.0000      -0.481680       -13.1072
  26   2.0000      -0.468571       -12.7505
  27   2.0000      -0.465290       -12.6612
  28   2.0000      -0.460197       -12.5226
  29   2.0000      -0.433730       -11.8024
  30   2.0000      -0.426187       -11.5971
  31   2.0000      -0.417649       -11.3648
  32   0.0000       0.030327         0.8252
  33   0.0000       0.033753         0.9185
  34   0.0000       0.034414         0.9365
  35   0.0000       0.035997         0.9795
  36   0.0000       0.048446         1.3183

MULLIKEN ATOMIC CHARGES
-----------------------
   0 C :   -0.385456
   1 C :   -0.462226
   2 C :   -0.462226
   3 C :   -0.375299
   4 C :   -0.375299
   5 C :   -0.440863
   6 C :   -0.440863
   7 C :   -0.427024
   8 H :    0.414394
   9 H :    0.227606
  10 H :    0.227606
  11 H :    0.155350
  12 H :    0.155350
  13 H :    0.068524
  14 H :    0.306955
  15 H :    0.306955
  16 H :    0.157864
  17 H :    0.157864
  18 H :    0.129704
  19 H :    0.129704
  20 H :    0.228679
  21 H :    0.228679
  22 H :    0.118954
  23 H :    0.355070
Sum of atomic charges:    0.0000000

LOEWDIN ATOMIC CHARGES
----------------------
   0 C :    0.286850
   1 C :    0.304405
   2 C :    0.304405
   3 C :    0.310655
   4 C :    0.310655
   5 C :    0.308039
   6 C :    0.308039
   7 C :    0.297617
   8 H :   -0.143250
   9 H :   -0.142434
  10 H :   -0.142434
  11 H :   -0.146869
  12 H :   -0.146869
  13 H :   -0.169683
  14 H :   -0.148411
  15 H :   -0.148411
  16 H :   -0.171248
  17 H :   -0.171248
  18 H :   -0.152648
  19 H :   -0.152648
  20 H :   -0.150663
  21 H :   -0.150663
  22 H :   -0.145394
  23 H :   -0.147790

  Mayer bond orders larger than 0.100000
B(  0-C ,  1-C ) :   0.8166 B(  0-C ,  2-C ) :   0.8166 B(  0-C ,  8-H ) :   0.8297
B(  0-C , 13-H ) :   1.1564 B(  1-C ,  3-C ) :   0.8204 B(  1-C ,  9-H ) :   0.9812
B(  1-C , 11-H ) :   1.0518 B(  2-C ,  4-C ) :   0.8204 B(  2-C , 10-H ) :   0.9812
B(  2-C , 12-H ) :   1.0518 B(  3-C ,  5-C ) :   0.8891 B(  3-C , 14-H ) :   0.9225
B(  3-C , 16-H ) :   1.0881 B(  4-C ,  6-C ) :   0.8891 B(  4-C , 15-H ) :   0.9225
B(  4-C , 17-H ) :   1.0881 B(  5-C ,  7-C ) :   0.8479 B(  5-C , 18-H ) :   1.0985
B(  5-C , 20-H ) :   0.9787 B(  6-C ,  7-C ) :   0.8479 B(  6-C , 19-H ) :   1.0985
B(  6-C , 21-H ) :   0.9787 B(  7-C , 22-H ) :   1.0854 B(  7-C , 23-H ) :   0.8948

MP2 TOTAL ENERGY:     -313.780995665 Eh
FINAL SINGLE POINT ENERGY      -313.780995664875

DIPOLE MOMENT
-------------
                                X             Y             Z
Electronic contribution:      0.01730       0.03991      -0.00000
Nuclear contribution   :     -0.02254      -0.05259       0.00000
                        -----------------------------------------
Total Dipole Moment    :     -0.00524      -0.01269      -0.00000
                        -----------------------------------------
Magnitude (a.u.)       :      0.01373
Magnitude (Debye)      :      0.03489

Rotational constants in cm-1:     0.075241     0.071308     0.043406
Rotational constants in MHz :  2255.654299  2137.763426  1301.279410

                             ****ORCA TERMINATED NORMALLY****
TOTAL RUN TIME: 0 days 0 hours 14 minutes 22 seconds 562 msec
