                         Program Version 5.0.3 -  RELEASE  -
|  1> !ri-mp2 aug-cc-pvtz aug-cc-pvtz/c tightscf
|  2> %pal nprocs 16 end
|  3>
|  4> * xyz 0 1
|  5> C     -1.186192    0.423794   -0.243636
|  6> C     -0.796090   -0.975769    0.244802
|  7> C      0.027367    1.287285    0.136896
|  8> C      0.687806   -1.087600   -0.139625
|  9> C      1.257252    0.349375    0.001362
| 10> H     -2.118589    0.788232    0.188807
| 11> H      1.226616   -1.811506    0.471854
| 12> H     -1.407585   -1.769785   -0.185074
| 13> H      0.115243    2.182391   -0.478872
| 14> H     -1.314699    0.411348   -1.329698
| 15> H      1.864002    0.612109   -0.865357
| 16> H      1.906597    0.434583    0.872795
| 17> H     -0.909311   -1.030087    1.331284
| 18> H     -0.074596    1.623613    1.170697
| 19> H      0.771463   -1.423403   -1.175226
| 20> *
| 21>
| 22>                          ****END OF INPUT****

CARTESIAN COORDINATES (ANGSTROEM)
---------------------------------
  C     -1.186192    0.423794   -0.243636
  C     -0.796090   -0.975769    0.244802
  C      0.027367    1.287285    0.136896
  C      0.687806   -1.087600   -0.139625
  C      1.257252    0.349375    0.001362
  H     -2.118589    0.788232    0.188807
  H      1.226616   -1.811506    0.471854
  H     -1.407585   -1.769785   -0.185074
  H      0.115243    2.182391   -0.478872
  H     -1.314699    0.411348   -1.329698
  H      1.864002    0.612109   -0.865357
  H      1.906597    0.434583    0.872795
  H     -0.909311   -1.030087    1.331284
  H     -0.074596    1.623613    1.170697
  H      0.771463   -1.423403   -1.175226

 Total Charge           Charge          ....    0
 Multiplicity           Mult            ....    1
 Number of Electrons    NEL             ....   40
 Basis Dimension        Dim             ....  460

ORBITAL ENERGIES
----------------

  NO   OCC          E(Eh)            E(eV)
   0   2.0000     -11.211813      -305.0889
   1   2.0000     -11.211419      -305.0782
   2   2.0000     -11.211409      -305.0779
   3   2.0000     -11.210829      -305.0622
   4   2.0000     -11.210654      -305.0574
   5   2.0000      -1.111246       -30.2385
   6   2.0000      -0.955706       -26.0061
   7   2.0000      -0.955091       -25.9893
   8   2.0000      -0.775434       -21.1006
   9   2.0000      -0.767882       -20.8951
  10   2.0000      -0.647653       -17.6235
  11   2.0000      -0.641988       -17.4694
  12   2.0000      -0.568676       -15.4745
  13   2.0000      -0.567424       -15.4404
  14   2.0000      -0.473845       -12.8940
  15   2.0000      -0.472866       -12.8673
  16   2.0000      -0.463346       -12.6083
  17   2.0000      -0.460174       -12.5220
  18   2.0000      -0.458186       -12.4679
  19   2.0000      -0.448927       -12.2159
  20   0.0000       0.031794         0.8652
  21   0.0000       0.038576         1.0497
  22   0.0000       0.039663         1.0793
  23   0.0000       0.039935         1.0867
  24   0.0000       0.055909         1.5214

MULLIKEN ATOMIC CHARGES
-----------------------
   0 C :   -0.549101
   1 C :   -0.549984
   2 C :   -0.491775
   3 C :   -0.491139
   4 C :   -0.594886
   5 H :    0.332345
   6 H :    0.360219
   7 H :    0.331621
   8 H :    0.359539
   9 H :    0.195985
  10 H :    0.264812
  11 H :    0.262712
  12 H :    0.197446
  13 H :    0.186593
  14 H :    0.185613
Sum of atomic charges:   -0.0000000

LOEWDIN ATOMIC CHARGES
----------------------
   0 C :    0.288077
   1 C :    0.288005
   2 C :    0.304199
   3 C :    0.303511
   4 C :    0.317043
   5 H :   -0.146295
   6 H :   -0.151061
   7 H :   -0.146180
   8 H :   -0.151258
   9 H :   -0.144898
  10 H :   -0.155767
  11 H :   -0.155865
  12 H :   -0.144814
  13 H :   -0.152425
  14 H :   -0.152271

  Mayer bond orders larger than 0.100000
B(  0-C ,  1-C ) :   0.9374 B(  0-C ,  2-C ) :   0.9280 B(  0-C ,  5-H ) :   0.8895
B(  0-C ,  9-H ) :   1.0184 B(  1-C ,  3-C ) :   0.9274 B(  1-C ,  7-H ) :   0.8905
B(  1-C , 12-H ) :   1.0166 B(  2-C ,  4-C ) :   0.9665 B(  2-C ,  8-H ) :   0.8432
B(  2-C , 13-H ) :   1.0415 B(  3-C ,  4-C ) :   0.9654 B(  3-C ,  6-H ) :   0.8427
B(  3-C , 14-H ) :   1.0424 B(  4-C , 10-H ) :   0.9527 B(  4-C , 11-H ) :   0.9554

MP2 TOTAL ENERGY:     -196.110500404 Eh
FINAL SINGLE POINT ENERGY      -196.110500404287

DIPOLE MOMENT
-------------
                                X             Y             Z
Electronic contribution:     -0.06898      -0.02037      -0.00123
Nuclear contribution   :      0.06335       0.01874       0.00129
                        -----------------------------------------
Total Dipole Moment    :     -0.00563      -0.00163       0.00006
                        -----------------------------------------
Magnitude (a.u.)       :      0.00586
Magnitude (Debye)      :      0.01490

Rotational constants in cm-1:     0.216532     0.216480     0.124725
Rotational constants in MHz :  6491.476505  6489.902990  3739.167743

                             ****ORCA TERMINATED NORMALLY****
TOTAL RUN TIME: 0 days 0 hours 3 minutes 9 seconds 893 msec
