                         Program Version 5.0.3 -  RELEASE  -
|  1> !ri-mp2 aug-cc-pvtz aug-cc-pvtz/c tightscf
|  2> %pal nprocs 16 end
|  3>
|  4> * xyz 0 1
|  5> C     0.000000     0.868264    0.000000
|  6> C    -0.751939    -0.434132    0.000000
|  7> C     0.751939    -0.434132    0.000000
|  8> H     1.260331    -0.727653    0.907443
|  9> H     0.000000     1.455305    0.907443
| 10> H     1.260331    -0.727653   -0.907443
| 11> H    -1.260331    -0.727653    0.907443
| 12> H    -1.260331    -0.727653   -0.907443
| 13> H     0.000000     1.455305   -0.907443
| 14> *
| 15>
| 16>                          ****END OF INPUT****

CARTESIAN COORDINATES (ANGSTROEM)
---------------------------------
  C      0.000000    0.868264    0.000000
  C     -0.751939   -0.434132    0.000000
  C      0.751939   -0.434132    0.000000
  H      1.260331   -0.727653    0.907443
  H      0.000000    1.455305    0.907443
  H      1.260331   -0.727653   -0.907443
  H     -1.260331   -0.727653    0.907443
  H     -1.260331   -0.727653   -0.907443
  H      0.000000    1.455305   -0.907443

 Total Charge           Charge          ....    0
 Multiplicity           Mult            ....    1
 Number of Electrons    NEL             ....   24
 Basis Dimension        Dim             ....  276

ORBITAL ENERGIES
----------------

  NO   OCC          E(Eh)            E(eV)
   0   2.0000     -11.222708      -305.3854
   1   2.0000     -11.221683      -305.3575
   2   2.0000     -11.221683      -305.3575
   3   2.0000      -1.131140       -30.7799
   4   2.0000      -0.818091       -22.2614
   5   2.0000      -0.818091       -22.2614
   6   2.0000      -0.667206       -18.1556
   7   2.0000      -0.627762       -17.0823
   8   2.0000      -0.511670       -13.9232
   9   2.0000      -0.511670       -13.9232
  10   2.0000      -0.419421       -11.4130
  11   2.0000      -0.419421       -11.4130
  12   0.0000       0.033107         0.9009
  13   0.0000       0.040445         1.1006
  14   0.0000       0.041930         1.1410
  15   0.0000       0.041930         1.1410
  16   0.0000       0.061709         1.6792

MULLIKEN ATOMIC CHARGES
-----------------------
   0 C :   -0.761336
   1 C :   -0.761336
   2 C :   -0.761336
   3 H :    0.380668
   4 H :    0.380668
   5 H :    0.380668
   6 H :    0.380668
   7 H :    0.380668
   8 H :    0.380668
Sum of atomic charges:    0.0000000

LOEWDIN ATOMIC CHARGES
----------------------
   0 C :    0.337368
   1 C :    0.337368
   2 C :    0.337368
   3 H :   -0.168684
   4 H :   -0.168684
   5 H :   -0.168684
   6 H :   -0.168684
   7 H :   -0.168684
   8 H :   -0.168684

  Mayer bond orders larger than 0.100000
B(  0-C ,  1-C ) :   0.9059 B(  0-C ,  2-C ) :   0.9059 B(  0-C ,  4-H ) :   0.8076
B(  0-C ,  8-H ) :   0.8076 B(  1-C ,  2-C ) :   0.9059 B(  1-C ,  6-H ) :   0.8076
B(  1-C ,  7-H ) :   0.8076 B(  2-C ,  3-H ) :   0.8076 B(  2-C ,  5-H ) :   0.8076

MP2 TOTAL ENERGY:     -117.625349599 Eh
FINAL SINGLE POINT ENERGY      -117.625349598644

DIPOLE MOMENT
-------------
                                X             Y             Z
Electronic contribution:      0.00000       0.00000      -0.00000
Nuclear contribution   :      0.00000      -0.00000       0.00000
                        -----------------------------------------
Total Dipole Moment    :      0.00000       0.00000      -0.00000
                        -----------------------------------------
Magnitude (a.u.)       :      0.00000
Magnitude (Debye)      :      0.00000

Rotational constants in cm-1:     0.675193     0.675193     0.421717
Rotational constants in MHz : 20241.788982 20241.782849 12642.770324

                             ****ORCA TERMINATED NORMALLY****
TOTAL RUN TIME: 0 days 0 hours 0 minutes 49 seconds 126 msec
