                         Program Version 5.0.3 -  RELEASE  -
|  1> !ri-mp2 aug-cc-pvtz aug-cc-pvtz/c tightscf
|  2> %pal nprocs 16 end
|  3>
|  4> * xyz 0 1
|  5> C    -0.061344     1.463150    0.000000
|  6> C     0.061344    -1.463150    0.000000
|  7> C    -0.332830     0.695697    1.281972
|  8> C    -0.332830     0.695697   -1.281972
|  9> C     0.332830    -0.695697    1.281972
| 10> C     0.332830    -0.695697   -1.281972
| 11> O     0.332830     2.606139    0.000000
| 12> O    -0.332830    -2.606139    0.000000
| 13> H    -0.003435     1.294970    2.128181
| 14> H    -1.417638     0.571706    1.364952
| 15> H    -1.417638     0.571706   -1.364952
| 16> H    -0.003435     1.294970   -2.128181
| 17> H     0.003435    -1.294970    2.128181
| 18> H     1.417638    -0.571706    1.364952
| 19> H     1.417638    -0.571706   -1.364952
| 20> H     0.003435    -1.294970   -2.128181
| 21> *
| 22>
| 23>                          ****END OF INPUT****

CARTESIAN COORDINATES (ANGSTROEM)
---------------------------------
  C     -0.061344    1.463150    0.000000
  C      0.061344   -1.463150    0.000000
  C     -0.332830    0.695697    1.281972
  C     -0.332830    0.695697   -1.281972
  C      0.332830   -0.695697    1.281972
  C      0.332830   -0.695697   -1.281972
  O      0.332830    2.606139    0.000000
  O     -0.332830   -2.606139    0.000000
  H     -0.003435    1.294970    2.128181
  H     -1.417638    0.571706    1.364952
  H     -1.417638    0.571706   -1.364952
  H     -0.003435    1.294970   -2.128181
  H      0.003435   -1.294970    2.128181
  H      1.417638   -0.571706    1.364952
  H      1.417638   -0.571706   -1.364952
  H      0.003435   -1.294970   -2.128181

 Total Charge           Charge          ....    0
 Multiplicity           Mult            ....    1
 Number of Electrons    NEL             ....   60
 Basis Dimension        Dim             ....  552

ORBITAL ENERGIES
----------------

  NO   OCC          E(Eh)            E(eV)
   0   2.0000     -20.561643      -559.5107
   1   2.0000     -20.561642      -559.5107
   2   2.0000     -11.343884      -308.6828
   3   2.0000     -11.343879      -308.6826
   4   2.0000     -11.259021      -306.3735
   5   2.0000     -11.258996      -306.3729
   6   2.0000     -11.258445      -306.3579
   7   2.0000     -11.258427      -306.3574
   8   2.0000      -1.403818       -38.1998
   9   2.0000      -1.401793       -38.1447
  10   2.0000      -1.130342       -30.7582
  11   2.0000      -1.054375       -28.6910
  12   2.0000      -0.978274       -26.6202
  13   2.0000      -0.897098       -24.4113
  14   2.0000      -0.788717       -21.4621
  15   2.0000      -0.731330       -19.9005
  16   2.0000      -0.678382       -18.4597
  17   2.0000      -0.663935       -18.0666
  18   2.0000      -0.657065       -17.8796
  19   2.0000      -0.646712       -17.5979
  20   2.0000      -0.616796       -16.7839
  21   2.0000      -0.610867       -16.6225
  22   2.0000      -0.571737       -15.5578
  23   2.0000      -0.554395       -15.0859
  24   2.0000      -0.532222       -14.4825
  25   2.0000      -0.529803       -14.4167
  26   2.0000      -0.518605       -14.1119
  27   2.0000      -0.487498       -13.2655
  28   2.0000      -0.422432       -11.4950
  29   2.0000      -0.415201       -11.2982
  30   0.0000       0.026228         0.7137
  31   0.0000       0.030270         0.8237
  32   0.0000       0.033156         0.9022
  33   0.0000       0.046507         1.2655
  34   0.0000       0.050514         1.3746

MULLIKEN ATOMIC CHARGES
-----------------------
   0 C :    0.619650
   1 C :    0.619650
   2 C :   -0.381385
   3 C :   -0.381385
   4 C :   -0.381385
   5 C :   -0.381385
   6 O :   -0.956835
   7 O :   -0.956835
   8 H :    0.294111
   9 H :    0.255866
  10 H :    0.255866
  11 H :    0.294111
  12 H :    0.294111
  13 H :    0.255866
  14 H :    0.255866
  15 H :    0.294111
Sum of atomic charges:   -0.0000000

LOEWDIN ATOMIC CHARGES
----------------------
   0 C :   -0.492773
   1 C :   -0.492773
   2 C :    0.303416
   3 C :    0.303416
   4 C :    0.303416
   5 C :    0.303416
   6 O :    0.476303
   7 O :    0.476303
   8 H :   -0.153468
   9 H :   -0.141714
  10 H :   -0.141714
  11 H :   -0.153468
  12 H :   -0.153468
  13 H :   -0.141714
  14 H :   -0.141714
  15 H :   -0.153468

  Mayer bond orders larger than 0.100000
B(  0-C ,  2-C ) :   0.9008 B(  0-C ,  3-C ) :   0.9008 B(  0-C ,  4-C ) :   0.1120
B(  0-C ,  5-C ) :   0.1120 B(  0-C ,  6-O ) :   0.9905 B(  1-C ,  2-C ) :   0.1120
B(  1-C ,  3-C ) :   0.1120 B(  1-C ,  4-C ) :   0.9008 B(  1-C ,  5-C ) :   0.9008
B(  1-C ,  7-O ) :   0.9905 B(  2-C ,  4-C ) :   1.0098 B(  2-C ,  8-H ) :   0.9086
B(  2-C ,  9-H ) :   0.9557 B(  3-C ,  5-C ) :   1.0098 B(  3-C , 10-H ) :   0.9557
B(  3-C , 11-H ) :   0.9086 B(  4-C , 12-H ) :   0.9086 B(  4-C , 13-H ) :   0.9557
B(  5-C , 14-H ) :   0.9557 B(  5-C , 15-H ) :   0.9086

MP2 TOTAL ENERGY:     -383.198818653 Eh
FINAL SINGLE POINT ENERGY      -383.198818653321

DIPOLE MOMENT
-------------
                                X             Y             Z
Electronic contribution:     -0.00000      -0.00000       0.00000
Nuclear contribution   :     -0.00000       0.00000       0.00000
                        -----------------------------------------
Total Dipole Moment    :     -0.00000      -0.00000       0.00000
                        -----------------------------------------
Magnitude (a.u.)       :      0.00000
Magnitude (Debye)      :      0.00000

Rotational constants in cm-1:     0.138917     0.053154     0.041597
Rotational constants in MHz :  4164.636559  1593.511923  1247.046445

                             ****ORCA TERMINATED NORMALLY****
TOTAL RUN TIME: 0 days 0 hours 6 minutes 52 seconds 681 msec
