                         Program Version 5.0.3 -  RELEASE  -
|  1> !ri-mp2 aug-cc-pvtz aug-cc-pvtz/c tightscf
|  2> %pal nprocs 16 end
|  3>
|  4> * xyz 0 1
|  5> C     -0.974235    1.501801    0.000000
|  6> C     -0.313710    0.943702    1.264192
|  7> C     -0.313710    0.943702   -1.264192
|  8> C     -0.313710   -0.588507    1.262787
|  9> C     -0.313710   -0.588507   -1.262787
| 10> C      0.322144   -1.187508    0.000000
| 11> N      1.768888   -0.919814    0.000000
| 12> H     -2.037859    1.237524    0.000000
| 13> H     -0.926534    2.593057    0.000000
| 14> H      0.714983    1.305090    1.322149
| 15> H     -0.829805    1.310092    2.154594
| 16> H     -0.829805    1.310092   -2.154594
| 17> H      0.714983    1.305090   -1.322149
| 18> H      0.204080   -0.970114    2.147778
| 19> H     -1.343580   -0.952418    1.329721
| 20> H     -1.343580   -0.952418   -1.329721
| 21> H      0.204080   -0.970114   -2.147778
| 22> H      0.112103   -2.266434    0.000000
| 23> H      2.210148   -1.329430   -0.814645
| 24> H      2.210148   -1.329430    0.814645
| 25> *
| 26>
| 27>                          ****END OF INPUT****

CARTESIAN COORDINATES (ANGSTROEM)
---------------------------------
  C     -0.974235    1.501801    0.000000
  C     -0.313710    0.943702    1.264192
  C     -0.313710    0.943702   -1.264192
  C     -0.313710   -0.588507    1.262787
  C     -0.313710   -0.588507   -1.262787
  C      0.322144   -1.187508    0.000000
  N      1.768888   -0.919814    0.000000
  H     -2.037859    1.237524    0.000000
  H     -0.926534    2.593057    0.000000
  H      0.714983    1.305090    1.322149
  H     -0.829805    1.310092    2.154594
  H     -0.829805    1.310092   -2.154594
  H      0.714983    1.305090   -1.322149
  H      0.204080   -0.970114    2.147778
  H     -1.343580   -0.952418    1.329721
  H     -1.343580   -0.952418   -1.329721
  H      0.204080   -0.970114   -2.147778
  H      0.112103   -2.266434    0.000000
  H      2.210148   -1.329430   -0.814645
  H      2.210148   -1.329430    0.814645

 Total Charge           Charge          ....    0
 Multiplicity           Mult            ....    1
 Number of Electrons    NEL             ....   56
 Basis Dimension        Dim             ....  621

ORBITAL ENERGIES
----------------

  NO   OCC          E(Eh)            E(eV)
   0   2.0000     -15.533373      -422.6846
   1   2.0000     -11.247207      -306.0521
   2   2.0000     -11.211465      -305.0795
   3   2.0000     -11.211451      -305.0791
   4   2.0000     -11.207559      -304.9732
   5   2.0000     -11.205797      -304.9252
   6   2.0000     -11.205685      -304.9222
   7   2.0000      -1.182850       -32.1870
   8   2.0000      -1.083207       -29.4756
   9   2.0000      -0.997445       -27.1418
  10   2.0000      -0.973778       -26.4978
  11   2.0000      -0.828760       -22.5517
  12   2.0000      -0.814608       -22.1666
  13   2.0000      -0.732819       -19.9410
  14   2.0000      -0.651818       -17.7369
  15   2.0000      -0.650413       -17.6986
  16   2.0000      -0.617446       -16.8016
  17   2.0000      -0.597927       -16.2704
  18   2.0000      -0.574779       -15.6405
  19   2.0000      -0.533965       -14.5299
  20   2.0000      -0.519255       -14.1297
  21   2.0000      -0.504978       -13.7411
  22   2.0000      -0.498826       -13.5737
  23   2.0000      -0.473478       -12.8840
  24   2.0000      -0.455130       -12.3847
  25   2.0000      -0.432776       -11.7764
  26   2.0000      -0.422128       -11.4867
  27   2.0000      -0.379792       -10.3347
  28   0.0000       0.028583         0.7778
  29   0.0000       0.035941         0.9780
  30   0.0000       0.035951         0.9783
  31   0.0000       0.037740         1.0269
  32   0.0000       0.050695         1.3795

MULLIKEN ATOMIC CHARGES
-----------------------
   0 C :   -0.496685
   1 C :   -0.483271
   2 C :   -0.483271
   3 C :   -0.611063
   4 C :   -0.611063
   5 C :    0.518047
   6 N :   -0.658869
   7 H :    0.156480
   8 H :    0.293271
   9 H :    0.183046
  10 H :    0.334372
  11 H :    0.334372
  12 H :    0.183046
  13 H :    0.285573
  14 H :    0.183477
  15 H :    0.183477
  16 H :    0.285573
  17 H :    0.294911
  18 H :    0.054289
  19 H :    0.054289
Sum of atomic charges:    0.0000000

LOEWDIN ATOMIC CHARGES
----------------------
   0 C :    0.290109
   1 C :    0.292739
   2 C :    0.292739
   3 C :    0.297481
   4 C :    0.297481
   5 C :   -0.130817
   6 N :    0.858372
   7 H :   -0.142352
   8 H :   -0.143570
   9 H :   -0.147027
  10 H :   -0.144167
  11 H :   -0.144167
  12 H :   -0.147027
  13 H :   -0.142380
  14 H :   -0.140781
  15 H :   -0.140781
  16 H :   -0.142380
  17 H :   -0.128281
  18 H :   -0.317595
  19 H :   -0.317595

  Mayer bond orders larger than 0.100000
B(  0-C ,  1-C ) :   0.8704 B(  0-C ,  2-C ) :   0.8704 B(  0-C ,  3-C ) :   0.1023
B(  0-C ,  4-C ) :   0.1023 B(  0-C ,  7-H ) :   1.0272 B(  0-C ,  8-H ) :   0.9204
B(  1-C ,  3-C ) :   0.9220 B(  1-C ,  9-H ) :   1.0360 B(  1-C , 10-H ) :   0.8927
B(  2-C ,  4-C ) :   0.9220 B(  2-C , 11-H ) :   0.8927 B(  2-C , 12-H ) :   1.0360
B(  3-C ,  4-C ) :   0.1132 B(  3-C ,  5-C ) :   0.8232 B(  3-C , 13-H ) :   0.9222
B(  3-C , 14-H ) :   1.0522 B(  4-C ,  5-C ) :   0.8232 B(  4-C , 15-H ) :   1.0522
B(  4-C , 16-H ) :   0.9222 B(  5-C ,  6-N ) :   0.4074 B(  5-C , 17-H ) :   0.8996
B(  6-N , 18-H ) :   1.0258 B(  6-N , 19-H ) :   1.0258

MP2 TOTAL ENERGY:     -290.610175941 Eh
FINAL SINGLE POINT ENERGY      -290.610175941289

DIPOLE MOMENT
-------------
                                X             Y             Z
Electronic contribution:      0.97265      -0.76629       0.00000
Nuclear contribution   :     -0.98649       0.30243       0.00000
                        -----------------------------------------
Total Dipole Moment    :     -0.01383      -0.46386       0.00000
                        -----------------------------------------
Magnitude (a.u.)       :      0.46406
Magnitude (Debye)      :      1.17955

Rotational constants in cm-1:     0.118249     0.086220     0.064706
Rotational constants in MHz :  3545.011284  2584.798379  1939.850476

                             ****ORCA TERMINATED NORMALLY****
TOTAL RUN TIME: 0 days 0 hours 8 minutes 59 seconds 195 msec
