                         Program Version 5.0.3 -  RELEASE  -
|  1> !ri-mp2 aug-cc-pvtz aug-cc-pvtz/c tightscf
|  2> %pal nprocs 16 end
|  3>
|  4> * xyz 0 1
|  5> C     -0.008290   -0.208356   -0.024723
|  6> S     -1.217170   -1.356869    0.021420
|  7> N     -0.162614    1.134737   -0.015493
|  8> N     -1.417749    1.738272    0.008702
|  9> N      1.302148   -0.610414   -0.099972
| 10> N      2.364793    0.297605    0.049141
| 11> H      2.841583    0.157650    0.933495
| 12> H      3.025732    0.182703   -0.708975
| 13> H     -1.510815    2.327204    0.825721
| 14> H     -1.567518    2.280758   -0.832165
| 15> H      0.681476    1.689836   -0.040769
| 16> H      1.447958   -1.599522    0.031666
| 17> *
| 18>
| 19>                          ****END OF INPUT****

CARTESIAN COORDINATES (ANGSTROEM)
---------------------------------
  C     -0.008290   -0.208356   -0.024723
  S     -1.217170   -1.356869    0.021420
  N     -0.162614    1.134737   -0.015493
  N     -1.417749    1.738272    0.008702
  N      1.302148   -0.610414   -0.099972
  N      2.364793    0.297605    0.049141
  H      2.841583    0.157650    0.933495
  H      3.025732    0.182703   -0.708975
  H     -1.510815    2.327204    0.825721
  H     -1.567518    2.280758   -0.832165
  H      0.681476    1.689836   -0.040769
  H      1.447958   -1.599522    0.031666

 Total Charge           Charge          ....    0
 Multiplicity           Mult            ....    1
 Number of Electrons    NEL             ....   56
 Basis Dimension        Dim             ....  418

ORBITAL ENERGIES
----------------

  NO   OCC          E(Eh)            E(eV)
   0   2.0000     -91.874090     -2500.0211
   1   2.0000     -15.622623      -425.1132
   2   2.0000     -15.621890      -425.0932
   3   2.0000     -15.619413      -425.0258
   4   2.0000     -15.595064      -424.3633
   5   2.0000     -11.366841      -309.3075
   6   2.0000      -8.877424      -241.5670
   7   2.0000      -6.559066      -178.4813
   8   2.0000      -6.557046      -178.4263
   9   2.0000      -6.556468      -178.4106
  10   2.0000      -1.358817       -36.9753
  11   2.0000      -1.301942       -35.4276
  12   2.0000      -1.142829       -31.0980
  13   2.0000      -1.058863       -28.8131
  14   2.0000      -0.943845       -25.6833
  15   2.0000      -0.798890       -21.7389
  16   2.0000      -0.755346       -20.5540
  17   2.0000      -0.725040       -19.7293
  18   2.0000      -0.711646       -19.3649
  19   2.0000      -0.701257       -19.0822
  20   2.0000      -0.660261       -17.9666
  21   2.0000      -0.543406       -14.7868
  22   2.0000      -0.504914       -13.7394
  23   2.0000      -0.476324       -12.9614
  24   2.0000      -0.432142       -11.7592
  25   2.0000      -0.413139       -11.2421
  26   2.0000      -0.310941        -8.4611
  27   2.0000      -0.307248        -8.3606
  28   0.0000       0.016339         0.4446
  29   0.0000       0.028056         0.7634
  30   0.0000       0.036459         0.9921
  31   0.0000       0.045814         1.2467
  32   0.0000       0.053633         1.4594

MULLIKEN ATOMIC CHARGES
-----------------------
   0 C :    0.194391
   1 S :   -0.480504
   2 N :    0.337859
   3 N :   -0.612044
   4 N :    0.104226
   5 N :   -0.333899
   6 H :    0.142052
   7 H :    0.132555
   8 H :    0.155443
   9 H :    0.158145
  10 H :    0.135036
  11 H :    0.066741
Sum of atomic charges:    0.0000000

LOEWDIN ATOMIC CHARGES
----------------------
   0 C :   -1.065329
   1 S :    0.806854
   2 N :    0.339140
   3 N :    0.729958
   4 N :    0.351044
   5 N :    0.754257
   6 H :   -0.301200
   7 H :   -0.307744
   8 H :   -0.315644
   9 H :   -0.314630
  10 H :   -0.341951
  11 H :   -0.334757

  Mayer bond orders larger than 0.100000
B(  0-C ,  1-S ) :   1.5314 B(  0-C ,  2-N ) :   1.1573 B(  0-C ,  3-N ) :  -0.1402
B(  0-C ,  4-N ) :   1.1292 B(  2-N ,  3-N ) :   0.6159 B(  2-N , 10-H ) :   1.0475
B(  3-N ,  8-H ) :   0.9811 B(  3-N ,  9-H ) :   0.9788 B(  4-N ,  5-N ) :   0.7464
B(  4-N , 11-H ) :   1.0968 B(  5-N ,  6-H ) :   0.9996 B(  5-N ,  7-H ) :   1.0087

MP2 TOTAL ENERGY:     -657.929607545 Eh
FINAL SINGLE POINT ENERGY      -657.929607545239

DIPOLE MOMENT
-------------
                                X             Y             Z
Electronic contribution:     -2.73661      -3.38337      -0.10788
Nuclear contribution   :      4.92259       5.04873       0.20606
                        -----------------------------------------
Total Dipole Moment    :      2.18598       1.66535       0.09819
                        -----------------------------------------
Magnitude (a.u.)       :      2.74983
Magnitude (Debye)      :      6.98950

Rotational constants in cm-1:     0.116660     0.081681     0.048871
Rotational constants in MHz :  3497.380060  2448.726057  1465.102985

                             ****ORCA TERMINATED NORMALLY****
TOTAL RUN TIME: 0 days 0 hours 2 minutes 41 seconds 267 msec
