                         Program Version 5.0.3 -  RELEASE  -
|  1> !ri-mp2 aug-cc-pvtz aug-cc-pvtz/c tightscf
|  2> %pal nprocs 16 end
|  3>
|  4> * xyz 0 1
|  5> Cl     0.682538   -0.843775    0.000000
|  6> F     -1.364381    0.762010    0.000000
|  7> C      0.000000    0.812042    0.000000
|  8> H      0.338141    1.306914    0.905061
|  9> H      0.338141    1.306914   -0.905061
| 10> *
| 11>
| 12>                          ****END OF INPUT****

CARTESIAN COORDINATES (ANGSTROEM)
---------------------------------
  Cl     0.682538   -0.843775    0.000000
  F     -1.364381    0.762010    0.000000
  C      0.000000    0.812042    0.000000
  H      0.338141    1.306914    0.905061
  H      0.338141    1.306914   -0.905061

 Total Charge           Charge          ....    0
 Multiplicity           Mult            ....    1
 Number of Electrons    NEL             ....   34
 Basis Dimension        Dim             ....  188

ORBITAL ENERGIES
----------------

  NO   OCC          E(Eh)            E(eV)
   0   2.0000    -104.846485     -2853.0179
   1   2.0000     -26.317963      -716.1482
   2   2.0000     -11.391727      -309.9847
   3   2.0000     -10.570880      -287.6483
   4   2.0000      -8.037674      -218.7162
   5   2.0000      -8.035872      -218.6672
   6   2.0000      -8.035744      -218.6637
   7   2.0000      -1.632686       -44.4277
   8   2.0000      -1.142012       -31.0757
   9   2.0000      -0.934666       -25.4336
  10   2.0000      -0.749049       -20.3827
  11   2.0000      -0.731611       -19.9081
  12   2.0000      -0.697866       -18.9899
  13   2.0000      -0.589562       -16.0428
  14   2.0000      -0.541129       -14.7249
  15   2.0000      -0.470151       -12.7935
  16   2.0000      -0.455494       -12.3946
  17   0.0000       0.028348         0.7714
  18   0.0000       0.042362         1.1527
  19   0.0000       0.064401         1.7524
  20   0.0000       0.077915         2.1202
  21   0.0000       0.111270         3.0278

MULLIKEN ATOMIC CHARGES
-----------------------
   0 Cl:   -0.222026
   1 F :   -0.415570
   2 C :   -0.007693
   3 H :    0.322645
   4 H :    0.322645
Sum of atomic charges:   -0.0000000

LOEWDIN ATOMIC CHARGES
----------------------
   0 Cl:    0.828394
   1 F :    0.399795
   2 C :   -0.671480
   3 H :   -0.278354
   4 H :   -0.278354

  Mayer bond orders larger than 0.100000
B(  0-Cl,  2-C ) :   0.9449 B(  1-F ,  2-C ) :   0.7362 B(  2-C ,  3-H ) :   0.8978
B(  2-C ,  4-H ) :   0.8978

MP2 TOTAL ENERGY:     -598.663119405 Eh
FINAL SINGLE POINT ENERGY      -598.663119405370

DIPOLE MOMENT
-------------
                                X             Y             Z
Electronic contribution:     -0.53329      -2.17132       0.00000
Nuclear contribution   :      0.97655       2.86125       0.00000
                        -----------------------------------------
Total Dipole Moment    :      0.44326       0.68993       0.00000
                        -----------------------------------------
Magnitude (a.u.)       :      0.82005
Magnitude (Debye)      :      2.08440

Rotational constants in cm-1:     1.398088     0.185572     0.169260
Rotational constants in MHz : 41913.612521  5563.314275  5074.278063

                             ****ORCA TERMINATED NORMALLY****
TOTAL RUN TIME: 0 days 0 hours 0 minutes 36 seconds 768 msec
