                         Program Version 5.0.3 -  RELEASE  -
|  1> !ri-mp2 aug-cc-pvtz aug-cc-pvtz/c tightscf
|  2> %pal nprocs 16 end
|  3>
|  4> * xyz 0 1
|  5> C    -1.077960     0.000000   -0.148679
|  6> C     1.077960     0.000000   -0.148679
|  7> C     0.000000     1.086408   -0.403813
|  8> C     0.000000    -1.086408   -0.403813
|  9> C     0.000000     2.344796    0.443912
| 10> C     0.000000    -2.344796    0.443912
| 11> H    -1.394186     0.000000    0.897568
| 12> H    -1.966460     0.000000   -0.780419
| 13> H     1.394186     0.000000    0.897568
| 14> H     1.966460     0.000000   -0.780419
| 15> H     0.000000     1.356060   -1.462683
| 16> H     0.000000    -1.356060   -1.462683
| 17> H     0.000000     2.098731    1.508187
| 18> H     0.000000    -2.098731    1.508187
| 19> H     0.881667     2.958111    0.244413
| 20> H    -0.881667     2.958111    0.244413
| 21> H    -0.881667    -2.958111    0.244413
| 22> H     0.881667    -2.958111    0.244413
| 23> *
| 24>
| 25>                          ****END OF INPUT****

CARTESIAN COORDINATES (ANGSTROEM)
---------------------------------
  C     -1.077960    0.000000   -0.148679
  C      1.077960    0.000000   -0.148679
  C      0.000000    1.086408   -0.403813
  C      0.000000   -1.086408   -0.403813
  C      0.000000    2.344796    0.443912
  C      0.000000   -2.344796    0.443912
  H     -1.394186    0.000000    0.897568
  H     -1.966460    0.000000   -0.780419
  H      1.394186    0.000000    0.897568
  H      1.966460    0.000000   -0.780419
  H      0.000000    1.356060   -1.462683
  H      0.000000   -1.356060   -1.462683
  H      0.000000    2.098731    1.508187
  H      0.000000   -2.098731    1.508187
  H      0.881667    2.958111    0.244413
  H     -0.881667    2.958111    0.244413
  H     -0.881667   -2.958111    0.244413
  H      0.881667   -2.958111    0.244413

 Total Charge           Charge          ....    0
 Multiplicity           Mult            ....    1
 Number of Electrons    NEL             ....   48
 Basis Dimension        Dim             ....  552

ORBITAL ENERGIES
----------------

  NO   OCC          E(Eh)            E(eV)
   0   2.0000     -11.220475      -305.3247
   1   2.0000     -11.220448      -305.3239
   2   2.0000     -11.210566      -305.0550
   3   2.0000     -11.210532      -305.0541
   4   2.0000     -11.207775      -304.9791
   5   2.0000     -11.207773      -304.9790
   6   2.0000      -1.133426       -30.8421
   7   2.0000      -1.003728       -27.3128
   8   2.0000      -0.935432       -25.4544
   9   2.0000      -0.892106       -24.2754
  10   2.0000      -0.794991       -21.6328
  11   2.0000      -0.740562       -20.1517
  12   2.0000      -0.652013       -17.7422
  13   2.0000      -0.588979       -16.0269
  14   2.0000      -0.583089       -15.8667
  15   2.0000      -0.578716       -15.7477
  16   2.0000      -0.551608       -15.0100
  17   2.0000      -0.532315       -14.4850
  18   2.0000      -0.527617       -14.3572
  19   2.0000      -0.487944       -13.2776
  20   2.0000      -0.445846       -12.1321
  21   2.0000      -0.444567       -12.0973
  22   2.0000      -0.422049       -11.4845
  23   2.0000      -0.414904       -11.2901
  24   0.0000       0.030622         0.8333
  25   0.0000       0.035468         0.9651
  26   0.0000       0.037197         1.0122
  27   0.0000       0.037671         1.0251
  28   0.0000       0.053750         1.4626

MULLIKEN ATOMIC CHARGES
-----------------------
   0 C :   -0.886276
   1 C :   -0.886276
   2 C :    0.118797
   3 C :    0.118797
   4 C :   -0.981259
   5 C :   -0.981259
   6 H :    0.188009
   7 H :    0.391119
   8 H :    0.188009
   9 H :    0.391119
  10 H :    0.399752
  11 H :    0.399752
  12 H :    0.290696
  13 H :    0.290696
  14 H :    0.239581
  15 H :    0.239581
  16 H :    0.239581
  17 H :    0.239581
Sum of atomic charges:    0.0000000

LOEWDIN ATOMIC CHARGES
----------------------
   0 C :    0.341219
   1 C :    0.341219
   2 C :   -0.005674
   3 C :   -0.005674
   4 C :    0.593098
   5 C :    0.593098
   6 H :   -0.147677
   7 H :   -0.140377
   8 H :   -0.147677
   9 H :   -0.140377
  10 H :   -0.133128
  11 H :   -0.133128
  12 H :   -0.171864
  13 H :   -0.171864
  14 H :   -0.167800
  15 H :   -0.167800
  16 H :   -0.167800
  17 H :   -0.167800

  Mayer bond orders larger than 0.100000
B(  0-C ,  2-C ) :   1.0885 B(  0-C ,  3-C ) :   1.0885 B(  0-C ,  6-H ) :   1.0093
B(  0-C ,  7-H ) :   0.8162 B(  1-C ,  2-C ) :   1.0885 B(  1-C ,  3-C ) :   1.0885
B(  1-C ,  8-H ) :   1.0093 B(  1-C ,  9-H ) :   0.8162 B(  2-C ,  3-C ) :  -0.3910
B(  2-C ,  4-C ) :   0.6997 B(  2-C , 10-H ) :   0.7498 B(  3-C ,  5-C ) :   0.6997
B(  3-C , 11-H ) :   0.7498 B(  4-C , 12-H ) :   0.9419 B(  4-C , 14-H ) :   1.0397
B(  4-C , 15-H ) :   1.0397 B(  5-C , 13-H ) :   0.9419 B(  5-C , 16-H ) :   1.0397
B(  5-C , 17-H ) :   1.0397

MP2 TOTAL ENERGY:     -235.310950764 Eh
FINAL SINGLE POINT ENERGY      -235.310950764146

DIPOLE MOMENT
-------------
                                X             Y             Z
Electronic contribution:      0.00000       0.00000      -1.46319
Nuclear contribution   :      0.00000       0.00000       1.39562
                        -----------------------------------------
Total Dipole Moment    :      0.00000       0.00000      -0.06756
                        -----------------------------------------
Magnitude (a.u.)       :      0.06756
Magnitude (Debye)      :      0.17173

Rotational constants in cm-1:     0.263748     0.073470     0.067146
Rotational constants in MHz :  7906.965452  2202.572342  2012.997180

                             ****ORCA TERMINATED NORMALLY****
TOTAL RUN TIME: 0 days 0 hours 5 minutes 25 seconds 887 msec
