                         Program Version 5.0.3 -  RELEASE  -
|  1> !ri-mp2 aug-cc-pvtz aug-cc-pvtz/c tightscf
|  2> %pal nprocs 16 end
|  3>
|  4> * xyz 0 1
|  5> N      0.042436    1.333654        0.000000
|  6> C      0.000000    0.181234        0.000000
|  7> O     -0.128990   -1.109677        0.000000
|  8> H      0.734862   -1.545563        0.000000
|  9> *
| 10>
| 11>                          ****END OF INPUT****

CARTESIAN COORDINATES (ANGSTROEM)
---------------------------------
  N      0.042436    1.333654    0.000000
  C      0.000000    0.181234    0.000000
  O     -0.128990   -1.109677    0.000000
  H      0.734862   -1.545563    0.000000

 Total Charge           Charge          ....    0
 Multiplicity           Mult            ....    1
 Number of Electrons    NEL             ....   22
 Basis Dimension        Dim             ....  161

ORBITAL ENERGIES
----------------

  NO   OCC          E(Eh)            E(eV)
   0   2.0000     -20.685210      -562.8732
   1   2.0000     -15.578056      -423.9005
   2   2.0000     -11.346969      -308.7667
   3   2.0000      -1.502481       -40.8846
   4   2.0000      -1.227403       -33.3993
   5   2.0000      -0.881341       -23.9825
   6   2.0000      -0.719991       -19.5920
   7   2.0000      -0.673610       -18.3299
   8   2.0000      -0.572349       -15.5744
   9   2.0000      -0.475599       -12.9417
  10   2.0000      -0.459366       -12.5000
  11   0.0000       0.012726         0.3463
  12   0.0000       0.072959         1.9853
  13   0.0000       0.074067         2.0155
  14   0.0000       0.076547         2.0830
  15   0.0000       0.097258         2.6465

MULLIKEN ATOMIC CHARGES
-----------------------
   0 N :   -0.300267
   1 C :    0.211158
   2 O :   -0.169642
   3 H :    0.258751
Sum of atomic charges:    0.0000000

LOEWDIN ATOMIC CHARGES
----------------------
   0 N :    0.169967
   1 C :   -0.503154
   2 O :    0.781444
   3 H :   -0.448257

  Mayer bond orders larger than 0.100000
B(  0-N ,  1-C ) :   2.6589 B(  1-C ,  2-O ) :   1.0735 B(  2-O ,  3-H ) :   0.9426

MP2 TOTAL ENERGY:     -168.379339497 Eh
FINAL SINGLE POINT ENERGY      -168.379339497261

DIPOLE MOMENT
-------------
                                X             Y             Z
Electronic contribution:     -0.12150      -0.01579      -0.00000
Nuclear contribution   :      0.70399      -1.49351       0.00000
                        -----------------------------------------
Total Dipole Moment    :      0.58249      -1.50931      -0.00000
                        -----------------------------------------
Magnitude (a.u.)       :      1.61781
Magnitude (Debye)      :      4.11213

Rotational constants in cm-1:    22.759651     0.355318     0.349856
Rotational constants in MHz : 682317.172791 10652.167830 10488.425118

                             ****ORCA TERMINATED NORMALLY****
TOTAL RUN TIME: 0 days 0 hours 0 minutes 30 seconds 905 msec
