                         Program Version 5.0.3 -  RELEASE  -
|  1> !ri-mp2 aug-cc-pvtz aug-cc-pvtz/c tightscf
|  2> %pal nprocs 16 end
|  3>
|  4> * xyz 0 1
|  5> C      0.000000    0.000000    0.000000
|  6> S      0.000000    0.000000    1.557501
|  7> S      0.000000    0.000000   -1.557501
|  8> *
|  9>
| 10>                          ****END OF INPUT****

CARTESIAN COORDINATES (ANGSTROEM)
---------------------------------
  C      0.000000    0.000000    0.000000
  S      0.000000    0.000000    1.557501
  S      0.000000    0.000000   -1.557501

 Total Charge           Charge          ....    0
 Multiplicity           Mult            ....    1
 Number of Electrons    NEL             ....   38
 Basis Dimension        Dim             ....  146

ORBITAL ENERGIES
----------------

  NO   OCC          E(Eh)            E(eV)
   0   2.0000     -91.992920     -2503.2546
   1   2.0000     -91.992919     -2503.2546
   2   2.0000     -11.404334      -310.3277
   3   2.0000      -8.996225      -244.7997
   4   2.0000      -8.996202      -244.7991
   5   2.0000      -6.677327      -181.6993
   6   2.0000      -6.677314      -181.6990
   7   2.0000      -6.675252      -181.6428
   8   2.0000      -6.675252      -181.6428
   9   2.0000      -6.675250      -181.6428
  10   2.0000      -6.675250      -181.6428
  11   2.0000      -1.142893       -31.0997
  12   2.0000      -1.020423       -27.7671
  13   2.0000      -0.679718       -18.4961
  14   2.0000      -0.582414       -15.8483
  15   2.0000      -0.525397       -14.2968
  16   2.0000      -0.525397       -14.2968
  17   2.0000      -0.373284       -10.1576
  18   2.0000      -0.373284       -10.1576
  19   0.0000       0.040125         1.0919
  20   0.0000       0.040125         1.0919
  21   0.0000       0.050065         1.3623
  22   0.0000       0.056993         1.5509
  23   0.0000       0.089572         2.4374

MULLIKEN ATOMIC CHARGES
-----------------------
   0 C :    0.038212
   1 S :   -0.019106
   2 S :   -0.019106
Sum of atomic charges:   -0.0000000

LOEWDIN ATOMIC CHARGES
----------------------
   0 C :   -1.598036
   1 S :    0.799018
   2 S :    0.799018

  Mayer bond orders larger than 0.100000
B(  0-C ,  1-S ) :   1.9440 B(  0-C ,  2-S ) :   1.9440 B(  1-S ,  2-S ) :   0.2173

MP2 TOTAL ENERGY:     -833.470386052 Eh
FINAL SINGLE POINT ENERGY      -833.470386051705

DIPOLE MOMENT
-------------
                                X             Y             Z
Electronic contribution:     -0.00000      -0.00000       0.00000
Nuclear contribution   :      0.00000       0.00000       0.00000
                        -----------------------------------------
Total Dipole Moment    :     -0.00000      -0.00000       0.00000
                        -----------------------------------------
Magnitude (a.u.)       :      0.00000
Magnitude (Debye)      :      0.00000

Rotational constants in cm-1:     0.000000     0.108379     0.108379
Rotational constants in MHz :     0.000000  3249.132497  3249.132497

                             ****ORCA TERMINATED NORMALLY****
TOTAL RUN TIME: 0 days 0 hours 0 minutes 44 seconds 926 msec
