                         Program Version 5.0.3 -  RELEASE  -
|  1> !ri-mp2 aug-cc-pvtz aug-cc-pvtz/c tightscf
|  2> %pal nprocs 16 end
|  3>
|  4> * xyz 0 1
|  5> H     -2.590075    1.232318   -0.681766
|  6> H     -2.238693    1.101270    1.028530
|  7> C     -1.912106    0.776892    0.039228
|  8> H     -2.427878   -1.128437   -0.935303
|  9> H     -2.435411   -1.206457    0.811001
| 10> C     -1.913085   -0.775183   -0.042566
| 11> H     -0.116781   -1.457884   -1.078076
| 12> H     -0.224491   -2.076259    0.562195
| 13> C     -0.425486   -1.206167   -0.060963
| 14> H     -0.202025    2.158408    0.251061
| 15> H     -0.233592    1.261134   -1.263701
| 16> C     -0.451026    1.195668   -0.195623
| 17> H      0.319079    0.094769    1.494721
| 18> C      0.345505    0.036292    0.405726
| 19> H      2.525374    1.067170    0.480115
| 20> S      2.110105   -0.075690   -0.096475
| 21> *
| 22>
| 23>                          ****END OF INPUT****

CARTESIAN COORDINATES (ANGSTROEM)
---------------------------------
  H     -2.590075    1.232318   -0.681766
  H     -2.238693    1.101270    1.028530
  C     -1.912106    0.776892    0.039228
  H     -2.427878   -1.128437   -0.935303
  H     -2.435411   -1.206457    0.811001
  C     -1.913085   -0.775183   -0.042566
  H     -0.116781   -1.457884   -1.078076
  H     -0.224491   -2.076259    0.562195
  C     -0.425486   -1.206167   -0.060963
  H     -0.202025    2.158408    0.251061
  H     -0.233592    1.261134   -1.263701
  C     -0.451026    1.195668   -0.195623
  H      0.319079    0.094769    1.494721
  C      0.345505    0.036292    0.405726
  H      2.525374    1.067170    0.480115
  S      2.110105   -0.075690   -0.096475

 Total Charge           Charge          ....    0
 Multiplicity           Mult            ....    1
 Number of Electrons    NEL             ....   56
 Basis Dimension        Dim             ....  510

ORBITAL ENERGIES
----------------

  NO   OCC          E(Eh)            E(eV)
   0   2.0000     -91.946848     -2502.0009
   1   2.0000     -11.261245      -306.4340
   2   2.0000     -11.226416      -305.4863
   3   2.0000     -11.224089      -305.4230
   4   2.0000     -11.223523      -305.4076
   5   2.0000     -11.222860      -305.3895
   6   2.0000      -8.947712      -243.4796
   7   2.0000      -6.629041      -180.3854
   8   2.0000      -6.628023      -180.3577
   9   2.0000      -6.627063      -180.3315
  10   2.0000      -1.135577       -30.9006
  11   2.0000      -1.010140       -27.4873
  12   2.0000      -0.971175       -26.4270
  13   2.0000      -0.903992       -24.5989
  14   2.0000      -0.784902       -21.3583
  15   2.0000      -0.770968       -20.9791
  16   2.0000      -0.664372       -18.0785
  17   2.0000      -0.633964       -17.2510
  18   2.0000      -0.591212       -16.0877
  19   2.0000      -0.582333       -15.8461
  20   2.0000      -0.525985       -14.3128
  21   2.0000      -0.488907       -13.3038
  22   2.0000      -0.483398       -13.1539
  23   2.0000      -0.478122       -13.0103
  24   2.0000      -0.468441       -12.7469
  25   2.0000      -0.462324       -12.5805
  26   2.0000      -0.434942       -11.8354
  27   2.0000      -0.351491        -9.5646
  28   0.0000       0.029257         0.7961
  29   0.0000       0.035607         0.9689
  30   0.0000       0.037067         1.0086
  31   0.0000       0.040963         1.1147
  32   0.0000       0.054095         1.4720

MULLIKEN ATOMIC CHARGES
-----------------------
   0 H :    0.346959
   1 H :    0.175477
   2 C :   -0.519843
   3 H :    0.280885
   4 H :    0.250769
   5 C :   -0.603022
   6 H :    0.236255
   7 H :    0.367160
   8 C :   -0.574101
   9 H :    0.361390
  10 H :    0.222160
  11 C :   -0.587191
  12 H :    0.283879
  13 C :    0.189385
  14 H :    0.037335
  15 S :   -0.467498
Sum of atomic charges:    0.0000000

LOEWDIN ATOMIC CHARGES
----------------------
   0 H :   -0.149490
   1 H :   -0.151660
   2 C :    0.310507
   3 H :   -0.152778
   4 H :   -0.153440
   5 C :    0.321646
   6 H :   -0.167144
   7 H :   -0.151301
   8 C :    0.229450
   9 H :   -0.148310
  10 H :   -0.158216
  11 C :    0.233291
  12 H :   -0.196761
  13 C :   -0.399875
  14 H :   -0.573812
  15 S :    1.307893

  Mayer bond orders larger than 0.100000
B(  0-H ,  2-C ) :   0.8595 B(  1-H ,  2-C ) :   1.0444 B(  2-C ,  5-C ) :   0.9759
B(  2-C , 11-C ) :   0.9370 B(  3-H ,  5-C ) :   0.9329 B(  4-H ,  5-C ) :   0.9752
B(  5-C ,  8-C ) :   0.9672 B(  6-H ,  8-C ) :   1.0112 B(  7-H ,  8-C ) :   0.8398
B(  8-C , 13-C ) :   0.9510 B(  9-H , 11-C ) :   0.8642 B( 10-H , 11-C ) :   1.0228
B( 11-C , 13-C ) :   0.8964 B( 12-H , 13-C ) :   0.9239 B( 13-C , 15-S ) :   0.6602
B( 14-H , 15-S ) :   1.1375

MP2 TOTAL ENERGY:     -593.834904491 Eh
FINAL SINGLE POINT ENERGY      -593.834904491002

DIPOLE MOMENT
-------------
                                X             Y             Z
Electronic contribution:      7.25157      -0.79607      -0.41712
Nuclear contribution   :     -7.91361       1.07891       0.69133
                        -----------------------------------------
Total Dipole Moment    :     -0.66204       0.28284       0.27420
                        -----------------------------------------
Magnitude (a.u.)       :      0.77038
Magnitude (Debye)      :      1.95815

Rotational constants in cm-1:     0.210068     0.060617     0.050278
Rotational constants in MHz :  6297.681656  1817.248691  1507.289981

                             ****ORCA TERMINATED NORMALLY****
TOTAL RUN TIME: 0 days 0 hours 4 minutes 34 seconds 764 msec
