                         Program Version 5.0.3 -  RELEASE  -
|  1> !ri-mp2 aug-cc-pvtz aug-cc-pvtz/c tightscf
|  2> %pal nprocs 16 end
|  3>
|  4> * xyz 0 1
|  5> C      0.000000    0.000000   -0.151984
|  6> F      0.000000    0.000000    1.114358
|  7> N      0.000000    0.000000   -1.302474
|  8> *
|  9>
| 10>                          ****END OF INPUT****

CARTESIAN COORDINATES (ANGSTROEM)
---------------------------------
  C      0.000000    0.000000   -0.151984
  F      0.000000    0.000000    1.114358
  N      0.000000    0.000000   -1.302474

 Total Charge           Charge          ....    0
 Multiplicity           Mult            ....    1
 Number of Electrons    NEL             ....   22
 Basis Dimension        Dim             ....  138

ORBITAL ENERGIES
----------------

  NO   OCC          E(Eh)            E(eV)
   0   2.0000     -26.441501      -719.5098
   1   2.0000     -15.609631      -424.7596
   2   2.0000     -11.396364      -310.1108
   3   2.0000      -1.764331       -48.0099
   4   2.0000      -1.261188       -34.3187
   5   2.0000      -0.926575       -25.2134
   6   2.0000      -0.813758       -22.1435
   7   2.0000      -0.813758       -22.1435
   8   2.0000      -0.600511       -16.3407
   9   2.0000      -0.504861       -13.7380
  10   2.0000      -0.504861       -13.7380
  11   0.0000       0.043235         1.1765
  12   0.0000       0.075467         2.0536
  13   0.0000       0.075467         2.0536
  14   0.0000       0.076529         2.0825
  15   0.0000       0.146220         3.9788

MULLIKEN ATOMIC CHARGES
-----------------------
   0 C :    0.270198
   1 F :   -0.092418
   2 N :   -0.177780
Sum of atomic charges:    0.0000000

LOEWDIN ATOMIC CHARGES
----------------------
   0 C :   -0.629121
   1 F :    0.491643
   2 N :    0.137479

  Mayer bond orders larger than 0.100000
B(  0-C ,  1-F ) :   1.0637 B(  0-C ,  2-N ) :   2.6155

MP2 TOTAL ENERGY:     -192.369902081 Eh
FINAL SINGLE POINT ENERGY      -192.369902081313

DIPOLE MOMENT
-------------
                                X             Y             Z
Electronic contribution:     -0.00000      -0.00000       1.92092
Nuclear contribution   :      0.00000       0.00000      -1.01713
                        -----------------------------------------
Total Dipole Moment    :     -0.00000      -0.00000       0.90379
                        -----------------------------------------
Magnitude (a.u.)       :      0.90379
Magnitude (Debye)      :      2.29724

Rotational constants in cm-1:     0.000000     0.354122     0.354122
Rotational constants in MHz :     0.000000 10616.299095 10616.299095

                             ****ORCA TERMINATED NORMALLY****
TOTAL RUN TIME: 0 days 0 hours 0 minutes 30 seconds 251 msec
