                         Program Version 5.0.3 -  RELEASE  -
|  1> !ri-mp2 aug-cc-pvtz aug-cc-pvtz/c tightscf
|  2> %pal nprocs 16 end
|  3>
|  4> * xyz 0 1
|  5> C     -0.252782   -1.416887    0.679421
|  6> C     -0.252782   -1.416887   -0.679421
|  7> C      0.246301   -0.359998    1.524391
|  8> C      0.246301   -0.359998   -1.524391
|  9> C      0.246301    0.949673    1.219657
| 10> C      0.246301    0.949673   -1.219657
| 11> C     -0.452117    1.486050    0.000000
| 12> H     -0.530553   -2.340484    1.174711
| 13> H     -0.530553   -2.340484   -1.174711
| 14> H      0.673266   -0.666831    2.473189
| 15> H      0.673266   -0.666831   -2.473189
| 16> H      0.749061    1.649053    1.876836
| 17> H      0.749061    1.649053   -1.876836
| 18> H     -1.495770    1.152463    0.000000
| 19> H     -0.452905    2.574307    0.000000
| 20> *
| 21>
| 22>                          ****END OF INPUT****

CARTESIAN COORDINATES (ANGSTROEM)
---------------------------------
  C     -0.252782   -1.416887    0.679421
  C     -0.252782   -1.416887   -0.679421
  C      0.246301   -0.359998    1.524391
  C      0.246301   -0.359998   -1.524391
  C      0.246301    0.949673    1.219657
  C      0.246301    0.949673   -1.219657
  C     -0.452117    1.486050    0.000000
  H     -0.530553   -2.340484    1.174711
  H     -0.530553   -2.340484   -1.174711
  H      0.673266   -0.666831    2.473189
  H      0.673266   -0.666831   -2.473189
  H      0.749061    1.649053    1.876836
  H      0.749061    1.649053   -1.876836
  H     -1.495770    1.152463    0.000000
  H     -0.452905    2.574307    0.000000

 Total Charge           Charge          ....    0
 Multiplicity           Mult            ....    1
 Number of Electrons    NEL             ....   50
 Basis Dimension        Dim             ....  506

ORBITAL ENERGIES
----------------

  NO   OCC          E(Eh)            E(eV)
   0   2.0000     -11.237189      -305.7795
   1   2.0000     -11.237147      -305.7783
   2   2.0000     -11.235528      -305.7343
   3   2.0000     -11.234041      -305.6938
   4   2.0000     -11.231042      -305.6122
   5   2.0000     -11.226097      -305.4776
   6   2.0000     -11.226094      -305.4776
   7   2.0000      -1.134340       -30.8670
   8   2.0000      -1.041269       -28.3344
   9   2.0000      -1.037936       -28.2437
  10   2.0000      -0.903679       -24.5903
  11   2.0000      -0.857985       -23.3469
  12   2.0000      -0.735256       -20.0073
  13   2.0000      -0.695252       -18.9188
  14   2.0000      -0.689829       -18.7712
  15   2.0000      -0.617643       -16.8069
  16   2.0000      -0.615659       -16.7529
  17   2.0000      -0.588350       -16.0098
  18   2.0000      -0.530136       -14.4257
  19   2.0000      -0.526903       -14.3378
  20   2.0000      -0.503921       -13.7124
  21   2.0000      -0.485827       -13.2200
  22   2.0000      -0.437547       -11.9063
  23   2.0000      -0.352130        -9.5819
  24   2.0000      -0.303076        -8.2471
  25   0.0000       0.029498         0.8027
  26   0.0000       0.033657         0.9159
  27   0.0000       0.035667         0.9705
  28   0.0000       0.043057         1.1717
  29   0.0000       0.047974         1.3054

MULLIKEN ATOMIC CHARGES
-----------------------
   0 C :   -0.408843
   1 C :   -0.408843
   2 C :   -0.267584
   3 C :   -0.267584
   4 C :   -0.728733
   5 C :   -0.728733
   6 C :    0.141586
   7 H :    0.382896
   8 H :    0.382896
   9 H :    0.219908
  10 H :    0.219908
  11 H :    0.522655
  12 H :    0.522655
  13 H :    0.213553
  14 H :    0.204263
Sum of atomic charges:    0.0000000

LOEWDIN ATOMIC CHARGES
----------------------
   0 C :    0.195485
   1 C :    0.195485
   2 C :    0.182803
   3 C :    0.182803
   4 C :    0.231518
   5 C :    0.231518
   6 C :    0.240337
   7 H :   -0.195062
   8 H :   -0.195062
   9 H :   -0.195093
  10 H :   -0.195093
  11 H :   -0.181488
  12 H :   -0.181488
  13 H :   -0.152729
  14 H :   -0.163936

  Mayer bond orders larger than 0.100000
B(  0-C ,  1-C ) :   1.5846 B(  0-C ,  2-C ) :   0.8176 B(  0-C ,  5-C ) :   0.1663
B(  0-C ,  7-H ) :   0.8738 B(  0-C ,  9-H ) :  -0.1035 B(  1-C ,  3-C ) :   0.8176
B(  1-C ,  4-C ) :   0.1663 B(  1-C ,  8-H ) :   0.8738 B(  1-C , 10-H ) :  -0.1035
B(  2-C ,  4-C ) :   1.4903 B(  2-C ,  9-H ) :   1.0781 B(  3-C ,  5-C ) :   1.4903
B(  3-C , 10-H ) :   1.0781 B(  4-C ,  5-C ) :   0.4680 B(  4-C ,  6-C ) :   0.6890
B(  4-C , 11-H ) :   0.6530 B(  5-C ,  6-C ) :   0.6890 B(  5-C , 12-H ) :   0.6530
B(  6-C , 13-H ) :   0.9153 B(  6-C , 14-H ) :   1.0136

MP2 TOTAL ENERGY:     -270.917061179 Eh
FINAL SINGLE POINT ENERGY      -270.917061179448

DIPOLE MOMENT
-------------
                                X             Y             Z
Electronic contribution:      0.21010      -0.87861      -0.00000
Nuclear contribution   :     -0.16829       1.02957       0.00000
                        -----------------------------------------
Total Dipole Moment    :      0.04181       0.15096      -0.00000
                        -----------------------------------------
Magnitude (a.u.)       :      0.15664
Magnitude (Debye)      :      0.39815

Rotational constants in cm-1:     0.123410     0.123105     0.067415
Rotational constants in MHz :  3699.724860  3690.591503  2021.061337

                             ****ORCA TERMINATED NORMALLY****
TOTAL RUN TIME: 0 days 0 hours 4 minutes 49 seconds 149 msec
