                         Program Version 5.0.3 -  RELEASE  -
|  1> !ri-mp2 aug-cc-pvtz aug-cc-pvtz/c tightscf
|  2> %pal nprocs 16 end
|  3>
|  4> * xyz 0 1
|  5> C      0.783809    0.783809    0.783809
|  6> C     -0.783809    0.783809    0.783809
|  7> C      0.783809    0.783809   -0.783809
|  8> C     -0.783809    0.783809   -0.783809
|  9> C      0.783809   -0.783809    0.783809
| 10> C     -0.783809   -0.783809    0.783809
| 11> C      0.783809   -0.783809   -0.783809
| 12> C     -0.783809   -0.783809   -0.783809
| 13> H      1.410999    1.410999    1.410999
| 14> H     -1.410999    1.410999    1.410999
| 15> H      1.410999    1.410999   -1.410999
| 16> H     -1.410999    1.410999   -1.410999
| 17> H      1.410999   -1.410999    1.410999
| 18> H     -1.410999   -1.410999    1.410999
| 19> H      1.410999   -1.410999   -1.410999
| 20> H     -1.410999   -1.410999   -1.410999
| 21> *
| 22>
| 23>                          ****END OF INPUT****

CARTESIAN COORDINATES (ANGSTROEM)
---------------------------------
  C      0.783809    0.783809    0.783809
  C     -0.783809    0.783809    0.783809
  C      0.783809    0.783809   -0.783809
  C     -0.783809    0.783809   -0.783809
  C      0.783809   -0.783809    0.783809
  C     -0.783809   -0.783809    0.783809
  C      0.783809   -0.783809   -0.783809
  C     -0.783809   -0.783809   -0.783809
  H      1.410999    1.410999    1.410999
  H     -1.410999    1.410999    1.410999
  H      1.410999    1.410999   -1.410999
  H     -1.410999    1.410999   -1.410999
  H      1.410999   -1.410999    1.410999
  H     -1.410999   -1.410999    1.410999
  H      1.410999   -1.410999   -1.410999
  H     -1.410999   -1.410999   -1.410999

 Total Charge           Charge          ....    0
 Multiplicity           Mult            ....    1
 Number of Electrons    NEL             ....   56
 Basis Dimension        Dim             ....  552

ORBITAL ENERGIES
----------------

  NO   OCC          E(Eh)            E(eV)
   0   2.0000     -11.221496      -305.3524
   1   2.0000     -11.221004      -305.3391
   2   2.0000     -11.221004      -305.3391
   3   2.0000     -11.221004      -305.3391
   4   2.0000     -11.220501      -305.3254
   5   2.0000     -11.220501      -305.3254
   6   2.0000     -11.220501      -305.3254
   7   2.0000     -11.219980      -305.3112
   8   2.0000      -1.242898       -33.8210
   9   2.0000      -0.977731       -26.6054
  10   2.0000      -0.977731       -26.6054
  11   2.0000      -0.977731       -26.6054
  12   2.0000      -0.767456       -20.8835
  13   2.0000      -0.767456       -20.8835
  14   2.0000      -0.767456       -20.8835
  15   2.0000      -0.709826       -19.3154
  16   2.0000      -0.641327       -17.4514
  17   2.0000      -0.579714       -15.7748
  18   2.0000      -0.579714       -15.7748
  19   2.0000      -0.579714       -15.7748
  20   2.0000      -0.578762       -15.7489
  21   2.0000      -0.578762       -15.7489
  22   2.0000      -0.390030       -10.6133
  23   2.0000      -0.390030       -10.6133
  24   2.0000      -0.390030       -10.6133
  25   2.0000      -0.383066       -10.4238
  26   2.0000      -0.383066       -10.4238
  27   2.0000      -0.383066       -10.4238
  28   0.0000       0.027723         0.7544
  29   0.0000       0.033898         0.9224
  30   0.0000       0.033898         0.9224
  31   0.0000       0.033898         0.9224
  32   0.0000       0.047520         1.2931

MULLIKEN ATOMIC CHARGES
-----------------------
   0 C :   -0.652077
   1 C :   -0.652077
   2 C :   -0.652077
   3 C :   -0.652077
   4 C :   -0.652077
   5 C :   -0.652077
   6 C :   -0.652077
   7 C :   -0.652077
   8 H :    0.652077
   9 H :    0.652077
  10 H :    0.652077
  11 H :    0.652077
  12 H :    0.652077
  13 H :    0.652077
  14 H :    0.652077
  15 H :    0.652077
Sum of atomic charges:   -0.0000000

LOEWDIN ATOMIC CHARGES
----------------------
   0 C :    0.137598
   1 C :    0.137598
   2 C :    0.137598
   3 C :    0.137598
   4 C :    0.137598
   5 C :    0.137598
   6 C :    0.137598
   7 C :    0.137598
   8 H :   -0.137598
   9 H :   -0.137598
  10 H :   -0.137598
  11 H :   -0.137598
  12 H :   -0.137598
  13 H :   -0.137598
  14 H :   -0.137598
  15 H :   -0.137598

  Mayer bond orders larger than 0.100000
B(  0-C ,  1-C ) :   1.0635 B(  0-C ,  2-C ) :   1.0635 B(  0-C ,  4-C ) :   1.0635
B(  0-C ,  8-H ) :   0.4200 B(  1-C ,  3-C ) :   1.0635 B(  1-C ,  5-C ) :   1.0635
B(  1-C ,  9-H ) :   0.4200 B(  2-C ,  3-C ) :   1.0635 B(  2-C ,  6-C ) :   1.0635
B(  2-C , 10-H ) :   0.4200 B(  3-C ,  7-C ) :   1.0635 B(  3-C , 11-H ) :   0.4200
B(  4-C ,  5-C ) :   1.0635 B(  4-C ,  6-C ) :   1.0635 B(  4-C , 12-H ) :   0.4200
B(  5-C ,  7-C ) :   1.0635 B(  5-C , 13-H ) :   0.4200 B(  6-C ,  7-C ) :   1.0635
B(  6-C , 14-H ) :   0.4200 B(  7-C , 15-H ) :   0.4200

MP2 TOTAL ENERGY:     -308.799448833 Eh
FINAL SINGLE POINT ENERGY      -308.799448833497

DIPOLE MOMENT
-------------
                                X             Y             Z
Electronic contribution:      0.00000       0.00000       0.00000
Nuclear contribution   :      0.00000       0.00000       0.00000
                        -----------------------------------------
Total Dipole Moment    :      0.00000       0.00000       0.00000
                        -----------------------------------------
Magnitude (a.u.)       :      0.00000
Magnitude (Debye)      :      0.00000

Rotational constants in cm-1:     0.112254     0.112254     0.112254
Rotational constants in MHz :  3365.290272  3365.290272  3365.290272

                             ****ORCA TERMINATED NORMALLY****
TOTAL RUN TIME: 0 days 0 hours 6 minutes 36 seconds 598 msec
