                         Program Version 5.0.3 -  RELEASE  -
|  1> !ri-mp2 aug-cc-pvtz aug-cc-pvtz/c tightscf
|  2> %pal nprocs 16 end
|  3>
|  4> * xyz 0 1
|  5> C     -0.270459   -0.778426    0.000000
|  6> C      0.336510    1.596630    0.743093
|  7> C      0.336510    1.596630   -0.743093
|  8> C      0.710072    0.327080    0.000000
|  9> O     -1.472192   -0.658476    0.000000
| 10> O      0.336510   -1.992090    0.000000
| 11> H      1.135578    2.100682    1.266594
| 12> H     -0.620002    1.590351    1.244203
| 13> H     -0.620002    1.590351   -1.244203
| 14> H      1.135578    2.100682   -1.266594
| 15> H      1.746444    0.027754    0.000000
| 16> H     -0.367938   -2.656783    0.000000
| 17> *
| 18>
| 19>                          ****END OF INPUT****

CARTESIAN COORDINATES (ANGSTROEM)
---------------------------------
  C     -0.270459   -0.778426    0.000000
  C      0.336510    1.596630    0.743093
  C      0.336510    1.596630   -0.743093
  C      0.710072    0.327080    0.000000
  O     -1.472192   -0.658476    0.000000
  O      0.336510   -1.992090    0.000000
  H      1.135578    2.100682    1.266594
  H     -0.620002    1.590351    1.244203
  H     -0.620002    1.590351   -1.244203
  H      1.135578    2.100682   -1.266594
  H      1.746444    0.027754    0.000000
  H     -0.367938   -2.656783    0.000000

 Total Charge           Charge          ....    0
 Multiplicity           Mult            ....    1
 Number of Electrons    NEL             ....   46
 Basis Dimension        Dim             ....  414

ORBITAL ENERGIES
----------------

  NO   OCC          E(Eh)            E(eV)
   0   2.0000     -20.611883      -560.8778
   1   2.0000     -20.544146      -559.0346
   2   2.0000     -11.386303      -309.8371
   3   2.0000     -11.253341      -306.2190
   4   2.0000     -11.246854      -306.0424
   5   2.0000     -11.246137      -306.0230
   6   2.0000      -1.462217       -39.7889
   7   2.0000      -1.358766       -36.9739
   8   2.0000      -1.164353       -31.6837
   9   2.0000      -0.935152       -25.4468
  10   2.0000      -0.839776       -22.8515
  11   2.0000      -0.781227       -21.2583
  12   2.0000      -0.724142       -19.7049
  13   2.0000      -0.700462       -19.0605
  14   2.0000      -0.649467       -17.6729
  15   2.0000      -0.629890       -17.1402
  16   2.0000      -0.615996       -16.7621
  17   2.0000      -0.560712       -15.2577
  18   2.0000      -0.534018       -14.5314
  19   2.0000      -0.488357       -13.2889
  20   2.0000      -0.459899       -12.5145
  21   2.0000      -0.446105       -12.1391
  22   2.0000      -0.430808       -11.7229
  23   0.0000       0.028066         0.7637
  24   0.0000       0.035157         0.9567
  25   0.0000       0.039769         1.0822
  26   0.0000       0.042512         1.1568
  27   0.0000       0.055581         1.5124

MULLIKEN ATOMIC CHARGES
-----------------------
   0 C :    0.663461
   1 C :   -0.871401
   2 C :   -0.871401
   3 C :    0.159157
   4 O :   -0.831157
   5 O :   -0.443588
   6 H :    0.395984
   7 H :    0.385297
   8 H :    0.385297
   9 H :    0.395984
  10 H :    0.384563
  11 H :    0.247806
Sum of atomic charges:   -0.0000000

LOEWDIN ATOMIC CHARGES
----------------------
   0 C :   -0.789674
   1 C :    0.368920
   2 C :    0.368920
   3 C :    0.021530
   4 O :    0.457764
   5 O :    0.831169
   6 H :   -0.152972
   7 H :   -0.159612
   8 H :   -0.159612
   9 H :   -0.152972
  10 H :   -0.157410
  11 H :   -0.476052

  Mayer bond orders larger than 0.100000
B(  0-C ,  3-C ) :   0.6573 B(  0-C ,  4-O ) :   1.4114 B(  0-C ,  5-O ) :   0.9282
B(  1-C ,  2-C ) :   1.1713 B(  1-C ,  3-C ) :   0.6565 B(  1-C ,  6-H ) :   0.7870
B(  1-C ,  7-H ) :   0.8244 B(  2-C ,  3-C ) :   0.6565 B(  2-C ,  8-H ) :   0.8244
B(  2-C ,  9-H ) :   0.7870 B(  3-C , 10-H ) :   0.8810 B(  5-O , 11-H ) :   0.9558

MP2 TOTAL ENERGY:     -305.944678012 Eh
FINAL SINGLE POINT ENERGY      -305.944678011597

DIPOLE MOMENT
-------------
                                X             Y             Z
Electronic contribution:     -1.66555      -4.54051      -0.00000
Nuclear contribution   :      2.40013       4.72775       0.00000
                        -----------------------------------------
Total Dipole Moment    :      0.73458       0.18724      -0.00000
                        -----------------------------------------
Magnitude (a.u.)       :      0.75807
Magnitude (Debye)      :      1.92685

Rotational constants in cm-1:     0.255236     0.090177     0.078867
Rotational constants in MHz :  7651.768849  2703.453404  2364.386855

                             ****ORCA TERMINATED NORMALLY****
TOTAL RUN TIME: 0 days 0 hours 2 minutes 26 seconds 66 msec
