                         Program Version 5.0.3 -  RELEASE  -
|  1> !ri-mp2 aug-cc-pvtz aug-cc-pvtz/c tightscf
|  2> %pal nprocs 16 end
|  3>
|  4> * xyz 0 1
|  5> Cl     0.000000    0.000000    0.978264
|  6> C      0.000000    0.000000   -0.658524
|  7> N      0.000000    0.000000   -1.811335
|  8> *
|  9>
| 10>                          ****END OF INPUT****

CARTESIAN COORDINATES (ANGSTROEM)
---------------------------------
  Cl     0.000000    0.000000    0.978264
  C      0.000000    0.000000   -0.658524
  N      0.000000    0.000000   -1.811335

 Total Charge           Charge          ....    0
 Multiplicity           Mult            ....    1
 Number of Electrons    NEL             ....   30
 Basis Dimension        Dim             ....  142

ORBITAL ENERGIES
----------------

  NO   OCC          E(Eh)            E(eV)
   0   2.0000    -104.934901     -2855.4238
   1   2.0000     -15.604703      -424.6256
   2   2.0000     -11.345630      -308.7303
   3   2.0000     -10.657777      -290.0129
   4   2.0000      -8.125036      -221.0935
   5   2.0000      -8.122281      -221.0185
   6   2.0000      -8.122281      -221.0185
   7   2.0000      -1.274069       -34.6692
   8   2.0000      -1.196065       -32.5466
   9   2.0000      -0.754588       -20.5334
  10   2.0000      -0.599351       -16.3092
  11   2.0000      -0.599351       -16.3092
  12   2.0000      -0.587141       -15.9769
  13   2.0000      -0.468138       -12.7387
  14   2.0000      -0.468138       -12.7387
  15   0.0000       0.039671         1.0795
  16   0.0000       0.072861         1.9826
  17   0.0000       0.087032         2.3683
  18   0.0000       0.087032         2.3683
  19   0.0000       0.110178         2.9981

MULLIKEN ATOMIC CHARGES
-----------------------
   0 Cl:    0.118965
   1 C :    0.074669
   2 N :   -0.193633
Sum of atomic charges:   -0.0000000

LOEWDIN ATOMIC CHARGES
----------------------
   0 Cl:    0.964030
   1 C :   -1.054544
   2 N :    0.090514

  Mayer bond orders larger than 0.100000
B(  0-Cl,  1-C ) :   1.0718 B(  1-C ,  2-N ) :   2.7100

MP2 TOTAL ENERGY:     -552.368520134 Eh
FINAL SINGLE POINT ENERGY      -552.368520134208

DIPOLE MOMENT
-------------
                                X             Y             Z
Electronic contribution:     -0.00000      -0.00000       2.50053
Nuclear contribution   :      0.00000       0.00000      -1.29253
                        -----------------------------------------
Total Dipole Moment    :     -0.00000      -0.00000       1.20799
                        -----------------------------------------
Magnitude (a.u.)       :      1.20799
Magnitude (Debye)      :      3.07048

Rotational constants in cm-1:     0.000000     0.198182     0.198182
Rotational constants in MHz :     0.000000  5941.359671  5941.359671

                             ****ORCA TERMINATED NORMALLY****
TOTAL RUN TIME: 0 days 0 hours 0 minutes 32 seconds 342 msec
