                         Program Version 5.0.3 -  RELEASE  -
|  1> !ri-mp2 aug-cc-pvtz aug-cc-pvtz/c tightscf
|  2> %pal nprocs 16 end
|  3>
|  4> * xyz 0 1
|  5> N      0.132502    1.611883    0.297686
|  6> C      0.232379    0.161878    0.470580
|  7> C      1.642693   -0.320889    0.078786
|  8> O      2.061362   -1.407821    0.371619
|  9> O      2.340267    0.562288   -0.647593
| 10> H      1.773757    1.361340   -0.710982
| 11> C     -0.766023   -0.575233   -0.432100
| 12> S     -2.526785   -0.165977   -0.120311
| 13> H      0.072670   -0.163602    1.501691
| 14> H     -0.615582   -1.646562   -0.340585
| 15> H     -0.604235   -0.298474   -1.474310
| 16> H     -2.603154   -0.697517    1.114290
| 17> H     -0.830276    1.882258    0.128698
| 18> H      0.440533    2.104739    1.126558
| 19> *
| 20>
| 21>                          ****END OF INPUT****

CARTESIAN COORDINATES (ANGSTROEM)
---------------------------------
  N      0.132502    1.611883    0.297686
  C      0.232379    0.161878    0.470580
  C      1.642693   -0.320889    0.078786
  O      2.061362   -1.407821    0.371619
  O      2.340267    0.562288   -0.647593
  H      1.773757    1.361340   -0.710982
  C     -0.766023   -0.575233   -0.432100
  S     -2.526785   -0.165977   -0.120311
  H      0.072670   -0.163602    1.501691
  H     -0.615582   -1.646562   -0.340585
  H     -0.604235   -0.298474   -1.474310
  H     -2.603154   -0.697517    1.114290
  H     -0.830276    1.882258    0.128698
  H      0.440533    2.104739    1.126558

 Total Charge           Charge          ....    0
 Multiplicity           Mult            ....    1
 Number of Electrons    NEL             ....   64
 Basis Dimension        Dim             ....  487

ORBITAL ENERGIES
----------------

  NO   OCC          E(Eh)            E(eV)
   0   2.0000     -91.977632     -2502.8386
   1   2.0000     -20.605428      -560.7022
   2   2.0000     -20.544882      -559.0547
   3   2.0000     -15.585719      -424.1090
   4   2.0000     -11.383303      -309.7554
   5   2.0000     -11.304847      -307.6205
   6   2.0000     -11.291056      -307.2453
   7   2.0000      -8.978488      -244.3171
   8   2.0000      -6.659794      -181.2222
   9   2.0000      -6.658777      -181.1945
  10   2.0000      -6.657807      -181.1681
  11   2.0000      -1.460044       -39.7298
  12   2.0000      -1.365076       -37.1456
  13   2.0000      -1.231978       -33.5238
  14   2.0000      -1.076961       -29.3056
  15   2.0000      -0.976386       -26.5688
  16   2.0000      -0.864806       -23.5326
  17   2.0000      -0.812654       -22.1134
  18   2.0000      -0.739822       -20.1316
  19   2.0000      -0.714713       -19.4483
  20   2.0000      -0.682569       -18.5737
  21   2.0000      -0.644649       -17.5418
  22   2.0000      -0.627180       -17.0664
  23   2.0000      -0.600771       -16.3478
  24   2.0000      -0.580429       -15.7943
  25   2.0000      -0.561790       -15.2871
  26   2.0000      -0.533285       -14.5114
  27   2.0000      -0.490877       -13.3574
  28   2.0000      -0.477767       -13.0007
  29   2.0000      -0.460274       -12.5247
  30   2.0000      -0.428830       -11.6691
  31   2.0000      -0.383870       -10.4456
  32   0.0000       0.020988         0.5711
  33   0.0000       0.033300         0.9061
  34   0.0000       0.036316         0.9882
  35   0.0000       0.044234         1.2037
  36   0.0000       0.055232         1.5029

MULLIKEN ATOMIC CHARGES
-----------------------
   0 N :   -0.569915
   1 C :    0.464239
   2 C :    0.678917
   3 O :   -0.790681
   4 O :   -0.527385
   5 H :    0.263751
   6 C :   -0.478532
   7 S :   -0.393275
   8 H :    0.371648
   9 H :    0.283212
  10 H :    0.323729
  11 H :    0.140612
  12 H :    0.165455
  13 H :    0.068227
Sum of atomic charges:   -0.0000000

LOEWDIN ATOMIC CHARGES
----------------------
   0 N :    0.848005
   1 C :   -0.194924
   2 C :   -0.793806
   3 O :    0.437498
   4 O :    0.843352
   5 H :   -0.578045
   6 C :   -0.076721
   7 S :    1.309141
   8 H :   -0.151823
   9 H :   -0.216958
  10 H :   -0.218565
  11 H :   -0.559343
  12 H :   -0.361399
  13 H :   -0.286410

  Mayer bond orders larger than 0.100000
B(  0-N ,  1-C ) :   0.5312 B(  0-N ,  2-C ) :   0.1059 B(  0-N , 12-H ) :   0.9620
B(  0-N , 13-H ) :   1.0354 B(  1-C ,  2-C ) :   0.7350 B(  1-C ,  6-C ) :   0.8645
B(  1-C ,  8-H ) :   0.8858 B(  2-C ,  3-O ) :   1.3638 B(  2-C ,  4-O ) :   0.8360
B(  2-C ,  6-C ) :   0.1298 B(  4-O ,  5-H ) :   0.8561 B(  6-C ,  7-S ) :   0.9360
B(  6-C ,  9-H ) :   0.9246 B(  6-C , 10-H ) :   0.9279 B(  7-S , 11-H ) :   1.0401

MP2 TOTAL ENERGY:     -720.931461273 Eh
FINAL SINGLE POINT ENERGY      -720.931461272934

DIPOLE MOMENT
-------------
                                X             Y             Z
Electronic contribution:      1.00076      -1.41177      -0.81992
Nuclear contribution   :     -2.20063       2.52334       1.33583
                        -----------------------------------------
Total Dipole Moment    :     -1.19986       1.11157       0.51591
                        -----------------------------------------
Magnitude (a.u.)       :      1.71506
Magnitude (Debye)      :      4.35933

Rotational constants in cm-1:     0.145450     0.038707     0.033376
Rotational constants in MHz :  4360.467385  1160.414433  1000.602050

                             ****ORCA TERMINATED NORMALLY****
TOTAL RUN TIME: 0 days 0 hours 4 minutes 11 seconds 284 msec
