                         Program Version 5.0.3 -  RELEASE  -
|  1> !ri-mp2 aug-cc-pvtz aug-cc-pvtz/c tightscf
|  2> %pal nprocs 16 end
|  3>
|  4> * xyz 0 1
|  5> Cl    -1.385401   -0.338103    0.000000
|  6> N      2.297547   -0.400037    0.000000
|  7> C      0.000000    0.819137    0.000000
|  8> C      1.275830    0.126036    0.000000
|  9> H     -0.092993    1.438487    0.887765
| 10> H     -0.092993    1.438487   -0.887765
| 11> *
| 12>
| 13>                          ****END OF INPUT****

CARTESIAN COORDINATES (ANGSTROEM)
---------------------------------
  Cl    -1.385401   -0.338103    0.000000
  N      2.297547   -0.400037    0.000000
  C      0.000000    0.819137    0.000000
  C      1.275830    0.126036    0.000000
  H     -0.092993    1.438487    0.887765
  H     -0.092993    1.438487   -0.887765

 Total Charge           Charge          ....    0
 Multiplicity           Mult            ....    1
 Number of Electrons    NEL             ....   38
 Basis Dimension        Dim             ....  234

ORBITAL ENERGIES
----------------

  NO   OCC          E(Eh)            E(eV)
   0   2.0000    -104.865159     -2853.5261
   1   2.0000     -15.594327      -424.3432
   2   2.0000     -11.362717      -309.1952
   3   2.0000     -11.296099      -307.3825
   4   2.0000     -10.588708      -288.1334
   5   2.0000      -8.055549      -219.2026
   6   2.0000      -8.053495      -219.1467
   7   2.0000      -8.053453      -219.1456
   8   2.0000      -1.247424       -33.9441
   9   2.0000      -1.169543       -31.8249
  10   2.0000      -1.000595       -27.2276
  11   2.0000      -0.739489       -20.1225
  12   2.0000      -0.687108       -18.6972
  13   2.0000      -0.610147       -16.6030
  14   2.0000      -0.578812       -15.7503
  15   2.0000      -0.494955       -13.4684
  16   2.0000      -0.490523       -13.3478
  17   2.0000      -0.472066       -12.8456
  18   2.0000      -0.466593       -12.6967
  19   0.0000       0.022749         0.6190
  20   0.0000       0.038136         1.0377
  21   0.0000       0.056249         1.5306
  22   0.0000       0.062813         1.7092
  23   0.0000       0.095981         2.6118

MULLIKEN ATOMIC CHARGES
-----------------------
   0 Cl:   -0.227468
   1 N :   -0.367307
   2 C :   -0.105286
   3 C :    0.076542
   4 H :    0.311759
   5 H :    0.311759
Sum of atomic charges:    0.0000000

LOEWDIN ATOMIC CHARGES
----------------------
   0 Cl:    0.891028
   1 N :    0.252228
   2 C :   -0.321424
   3 C :   -0.318300
   4 H :   -0.251766
   5 H :   -0.251766

  Mayer bond orders larger than 0.100000
B(  0-Cl,  2-C ) :   0.8994 B(  1-N ,  3-C ) :   2.4690 B(  2-C ,  3-C ) :   0.9978
B(  2-C ,  4-H ) :   0.9006 B(  2-C ,  5-H ) :   0.9006

MP2 TOTAL ENERGY:     -591.605203649 Eh
FINAL SINGLE POINT ENERGY      -591.605203648914

DIPOLE MOMENT
-------------
                                X             Y             Z
Electronic contribution:     -2.52661      -2.06165      -0.00000
Nuclear contribution   :      1.71051       3.17457       0.00000
                        -----------------------------------------
Total Dipole Moment    :     -0.81610       1.11292      -0.00000
                        -----------------------------------------
Magnitude (a.u.)       :      1.38007
Magnitude (Debye)      :      3.50787

Rotational constants in cm-1:     0.844577     0.103233     0.093612
Rotational constants in MHz : 25319.777353  3094.850633  2806.431557

                             ****ORCA TERMINATED NORMALLY****
TOTAL RUN TIME: 0 days 0 hours 0 minutes 51 seconds 915 msec
