                         Program Version 5.0.3 -  RELEASE  -
|  1> !ri-mp2 aug-cc-pvtz aug-cc-pvtz/c tightscf
|  2> %pal nprocs 16 end
|  3>
|  4> * xyz 0 1
|  5> C      1.478824    0.602081   -0.167602
|  6> C      1.131874   -0.871035   -0.441609
|  7> C      0.138007    1.266828    0.236745
|  8> C     -0.007005   -1.147497    0.545787
|  9> C     -0.865878    0.122768    0.481642
| 10> O     -1.764277    0.100355   -0.639892
| 11> H      2.191316    0.663706    0.657603
| 12> H      1.942541    1.089472   -1.024485
| 13> H      0.768396   -0.991211   -1.463462
| 14> H      1.983364   -1.539018   -0.312244
| 15> H      0.250934    1.884221    1.127542
| 16> H     -0.256769    1.906427   -0.551166
| 17> H     -0.583006   -2.047024    0.320771
| 18> H      0.393171   -1.259290    1.558075
| 19> H     -1.443380    0.274160    1.398057
| 20> H     -2.387285   -0.623160   -0.521332
| 21> *
| 22>
| 23>                          ****END OF INPUT****

CARTESIAN COORDINATES (ANGSTROEM)
---------------------------------
  C      1.478824    0.602081   -0.167602
  C      1.131874   -0.871035   -0.441609
  C      0.138007    1.266828    0.236745
  C     -0.007005   -1.147497    0.545787
  C     -0.865878    0.122768    0.481642
  O     -1.764277    0.100355   -0.639892
  H      2.191316    0.663706    0.657603
  H      1.942541    1.089472   -1.024485
  H      0.768396   -0.991211   -1.463462
  H      1.983364   -1.539018   -0.312244
  H      0.250934    1.884221    1.127542
  H     -0.256769    1.906427   -0.551166
  H     -0.583006   -2.047024    0.320771
  H      0.393171   -1.259290    1.558075
  H     -1.443380    0.274160    1.398057
  H     -2.387285   -0.623160   -0.521332

 Total Charge           Charge          ....    0
 Multiplicity           Mult            ....    1
 Number of Electrons    NEL             ....   48
 Basis Dimension        Dim             ....  506

ORBITAL ENERGIES
----------------

  NO   OCC          E(Eh)            E(eV)
   0   2.0000     -20.551062      -559.2228
   1   2.0000     -11.274191      -306.7863
   2   2.0000     -11.217413      -305.2413
   3   2.0000     -11.214223      -305.1545
   4   2.0000     -11.213214      -305.1271
   5   2.0000     -11.211680      -305.0853
   6   2.0000      -1.351989       -36.7895
   7   2.0000      -1.108571       -30.1657
   8   2.0000      -0.963898       -26.2290
   9   2.0000      -0.949356       -25.8333
  10   2.0000      -0.787285       -21.4231
  11   2.0000      -0.768808       -20.9203
  12   2.0000      -0.687262       -18.7013
  13   2.0000      -0.653996       -17.7961
  14   2.0000      -0.639087       -17.3904
  15   2.0000      -0.584207       -15.8971
  16   2.0000      -0.545556       -14.8453
  17   2.0000      -0.531842       -14.4722
  18   2.0000      -0.497952       -13.5500
  19   2.0000      -0.475659       -12.9433
  20   2.0000      -0.469144       -12.7661
  21   2.0000      -0.462286       -12.5795
  22   2.0000      -0.451590       -12.2884
  23   2.0000      -0.429380       -11.6840
  24   0.0000       0.028945         0.7876
  25   0.0000       0.036948         1.0054
  26   0.0000       0.037878         1.0307
  27   0.0000       0.041460         1.1282
  28   0.0000       0.054463         1.4820

MULLIKEN ATOMIC CHARGES
-----------------------
   0 C :   -0.496640
   1 C :   -0.538077
   2 C :   -0.651536
   3 C :   -0.692683
   4 C :    0.419168
   5 O :   -0.688433
   6 H :    0.184124
   7 H :    0.342899
   8 H :    0.209504
   9 H :    0.342744
  10 H :    0.266820
  11 H :    0.263637
  12 H :    0.315138
  13 H :    0.230381
  14 H :    0.377377
  15 H :    0.115577
Sum of atomic charges:    0.0000000

LOEWDIN ATOMIC CHARGES
----------------------
   0 C :    0.310573
   1 C :    0.295674
   2 C :    0.320057
   3 C :    0.299285
   4 C :   -0.226319
   5 O :    0.823581
   6 H :   -0.152157
   7 H :   -0.148640
   8 H :   -0.145514
   9 H :   -0.146134
  10 H :   -0.151651
  11 H :   -0.160778
  12 H :   -0.146642
  13 H :   -0.142018
  14 H :   -0.138065
  15 H :   -0.491250

  Mayer bond orders larger than 0.100000
B(  0-C ,  1-C ) :   0.9264 B(  0-C ,  2-C ) :   0.9689 B(  0-C ,  6-H ) :   1.0199
B(  0-C ,  7-H ) :   0.8757 B(  1-C ,  3-C ) :   0.9535 B(  1-C ,  8-H ) :   0.9986
B(  1-C ,  9-H ) :   0.8800 B(  2-C ,  4-C ) :   0.9622 B(  2-C ,  5-O ) :   0.1245
B(  2-C , 10-H ) :   0.9601 B(  2-C , 11-H ) :   0.9616 B(  3-C ,  4-C ) :   0.9411
B(  3-C ,  5-O ) :   0.1540 B(  3-C , 12-H ) :   0.8884 B(  3-C , 13-H ) :   0.9951
B(  4-C ,  5-O ) :   0.3428 B(  4-C , 14-H ) :   0.8625 B(  5-O , 15-H ) :   1.0412

MP2 TOTAL ENERGY:     -271.239667805 Eh
FINAL SINGLE POINT ENERGY      -271.239667805203

DIPOLE MOMENT
-------------
                                X             Y             Z
Electronic contribution:     -2.90065       0.26111      -0.74073
Nuclear contribution   :      2.96341      -0.66996       1.23422
                        -----------------------------------------
Total Dipole Moment    :      0.06276      -0.40886       0.49349
                        -----------------------------------------
Magnitude (a.u.)       :      0.64392
Magnitude (Debye)      :      1.63671

Rotational constants in cm-1:     0.179830     0.113368     0.088831
Rotational constants in MHz :  5391.163138  3398.690656  2663.093716

                             ****ORCA TERMINATED NORMALLY****
TOTAL RUN TIME: 0 days 0 hours 4 minutes 32 seconds 575 msec
