                         Program Version 5.0.3 -  RELEASE  -
|  1> !ri-mp2 aug-cc-pvtz aug-cc-pvtz/c tightscf
|  2> %pal nprocs 16 end
|  3>
|  4> * xyz 0 1
|  5> C      0.000000    0.000000   -0.527573
|  6> O      0.000000    0.000000   -1.683489
|  7> S      0.000000    0.000000    1.039584
|  8> *
|  9>
| 10>                          ****END OF INPUT****

CARTESIAN COORDINATES (ANGSTROEM)
---------------------------------
  C      0.000000    0.000000   -0.527573
  O      0.000000    0.000000   -1.683489
  S      0.000000    0.000000    1.039584

 Total Charge           Charge          ....    0
 Multiplicity           Mult            ....    1
 Number of Electrons    NEL             ....   30
 Basis Dimension        Dim             ....  142

ORBITAL ENERGIES
----------------

  NO   OCC          E(Eh)            E(eV)
   0   2.0000     -91.992265     -2503.2368
   1   2.0000     -20.660834      -562.2099
   2   2.0000     -11.438999      -311.2710
   3   2.0000      -8.995830      -244.7890
   4   2.0000      -6.677400      -181.7013
   5   2.0000      -6.674589      -181.6248
   6   2.0000      -6.674589      -181.6248
   7   2.0000      -1.509294       -41.0700
   8   2.0000      -1.089392       -29.6439
   9   2.0000      -0.780879       -21.2488
  10   2.0000      -0.661336       -17.9959
  11   2.0000      -0.661336       -17.9959
  12   2.0000      -0.636806       -17.3284
  13   2.0000      -0.420573       -11.4444
  14   2.0000      -0.420573       -11.4444
  15   0.0000       0.048196         1.3115
  16   0.0000       0.064026         1.7422
  17   0.0000       0.085398         2.3238
  18   0.0000       0.085398         2.3238
  19   0.0000       0.093862         2.5541

MULLIKEN ATOMIC CHARGES
-----------------------
   0 C :    0.068140
   1 O :   -0.178382
   2 S :    0.110242
Sum of atomic charges:   -0.0000000

LOEWDIN ATOMIC CHARGES
----------------------
   0 C :   -1.133674
   1 O :    0.304863
   2 S :    0.828810

  Mayer bond orders larger than 0.100000
B(  0-C ,  1-O ) :   2.1490 B(  0-C ,  2-S ) :   1.7864

MP2 TOTAL ENERGY:     -510.896167717 Eh
FINAL SINGLE POINT ENERGY      -510.896167716771

DIPOLE MOMENT
-------------
                                X             Y             Z
Electronic contribution:      0.00000      -0.00000       0.33924
Nuclear contribution   :      0.00000       0.00000      -0.05498
                        -----------------------------------------
Total Dipole Moment    :      0.00000      -0.00000       0.28426
                        -----------------------------------------
Magnitude (a.u.)       :      0.28426
Magnitude (Debye)      :      0.72254

Rotational constants in cm-1:     0.000000     0.202288     0.202288
Rotational constants in MHz :     0.000000  6064.454708  6064.454708

                             ****ORCA TERMINATED NORMALLY****
TOTAL RUN TIME: 0 days 0 hours 0 minutes 34 seconds 364 msec
