                         Program Version 5.0.3 -  RELEASE  -
|  1> !ri-mp2 aug-cc-pvtz aug-cc-pvtz/c tightscf
|  2> %pal nprocs 16 end
|  3>
|  4> * xyz 0 1
|  5> C     0.000000     0.000000    0.381094
|  6> O     0.000000     0.000000    1.576449
|  7> C     0.000000     0.785897   -0.855963
|  8> C     0.000000    -0.785897   -0.855963
|  9> H     0.911746     1.287106   -1.156649
| 10> H    -0.911746     1.287106   -1.156649
| 11> H    -0.911746    -1.287106   -1.156649
| 12> H     0.911746    -1.287106   -1.156649
| 13> *
| 14>
| 15>                          ****END OF INPUT****

CARTESIAN COORDINATES (ANGSTROEM)
---------------------------------
  C      0.000000    0.000000    0.381094
  O      0.000000    0.000000    1.576449
  C      0.000000    0.785897   -0.855963
  C      0.000000   -0.785897   -0.855963
  H      0.911746    1.287106   -1.156649
  H     -0.911746    1.287106   -1.156649
  H     -0.911746   -1.287106   -1.156649
  H      0.911746   -1.287106   -1.156649

 Total Charge           Charge          ....    0
 Multiplicity           Mult            ....    1
 Number of Electrons    NEL             ....   30
 Basis Dimension        Dim             ....  276

ORBITAL ENERGIES
----------------

  NO   OCC          E(Eh)            E(eV)
   0   2.0000     -20.569336      -559.7201
   1   2.0000     -11.349709      -308.8413
   2   2.0000     -11.256606      -306.3078
   3   2.0000     -11.256124      -306.2947
   4   2.0000      -1.404645       -38.2223
   5   2.0000      -1.155829       -31.4517
   6   2.0000      -0.868194       -23.6248
   7   2.0000      -0.760740       -20.7008
   8   2.0000      -0.677680       -18.4406
   9   2.0000      -0.674213       -18.3463
  10   2.0000      -0.613627       -16.6976
  11   2.0000      -0.551812       -15.0156
  12   2.0000      -0.518813       -14.1176
  13   2.0000      -0.467865       -12.7313
  14   2.0000      -0.390939       -10.6380
  15   0.0000       0.026349         0.7170
  16   0.0000       0.036672         0.9979
  17   0.0000       0.037294         1.0148
  18   0.0000       0.057369         1.5611
  19   0.0000       0.061665         1.6780

MULLIKEN ATOMIC CHARGES
-----------------------
   0 C :    0.294234
   1 O :   -0.582996
   2 C :   -0.656077
   3 C :   -0.656077
   4 H :    0.400229
   5 H :    0.400229
   6 H :    0.400229
   7 H :    0.400229
Sum of atomic charges:    0.0000000

LOEWDIN ATOMIC CHARGES
----------------------
   0 C :   -0.503741
   1 O :    0.417860
   2 C :    0.385700
   3 C :    0.385700
   4 H :   -0.171380
   5 H :   -0.171380
   6 H :   -0.171380
   7 H :   -0.171380

  Mayer bond orders larger than 0.100000
B(  0-C ,  1-O ) :   1.6922 B(  0-C ,  2-C ) :   0.9537 B(  0-C ,  3-C ) :   0.9537
B(  2-C ,  3-C ) :   0.9127 B(  2-C ,  4-H ) :   0.7980 B(  2-C ,  5-H ) :   0.7980
B(  3-C ,  6-H ) :   0.7980 B(  3-C ,  7-H ) :   0.7980

MP2 TOTAL ENERGY:     -191.524807055 Eh
FINAL SINGLE POINT ENERGY      -191.524807054941

DIPOLE MOMENT
-------------
                                X             Y             Z
Electronic contribution:      0.00000      -0.00000       3.27293
Nuclear contribution   :      0.00000       0.00000      -4.62458
                        -----------------------------------------
Total Dipole Moment    :      0.00000      -0.00000      -1.35165
                        -----------------------------------------
Magnitude (a.u.)       :      1.35165
Magnitude (Debye)      :      3.43563

Rotational constants in cm-1:     0.677882     0.249824     0.196837
Rotational constants in MHz : 20322.391803  7489.539687  5901.021926

                             ****ORCA TERMINATED NORMALLY****
TOTAL RUN TIME: 0 days 0 hours 1 minutes 20 seconds 985 msec
