                         Program Version 5.0.3 -  RELEASE  -
|  1> !ri-mp2 aug-cc-pvtz aug-cc-pvtz/c tightscf
|  2> %pal nprocs 16 end
|  3>
|  4> * xyz 0 1
|  5> C      1.602438    0.009053   -0.031364
|  6> C     -1.371859    0.746330   -0.653168
|  7> C     -1.307418   -0.806205   -0.645590
|  8> C     -0.501396    1.220231    0.531175
|  9> C     -0.485334   -1.190374    0.598276
| 10> C      0.432357    0.028014    0.847230
| 11> N      2.515785   -0.006019   -0.731269
| 12> H     -0.984080    1.137519   -1.592694
| 13> H     -2.392524    1.113594   -0.555555
| 14> H     -2.295941   -1.262646   -0.625195
| 15> H     -0.810388   -1.165675   -1.546124
| 16> H      0.045306    2.137508    0.322211
| 17> H     -1.117683    1.398437    1.413455
| 18> H     -1.132932   -1.299095    1.469966
| 19> H      0.067826   -2.119975    0.478891
| 20> H      0.797203    0.060175    1.874581
| 21> *
| 22>
| 23>                          ****END OF INPUT****

CARTESIAN COORDINATES (ANGSTROEM)
---------------------------------
  C      1.602438    0.009053   -0.031364
  C     -1.371859    0.746330   -0.653168
  C     -1.307418   -0.806205   -0.645590
  C     -0.501396    1.220231    0.531175
  C     -0.485334   -1.190374    0.598276
  C      0.432357    0.028014    0.847230
  N      2.515785   -0.006019   -0.731269
  H     -0.984080    1.137519   -1.592694
  H     -2.392524    1.113594   -0.555555
  H     -2.295941   -1.262646   -0.625195
  H     -0.810388   -1.165675   -1.546124
  H      0.045306    2.137508    0.322211
  H     -1.117683    1.398437    1.413455
  H     -1.132932   -1.299095    1.469966
  H      0.067826   -2.119975    0.478891
  H      0.797203    0.060175    1.874581

 Total Charge           Charge          ....    0
 Multiplicity           Mult            ....    1
 Number of Electrons    NEL             ....   52
 Basis Dimension        Dim             ....  529

ORBITAL ENERGIES
----------------

  NO   OCC          E(Eh)            E(eV)
   0   2.0000     -15.562107      -423.4665
   1   2.0000     -11.279332      -306.9262
   2   2.0000     -11.265350      -306.5457
   3   2.0000     -11.244854      -305.9880
   4   2.0000     -11.244797      -305.9865
   5   2.0000     -11.232744      -305.6585
   6   2.0000     -11.232134      -305.6419
   7   2.0000      -1.218731       -33.1634
   8   2.0000      -1.147235       -31.2179
   9   2.0000      -1.005490       -27.3608
  10   2.0000      -0.986666       -26.8486
  11   2.0000      -0.845911       -23.0184
  12   2.0000      -0.795448       -21.6452
  13   2.0000      -0.701022       -19.0758
  14   2.0000      -0.680303       -18.5120
  15   2.0000      -0.632972       -17.2240
  16   2.0000      -0.605001       -16.4629
  17   2.0000      -0.558494       -15.1974
  18   2.0000      -0.528448       -14.3798
  19   2.0000      -0.522417       -14.2157
  20   2.0000      -0.512635       -13.9495
  21   2.0000      -0.498693       -13.5701
  22   2.0000      -0.489719       -13.3259
  23   2.0000      -0.475870       -12.9491
  24   2.0000      -0.450067       -12.2470
  25   2.0000      -0.443603       -12.0710
  26   0.0000       0.022758         0.6193
  27   0.0000       0.032970         0.8972
  28   0.0000       0.035222         0.9584
  29   0.0000       0.040558         1.1036
  30   0.0000       0.051639         1.4052

MULLIKEN ATOMIC CHARGES
-----------------------
   0 C :    0.534686
   1 C :   -0.566719
   2 C :   -0.530517
   3 C :   -0.544901
   4 C :   -0.561976
   5 C :   -0.028915
   6 N :   -0.871637
   7 H :    0.251189
   8 H :    0.311993
   9 H :    0.342994
  10 H :    0.221187
  11 H :    0.341416
  12 H :    0.200852
  13 H :    0.196436
  14 H :    0.344005
  15 H :    0.359906
Sum of atomic charges:    0.0000000

LOEWDIN ATOMIC CHARGES
----------------------
   0 C :   -0.202188
   1 C :    0.328248
   2 C :    0.323149
   3 C :    0.312223
   4 C :    0.307336
   5 C :   -0.051847
   6 N :    0.276421
   7 H :   -0.148590
   8 H :   -0.149039
   9 H :   -0.147268
  10 H :   -0.148452
  11 H :   -0.141624
  12 H :   -0.140844
  13 H :   -0.138592
  14 H :   -0.139565
  15 H :   -0.139367

  Mayer bond orders larger than 0.100000
B(  0-C ,  5-C ) :   0.9362 B(  0-C ,  6-N ) :   1.7990 B(  1-C ,  2-C ) :   1.0060
B(  1-C ,  3-C ) :   0.9815 B(  1-C ,  7-H ) :   0.9715 B(  1-C ,  8-H ) :   0.9007
B(  2-C ,  4-C ) :   0.9720 B(  2-C ,  9-H ) :   0.8641 B(  2-C , 10-H ) :   1.0002
B(  3-C ,  5-C ) :   0.9294 B(  3-C , 11-H ) :   0.8548 B(  3-C , 12-H ) :   1.0441
B(  4-C ,  5-C ) :   0.9217 B(  4-C , 13-H ) :   1.0364 B(  4-C , 14-H ) :   0.8679
B(  5-C ,  6-N ) :   0.1867 B(  5-C , 15-H ) :   0.8796

MP2 TOTAL ENERGY:     -288.201213691 Eh
FINAL SINGLE POINT ENERGY      -288.201213690606

DIPOLE MOMENT
-------------
                                X             Y             Z
Electronic contribution:      6.49851       0.01567      -0.38389
Nuclear contribution   :     -8.01483      -0.00020       1.26789
                        -----------------------------------------
Total Dipole Moment    :     -1.51633       0.01547       0.88400
                        -----------------------------------------
Magnitude (a.u.)       :      1.75526
Magnitude (Debye)      :      4.46152

Rotational constants in cm-1:     0.146181     0.072140     0.066403
Rotational constants in MHz :  4382.395183  2162.690934  1990.711728

                             ****ORCA TERMINATED NORMALLY****
TOTAL RUN TIME: 0 days 0 hours 5 minutes 38 seconds 285 msec
