                         Program Version 5.0.3 -  RELEASE  -
|  1> !ri-mp2 aug-cc-pvtz aug-cc-pvtz/c tightscf
|  2> %pal nprocs 16 end
|  3>
|  4> * xyz 0 1
|  5> C     -0.320050    0.416085    0.000000
|  6> H     -1.260116    0.962973    0.000000
|  7> N      0.903346    1.179214    0.000000
|  8> C     -0.320050   -0.882833    0.753840
|  9> C     -0.320050   -0.882833   -0.753840
| 10> H      0.970739    1.771825    0.818204
| 11> H      0.970739    1.771825   -0.818204
| 12> H     -1.223024   -1.176047    1.270152
| 13> H     -1.223024   -1.176047   -1.270152
| 14> H      0.601086   -1.155773    1.247962
| 15> H      0.601086   -1.155773   -1.247962
| 16> *
| 17>
| 18>                          ****END OF INPUT****

CARTESIAN COORDINATES (ANGSTROEM)
---------------------------------
  C     -0.320050    0.416085    0.000000
  H     -1.260116    0.962973    0.000000
  N      0.903346    1.179214    0.000000
  C     -0.320050   -0.882833    0.753840
  C     -0.320050   -0.882833   -0.753840
  H      0.970739    1.771825    0.818204
  H      0.970739    1.771825   -0.818204
  H     -1.223024   -1.176047    1.270152
  H     -1.223024   -1.176047   -1.270152
  H      0.601086   -1.155773    1.247962
  H      0.601086   -1.155773   -1.247962

 Total Charge           Charge          ....    0
 Multiplicity           Mult            ....    1
 Number of Electrons    NEL             ....   32
 Basis Dimension        Dim             ....  345

ORBITAL ENERGIES
----------------

  NO   OCC          E(Eh)            E(eV)
   0   2.0000     -15.542145      -422.9233
   1   2.0000     -11.253234      -306.2161
   2   2.0000     -11.217798      -305.2518
   3   2.0000     -11.217135      -305.2338
   4   2.0000      -1.198804       -32.6211
   5   2.0000      -1.086934       -29.5770
   6   2.0000      -0.820164       -22.3178
   7   2.0000      -0.790772       -21.5180
   8   2.0000      -0.680454       -18.5161
   9   2.0000      -0.646568       -17.5940
  10   2.0000      -0.622651       -16.9432
  11   2.0000      -0.548354       -14.9215
  12   2.0000      -0.509847       -13.8737
  13   2.0000      -0.443225       -12.0608
  14   2.0000      -0.409585       -11.1454
  15   2.0000      -0.381898       -10.3920
  16   0.0000       0.030060         0.8180
  17   0.0000       0.039625         1.0782
  18   0.0000       0.040242         1.0950
  19   0.0000       0.041923         1.1408
  20   0.0000       0.058994         1.6053

MULLIKEN ATOMIC CHARGES
-----------------------
   0 C :    0.288113
   1 H :    0.381934
   2 N :   -0.588713
   3 C :   -0.921800
   4 C :   -0.921800
   5 H :    0.120720
   6 H :    0.120720
   7 H :    0.403167
   8 H :    0.403167
   9 H :    0.357247
  10 H :    0.357247
Sum of atomic charges:    0.0000000

LOEWDIN ATOMIC CHARGES
----------------------
   0 C :   -0.117913
   1 H :   -0.143574
   2 N :    0.842552
   3 C :    0.361497
   4 C :    0.361497
   5 H :   -0.320715
   6 H :   -0.320715
   7 H :   -0.166557
   8 H :   -0.166557
   9 H :   -0.164757
  10 H :   -0.164757

  Mayer bond orders larger than 0.100000
B(  0-C ,  1-H ) :   0.8253 B(  0-C ,  2-N ) :   0.4623 B(  0-C ,  3-C ) :   0.7620
B(  0-C ,  4-C ) :   0.7620 B(  2-N ,  3-C ) :   0.1283 B(  2-N ,  4-C ) :   0.1283
B(  2-N ,  5-H ) :   0.9820 B(  2-N ,  6-H ) :   0.9820 B(  3-C ,  4-C ) :   1.0927
B(  3-C ,  7-H ) :   0.7691 B(  3-C ,  9-H ) :   0.8482 B(  4-C ,  8-H ) :   0.7691
B(  4-C , 10-H ) :   0.8482

MP2 TOTAL ENERGY:     -172.889273735 Eh
FINAL SINGLE POINT ENERGY      -172.889273735246

DIPOLE MOMENT
-------------
                                X             Y             Z
Electronic contribution:      0.25639       0.54022      -0.00000
Nuclear contribution   :     -0.58651      -0.15799       0.00000
                        -----------------------------------------
Total Dipole Moment    :     -0.33012       0.38224      -0.00000
                        -----------------------------------------
Magnitude (a.u.)       :      0.50506
Magnitude (Debye)      :      1.28376

Rotational constants in cm-1:     0.548551     0.223624     0.192794
Rotational constants in MHz : 16445.152267  6704.068889  5779.829964

                             ****ORCA TERMINATED NORMALLY****
TOTAL RUN TIME: 0 days 0 hours 1 minutes 22 seconds 681 msec
