                         Program Version 5.0.3 -  RELEASE  -
|  1> !ri-mp2 aug-cc-pvtz aug-cc-pvtz/c tightscf
|  2> %pal nprocs 16 end
|  3>
|  4> * xyz 0 1
|  5> Cl    0.454804   -1.139246    1.304813
|  6> Cl   -2.281823   -0.133493   -0.404658
|  7> N     0.212304    2.469029    0.884988
|  8> N     2.741580   -0.189878   -1.346088
|  9> C     0.469741    0.052344   -0.074733
| 10> C    -0.644368   -0.282574   -1.092678
| 11> C     0.324537    1.401661    0.476873
| 12> C     1.759694   -0.075092   -0.761062
| 13> H    -0.569014    0.407136   -1.929326
| 14> H    -0.506489   -1.302670   -1.436011
| 15> *
| 16>
| 17>                          ****END OF INPUT****

CARTESIAN COORDINATES (ANGSTROEM)
---------------------------------
  Cl     0.454804   -1.139246    1.304813
  Cl    -2.281823   -0.133493   -0.404658
  N      0.212304    2.469029    0.884988
  N      2.741580   -0.189878   -1.346088
  C      0.469741    0.052344   -0.074733
  C     -0.644368   -0.282574   -1.092678
  C      0.324537    1.401661    0.476873
  C      1.759694   -0.075092   -0.761062
  H     -0.569014    0.407136   -1.929326
  H     -0.506489   -1.302670   -1.436011

 Total Charge           Charge          ....    0
 Multiplicity           Mult            ....    1
 Number of Electrons    NEL             ....   74
 Basis Dimension        Dim             ....  422

ORBITAL ENERGIES
----------------

  NO   OCC          E(Eh)            E(eV)
   0   2.0000    -104.894641     -2854.3283
   1   2.0000    -104.871929     -2853.7103
   2   2.0000     -15.627533      -425.2468
   3   2.0000     -15.621703      -425.0882
   4   2.0000     -11.441599      -311.3417
   5   2.0000     -11.365432      -309.2691
   6   2.0000     -11.326731      -308.2160
   7   2.0000     -11.321017      -308.0605
   8   2.0000     -10.617942      -288.9289
   9   2.0000     -10.595752      -288.3251
  10   2.0000      -8.084687      -219.9955
  11   2.0000      -8.082436      -219.9343
  12   2.0000      -8.082416      -219.9337
  13   2.0000      -8.062606      -219.3947
  14   2.0000      -8.060612      -219.3404
  15   2.0000      -8.060530      -219.3382
  16   2.0000      -1.294838       -35.2343
  17   2.0000      -1.266241       -34.4562
  18   2.0000      -1.226221       -33.3672
  19   2.0000      -1.163030       -31.6476
  20   2.0000      -1.071032       -29.1443
  21   2.0000      -0.946207       -25.7476
  22   2.0000      -0.837597       -22.7922
  23   2.0000      -0.731086       -19.8939
  24   2.0000      -0.690675       -18.7942
  25   2.0000      -0.637172       -17.3383
  26   2.0000      -0.614954       -16.7337
  27   2.0000      -0.603400       -16.4194
  28   2.0000      -0.592899       -16.1336
  29   2.0000      -0.537706       -14.6317
  30   2.0000      -0.530341       -14.4313
  31   2.0000      -0.515595       -14.0300
  32   2.0000      -0.508072       -13.8253
  33   2.0000      -0.498546       -13.5661
  34   2.0000      -0.494135       -13.4461
  35   2.0000      -0.480338       -13.0707
  36   2.0000      -0.476682       -12.9712
  37   0.0000       0.024709         0.6724
  38   0.0000       0.039409         1.0724
  39   0.0000       0.045737         1.2446
  40   0.0000       0.055877         1.5205
  41   0.0000       0.059708         1.6247

MULLIKEN ATOMIC CHARGES
-----------------------
   0 Cl:   -0.317800
   1 Cl:   -0.279624
   2 N :   -0.651835
   3 N :   -0.623476
   4 C :    0.687219
   5 C :   -0.274728
   6 C :    0.493218
   7 C :    0.405080
   8 H :    0.276137
   9 H :    0.285811
Sum of atomic charges:   -0.0000000

LOEWDIN ATOMIC CHARGES
----------------------
   0 Cl:    1.004704
   1 Cl:    0.965472
   2 N :    0.304065
   3 N :    0.309416
   4 C :   -1.038324
   5 C :   -0.374587
   6 C :   -0.361688
   7 C :   -0.336875
   8 H :   -0.230100
   9 H :   -0.242083

  Mayer bond orders larger than 0.100000
B(  0-Cl,  4-C ) :   0.7377 B(  1-Cl,  5-C ) :   0.7905 B(  2-N ,  4-C ) :   0.1254
B(  2-N ,  6-C ) :   2.1824 B(  3-N ,  4-C ) :   0.1014 B(  3-N ,  7-C ) :   2.2114
B(  4-C ,  5-C ) :   0.9075 B(  4-C ,  6-C ) :   0.8525 B(  4-C ,  7-C ) :   0.8721
B(  5-C ,  8-H ) :   0.9093 B(  5-C ,  9-H ) :   0.9380 B(  6-C ,  7-C ) :   0.3269

MP2 TOTAL ENERGY:    -1182.018893655 Eh
FINAL SINGLE POINT ENERGY     -1182.018893655257

DIPOLE MOMENT
-------------
                                X             Y             Z
Electronic contribution:     -2.06806      -1.75592       3.81884
Nuclear contribution   :      1.45122       0.87567      -4.34326
                        -----------------------------------------
Total Dipole Moment    :     -0.61683      -0.88025      -0.52442
                        -----------------------------------------
Magnitude (a.u.)       :      1.19597
Magnitude (Debye)      :      3.03991

Rotational constants in cm-1:     0.057858     0.035382     0.033453
Rotational constants in MHz :  1734.538525  1060.719110  1002.886540

                             ****ORCA TERMINATED NORMALLY****
TOTAL RUN TIME: 0 days 0 hours 3 minutes 18 seconds 575 msec
