                         Program Version 5.0.3 -  RELEASE  -
|  1> !ri-mp2 aug-cc-pvtz aug-cc-pvtz/c tightscf
|  2> %pal nprocs 16 end
|  3>
|  4> * xyz 0 1
|  5> C      0.000000    0.000000    0.018127
|  6> N      0.000000    1.215003   -0.079246
|  7> N      0.000000   -1.215003   -0.079246
|  8> H      0.613213    1.770339    0.500341
|  9> H     -0.613213   -1.770339    0.500341
| 10> *
| 11>
| 12>                          ****END OF INPUT****

CARTESIAN COORDINATES (ANGSTROEM)
---------------------------------
  C      0.000000    0.000000    0.018127
  N      0.000000    1.215003   -0.079246
  N      0.000000   -1.215003   -0.079246
  H      0.613213    1.770339    0.500341
  H     -0.613213   -1.770339    0.500341

 Total Charge           Charge          ....    0
 Multiplicity           Mult            ....    1
 Number of Electrons    NEL             ....   22
 Basis Dimension        Dim             ....  184

ORBITAL ENERGIES
----------------

  NO   OCC          E(Eh)            E(eV)
   0   2.0000     -15.579831      -423.9488
   1   2.0000     -15.579788      -423.9476
   2   2.0000     -11.367113      -309.3149
   3   2.0000      -1.289896       -35.0999
   4   2.0000      -1.205298       -32.7978
   5   2.0000      -0.802013       -21.8239
   6   2.0000      -0.742995       -20.2179
   7   2.0000      -0.587938       -15.9986
   8   2.0000      -0.579815       -15.7776
   9   2.0000      -0.427352       -11.6288
  10   2.0000      -0.426738       -11.6121
  11   0.0000       0.024400         0.6640
  12   0.0000       0.036904         1.0042
  13   0.0000       0.076677         2.0865
  14   0.0000       0.077781         2.1165
  15   0.0000       0.098177         2.6715

MULLIKEN ATOMIC CHARGES
-----------------------
   0 C :    0.170529
   1 N :   -0.310786
   2 N :   -0.310786
   3 H :    0.225522
   4 H :    0.225522
Sum of atomic charges:    0.0000000

LOEWDIN ATOMIC CHARGES
----------------------
   0 C :   -0.280679
   1 N :    0.585597
   2 N :    0.585597
   3 H :   -0.445258
   4 H :   -0.445258

  Mayer bond orders larger than 0.100000
B(  0-C ,  1-N ) :   1.7142 B(  0-C ,  2-N ) :   1.7142 B(  1-N ,  2-N ) :  -0.1064
B(  1-N ,  3-H ) :   0.9098 B(  2-N ,  4-H ) :   0.9098

MP2 TOTAL ENERGY:     -148.522750044 Eh
FINAL SINGLE POINT ENERGY      -148.522750043974

DIPOLE MOMENT
-------------
                                X             Y             Z
Electronic contribution:      0.00000       0.00000      -0.13934
Nuclear contribution   :      0.00000       0.00000       0.98255
                        -----------------------------------------
Total Dipole Moment    :      0.00000       0.00000       0.84321
                        -----------------------------------------
Magnitude (a.u.)       :      0.84321
Magnitude (Debye)      :      2.14327

Rotational constants in cm-1:    12.797294     0.348071     0.348036
Rotational constants in MHz : 383653.215203 10434.913166 10433.863095

                             ****ORCA TERMINATED NORMALLY****
TOTAL RUN TIME: 0 days 0 hours 0 minutes 46 seconds 722 msec
