                         Program Version 5.0.3 -  RELEASE  -
|  1> !ri-mp2 aug-cc-pvtz aug-cc-pvtz/c tightscf
|  2> %pal nprocs 16 end
|  3>
|  4> * xyz 0 1
|  5> C      0.000000    0.000000   -0.615871
|  6> C      0.000000    0.000000   -1.813601
|  7> Cl     0.000000    0.000000    1.026530
|  8> H      0.000000    0.000000   -2.874172
|  9> *
| 10>
| 11>                          ****END OF INPUT****

CARTESIAN COORDINATES (ANGSTROEM)
---------------------------------
  C      0.000000    0.000000   -0.615871
  C      0.000000    0.000000   -1.813601
  Cl     0.000000    0.000000    1.026530
  H      0.000000    0.000000   -2.874172

 Total Charge           Charge          ....    0
 Multiplicity           Mult            ....    1
 Number of Electrons    NEL             ....   30
 Basis Dimension        Dim             ....  165

ORBITAL ENERGIES
----------------

  NO   OCC          E(Eh)            E(eV)
   0   2.0000    -104.892160     -2854.2608
   1   2.0000     -11.297236      -307.4134
   2   2.0000     -11.249798      -306.1226
   3   2.0000     -10.615013      -288.8492
   4   2.0000      -8.082272      -219.9298
   5   2.0000      -8.079775      -219.8619
   6   2.0000      -8.079775      -219.8619
   7   2.0000      -1.192762       -32.4567
   8   2.0000      -1.024847       -27.8875
   9   2.0000      -0.748200       -20.3596
  10   2.0000      -0.670661       -18.2496
  11   2.0000      -0.550801       -14.9881
  12   2.0000      -0.550801       -14.9881
  13   2.0000      -0.396544       -10.7905
  14   2.0000      -0.396544       -10.7905
  15   0.0000       0.030004         0.8165
  16   0.0000       0.057241         1.5576
  17   0.0000       0.085277         2.3205
  18   0.0000       0.088401         2.4055
  19   0.0000       0.088401         2.4055

MULLIKEN ATOMIC CHARGES
-----------------------
   0 C :    0.609469
   1 C :   -1.167504
   2 Cl:   -0.140553
   3 H :    0.698588
Sum of atomic charges:   -0.0000000

LOEWDIN ATOMIC CHARGES
----------------------
   0 C :   -0.822661
   1 C :    0.216345
   2 Cl:    0.923465
   3 H :   -0.317149

  Mayer bond orders larger than 0.100000
B(  0-C ,  1-C ) :   1.4426 B(  0-C ,  2-Cl) :   0.9562 B(  1-C ,  2-Cl) :   0.1555
B(  1-C ,  3-H ) :   0.3439

MP2 TOTAL ENERGY:     -536.275204198 Eh
FINAL SINGLE POINT ENERGY      -536.275204197745

DIPOLE MOMENT
-------------
                                X             Y             Z
Electronic contribution:      0.00000       0.00000       3.80568
Nuclear contribution   :      0.00000       0.00000      -4.04547
                        -----------------------------------------
Total Dipole Moment    :      0.00000       0.00000      -0.23979
                        -----------------------------------------
Magnitude (a.u.)       :      0.23979
Magnitude (Debye)      :      0.60949

Rotational constants in cm-1:     0.000000     0.188480     0.188480
Rotational constants in MHz :     0.000000  5650.501610  5650.501610

                             ****ORCA TERMINATED NORMALLY****
TOTAL RUN TIME: 0 days 0 hours 0 minutes 33 seconds 473 msec
