                         Program Version 5.0.3 -  RELEASE  -
|  1> !ri-mp2 aug-cc-pvtz aug-cc-pvtz/c tightscf
|  2> %pal nprocs 16 end
|  3>
|  4> * xyz 0 1
|  5> S    -0.536792   -0.543833   -0.276416
|  6> O     0.866478    1.705968    0.049598
|  7> O     2.489216   -1.419387    0.583107
|  8> O     2.845768    0.218453   -0.891343
|  9> N    -4.192497   -0.407208   -0.402880
| 10> C     0.859914    0.349946    0.489306
| 11> C     2.146941   -0.391213    0.076767
| 12> C    -1.899041    0.431745    0.492309
| 13> C    -3.177957   -0.037706   -0.008686
| 14> H     1.217959    2.266909    0.750986
| 15> H     2.393223    1.045651   -1.126008
| 16> H     0.773010    0.288303    1.574137
| 17> H    -1.868393    0.311523    1.575605
| 18> H    -1.770497    1.482491    0.239021
| 19> *
| 20>
| 21>                          ****END OF INPUT****

CARTESIAN COORDINATES (ANGSTROEM)
---------------------------------
  S     -0.536792   -0.543833   -0.276416
  O      0.866478    1.705968    0.049598
  O      2.489216   -1.419387    0.583107
  O      2.845768    0.218453   -0.891343
  N     -4.192497   -0.407208   -0.402880
  C      0.859914    0.349946    0.489306
  C      2.146941   -0.391213    0.076767
  C     -1.899041    0.431745    0.492309
  C     -3.177957   -0.037706   -0.008686
  H      1.217959    2.266909    0.750986
  H      2.393223    1.045651   -1.126008
  H      0.773010    0.288303    1.574137
  H     -1.868393    0.311523    1.575605
  H     -1.770497    1.482491    0.239021

 Total Charge           Charge          ....    0
 Multiplicity           Mult            ....    1
 Number of Electrons    NEL             ....   76
 Basis Dimension        Dim             ....  533

ORBITAL ENERGIES
----------------

  NO   OCC          E(Eh)            E(eV)
   0   2.0000     -92.005525     -2503.5976
   1   2.0000     -20.635994      -561.5340
   2   2.0000     -20.632124      -561.4286
   3   2.0000     -20.570173      -559.7429
   4   2.0000     -15.589557      -424.2134
   5   2.0000     -11.412045      -310.5375
   6   2.0000     -11.378647      -309.6287
   7   2.0000     -11.334790      -308.4353
   8   2.0000     -11.293849      -307.3213
   9   2.0000      -9.005274      -245.0460
  10   2.0000      -6.686203      -181.9408
  11   2.0000      -6.685231      -181.9144
  12   2.0000      -6.683997      -181.8808
  13   2.0000      -1.489514       -40.5317
  14   2.0000      -1.435192       -39.0536
  15   2.0000      -1.390972       -37.8503
  16   2.0000      -1.242387       -33.8071
  17   2.0000      -1.121851       -30.5271
  18   2.0000      -1.039918       -28.2976
  19   2.0000      -0.907173       -24.6854
  20   2.0000      -0.844034       -22.9673
  21   2.0000      -0.782764       -21.3001
  22   2.0000      -0.776133       -21.1197
  23   2.0000      -0.721385       -19.6299
  24   2.0000      -0.686658       -18.6849
  25   2.0000      -0.671007       -18.2590
  26   2.0000      -0.666510       -18.1367
  27   2.0000      -0.627177       -17.0663
  28   2.0000      -0.605288       -16.4707
  29   2.0000      -0.586185       -15.9509
  30   2.0000      -0.570719       -15.5301
  31   2.0000      -0.565946       -15.4002
  32   2.0000      -0.510688       -13.8965
  33   2.0000      -0.496419       -13.5083
  34   2.0000      -0.482971       -13.1423
  35   2.0000      -0.473300       -12.8791
  36   2.0000      -0.458220       -12.4688
  37   2.0000      -0.397286       -10.8107
  38   0.0000       0.007857         0.2138
  39   0.0000       0.028111         0.7650
  40   0.0000       0.034187         0.9303
  41   0.0000       0.041611         1.1323
  42   0.0000       0.054533         1.4839

MULLIKEN ATOMIC CHARGES
-----------------------
   0 S :   -0.176171
   1 O :   -0.583972
   2 O :   -0.720865
   3 O :   -0.468725
   4 N :   -0.554177
   5 C :    0.708214
   6 C :    0.458032
   7 C :   -0.049291
   8 C :    0.047736
   9 H :    0.136492
  10 H :    0.262126
  11 H :    0.331934
  12 H :    0.287365
  13 H :    0.321301
Sum of atomic charges:   -0.0000000

LOEWDIN ATOMIC CHARGES
----------------------
   0 S :    1.247086
   1 O :    0.790248
   2 O :    0.432821
   3 O :    0.835946
   4 N :    0.257654
   5 C :   -0.594146
   6 C :   -0.879285
   7 C :   -0.100838
   8 C :   -0.305566
   9 H :   -0.459256
  10 H :   -0.548626
  11 H :   -0.216735
  12 H :   -0.224306
  13 H :   -0.234996

  Mayer bond orders larger than 0.100000
B(  0-S ,  5-C ) :   0.9023 B(  0-S ,  7-C ) :   0.8115 B(  0-S ,  8-C ) :   0.1382
B(  1-O ,  5-C ) :   0.5888 B(  1-O ,  6-C ) :   0.1261 B(  1-O ,  9-H ) :   1.0446
B(  2-O ,  6-C ) :   1.4633 B(  3-O ,  6-C ) :   0.8771 B(  3-O , 10-H ) :   0.9065
B(  4-N ,  8-C ) :   2.1363 B(  5-C ,  6-C ) :   0.7116 B(  5-C , 11-H ) :   0.8872
B(  7-C ,  8-C ) :   1.0157 B(  7-C , 12-H ) :   0.9202 B(  7-C , 13-H ) :   0.9129

MP2 TOTAL ENERGY:     -832.858624950 Eh
FINAL SINGLE POINT ENERGY      -832.858624950226

DIPOLE MOMENT
-------------
                                X             Y             Z
Electronic contribution:     -0.23013      -3.00817      -1.79654
Nuclear contribution   :      0.80997       5.25471       2.92535
                        -----------------------------------------
Total Dipole Moment    :      0.57983       2.24654       1.12882
                        -----------------------------------------
Magnitude (a.u.)       :      2.58019
Magnitude (Debye)      :      6.55832

Rotational constants in cm-1:     0.119562     0.021748     0.019949
Rotational constants in MHz :  3584.371602   651.991687   598.052055

                             ****ORCA TERMINATED NORMALLY****
TOTAL RUN TIME: 0 days 0 hours 4 minutes 59 seconds 667 msec
