                         Program Version 5.0.3 -  RELEASE  -
|  1> !ri-mp2 aug-cc-pvtz aug-cc-pvtz/c tightscf
|  2> %pal nprocs 16 end
|  3>
|  4> * xyz 0 1
|  5> C      0.000000    0.000000   -2.265776
|  6> C      0.000000    1.202168   -1.568121
|  7> C      0.000000   -1.202168   -1.568121
|  8> C      0.000000    1.209985   -0.178204
|  9> C      0.000000   -1.209985   -0.178204
| 10> C      0.000000    0.000000    0.501800
| 11> Cl     0.000000    0.000000    2.255827
| 12> H      0.000000    0.000000   -3.347036
| 13> H      0.000000    2.141915   -2.103741
| 14> H      0.000000   -2.141915   -2.103741
| 15> H      0.000000    2.139131    0.372605
| 16> H      0.000000   -2.139131    0.372605
| 17> *
| 18>
| 19>                          ****END OF INPUT****

CARTESIAN COORDINATES (ANGSTROEM)
---------------------------------
  C      0.000000    0.000000   -2.265776
  C      0.000000    1.202168   -1.568121
  C      0.000000   -1.202168   -1.568121
  C      0.000000    1.209985   -0.178204
  C      0.000000   -1.209985   -0.178204
  C      0.000000    0.000000    0.501800
  Cl     0.000000    0.000000    2.255827
  H      0.000000    0.000000   -3.347036
  H      0.000000    2.141915   -2.103741
  H      0.000000   -2.141915   -2.103741
  H      0.000000    2.139131    0.372605
  H      0.000000   -2.139131    0.372605

 Total Charge           Charge          ....    0
 Multiplicity           Mult            ....    1
 Number of Electrons    NEL             ....   58
 Basis Dimension        Dim             ....  441

ORBITAL ENERGIES
----------------

  NO   OCC          E(Eh)            E(eV)
   0   2.0000    -104.841224     -2852.8747
   1   2.0000     -11.305827      -307.6472
   2   2.0000     -11.251059      -306.1569
   3   2.0000     -11.251055      -306.1568
   4   2.0000     -11.249782      -306.1221
   5   2.0000     -11.249634      -306.1181
   6   2.0000     -11.245802      -306.0138
   7   2.0000     -10.564851      -287.4842
   8   2.0000      -8.031727      -218.5544
   9   2.0000      -8.029872      -218.5039
  10   2.0000      -8.029863      -218.5037
  11   2.0000      -1.191288       -32.4166
  12   2.0000      -1.119032       -30.4504
  13   2.0000      -1.034576       -28.1522
  14   2.0000      -0.999448       -27.1964
  15   2.0000      -0.848141       -23.0791
  16   2.0000      -0.822096       -22.3704
  17   2.0000      -0.713886       -19.4258
  18   2.0000      -0.649728       -17.6800
  19   2.0000      -0.648410       -17.6441
  20   2.0000      -0.605577       -16.4786
  21   2.0000      -0.589364       -16.0374
  22   2.0000      -0.545750       -14.8506
  23   2.0000      -0.518140       -14.0993
  24   2.0000      -0.511362       -13.9149
  25   2.0000      -0.470266       -12.7966
  26   2.0000      -0.455043       -12.3823
  27   2.0000      -0.353761        -9.6263
  28   2.0000      -0.339123        -9.2280
  29   0.0000       0.027449         0.7469
  30   0.0000       0.032991         0.8977
  31   0.0000       0.038203         1.0396
  32   0.0000       0.049298         1.3415
  33   0.0000       0.052638         1.4324

MULLIKEN ATOMIC CHARGES
-----------------------
   0 C :   -0.430470
   1 C :   -0.236105
   2 C :   -0.236106
   3 C :   -0.900817
   4 C :   -0.900820
   5 C :    0.751775
   6 Cl:   -0.488484
   7 H :    0.490134
   8 H :    0.418427
   9 H :    0.418427
  10 H :    0.557019
  11 H :    0.557019
Sum of atomic charges:    0.0000000

LOEWDIN ATOMIC CHARGES
----------------------
   0 C :    0.192946
   1 C :    0.185517
   2 C :    0.185517
   3 C :    0.104197
   4 C :    0.104197
   5 C :   -0.764502
   6 Cl:    0.951587
   7 H :   -0.185444
   8 H :   -0.183236
   9 H :   -0.183236
  10 H :   -0.203772
  11 H :   -0.203772

  Mayer bond orders larger than 0.100000
B(  0-C ,  1-C ) :   1.0816 B(  0-C ,  2-C ) :   1.0816 B(  0-C ,  3-C ) :   0.1567
B(  0-C ,  4-C ) :   0.1567 B(  0-C ,  7-H ) :   0.7467 B(  1-C ,  2-C ) :  -0.1031
B(  1-C ,  3-C ) :   1.1443 B(  1-C ,  8-H ) :   0.9108 B(  2-C ,  4-C ) :   1.1443
B(  2-C ,  9-H ) :   0.9108 B(  3-C ,  4-C ) :   0.3928 B(  3-C ,  5-C ) :   1.0565
B(  3-C , 10-H ) :   0.6350 B(  4-C ,  5-C ) :   1.0565 B(  4-C , 11-H ) :   0.6350
B(  5-C ,  6-Cl) :   0.6891

MP2 TOTAL ENERGY:     -690.868765695 Eh
FINAL SINGLE POINT ENERGY      -690.868765695219

DIPOLE MOMENT
-------------
                                X             Y             Z
Electronic contribution:     -0.00000      -0.00000       8.92601
Nuclear contribution   :      0.00000       0.00000      -9.71287
                        -----------------------------------------
Total Dipole Moment    :     -0.00000      -0.00000      -0.78687
                        -----------------------------------------
Magnitude (a.u.)       :      0.78687
Magnitude (Debye)      :      2.00005

Rotational constants in cm-1:     0.190783     0.051943     0.040827
Rotational constants in MHz :  5719.517855  1557.213303  1223.971189

                             ****ORCA TERMINATED NORMALLY****
TOTAL RUN TIME: 0 days 0 hours 3 minutes 34 seconds 220 msec
