                         Program Version 5.0.3 -  RELEASE  -
|  1> !ri-mp2 aug-cc-pvtz aug-cc-pvtz/c tightscf
|  2> %pal nprocs 16 end
|  3>
|  4> * xyz 0 1
|  5> C      0.000000    0.000000    0.687813
|  6> C      0.000000    0.000000   -0.687813
|  7> N      0.000000    0.000000    1.839967
|  8> N      0.000000    0.000000   -1.839967
|  9> *
| 10>
| 11>                          ****END OF INPUT****

CARTESIAN COORDINATES (ANGSTROEM)
---------------------------------
  C      0.000000    0.000000    0.687813
  C      0.000000    0.000000   -0.687813
  N      0.000000    0.000000    1.839967
  N      0.000000    0.000000   -1.839967

 Total Charge           Charge          ....    0
 Multiplicity           Mult            ....    1
 Number of Electrons    NEL             ....   26
 Basis Dimension        Dim             ....  184

ORBITAL ENERGIES
----------------

  NO   OCC          E(Eh)            E(eV)
   0   2.0000     -15.654837      -425.9898
   1   2.0000     -15.654831      -425.9896
   2   2.0000     -11.353257      -308.9378
   3   2.0000     -11.352079      -308.9058
   4   2.0000      -1.304229       -35.4899
   5   2.0000      -1.278569       -34.7916
   6   2.0000      -0.984252       -26.7828
   7   2.0000      -0.640047       -17.4166
   8   2.0000      -0.624730       -16.9998
   9   2.0000      -0.602924       -16.4064
  10   2.0000      -0.602924       -16.4064
  11   2.0000      -0.498382       -13.5617
  12   2.0000      -0.498382       -13.5617
  13   0.0000       0.045586         1.2405
  14   0.0000       0.051372         1.3979
  15   0.0000       0.051372         1.3979
  16   0.0000       0.060827         1.6552
  17   0.0000       0.081600         2.2205

MULLIKEN ATOMIC CHARGES
-----------------------
   0 C :    0.400258
   1 C :    0.400258
   2 N :   -0.400258
   3 N :   -0.400258
Sum of atomic charges:   -0.0000000

LOEWDIN ATOMIC CHARGES
----------------------
   0 C :   -0.292314
   1 C :   -0.292314
   2 N :    0.292314
   3 N :    0.292314

  Mayer bond orders larger than 0.100000
B(  0-C ,  1-C ) :   0.9378 B(  0-C ,  2-N ) :   2.4771 B(  0-C ,  3-N ) :  -0.1993
B(  1-C ,  2-N ) :  -0.1993 B(  1-C ,  3-N ) :   2.4771

MP2 TOTAL ENERGY:     -185.332443000 Eh
FINAL SINGLE POINT ENERGY      -185.332443000486

DIPOLE MOMENT
-------------
                                X             Y             Z
Electronic contribution:      0.00000       0.00000      -0.00000
Nuclear contribution   :      0.00000       0.00000       0.00000
                        -----------------------------------------
Total Dipole Moment    :      0.00000       0.00000      -0.00000
                        -----------------------------------------
Magnitude (a.u.)       :      0.00000
Magnitude (Debye)      :      0.00000

Rotational constants in cm-1:     0.000000     0.158727     0.158727
Rotational constants in MHz :     0.000000  4758.515327  4758.515327

                             ****ORCA TERMINATED NORMALLY****
TOTAL RUN TIME: 0 days 0 hours 0 minutes 31 seconds 958 msec
