                         Program Version 5.0.3 -  RELEASE  -
|  1> !ri-mp2 aug-cc-pvtz aug-cc-pvtz/c tightscf
|  2> %pal nprocs 16 end
|  3>
|  4> * xyz 0 1
|  5> H     0.000000     2.213829    1.634446
|  6> H     0.877402     3.463699    0.738497
|  7> H    -0.877402     3.463699    0.738497
|  8> H     0.000000    -2.213829    1.634446
|  9> H     0.877402    -3.463699    0.738497
| 10> H    -0.877402    -3.463699    0.738497
| 11> C     0.000000     2.811524    0.725249
| 12> C     0.000000    -2.811524    0.725249
| 13> H     0.000000     2.459711   -1.459498
| 14> H     0.000000    -2.459711   -1.459498
| 15> C     0.000000    -0.631593   -0.499294
| 16> C     0.000000     0.631593   -0.499294
| 17> C     0.000000     1.946711   -0.501278
| 18> C     0.000000    -1.946711   -0.501278
| 19> *
| 20>
| 21>                          ****END OF INPUT****

CARTESIAN COORDINATES (ANGSTROEM)
---------------------------------
  H      0.000000    2.213829    1.634446
  H      0.877402    3.463699    0.738497
  H     -0.877402    3.463699    0.738497
  H      0.000000   -2.213829    1.634446
  H      0.877402   -3.463699    0.738497
  H     -0.877402   -3.463699    0.738497
  C      0.000000    2.811524    0.725249
  C      0.000000   -2.811524    0.725249
  H      0.000000    2.459711   -1.459498
  H      0.000000   -2.459711   -1.459498
  C      0.000000   -0.631593   -0.499294
  C      0.000000    0.631593   -0.499294
  C      0.000000    1.946711   -0.501278
  C      0.000000   -1.946711   -0.501278

 Total Charge           Charge          ....    0
 Multiplicity           Mult            ....    1
 Number of Electrons    NEL             ....   44
 Basis Dimension        Dim             ....  460

ORBITAL ENERGIES
----------------

  NO   OCC          E(Eh)            E(eV)
   0   2.0000     -11.250475      -306.1410
   1   2.0000     -11.250464      -306.1407
   2   2.0000     -11.241005      -305.8833
   3   2.0000     -11.238503      -305.8152
   4   2.0000     -11.228210      -305.5351
   5   2.0000     -11.228210      -305.5351
   6   2.0000      -1.098863       -29.9016
   7   2.0000      -1.056866       -28.7588
   8   2.0000      -0.978983       -26.6395
   9   2.0000      -0.904085       -24.6014
  10   2.0000      -0.835486       -22.7347
  11   2.0000      -0.679676       -18.4949
  12   2.0000      -0.660062       -17.9612
  13   2.0000      -0.581722       -15.8295
  14   2.0000      -0.575830       -15.6691
  15   2.0000      -0.573115       -15.5953
  16   2.0000      -0.571026       -15.5384
  17   2.0000      -0.529555       -14.4099
  18   2.0000      -0.528362       -14.3775
  19   2.0000      -0.452825       -12.3220
  20   2.0000      -0.363486        -9.8910
  21   2.0000      -0.308663        -8.3991
  22   0.0000       0.030297         0.8244
  23   0.0000       0.031744         0.8638
  24   0.0000       0.038762         1.0548
  25   0.0000       0.045612         1.2412
  26   0.0000       0.049248         1.3401

MULLIKEN ATOMIC CHARGES
-----------------------
   0 H :    0.262653
   1 H :    0.271914
   2 H :    0.271914
   3 H :    0.262653
   4 H :    0.271914
   5 H :    0.271914
   6 C :   -0.819875
   7 C :   -0.819875
   8 H :    0.147503
   9 H :    0.147503
  10 C :    0.815028
  11 C :    0.815028
  12 C :   -0.949137
  13 C :   -0.949137
Sum of atomic charges:    0.0000000

LOEWDIN ATOMIC CHARGES
----------------------
   0 H :   -0.183323
   1 H :   -0.179018
   2 H :   -0.179018
   3 H :   -0.183323
   4 H :   -0.179018
   5 H :   -0.179018
   6 C :    0.539733
   7 C :    0.539733
   8 H :   -0.205877
   9 H :   -0.205877
  10 C :    0.066600
  11 C :    0.066600
  12 C :    0.140902
  13 C :    0.140902

  Mayer bond orders larger than 0.100000
B(  0-H ,  6-C ) :   0.9277 B(  1-H ,  6-C ) :   0.9739 B(  2-H ,  6-C ) :   0.9739
B(  3-H ,  7-C ) :   0.9277 B(  4-H ,  7-C ) :   0.9739 B(  5-H ,  7-C ) :   0.9739
B(  6-C , 12-C ) :   0.9346 B(  6-C , 13-C ) :   0.1353 B(  7-C , 12-C ) :   0.1353
B(  7-C , 13-C ) :   0.9346 B(  8-H , 12-C ) :   1.3055 B(  9-H , 13-C ) :   1.3055
B( 10-C , 11-C ) :   1.7518 B( 10-C , 12-C ) :  -0.4781 B( 10-C , 13-C ) :   1.3403
B( 11-C , 12-C ) :   1.3403 B( 11-C , 13-C ) :  -0.4781 B( 12-C , 13-C ) :   0.1058

MP2 TOTAL ENERGY:     -232.838919943 Eh
FINAL SINGLE POINT ENERGY      -232.838919943082

DIPOLE MOMENT
-------------
                                X             Y             Z
Electronic contribution:     -0.00000       0.00000      -3.24498
Nuclear contribution   :      0.00000       0.00000       3.40718
                        -----------------------------------------
Total Dipole Moment    :     -0.00000       0.00000       0.16219
                        -----------------------------------------
Magnitude (a.u.)       :      0.16219
Magnitude (Debye)      :      0.41226

Rotational constants in cm-1:     0.426686     0.046305     0.042424
Rotational constants in MHz : 12791.716911  1388.181353  1271.845804

                             ****ORCA TERMINATED NORMALLY****
TOTAL RUN TIME: 0 days 0 hours 2 minutes 35 seconds 278 msec
