                         Program Version 5.0.3 -  RELEASE  -
|  1> !ri-mp2 aug-cc-pvtz aug-cc-pvtz/c tightscf
|  2> %pal nprocs 16 end
|  3>
|  4> * xyz 0 1
|  5> C     -0.063692    1.072090    0.664505
|  6> C     -0.063692    1.072090   -0.664505
|  7> C     -0.063692   -0.324395    1.233989
|  8> C     -0.063692   -0.324395   -1.233989
|  9> C      0.247090   -1.207905    0.000000
| 10> H     -0.098837    1.958513    1.283789
| 11> H     -0.098837    1.958513   -1.283789
| 12> H      0.667358   -0.455946    2.034338
| 13> H     -1.041041   -0.560191    1.669221
| 14> H     -1.041041   -0.560191   -1.669221
| 15> H      0.667358   -0.455946   -2.034338
| 16> H      1.305988   -1.468869    0.000000
| 17> H     -0.314874   -2.140795    0.000000
| 18> *
| 19>
| 20>                          ****END OF INPUT****

CARTESIAN COORDINATES (ANGSTROEM)
---------------------------------
  C     -0.063692    1.072090    0.664505
  C     -0.063692    1.072090   -0.664505
  C     -0.063692   -0.324395    1.233989
  C     -0.063692   -0.324395   -1.233989
  C      0.247090   -1.207905    0.000000
  H     -0.098837    1.958513    1.283789
  H     -0.098837    1.958513   -1.283789
  H      0.667358   -0.455946    2.034338
  H     -1.041041   -0.560191    1.669221
  H     -1.041041   -0.560191   -1.669221
  H      0.667358   -0.455946   -2.034338
  H      1.305988   -1.468869    0.000000
  H     -0.314874   -2.140795    0.000000

 Total Charge           Charge          ....    0
 Multiplicity           Mult            ....    1
 Number of Electrons    NEL             ....   38
 Basis Dimension        Dim             ....  414

ORBITAL ENERGIES
----------------

  NO   OCC          E(Eh)            E(eV)
   0   2.0000     -11.220188      -305.3168
   1   2.0000     -11.220080      -305.3139
   2   2.0000     -11.219074      -305.2865
   3   2.0000     -11.217580      -305.2459
   4   2.0000     -11.217357      -305.2398
   5   2.0000      -1.127001       -30.6673
   6   2.0000      -0.962191       -26.1826
   7   2.0000      -0.954406       -25.9707
   8   2.0000      -0.785621       -21.3778
   9   2.0000      -0.721821       -19.6418
  10   2.0000      -0.671615       -18.2756
  11   2.0000      -0.632984       -17.2244
  12   2.0000      -0.549130       -14.9426
  13   2.0000      -0.532144       -14.4804
  14   2.0000      -0.488436       -13.2910
  15   2.0000      -0.486880       -13.2487
  16   2.0000      -0.483340       -13.1524
  17   2.0000      -0.472113       -12.8469
  18   2.0000      -0.340443        -9.2639
  19   0.0000       0.031364         0.8534
  20   0.0000       0.038507         1.0478
  21   0.0000       0.038983         1.0608
  22   0.0000       0.041717         1.1352
  23   0.0000       0.053861         1.4656

MULLIKEN ATOMIC CHARGES
-----------------------
   0 C :   -0.698320
   1 C :   -0.698320
   2 C :   -0.359575
   3 C :   -0.359575
   4 C :   -0.464416
   5 H :    0.483334
   6 H :    0.483334
   7 H :    0.301797
   8 H :    0.253334
   9 H :    0.253334
  10 H :    0.301797
  11 H :    0.223246
  12 H :    0.280031
Sum of atomic charges:   -0.0000000

LOEWDIN ATOMIC CHARGES
----------------------
   0 C :    0.227713
   1 C :    0.227713
   2 C :    0.269069
   3 C :    0.269069
   4 C :    0.299203
   5 H :   -0.181949
   6 H :   -0.181949
   7 H :   -0.157421
   8 H :   -0.153768
   9 H :   -0.153768
  10 H :   -0.157421
  11 H :   -0.153914
  12 H :   -0.152577

  Mayer bond orders larger than 0.100000
B(  0-C ,  1-C ) :   1.6246 B(  0-C ,  2-C ) :   0.8341 B(  0-C ,  5-H ) :   0.7583
B(  1-C ,  3-C ) :   0.8341 B(  1-C ,  6-H ) :   0.7583 B(  2-C ,  4-C ) :   0.9685
B(  2-C ,  7-H ) :   0.9340 B(  2-C ,  8-H ) :   0.9401 B(  3-C ,  4-C ) :   0.9685
B(  3-C ,  9-H ) :   0.9401 B(  3-C , 10-H ) :   0.9340 B(  4-C , 11-H ) :   0.9824
B(  4-C , 12-H ) :   0.9400

MP2 TOTAL ENERGY:     -194.890119975 Eh
FINAL SINGLE POINT ENERGY      -194.890119975362

DIPOLE MOMENT
-------------
                                X             Y             Z
Electronic contribution:     -0.07493       1.71965       0.00000
Nuclear contribution   :      0.04827      -1.80715      -0.00000
                        -----------------------------------------
Total Dipole Moment    :     -0.02666      -0.08750       0.00000
                        -----------------------------------------
Magnitude (a.u.)       :      0.09147
Magnitude (Debye)      :      0.23251

Rotational constants in cm-1:     0.244142     0.241733     0.131443
Rotational constants in MHz :  7319.194736  7246.985568  3940.558187

                             ****ORCA TERMINATED NORMALLY****
TOTAL RUN TIME: 0 days 0 hours 2 minutes 19 seconds 169 msec
