                         Program Version 5.0.3 -  RELEASE  -
|  1> !ri-mp2 aug-cc-pvtz aug-cc-pvtz/c tightscf
|  2> %pal nprocs 16 end
|  3>
|  4> * xyz 0 1
|  5> C      0.000000    0.664652    0.787189
|  6> C      0.000000    0.664652   -0.787189
|  7> C      0.000000   -0.664652    0.787189
|  8> C      0.000000   -0.664652   -0.787189
|  9> H      0.000000    1.428618    1.548923
| 10> H      0.000000    1.428618   -1.548923
| 11> H      0.000000   -1.428618    1.548923
| 12> H      0.000000   -1.428618   -1.548923
| 13> *
| 14>
| 15>                          ****END OF INPUT****

CARTESIAN COORDINATES (ANGSTROEM)
---------------------------------
  C      0.000000    0.664652    0.787189
  C      0.000000    0.664652   -0.787189
  C      0.000000   -0.664652    0.787189
  C      0.000000   -0.664652   -0.787189
  H      0.000000    1.428618    1.548923
  H      0.000000    1.428618   -1.548923
  H      0.000000   -1.428618    1.548923
  H      0.000000   -1.428618   -1.548923

 Total Charge           Charge          ....    0
 Multiplicity           Mult            ....    1
 Number of Electrons    NEL             ....   28
 Basis Dimension        Dim             ....  276

ORBITAL ENERGIES
----------------

  NO   OCC          E(Eh)            E(eV)
   0   2.0000     -11.244074      -305.9668
   1   2.0000     -11.243613      -305.9543
   2   2.0000     -11.242325      -305.9192
   3   2.0000     -11.241861      -305.9066
   4   2.0000      -1.160887       -31.5893
   5   2.0000      -0.918261       -24.9872
   6   2.0000      -0.823734       -22.4150
   7   2.0000      -0.701442       -19.0872
   8   2.0000      -0.697218       -18.9723
   9   2.0000      -0.559311       -15.2196
  10   2.0000      -0.540153       -14.6983
  11   2.0000      -0.477612       -12.9965
  12   2.0000      -0.452935       -12.3250
  13   2.0000      -0.280887        -7.6433
  14   0.0000       0.031078         0.8457
  15   0.0000       0.035690         0.9712
  16   0.0000       0.037013         1.0072
  17   0.0000       0.048283         1.3138
  18   0.0000       0.064608         1.7581

MULLIKEN ATOMIC CHARGES
-----------------------
   0 C :   -0.553995
   1 C :   -0.553995
   2 C :   -0.553995
   3 C :   -0.553995
   4 H :    0.553995
   5 H :    0.553995
   6 H :    0.553995
   7 H :    0.553995
Sum of atomic charges:    0.0000000

LOEWDIN ATOMIC CHARGES
----------------------
   0 C :    0.209552
   1 C :    0.209552
   2 C :    0.209552
   3 C :    0.209552
   4 H :   -0.209552
   5 H :   -0.209552
   6 H :   -0.209552
   7 H :   -0.209552

  Mayer bond orders larger than 0.100000
B(  0-C ,  1-C ) :   0.7929 B(  0-C ,  2-C ) :   1.5187 B(  0-C ,  3-C ) :  -0.1314
B(  0-C ,  4-H ) :   0.7492 B(  1-C ,  2-C ) :  -0.1314 B(  1-C ,  3-C ) :   1.5187
B(  1-C ,  5-H ) :   0.7492 B(  2-C ,  3-C ) :   0.7929 B(  2-C ,  6-H ) :   0.7492
B(  3-C ,  7-H ) :   0.7492

MP2 TOTAL ENERGY:     -154.338265792 Eh
FINAL SINGLE POINT ENERGY      -154.338265792284

DIPOLE MOMENT
-------------
                                X             Y             Z
Electronic contribution:      0.00000      -0.00000       0.00000
Nuclear contribution   :      0.00000       0.00000       0.00000
                        -----------------------------------------
Total Dipole Moment    :      0.00000      -0.00000       0.00000
                        -----------------------------------------
Magnitude (a.u.)       :      0.00000
Magnitude (Debye)      :      0.00000

Rotational constants in cm-1:     0.572355     0.427374     0.244676
Rotational constants in MHz : 17158.766975 12812.360543  7335.203149

                             ****ORCA TERMINATED NORMALLY****
TOTAL RUN TIME: 0 days 0 hours 0 minutes 54 seconds 220 msec
