                         Program Version 5.0.3 -  RELEASE  -
|  1> !ri-mp2 aug-cc-pvtz aug-cc-pvtz/c tightscf
|  2> %pal nprocs 16 end
|  3>
|  4> * xyz 0 1
|  5> C     0.000000     0.000000   -1.138108
|  6> Cl    0.000000     0.000000    0.662444
|  7> H     0.000000     1.030124   -1.477634
|  8> H     0.892114    -0.515062   -1.477634
|  9> H    -0.892114    -0.515062   -1.477634
| 10> *
| 11>
| 12>                          ****END OF INPUT****

CARTESIAN COORDINATES (ANGSTROEM)
---------------------------------
  C      0.000000    0.000000   -1.138108
  Cl     0.000000    0.000000    0.662444
  H      0.000000    1.030124   -1.477634
  H      0.892114   -0.515062   -1.477634
  H     -0.892114   -0.515062   -1.477634

 Total Charge           Charge          ....    0
 Multiplicity           Mult            ....    1
 Number of Electrons    NEL             ....   26
 Basis Dimension        Dim             ....  165

ORBITAL ENERGIES
----------------

  NO   OCC          E(Eh)            E(eV)
   0   2.0000    -104.826155     -2852.4647
   1   2.0000     -11.292694      -307.2898
   2   2.0000     -10.550151      -287.0842
   3   2.0000      -8.017018      -218.1542
   4   2.0000      -8.015199      -218.1046
   5   2.0000      -8.015199      -218.1046
   6   2.0000      -1.123410       -30.5695
   7   2.0000      -0.917193       -24.9581
   8   2.0000      -0.618264       -16.8238
   9   2.0000      -0.618264       -16.8238
  10   2.0000      -0.541728       -14.7412
  11   2.0000      -0.436096       -11.8668
  12   2.0000      -0.436096       -11.8668
  13   0.0000       0.028024         0.7626
  14   0.0000       0.046125         1.2551
  15   0.0000       0.046125         1.2551
  16   0.0000       0.065222         1.7748
  17   0.0000       0.115905         3.1539

MULLIKEN ATOMIC CHARGES
-----------------------
   0 C :   -0.672827
   1 Cl:   -0.248697
   2 H :    0.307175
   3 H :    0.307175
   4 H :    0.307175
Sum of atomic charges:    0.0000000

LOEWDIN ATOMIC CHARGES
----------------------
   0 C :    0.020558
   1 Cl:    0.796000
   2 H :   -0.272186
   3 H :   -0.272186
   4 H :   -0.272186

  Mayer bond orders larger than 0.100000
B(  0-C ,  1-Cl) :   0.8858 B(  0-C ,  2-H ) :   0.9054 B(  0-C ,  3-H ) :   0.9054
B(  0-C ,  4-H ) :   0.9054

MP2 TOTAL ENERGY:     -499.529054827 Eh
FINAL SINGLE POINT ENERGY      -499.529054826732

DIPOLE MOMENT
-------------
                                X             Y             Z
Electronic contribution:      0.00000       0.00000       4.34136
Nuclear contribution   :      0.00000       0.00000      -5.20392
                        -----------------------------------------
Total Dipole Moment    :      0.00000       0.00000      -0.86257
                        -----------------------------------------
Magnitude (a.u.)       :      0.86257
Magnitude (Debye)      :      2.19247

Rotational constants in cm-1:     5.253345     0.434965     0.434965
Rotational constants in MHz : 157491.307458 13039.918156 13039.917615

                             ****ORCA TERMINATED NORMALLY****
TOTAL RUN TIME: 0 days 0 hours 0 minutes 45 seconds 123 msec
