                         Program Version 5.0.3 -  RELEASE  -
|  1> !ri-mp2 aug-cc-pvtz aug-cc-pvtz/c tightscf
|  2> %pal nprocs 16 end
|  3>
|  4> * xyz 0 1
|  5> C      0.000000    0.000000   -0.043798
|  6> C      0.000000    0.000000    1.304624
|  7> C      0.000000    0.659873    2.562756
|  8> C      0.000000   -0.659873    2.562756
|  9> C      0.000000    1.167314   -0.908995
| 10> C      0.000000   -1.167314   -0.908995
| 11> C      0.000000    0.725289   -2.197208
| 12> C      0.000000   -0.725289   -2.197208
| 13> H      0.000000    1.574226    3.129175
| 14> H      0.000000   -1.574226    3.129175
| 15> H      0.000000    2.191202   -0.569441
| 16> H      0.000000   -2.191202   -0.569441
| 17> H      0.000000    1.344285   -3.081535
| 18> H      0.000000   -1.344285   -3.081535
| 19> *
| 20>
| 21>                          ****END OF INPUT****

CARTESIAN COORDINATES (ANGSTROEM)
---------------------------------
  C      0.000000    0.000000   -0.043798
  C      0.000000    0.000000    1.304624
  C      0.000000    0.659873    2.562756
  C      0.000000   -0.659873    2.562756
  C      0.000000    1.167314   -0.908995
  C      0.000000   -1.167314   -0.908995
  C      0.000000    0.725289   -2.197208
  C      0.000000   -0.725289   -2.197208
  H      0.000000    1.574226    3.129175
  H      0.000000   -1.574226    3.129175
  H      0.000000    2.191202   -0.569441
  H      0.000000   -2.191202   -0.569441
  H      0.000000    1.344285   -3.081535
  H      0.000000   -1.344285   -3.081535

 Total Charge           Charge          ....    0
 Multiplicity           Mult            ....    1
 Number of Electrons    NEL             ....   54
 Basis Dimension        Dim             ....  506

ORBITAL ENERGIES
----------------

  NO   OCC          E(Eh)            E(eV)
   0   2.0000     -11.308374      -307.7165
   1   2.0000     -11.306270      -307.6593
   2   2.0000     -11.305873      -307.6484
   3   2.0000     -11.207139      -304.9617
   4   2.0000     -11.201303      -304.8030
   5   2.0000     -11.201218      -304.8006
   6   2.0000     -11.195713      -304.6508
   7   2.0000     -11.194830      -304.6268
   8   2.0000      -1.246220       -33.9114
   9   2.0000      -1.132165       -30.8078
  10   2.0000      -0.972824       -26.4719
  11   2.0000      -0.937693       -25.5159
  12   2.0000      -0.828471       -22.5438
  13   2.0000      -0.813010       -22.1231
  14   2.0000      -0.759904       -20.6781
  15   2.0000      -0.712267       -19.3818
  16   2.0000      -0.688900       -18.7459
  17   2.0000      -0.599171       -16.3043
  18   2.0000      -0.548040       -14.9129
  19   2.0000      -0.546231       -14.8637
  20   2.0000      -0.533208       -14.5093
  21   2.0000      -0.528487       -14.3809
  22   2.0000      -0.495152       -13.4738
  23   2.0000      -0.461702       -12.5635
  24   2.0000      -0.456165       -12.4129
  25   2.0000      -0.282681        -7.6921
  26   2.0000      -0.276054        -7.5118
  27   0.0000       0.019207         0.5226
  28   0.0000       0.026782         0.7288
  29   0.0000       0.040101         1.0912
  30   0.0000       0.046615         1.2685
  31   0.0000       0.049384         1.3438

MULLIKEN ATOMIC CHARGES
-----------------------
   0 C :    2.298419
   1 C :    0.928964
   2 C :   -1.030775
   3 C :   -1.030775
   4 C :   -1.384589
   5 C :   -1.384589
   6 C :   -0.563991
   7 C :   -0.563991
   8 H :    0.401130
   9 H :    0.401130
  10 H :    0.383102
  11 H :    0.383102
  12 H :    0.581431
  13 H :    0.581432
Sum of atomic charges:    0.0000000

LOEWDIN ATOMIC CHARGES
----------------------
   0 C :   -0.210452
   1 C :   -0.063550
   2 C :    0.350459
   3 C :    0.350459
   4 C :    0.169958
   5 C :    0.169958
   6 C :    0.172303
   7 C :    0.172303
   8 H :   -0.164458
   9 H :   -0.164458
  10 H :   -0.191030
  11 H :   -0.191030
  12 H :   -0.200230
  13 H :   -0.200230

  Mayer bond orders larger than 0.100000
B(  0-C ,  1-C ) :   0.7657 B(  0-C ,  2-C ) :  -0.1769 B(  0-C ,  3-C ) :  -0.1769
B(  0-C ,  4-C ) :  -0.2067 B(  0-C ,  5-C ) :  -0.2067 B(  0-C ,  6-C ) :  -0.1794
B(  0-C ,  7-C ) :  -0.1794 B(  1-C ,  2-C ) :   0.1744 B(  1-C ,  3-C ) :   0.1744
B(  2-C ,  3-C ) :   1.7757 B(  2-C ,  8-H ) :   1.1372 B(  3-C ,  9-H ) :   1.1372
B(  4-C ,  5-C ) :   0.2780 B(  4-C ,  6-C ) :   1.7107 B(  4-C , 10-H ) :   1.0392
B(  5-C ,  7-C ) :   1.7107 B(  5-C , 11-H ) :   1.0392 B(  6-C ,  7-C ) :   0.9048
B(  6-C , 12-H ) :   0.6591 B(  7-C , 13-H ) :   0.6591

MP2 TOTAL ENERGY:     -307.654164836 Eh
FINAL SINGLE POINT ENERGY      -307.654164835639

DIPOLE MOMENT
-------------
                                X             Y             Z
Electronic contribution:      0.00000       0.00000       3.08243
Nuclear contribution   :      0.00000       0.00000      -1.03624
                        -----------------------------------------
Total Dipole Moment    :      0.00000       0.00000       2.04619
                        -----------------------------------------
Magnitude (a.u.)       :      2.04619
Magnitude (Debye)      :      5.20100

Rotational constants in cm-1:     0.227351     0.047677     0.039412
Rotational constants in MHz :  6815.803137  1429.308294  1181.534542

                             ****ORCA TERMINATED NORMALLY****
TOTAL RUN TIME: 0 days 0 hours 4 minutes 50 seconds 769 msec
