                         Program Version 5.0.3 -  RELEASE  -
|  1> !ri-mp2 aug-cc-pvtz aug-cc-pvtz/c tightscf
|  2> %pal nprocs 16 end
|  3>
|  4> * xyz 0 1
|  5> N     -1.375785    0.000002    0.012410
|  6> N      1.116606    0.000001   -0.079764
|  7> C     -0.221237   -0.000004   -0.000219
|  8> H      1.570840    0.843614    0.236395
|  9> H      1.570840   -0.843611    0.236395
| 10> *
| 11>
| 12>                          ****END OF INPUT****

CARTESIAN COORDINATES (ANGSTROEM)
---------------------------------
  N     -1.375785    0.000002    0.012410
  N      1.116606    0.000001   -0.079764
  C     -0.221237   -0.000004   -0.000219
  H      1.570840    0.843614    0.236395
  H      1.570840   -0.843611    0.236395

 Total Charge           Charge          ....    0
 Multiplicity           Mult            ....    1
 Number of Electrons    NEL             ....   22
 Basis Dimension        Dim             ....  184

ORBITAL ENERGIES
----------------

  NO   OCC          E(Eh)            E(eV)
   0   2.0000     -15.632430      -425.3800
   1   2.0000     -15.562537      -423.4782
   2   2.0000     -11.306846      -307.6749
   3   2.0000      -1.285269       -34.9739
   4   2.0000      -1.193045       -32.4644
   5   2.0000      -0.800904       -21.7937
   6   2.0000      -0.747704       -20.3461
   7   2.0000      -0.578710       -15.7475
   8   2.0000      -0.556425       -15.1411
   9   2.0000      -0.466917       -12.7054
  10   2.0000      -0.417508       -11.3610
  11   0.0000       0.014622         0.3979
  12   0.0000       0.037954         1.0328
  13   0.0000       0.075853         2.0641
  14   0.0000       0.080069         2.1788
  15   0.0000       0.098687         2.6854

MULLIKEN ATOMIC CHARGES
-----------------------
   0 N :   -0.328085
   1 N :   -0.129525
   2 C :    0.047901
   3 H :    0.204855
   4 H :    0.204854
Sum of atomic charges:   -0.0000000

LOEWDIN ATOMIC CHARGES
----------------------
   0 N :    0.205411
   1 N :    0.783786
   2 C :   -0.370133
   3 H :   -0.309531
   4 H :   -0.309533

  Mayer bond orders larger than 0.100000
B(  0-N ,  1-N ) :  -0.1424 B(  0-N ,  2-C ) :   2.6497 B(  1-N ,  2-C ) :   0.8872
B(  1-N ,  3-H ) :   0.9612 B(  1-N ,  4-H ) :   0.9612

MP2 TOTAL ENERGY:     -148.528802162 Eh
FINAL SINGLE POINT ENERGY      -148.528802161599

DIPOLE MOMENT
-------------
                                X             Y             Z
Electronic contribution:     -1.24303      -0.00000      -0.08554
Nuclear contribution   :      3.08613       0.00000       0.46427
                        -----------------------------------------
Total Dipole Moment    :      1.84310      -0.00000       0.37873
                        -----------------------------------------
Magnitude (a.u.)       :      1.88161
Magnitude (Debye)      :      4.78266

Rotational constants in cm-1:    10.397620     0.340519     0.332144
Rotational constants in MHz : 311712.817653 10208.498957  9957.439031

                             ****ORCA TERMINATED NORMALLY****
TOTAL RUN TIME: 0 days 0 hours 0 minutes 30 seconds 205 msec
