                         Program Version 5.0.3 -  RELEASE  -
|  1> !ri-mp2 aug-cc-pvtz aug-cc-pvtz/c tightscf
|  2> %pal nprocs 16 end
|  3>
|  4> * xyz 0 1
|  5> C     -0.407739    1.083702    0.000000
|  6> C      0.155829    0.499472    1.282325
|  7> C      0.155829    0.499472   -1.282325
|  8> C      0.155829   -1.039311    1.263183
|  9> C      0.155829   -1.039311   -1.263183
| 10> C      0.820538   -1.590283    0.000000
| 11> O     -1.249483    1.954490    0.000000
| 12> H      1.188471    0.854961    1.375218
| 13> H     -0.408079    0.898882    2.123656
| 14> H     -0.408079    0.898882   -2.123656
| 15> H      1.188471    0.854961   -1.375218
| 16> H      0.657166   -1.415176    2.156695
| 17> H     -0.876952   -1.396180    1.313350
| 18> H     -0.876952   -1.396180   -1.313350
| 19> H      0.657166   -1.415176   -2.156695
| 20> H      1.882221   -1.322209    0.000000
| 21> H      0.775740   -2.681122    0.000000
| 22> *
| 23>
| 24>                          ****END OF INPUT****

CARTESIAN COORDINATES (ANGSTROEM)
---------------------------------
  C     -0.407739    1.083702    0.000000
  C      0.155829    0.499472    1.282325
  C      0.155829    0.499472   -1.282325
  C      0.155829   -1.039311    1.263183
  C      0.155829   -1.039311   -1.263183
  C      0.820538   -1.590283    0.000000
  O     -1.249483    1.954490    0.000000
  H      1.188471    0.854961    1.375218
  H     -0.408079    0.898882    2.123656
  H     -0.408079    0.898882   -2.123656
  H      1.188471    0.854961   -1.375218
  H      0.657166   -1.415176    2.156695
  H     -0.876952   -1.396180    1.313350
  H     -0.876952   -1.396180   -1.313350
  H      0.657166   -1.415176   -2.156695
  H      1.882221   -1.322209    0.000000
  H      0.775740   -2.681122    0.000000

 Total Charge           Charge          ....    0
 Multiplicity           Mult            ....    1
 Number of Electrons    NEL             ....   54
 Basis Dimension        Dim             ....  552

ORBITAL ENERGIES
----------------

  NO   OCC          E(Eh)            E(eV)
   0   2.0000     -20.541275      -558.9565
   1   2.0000     -11.323122      -308.1178
   2   2.0000     -11.236231      -305.7534
   3   2.0000     -11.236198      -305.7525
   4   2.0000     -11.234201      -305.6982
   5   2.0000     -11.234185      -305.6977
   6   2.0000     -11.232215      -305.6441
   7   2.0000      -1.381884       -37.6030
   8   2.0000      -1.122214       -30.5370
   9   2.0000      -1.026528       -27.9333
  10   2.0000      -0.990167       -26.9438
  11   2.0000      -0.862090       -23.4587
  12   2.0000      -0.813887       -22.1470
  13   2.0000      -0.730922       -19.8894
  14   2.0000      -0.662253       -18.0208
  15   2.0000      -0.639697       -17.4070
  16   2.0000      -0.629551       -17.1310
  17   2.0000      -0.601963       -16.3802
  18   2.0000      -0.587756       -15.9937
  19   2.0000      -0.570970       -15.5369
  20   2.0000      -0.546877       -14.8813
  21   2.0000      -0.505550       -13.7567
  22   2.0000      -0.504694       -13.7334
  23   2.0000      -0.476144       -12.9565
  24   2.0000      -0.474270       -12.9055
  25   2.0000      -0.462340       -12.5809
  26   2.0000      -0.396324       -10.7845
  27   0.0000       0.025414         0.6915
  28   0.0000       0.031994         0.8706
  29   0.0000       0.034219         0.9312
  30   0.0000       0.040181         1.0934
  31   0.0000       0.052949         1.4408

MULLIKEN ATOMIC CHARGES
-----------------------
   0 C :    0.540665
   1 C :   -0.302380
   2 C :   -0.302380
   3 C :   -0.543656
   4 C :   -0.543656
   5 C :   -0.427877
   6 O :   -0.996539
   7 H :    0.236015
   8 H :    0.301042
   9 H :    0.301042
  10 H :    0.236015
  11 H :    0.307973
  12 H :    0.202853
  13 H :    0.202853
  14 H :    0.307973
  15 H :    0.213686
  16 H :    0.266370
Sum of atomic charges:    0.0000000

LOEWDIN ATOMIC CHARGES
----------------------
   0 C :   -0.491898
   1 C :    0.300183
   2 C :    0.300183
   3 C :    0.292169
   4 C :    0.292169
   5 C :    0.285382
   6 O :    0.467791
   7 H :   -0.143267
   8 H :   -0.156297
   9 H :   -0.156297
  10 H :   -0.143267
  11 H :   -0.141468
  12 H :   -0.141045
  13 H :   -0.141045
  14 H :   -0.141468
  15 H :   -0.140687
  16 H :   -0.141139

  Mayer bond orders larger than 0.100000
B(  0-C ,  1-C ) :   0.8665 B(  0-C ,  2-C ) :   0.8665 B(  0-C ,  3-C ) :   0.1369
B(  0-C ,  4-C ) :   0.1369 B(  0-C ,  6-O ) :   0.9370 B(  1-C ,  3-C ) :   0.9405
B(  1-C ,  7-H ) :   0.9787 B(  1-C ,  8-H ) :   0.8906 B(  2-C ,  4-C ) :   0.9405
B(  2-C ,  9-H ) :   0.8906 B(  2-C , 10-H ) :   0.9787 B(  3-C ,  5-C ) :   0.8733
B(  3-C , 11-H ) :   0.9325 B(  3-C , 12-H ) :   0.9990 B(  4-C ,  5-C ) :   0.8733
B(  4-C , 13-H ) :   0.9990 B(  4-C , 14-H ) :   0.9325 B(  5-C , 15-H ) :   1.0083
B(  5-C , 16-H ) :   0.9403

MP2 TOTAL ENERGY:     -309.274457921 Eh
FINAL SINGLE POINT ENERGY      -309.274457921159

DIPOLE MOMENT
-------------
                                X             Y             Z
Electronic contribution:     -2.93038       5.17093       0.00000
Nuclear contribution   :      3.88477      -6.29043      -0.00000
                        -----------------------------------------
Total Dipole Moment    :      0.95439      -1.11950       0.00000
                        -----------------------------------------
Magnitude (a.u.)       :      1.47110
Magnitude (Debye)      :      3.73924

Rotational constants in cm-1:     0.140599     0.082997     0.058051
Rotational constants in MHz :  4215.066829  2488.184425  1740.324923

                             ****ORCA TERMINATED NORMALLY****
TOTAL RUN TIME: 0 days 0 hours 6 minutes 14 seconds 383 msec
