                         Program Version 5.0.3 -  RELEASE  -
|  1> !ri-mp2 aug-cc-pvtz aug-cc-pvtz/c tightscf
|  2> %pal nprocs 16 end
|  3>
|  4> * xyz 0 1
|  5> Cl    -1.452562   -0.235201    0.000013
|  6> O      2.214395   -0.375124    0.000033
|  7> C      0.002567    0.726842   -0.000115
|  8> C      1.175372    0.139924   -0.000030
|  9> H     -0.089246    1.798809    0.000383
| 10> *
| 11>
| 12>                          ****END OF INPUT****

CARTESIAN COORDINATES (ANGSTROEM)
---------------------------------
  Cl    -1.452562   -0.235201    0.000013
  O      2.214395   -0.375124    0.000033
  C      0.002567    0.726842   -0.000115
  C      1.175372    0.139924   -0.000030
  H     -0.089246    1.798809    0.000383

 Total Charge           Charge          ....    0
 Multiplicity           Mult            ....    1
 Number of Electrons    NEL             ....   38
 Basis Dimension        Dim             ....  211

ORBITAL ENERGIES
----------------

  NO   OCC          E(Eh)            E(eV)
   0   2.0000    -104.865419     -2853.5331
   1   2.0000     -20.651742      -561.9625
   2   2.0000     -11.402964      -310.2904
   3   2.0000     -11.308237      -307.7128
   4   2.0000     -10.588195      -288.1194
   5   2.0000      -8.055222      -219.1937
   6   2.0000      -8.053092      -219.1358
   7   2.0000      -8.052918      -219.1310
   8   2.0000      -1.494887       -40.6779
   9   2.0000      -1.174294       -31.9542
  10   2.0000      -1.021231       -27.7891
  11   2.0000      -0.774906       -21.0863
  12   2.0000      -0.717502       -19.5242
  13   2.0000      -0.667555       -18.1651
  14   2.0000      -0.648433       -17.6448
  15   2.0000      -0.575118       -15.6498
  16   2.0000      -0.520344       -14.1593
  17   2.0000      -0.476280       -12.9602
  18   2.0000      -0.364010        -9.9052
  19   0.0000       0.026868         0.7311
  20   0.0000       0.054271         1.4768
  21   0.0000       0.059863         1.6289
  22   0.0000       0.087376         2.3776
  23   0.0000       0.090805         2.4709

MULLIKEN ATOMIC CHARGES
-----------------------
   0 Cl:   -0.181253
   1 O :   -0.359225
   2 C :   -0.262792
   3 C :    0.404938
   4 H :    0.398331
Sum of atomic charges:    0.0000000

LOEWDIN ATOMIC CHARGES
----------------------
   0 Cl:    0.860973
   1 O :    0.406437
   2 C :   -0.531123
   3 C :   -0.401434
   4 H :   -0.334854

  Mayer bond orders larger than 0.100000
B(  0-Cl,  2-C ) :   0.9169 B(  1-O ,  2-C ) :  -0.1130 B(  1-O ,  3-C ) :   2.0255
B(  2-C ,  3-C ) :   1.6172 B(  2-C ,  4-H ) :   0.8112

MP2 TOTAL ENERGY:     -611.438420467 Eh
FINAL SINGLE POINT ENERGY      -611.438420467186

DIPOLE MOMENT
-------------
                                X             Y             Z
Electronic contribution:     -1.97975      -1.41052      -0.00012
Nuclear contribution   :      1.88842       1.98697       0.00034
                        -----------------------------------------
Total Dipole Moment    :     -0.09133       0.57645       0.00022
                        -----------------------------------------
Magnitude (a.u.)       :      0.58364
Magnitude (Debye)      :      1.48349

Rotational constants in cm-1:     1.204645     0.099276     0.091717
Rotational constants in MHz : 36114.361304  2976.214606  2749.616434

                             ****ORCA TERMINATED NORMALLY****
TOTAL RUN TIME: 0 days 0 hours 0 minutes 52 seconds 122 msec
