                         Program Version 5.0.3 -  RELEASE  -
|  1> !ri-mp2 aug-cc-pvtz aug-cc-pvtz/c tightscf
|  2> %pal nprocs 16 end
|  3>
|  4> * xyz 0 1
|  5> H      1.757205   -0.189555    1.463765
|  6> H      0.080822   -0.525541    1.928692
|  7> C      0.759101   -0.406803    1.087809
|  8> H     -0.167443   -2.080157    0.000000
|  9> H      1.596662   -2.202628    0.000000
| 10> C      0.759101   -1.508440    0.000000
| 11> H      0.080822   -0.525541   -1.928692
| 12> H      1.757205   -0.189555   -1.463765
| 13> C      0.759101   -0.406803   -1.087809
| 14> H      0.914383    1.569711    0.000000
| 15> C      0.347469    0.639812    0.000000
| 16> N     -2.193925    1.206944    0.000000
| 17> C     -1.068470    0.964678    0.000000
| 18> *
| 19>
| 20>                          ****END OF INPUT****

CARTESIAN COORDINATES (ANGSTROEM)
---------------------------------
  H      1.757205   -0.189555    1.463765
  H      0.080822   -0.525541    1.928692
  C      0.759101   -0.406803    1.087809
  H     -0.167443   -2.080157    0.000000
  H      1.596662   -2.202628    0.000000
  C      0.759101   -1.508440    0.000000
  H      0.080822   -0.525541   -1.928692
  H      1.757205   -0.189555   -1.463765
  C      0.759101   -0.406803   -1.087809
  H      0.914383    1.569711    0.000000
  C      0.347469    0.639812    0.000000
  N     -2.193925    1.206944    0.000000
  C     -1.068470    0.964678    0.000000

 Total Charge           Charge          ....    0
 Multiplicity           Mult            ....    1
 Number of Electrons    NEL             ....   44
 Basis Dimension        Dim             ....  437

ORBITAL ENERGIES
----------------

  NO   OCC          E(Eh)            E(eV)
   0   2.0000     -15.563073      -423.4927
   1   2.0000     -11.282010      -306.9991
   2   2.0000     -11.267241      -306.5972
   3   2.0000     -11.251193      -306.1605
   4   2.0000     -11.251184      -306.1603
   5   2.0000     -11.241430      -305.8949
   6   2.0000      -1.219754       -33.1912
   7   2.0000      -1.156898       -31.4808
   8   2.0000      -0.963314       -26.2131
   9   2.0000      -0.927796       -25.2466
  10   2.0000      -0.806812       -21.9545
  11   2.0000      -0.704658       -19.1747
  12   2.0000      -0.682305       -18.5665
  13   2.0000      -0.615247       -16.7417
  14   2.0000      -0.575969       -15.6729
  15   2.0000      -0.552586       -15.0366
  16   2.0000      -0.545779       -14.8514
  17   2.0000      -0.503748       -13.7077
  18   2.0000      -0.492518       -13.4021
  19   2.0000      -0.478889       -13.0312
  20   2.0000      -0.439938       -11.9713
  21   2.0000      -0.438578       -11.9343
  22   0.0000       0.022613         0.6153
  23   0.0000       0.032715         0.8902
  24   0.0000       0.036103         0.9824
  25   0.0000       0.041500         1.1293
  26   0.0000       0.053170         1.4468

MULLIKEN ATOMIC CHARGES
-----------------------
   0 H :    0.264644
   1 H :    0.383948
   2 C :   -0.619380
   3 H :    0.257799
   4 H :    0.398463
   5 C :   -0.655725
   6 H :    0.383948
   7 H :    0.264644
   8 C :   -0.619380
   9 H :    0.366840
  10 C :   -0.068401
  11 N :   -0.809665
  12 C :    0.452267
Sum of atomic charges:    0.0000000

LOEWDIN ATOMIC CHARGES
----------------------
   0 H :   -0.146661
   1 H :   -0.147683
   2 C :    0.337139
   3 H :   -0.149134
   4 H :   -0.149764
   5 C :    0.336168
   6 H :   -0.147683
   7 H :   -0.146661
   8 C :    0.337139
   9 H :   -0.148703
  10 C :   -0.031939
  11 N :    0.265400
  12 C :   -0.207618

  Mayer bond orders larger than 0.100000
B(  0-H ,  2-C ) :   0.9594 B(  1-H ,  2-C ) :   0.8007 B(  2-C ,  5-C ) :   1.0710
B(  2-C , 10-C ) :   0.9761 B(  2-C , 12-C ) :   0.1499 B(  3-H ,  5-C ) :   0.9531
B(  4-H ,  5-C ) :   0.7983 B(  5-C ,  8-C ) :   1.0710 B(  5-C , 10-C ) :  -0.1522
B(  6-H ,  8-C ) :   0.8007 B(  7-H ,  8-C ) :   0.9594 B(  8-C , 10-C ) :   0.9761
B(  8-C , 12-C ) :   0.1499 B(  9-H , 10-C ) :   0.8212 B( 10-C , 11-N ) :   0.2269
B( 10-C , 12-C ) :   0.8567 B( 11-N , 12-C ) :   1.9071

MP2 TOTAL ENERGY:     -248.942294828 Eh
FINAL SINGLE POINT ENERGY      -248.942294828429

DIPOLE MOMENT
-------------
                                X             Y             Z
Electronic contribution:     -4.42240       3.63485      -0.00000
Nuclear contribution   :      6.11913      -4.21354      -0.00000
                        -----------------------------------------
Total Dipole Moment    :      1.69673      -0.57869      -0.00000
                        -----------------------------------------
Magnitude (a.u.)       :      1.79270
Magnitude (Debye)      :      4.55669

Rotational constants in cm-1:     0.261466     0.087551     0.080828
Rotational constants in MHz :  7838.551390  2624.727576  2423.171252

                             ****ORCA TERMINATED NORMALLY****
TOTAL RUN TIME: 0 days 0 hours 2 minutes 46 seconds 825 msec
