                         Program Version 5.0.3 -  RELEASE  -
|  1> !ri-mp2 aug-cc-pvtz aug-cc-pvtz/c tightscf
|  2> %pal nprocs 16 end
|  3>
|  4> * xyz 0 1
|  5> C      1.289018    1.047846        0.000000
|  6> C      0.000000    0.763426        0.000000
|  7> Cl    -0.623753   -0.866823        0.000000
|  8> H      1.603767    2.082310        0.000000
|  9> H      2.051033    0.282196        0.000000
| 10> H     -0.785113    1.503855        0.000000
| 11> *
| 12>
| 13>                          ****END OF INPUT****

CARTESIAN COORDINATES (ANGSTROEM)
---------------------------------
  C      1.289018    1.047846    0.000000
  C      0.000000    0.763426    0.000000
  Cl    -0.623753   -0.866823    0.000000
  H      1.603767    2.082310    0.000000
  H      2.051033    0.282196    0.000000
  H     -0.785113    1.503855    0.000000

 Total Charge           Charge          ....    0
 Multiplicity           Mult            ....    1
 Number of Electrons    NEL             ....   32
 Basis Dimension        Dim             ....  211

ORBITAL ENERGIES
----------------

  NO   OCC          E(Eh)            E(eV)
   0   2.0000    -104.842378     -2852.9061
   1   2.0000     -11.304128      -307.6009
   2   2.0000     -11.248054      -306.0751
   3   2.0000     -10.566319      -287.5242
   4   2.0000      -8.033215      -218.5949
   5   2.0000      -8.031338      -218.5438
   6   2.0000      -8.031309      -218.5430
   7   2.0000      -1.155200       -31.4346
   8   2.0000      -1.018387       -27.7117
   9   2.0000      -0.794655       -21.6237
  10   2.0000      -0.663744       -18.0614
  11   2.0000      -0.617595       -16.8056
  12   2.0000      -0.528724       -14.3873
  13   2.0000      -0.510311       -13.8863
  14   2.0000      -0.454756       -12.3745
  15   2.0000      -0.375172       -10.2089
  16   0.0000       0.029780         0.8104
  17   0.0000       0.039329         1.0702
  18   0.0000       0.047079         1.2811
  19   0.0000       0.078581         2.1383
  20   0.0000       0.083400         2.2694

MULLIKEN ATOMIC CHARGES
-----------------------
   0 C :   -0.934188
   1 C :   -0.266749
   2 Cl:   -0.225595
   3 H :    0.414516
   4 H :    0.501963
   5 H :    0.510055
Sum of atomic charges:    0.0000000

LOEWDIN ATOMIC CHARGES
----------------------
   0 C :    0.392338
   1 C :   -0.481208
   2 Cl:    0.876549
   3 H :   -0.241176
   4 H :   -0.244689
   5 H :   -0.301814

  Mayer bond orders larger than 0.100000
B(  0-C ,  1-C ) :   1.7559 B(  0-C ,  3-H ) :   0.8220 B(  0-C ,  4-H ) :   0.7323
B(  1-C ,  2-Cl) :   0.9223 B(  1-C ,  5-H ) :   0.6668

MP2 TOTAL ENERGY:     -537.527233404 Eh
FINAL SINGLE POINT ENERGY      -537.527233403597

DIPOLE MOMENT
-------------
                                X             Y             Z
Electronic contribution:     -3.32083      -4.30503       0.00000
Nuclear contribution   :      3.61756       4.91226       0.00000
                        -----------------------------------------
Total Dipole Moment    :      0.29673       0.60723       0.00000
                        -----------------------------------------
Magnitude (a.u.)       :      0.67585
Magnitude (Debye)      :      1.71788

Rotational constants in cm-1:     1.931031     0.197404     0.179096
Rotational constants in MHz : 57890.841622  5918.027423  5369.153119

                             ****ORCA TERMINATED NORMALLY****
TOTAL RUN TIME: 0 days 0 hours 0 minutes 49 seconds 794 msec
