                         Program Version 5.0.3 -  RELEASE  -
|  1> !ri-mp2 aug-cc-pvtz aug-cc-pvtz/c tightscf
|  2> %pal nprocs 16 end
|  3> %maxcore 3800
|  4>
|  5> * xyz 0 1
|  6> C      1.737280    0.792495   -0.479503
|  7> C      2.019870   -0.672323   -0.100223
|  8> C      0.725512    1.538451    0.401741
|  9> C      0.827926   -1.495424    0.414755
| 10> C     -0.739200    1.302862    0.010037
| 11> C     -0.519506   -1.262644   -0.283540
| 12> C     -1.315360   -0.085645    0.291439
| 13> O     -2.684418   -0.139555   -0.132940
| 14> H      2.688253    1.329635   -0.472454
| 15> H      1.383423    0.840676   -1.513335
| 16> H      2.448382   -1.170470   -0.973960
| 17> H      2.799085   -0.698261    0.666057
| 18> H      0.880078    1.290425    1.456387
| 19> H      0.917245    2.610333    0.318106
| 20> H      1.092130   -2.551954    0.338093
| 21> H      0.690935   -1.308620    1.483722
| 22> H     -1.377340    2.026147    0.521809
| 23> H     -0.844172    1.505605   -1.063458
| 24> H     -0.381135   -1.129922   -1.362564
| 25> H     -1.146124   -2.147322   -0.159163
| 26> H     -1.374227   -0.226165    1.374425
| 27> H     -2.720326    0.039705   -1.078385
| 28> *
| 29>
| 30>                          ****END OF INPUT****

CARTESIAN COORDINATES (ANGSTROEM)
---------------------------------
  C      1.737280    0.792495   -0.479503
  C      2.019870   -0.672323   -0.100223
  C      0.725512    1.538451    0.401741
  C      0.827926   -1.495424    0.414755
  C     -0.739200    1.302862    0.010037
  C     -0.519506   -1.262644   -0.283540
  C     -1.315360   -0.085645    0.291439
  O     -2.684418   -0.139555   -0.132940
  H      2.688253    1.329635   -0.472454
  H      1.383423    0.840676   -1.513335
  H      2.448382   -1.170470   -0.973960
  H      2.799085   -0.698261    0.666057
  H      0.880078    1.290425    1.456387
  H      0.917245    2.610333    0.318106
  H      1.092130   -2.551954    0.338093
  H      0.690935   -1.308620    1.483722
  H     -1.377340    2.026147    0.521809
  H     -0.844172    1.505605   -1.063458
  H     -0.381135   -1.129922   -1.362564
  H     -1.146124   -2.147322   -0.159163
  H     -1.374227   -0.226165    1.374425
  H     -2.720326    0.039705   -1.078385

 Total Charge           Charge          ....    0
 Multiplicity           Mult            ....    1
 Number of Electrons    NEL             ....   64
 Basis Dimension        Dim             ....  690

ORBITAL ENERGIES
----------------

  NO   OCC          E(Eh)            E(eV)
   0   2.0000     -20.548828      -559.1620
   1   2.0000     -11.273218      -306.7599
   2   2.0000     -11.221197      -305.3443
   3   2.0000     -11.219466      -305.2972
   4   2.0000     -11.218466      -305.2700
   5   2.0000     -11.218290      -305.2652
   6   2.0000     -11.217857      -305.2534
   7   2.0000     -11.216454      -305.2152
   8   2.0000      -1.350902       -36.7599
   9   2.0000      -1.104167       -30.0459
  10   2.0000      -1.030936       -28.0532
  11   2.0000      -1.016972       -27.6732
  12   2.0000      -0.889803       -24.2128
  13   2.0000      -0.876399       -23.8480
  14   2.0000      -0.787857       -21.4387
  15   2.0000      -0.756596       -20.5880
  16   2.0000      -0.673515       -18.3273
  17   2.0000      -0.634488       -17.2653
  18   2.0000      -0.628176       -17.0935
  19   2.0000      -0.611829       -16.6487
  20   2.0000      -0.604053       -16.4371
  21   2.0000      -0.560995       -15.2654
  22   2.0000      -0.552016       -15.0211
  23   2.0000      -0.529530       -14.4092
  24   2.0000      -0.524008       -14.2590
  25   2.0000      -0.512493       -13.9457
  26   2.0000      -0.482704       -13.1350
  27   2.0000      -0.461045       -12.5457
  28   2.0000      -0.449139       -12.2217
  29   2.0000      -0.445271       -12.1164
  30   2.0000      -0.442373       -12.0376
  31   2.0000      -0.422421       -11.4947
  32   0.0000       0.028778         0.7831
  33   0.0000       0.033144         0.9019
  34   0.0000       0.033893         0.9223
  35   0.0000       0.037759         1.0275
  36   0.0000       0.050842         1.3835

MULLIKEN ATOMIC CHARGES
-----------------------
   0 C :   -0.402490
   1 C :   -0.442511
   2 C :   -0.489843
   3 C :   -0.432458
   4 C :   -0.518654
   5 C :   -0.542950
   6 C :    0.642318
   7 O :   -0.861046
   8 H :    0.300430
   9 H :    0.155991
  10 H :    0.219576
  11 H :    0.215383
  12 H :    0.134066
  13 H :    0.223239
  14 H :    0.270776
  15 H :    0.161760
  16 H :    0.271480
  17 H :    0.181548
  18 H :    0.166166
  19 H :    0.209089
  20 H :    0.382102
  21 H :    0.156030
Sum of atomic charges:   -0.0000000

LOEWDIN ATOMIC CHARGES
----------------------
   0 C :    0.298028
   1 C :    0.303432
   2 C :    0.301508
   3 C :    0.299028
   4 C :    0.300776
   5 C :    0.306539
   6 C :   -0.243045
   7 O :    0.831366
   8 H :   -0.147443
   9 H :   -0.153240
  10 H :   -0.147858
  11 H :   -0.148086
  12 H :   -0.139237
  13 H :   -0.147157
  14 H :   -0.146145
  15 H :   -0.152625
  16 H :   -0.143794
  17 H :   -0.147938
  18 H :   -0.138981
  19 H :   -0.149696
  20 H :   -0.145015
  21 H :   -0.490417

  Mayer bond orders larger than 0.100000
B(  0-C ,  1-C ) :   0.8242 B(  0-C ,  2-C ) :   0.8941 B(  0-C ,  8-H ) :   0.9274
B(  0-C ,  9-H ) :   1.0815 B(  1-C ,  3-C ) :   0.8156 B(  1-C , 10-H ) :   1.0113
B(  1-C , 11-H ) :   1.0185 B(  2-C ,  4-C ) :   0.8775 B(  2-C , 12-H ) :   1.0716
B(  2-C , 13-H ) :   0.9737 B(  3-C ,  5-C ) :   0.9113 B(  3-C , 14-H ) :   0.9462
B(  3-C , 15-H ) :   1.0796 B(  4-C ,  6-C ) :   0.8882 B(  4-C ,  7-O ) :   0.1691
B(  4-C , 16-H ) :   0.9151 B(  4-C , 17-H ) :   1.0238 B(  5-C ,  6-C ) :   0.9043
B(  5-C ,  7-O ) :   0.1327 B(  5-C , 18-H ) :   1.0281 B(  5-C , 19-H ) :   0.9504
B(  6-C , 20-H ) :   0.9324 B(  7-O , 21-H ) :   1.0278

MP2 TOTAL ENERGY:     -349.690080602 Eh
FINAL SINGLE POINT ENERGY      -349.690080602104

DIPOLE MOMENT
-------------
                                X             Y             Z
Electronic contribution:     -4.59987      -0.29643       0.16048
Nuclear contribution   :      5.27773       0.42906      -0.49138
                        -----------------------------------------
Total Dipole Moment    :      0.67786       0.13263      -0.33090
                        -----------------------------------------
Magnitude (a.u.)       :      0.76588
Magnitude (Debye)      :      1.94672

Rotational constants in cm-1:     0.101643     0.054474     0.039459
Rotational constants in MHz :  3047.174656  1633.096691  1182.964033

                             ****ORCA TERMINATED NORMALLY****
TOTAL RUN TIME: 0 days 0 hours 12 minutes 30 seconds 282 msec
