                         Program Version 5.0.3 -  RELEASE  -
|  1> !ri-mp2 aug-cc-pvtz aug-cc-pvtz/c tightscf
|  2> %pal nprocs 16 end
|  3>
|  4> * xyz 0 1
|  5> O      0.000000    0.000000    1.316315
|  6> C      0.000000    0.000000    0.145081
|  7> F      0.000000    1.065268   -0.633389
|  8> F      0.000000   -1.065268   -0.633389
|  9> *
| 10>
| 11>                          ****END OF INPUT****

CARTESIAN COORDINATES (ANGSTROEM)
---------------------------------
  O      0.000000    0.000000    1.316315
  C      0.000000    0.000000    0.145081
  F      0.000000    1.065268   -0.633389
  F      0.000000   -1.065268   -0.633389

 Total Charge           Charge          ....    0
 Multiplicity           Mult            ....    1
 Number of Electrons    NEL             ....   32
 Basis Dimension        Dim             ....  184

ORBITAL ENERGIES
----------------

  NO   OCC          E(Eh)            E(eV)
   0   2.0000     -26.392248      -718.1696
   1   2.0000     -26.392219      -718.1688
   2   2.0000     -20.623296      -561.1884
   3   2.0000     -11.535788      -313.9048
   4   2.0000      -1.757820       -47.8327
   5   2.0000      -1.682814       -45.7917
   6   2.0000      -1.481000       -40.3001
   7   2.0000      -0.955326       -25.9957
   8   2.0000      -0.862441       -23.4682
   9   2.0000      -0.814667       -22.1682
  10   2.0000      -0.804265       -21.8852
  11   2.0000      -0.725850       -19.7514
  12   2.0000      -0.706548       -19.2262
  13   2.0000      -0.704203       -19.1623
  14   2.0000      -0.579063       -15.7571
  15   2.0000      -0.560342       -15.2477
  16   0.0000       0.055120         1.4999
  17   0.0000       0.072040         1.9603
  18   0.0000       0.078071         2.1244
  19   0.0000       0.079028         2.1504
  20   0.0000       0.151036         4.1099

MULLIKEN ATOMIC CHARGES
-----------------------
   0 O :   -0.335259
   1 C :    0.762956
   2 F :   -0.213848
   3 F :   -0.213848
Sum of atomic charges:    0.0000000

LOEWDIN ATOMIC CHARGES
----------------------
   0 O :    0.392625
   1 C :   -1.334971
   2 F :    0.471173
   3 F :    0.471173

  Mayer bond orders larger than 0.100000
B(  0-O ,  1-C ) :   2.0122 B(  1-C ,  2-F ) :   1.0116 B(  1-C ,  3-F ) :   1.0116

MP2 TOTAL ENERGY:     -312.637177161 Eh
FINAL SINGLE POINT ENERGY      -312.637177160718

DIPOLE MOMENT
-------------
                                X             Y             Z
Electronic contribution:     -0.00000      -0.00000      -1.60717
Nuclear contribution   :      0.00000       0.00000       1.15798
                        -----------------------------------------
Total Dipole Moment    :     -0.00000      -0.00000      -0.44919
                        -----------------------------------------
Magnitude (a.u.)       :      0.44919
Magnitude (Debye)      :      1.14174

Rotational constants in cm-1:     0.390968     0.390285     0.195313
Rotational constants in MHz : 11720.927035 11700.457856  5855.341751

                             ****ORCA TERMINATED NORMALLY****
TOTAL RUN TIME: 0 days 0 hours 0 minutes 40 seconds 378 msec
