                         Program Version 5.0.3 -  RELEASE  -
|  1> !ri-mp2 aug-cc-pvtz aug-cc-pvtz/c tightscf
|  2> %pal nprocs 16 end
|  3>
|  4> * xyz 0 1
|  5> C     0.000000     0.000000   -0.355296
|  6> Cl    0.000000     0.000000    1.420171
|  7> F     0.000000     1.248182   -0.815227
|  8> F     1.080957    -0.624091   -0.815227
|  9> F    -1.080957    -0.624091   -0.815227
| 10> *
| 11>
| 12>                          ****END OF INPUT****

CARTESIAN COORDINATES (ANGSTROEM)
---------------------------------
  C      0.000000    0.000000   -0.355296
  Cl     0.000000    0.000000    1.420171
  F      0.000000    1.248182   -0.815227
  F      1.080957   -0.624091   -0.815227
  F     -1.080957   -0.624091   -0.815227

 Total Charge           Charge          ....    0
 Multiplicity           Mult            ....    1
 Number of Electrons    NEL             ....   50
 Basis Dimension        Dim             ....  234

ORBITAL ENERGIES
----------------

  NO   OCC          E(Eh)            E(eV)
   0   2.0000    -104.886456     -2854.1056
   1   2.0000     -26.373922      -717.6709
   2   2.0000     -26.373922      -717.6709
   3   2.0000     -26.373887      -717.6700
   4   2.0000     -11.587456      -315.3107
   5   2.0000     -10.610869      -288.7364
   6   2.0000      -8.077710      -219.8057
   7   2.0000      -8.075515      -219.7459
   8   2.0000      -8.075515      -219.7459
   9   2.0000      -1.768880       -48.1337
  10   2.0000      -1.671442       -45.4822
  11   2.0000      -1.671442       -45.4822
  12   2.0000      -1.179862       -32.1057
  13   2.0000      -0.977763       -26.6063
  14   2.0000      -0.861329       -23.4379
  15   2.0000      -0.861329       -23.4379
  16   2.0000      -0.824681       -22.4407
  17   2.0000      -0.741599       -20.1799
  18   2.0000      -0.741599       -20.1799
  19   2.0000      -0.697686       -18.9850
  20   2.0000      -0.697686       -18.9850
  21   2.0000      -0.680830       -18.5263
  22   2.0000      -0.596012       -16.2183
  23   2.0000      -0.507010       -13.7964
  24   2.0000      -0.507010       -13.7964
  25   0.0000       0.057620         1.5679
  26   0.0000       0.073314         1.9950
  27   0.0000       0.082020         2.2319
  28   0.0000       0.082020         2.2319
  29   0.0000       0.103283         2.8105

MULLIKEN ATOMIC CHARGES
-----------------------
   0 C :    1.108159
   1 Cl:   -0.156127
   2 F :   -0.317344
   3 F :   -0.317344
   4 F :   -0.317344
Sum of atomic charges:    0.0000000

LOEWDIN ATOMIC CHARGES
----------------------
   0 C :   -2.153229
   1 Cl:    0.865934
   2 F :    0.429098
   3 F :    0.429098
   4 F :    0.429098

  Mayer bond orders larger than 0.100000
B(  0-C ,  1-Cl) :   1.0212 B(  0-C ,  2-F ) :   0.8901 B(  0-C ,  3-F ) :   0.8901
B(  0-C ,  4-F ) :   0.8901

MP2 TOTAL ENERGY:     -796.960059409 Eh
FINAL SINGLE POINT ENERGY      -796.960059408620

DIPOLE MOMENT
-------------
                                X             Y             Z
Electronic contribution:     -0.00000      -0.00000      -0.13435
Nuclear contribution   :      0.00000       0.00000       0.34480
                        -----------------------------------------
Total Dipole Moment    :     -0.00000      -0.00000       0.21045
                        -----------------------------------------
Magnitude (a.u.)       :      0.21045
Magnitude (Debye)      :      0.53493

Rotational constants in cm-1:     0.189851     0.108553     0.108553
Rotational constants in MHz :  5691.578944  3254.329324  3254.328772

                             ****ORCA TERMINATED NORMALLY****
TOTAL RUN TIME: 0 days 0 hours 0 minutes 55 seconds 46 msec
