                         Program Version 5.0.3 -  RELEASE  -
|  1> !ri-mp2 aug-cc-pvtz aug-cc-pvtz/c tightscf
|  2> %pal nprocs 16 end
|  3>
|  4> * xyz 0 1
|  5> N     -1.392026    0.964971    0.000000
|  6> H     -1.686104    1.489839    0.815536
|  7> H     -1.686104    1.489839   -0.815536
|  8> C      0.483446   -0.254439   -1.082525
|  9> H     -0.198668   -0.373542   -1.923807
| 10> H      1.483527   -0.047564   -1.463346
| 11> C      0.483446   -0.254439    1.082525
| 12> H     -0.198668   -0.373542    1.923807
| 13> H      1.483527   -0.047564    1.463346
| 14> C      0.057064    0.770920    0.000000
| 15> H      0.619951    1.711232    0.000000
| 16> C      0.483446   -1.364057    0.000000
| 17> H      1.324266   -2.055871    0.000000
| 18> H     -0.441946   -1.935530    0.000000
| 19> *
| 20>
| 21>                          ****END OF INPUT****

CARTESIAN COORDINATES (ANGSTROEM)
---------------------------------
  N     -1.392026    0.964971    0.000000
  H     -1.686104    1.489839    0.815536
  H     -1.686104    1.489839   -0.815536
  C      0.483446   -0.254439   -1.082525
  H     -0.198668   -0.373542   -1.923807
  H      1.483527   -0.047564   -1.463346
  C      0.483446   -0.254439    1.082525
  H     -0.198668   -0.373542    1.923807
  H      1.483527   -0.047564    1.463346
  C      0.057064    0.770920    0.000000
  H      0.619951    1.711232    0.000000
  C      0.483446   -1.364057    0.000000
  H      1.324266   -2.055871    0.000000
  H     -0.441946   -1.935530    0.000000

 Total Charge           Charge          ....    0
 Multiplicity           Mult            ....    1
 Number of Electrons    NEL             ....   40
 Basis Dimension        Dim             ....  437

ORBITAL ENERGIES
----------------

  NO   OCC          E(Eh)            E(eV)
   0   2.0000     -15.537539      -422.7979
   1   2.0000     -11.248564      -306.0890
   2   2.0000     -11.212441      -305.1060
   3   2.0000     -11.212302      -305.1022
   4   2.0000     -11.211261      -305.0739
   5   2.0000      -1.188867       -32.3507
   6   2.0000      -1.082065       -29.4445
   7   2.0000      -0.895294       -24.3622
   8   2.0000      -0.868560       -23.6347
   9   2.0000      -0.733502       -19.9596
  10   2.0000      -0.664168       -18.0729
  11   2.0000      -0.646626       -17.5956
  12   2.0000      -0.632713       -17.2170
  13   2.0000      -0.563987       -15.3469
  14   2.0000      -0.532366       -14.4864
  15   2.0000      -0.475520       -12.9396
  16   2.0000      -0.464955       -12.6521
  17   2.0000      -0.455817       -12.4034
  18   2.0000      -0.428036       -11.6475
  19   2.0000      -0.378902       -10.3104
  20   0.0000       0.029660         0.8071
  21   0.0000       0.038410         1.0452
  22   0.0000       0.039531         1.0757
  23   0.0000       0.040722         1.1081
  24   0.0000       0.056835         1.5466

MULLIKEN ATOMIC CHARGES
-----------------------
   0 N :   -0.638552
   1 H :    0.094176
   2 H :    0.094176
   3 C :   -0.840844
   4 H :    0.359127
   5 H :    0.247558
   6 C :   -0.840844
   7 H :    0.359127
   8 H :    0.247558
   9 C :    0.493787
  10 H :    0.374030
  11 C :   -0.597365
  12 H :    0.383769
  13 H :    0.264296
Sum of atomic charges:    0.0000000

LOEWDIN ATOMIC CHARGES
----------------------
   0 N :    0.845614
   1 H :   -0.320383
   2 H :   -0.320383
   3 C :    0.326186
   4 H :   -0.153102
   5 H :   -0.154621
   6 C :    0.326186
   7 H :   -0.153102
   8 H :   -0.154621
   9 C :   -0.119096
  10 H :   -0.135219
  11 C :    0.325951
  12 H :   -0.157055
  13 H :   -0.156356

  Mayer bond orders larger than 0.100000
B(  0-N ,  1-H ) :   0.9910 B(  0-N ,  2-H ) :   0.9910 B(  0-N ,  3-C ) :   0.1390
B(  0-N ,  6-C ) :   0.1390 B(  0-N ,  9-C ) :   0.2567 B(  3-C ,  4-H ) :   0.8219
B(  3-C ,  5-H ) :   0.9685 B(  3-C ,  9-C ) :   0.9299 B(  3-C , 11-C ) :   1.0835
B(  6-C ,  7-H ) :   0.8219 B(  6-C ,  8-H ) :   0.9685 B(  6-C ,  9-C ) :   0.9299
B(  6-C , 11-C ) :   1.0835 B(  9-C , 10-H ) :   0.7971 B(  9-C , 11-C ) :  -0.2282
B( 11-C , 12-H ) :   0.8148 B( 11-C , 13-H ) :   0.9224

MP2 TOTAL ENERGY:     -212.116983622 Eh
FINAL SINGLE POINT ENERGY      -212.116983621609

DIPOLE MOMENT
-------------
                                X             Y             Z
Electronic contribution:     -0.54861       0.60168       0.00000
Nuclear contribution   :      0.73050      -0.14475      -0.00000
                        -----------------------------------------
Total Dipole Moment    :      0.18190       0.45693       0.00000
                        -----------------------------------------
Magnitude (a.u.)       :      0.49181
Magnitude (Debye)      :      1.25008

Rotational constants in cm-1:     0.282024     0.156047     0.128886
Rotational constants in MHz :  8454.873998  4678.170773  3863.913944

                             ****ORCA TERMINATED NORMALLY****
TOTAL RUN TIME: 0 days 0 hours 2 minutes 58 seconds 417 msec
