                         Program Version 5.0.3 -  RELEASE  -
|  1> !ri-mp2 aug-cc-pvtz aug-cc-pvtz/c tightscf
|  2> %pal nprocs 16 end
|  3>
|  4> * xyz 0 1
|  5> Cl     2.428631   -0.064395    0.032886
|  6> O     -1.730300    1.196583    0.115542
|  7> O     -2.527186   -0.891563   -0.130112
|  8> N      0.770338    0.388259   -0.379853
|  9> C     -0.158958   -0.592845    0.181441
| 10> C     -1.598551   -0.146064    0.017450
| 11> H     -0.003971   -0.777676    1.252540
| 12> H     -0.042747   -1.538938   -0.340394
| 13> H      0.644604    1.280659    0.086477
| 14> H     -2.672033    1.406156    0.024511
| 15> *
| 16>
| 17>                          ****END OF INPUT****

CARTESIAN COORDINATES (ANGSTROEM)
---------------------------------
  Cl     2.428631   -0.064395    0.032886
  O     -1.730300    1.196583    0.115542
  O     -2.527186   -0.891563   -0.130112
  N      0.770338    0.388259   -0.379853
  C     -0.158958   -0.592845    0.181441
  C     -1.598551   -0.146064    0.017450
  H     -0.003971   -0.777676    1.252540
  H     -0.042747   -1.538938   -0.340394
  H      0.644604    1.280659    0.086477
  H     -2.672033    1.406156    0.024511

 Total Charge           Charge          ....    0
 Multiplicity           Mult            ....    1
 Number of Electrons    NEL             ....   56
 Basis Dimension        Dim             ....  372

ORBITAL ENERGIES
----------------

  NO   OCC          E(Eh)            E(eV)
   0   2.0000    -104.864134     -2853.4981
   1   2.0000     -20.635493      -561.5203
   2   2.0000     -20.570478      -559.7512
   3   2.0000     -15.639756      -425.5794
   4   2.0000     -11.409339      -310.4639
   5   2.0000     -11.301626      -307.5329
   6   2.0000     -10.585518      -288.0466
   7   2.0000      -8.052429      -219.1177
   8   2.0000      -8.050145      -219.0556
   9   2.0000      -8.049986      -219.0512
  10   2.0000      -1.488018       -40.4910
  11   2.0000      -1.385855       -37.7110
  12   2.0000      -1.266633       -34.4668
  13   2.0000      -1.073856       -29.2211
  14   2.0000      -0.961897       -26.1745
  15   2.0000      -0.850661       -23.1477
  16   2.0000      -0.730077       -19.8664
  17   2.0000      -0.718325       -19.5466
  18   2.0000      -0.695836       -18.9347
  19   2.0000      -0.638614       -17.3776
  20   2.0000      -0.617769       -16.8103
  21   2.0000      -0.611638       -16.6435
  22   2.0000      -0.572732       -15.5848
  23   2.0000      -0.525202       -14.2915
  24   2.0000      -0.501736       -13.6529
  25   2.0000      -0.476188       -12.9577
  26   2.0000      -0.457014       -12.4360
  27   2.0000      -0.411514       -11.1979
  28   0.0000       0.024653         0.6708
  29   0.0000       0.038680         1.0525
  30   0.0000       0.046164         1.2562
  31   0.0000       0.048287         1.3140
  32   0.0000       0.070023         1.9054

MULLIKEN ATOMIC CHARGES
-----------------------
   0 Cl:   -0.157891
   1 O :   -0.368036
   2 O :   -0.712407
   3 N :   -0.390826
   4 C :    0.158557
   5 C :    0.396977
   6 H :    0.339479
   7 H :    0.347887
   8 H :    0.152725
   9 H :    0.233536
Sum of atomic charges:   -0.0000000

LOEWDIN ATOMIC CHARGES
----------------------
   0 Cl:    0.745024
   1 O :    0.833782
   2 O :    0.453398
   3 N :    0.033956
   4 C :    0.015437
   5 C :   -0.787483
   6 H :   -0.171814
   7 H :   -0.186284
   8 H :   -0.475626
   9 H :   -0.460390

  Mayer bond orders larger than 0.100000
B(  0-Cl,  3-N ) :   0.9673 B(  1-O ,  5-C ) :   1.0142 B(  1-O ,  9-H ) :   0.9279
B(  2-O ,  5-C ) :   1.5227 B(  3-N ,  4-C ) :   0.7013 B(  3-N ,  8-H ) :   0.9328
B(  4-C ,  5-C ) :   0.5555 B(  4-C ,  6-H ) :   0.9039 B(  4-C ,  7-H ) :   0.9183

MP2 TOTAL ENERGY:     -743.055601790 Eh
FINAL SINGLE POINT ENERGY      -743.055601789983

DIPOLE MOMENT
-------------
                                X             Y             Z
Electronic contribution:      5.20982       0.18718      -0.41958
Nuclear contribution   :     -5.38890       0.45081       0.93504
                        -----------------------------------------
Total Dipole Moment    :     -0.17908       0.63799       0.51546
                        -----------------------------------------
Magnitude (a.u.)       :      0.83953
Magnitude (Debye)      :      2.13391

Rotational constants in cm-1:     0.314371     0.041067     0.037063
Rotational constants in MHz :  9424.612711  1231.158817  1111.122543

                             ****ORCA TERMINATED NORMALLY****
TOTAL RUN TIME: 0 days 0 hours 1 minutes 46 seconds 950 msec
