                         Program Version 5.0.3 -  RELEASE  -
|  1> !ri-mp2 aug-cc-pvtz aug-cc-pvtz/c tightscf
|  2> %pal nprocs 16 end
|  3>
|  4> * xyz 0 1
|  5> C     -2.749597   -0.147991    0.000003
|  6> C     -1.333822    0.314316    0.000006
|  7> C     -0.264018   -0.479484   -0.000015
|  8> C      1.099386    0.081029   -0.000004
|  9> O      1.398388    1.251758   -0.000006
| 10> O      2.037208   -0.903645    0.000010
| 11> H     -2.827857   -1.234217   -0.000022
| 12> H     -3.278292    0.239886    0.874582
| 13> H     -3.278303    0.239927   -0.874551
| 14> H     -1.161440    1.385990    0.000028
| 15> H     -0.351243   -1.557948   -0.000032
| 16> H      2.900674   -0.465762    0.000017
| 17> *
| 18>
| 19>                          ****END OF INPUT****

CARTESIAN COORDINATES (ANGSTROEM)
---------------------------------
  C     -2.749597   -0.147991    0.000003
  C     -1.333822    0.314316    0.000006
  C     -0.264018   -0.479484   -0.000015
  C      1.099386    0.081029   -0.000004
  O      1.398388    1.251758   -0.000006
  O      2.037208   -0.903645    0.000010
  H     -2.827857   -1.234217   -0.000022
  H     -3.278292    0.239886    0.874582
  H     -3.278303    0.239927   -0.874551
  H     -1.161440    1.385990    0.000028
  H     -0.351243   -1.557948   -0.000032
  H      2.900674   -0.465762    0.000017

 Total Charge           Charge          ....    0
 Multiplicity           Mult            ....    1
 Number of Electrons    NEL             ....   46
 Basis Dimension        Dim             ....  414

ORBITAL ENERGIES
----------------

  NO   OCC          E(Eh)            E(eV)
   0   2.0000     -20.608351      -560.7817
   1   2.0000     -20.541175      -558.9538
   2   2.0000     -11.384352      -309.7840
   3   2.0000     -11.268751      -306.6383
   4   2.0000     -11.241907      -305.9079
   5   2.0000     -11.240854      -305.8792
   6   2.0000      -1.458028       -39.6749
   7   2.0000      -1.354479       -36.8573
   8   2.0000      -1.103247       -30.0209
   9   2.0000      -0.987055       -26.8591
  10   2.0000      -0.865709       -23.5571
  11   2.0000      -0.757289       -20.6069
  12   2.0000      -0.705877       -19.2079
  13   2.0000      -0.697578       -18.9821
  14   2.0000      -0.627266       -17.0688
  15   2.0000      -0.612806       -16.6753
  16   2.0000      -0.600702       -16.3459
  17   2.0000      -0.586568       -15.9613
  18   2.0000      -0.554168       -15.0797
  19   2.0000      -0.525743       -14.3062
  20   2.0000      -0.485681       -13.2161
  21   2.0000      -0.451863       -12.2958
  22   2.0000      -0.383627       -10.4390
  23   0.0000       0.026768         0.7284
  24   0.0000       0.034684         0.9438
  25   0.0000       0.040067         1.0903
  26   0.0000       0.044488         1.2106
  27   0.0000       0.053168         1.4468

MULLIKEN ATOMIC CHARGES
-----------------------
   0 C :   -0.814461
   1 C :   -0.197896
   2 C :   -0.226140
   3 C :    0.558176
   4 O :   -0.792502
   5 O :   -0.418680
   6 H :    0.299544
   7 H :    0.291348
   8 H :    0.291350
   9 H :    0.377750
  10 H :    0.385776
  11 H :    0.245734
Sum of atomic charges:    0.0000000

LOEWDIN ATOMIC CHARGES
----------------------
   0 C :    0.574092
   1 C :    0.209986
   2 C :    0.191678
   3 C :   -0.844704
   4 O :    0.435176
   5 O :    0.816704
   6 H :   -0.177611
   7 H :   -0.170203
   8 H :   -0.170203
   9 H :   -0.177874
  10 H :   -0.206646
  11 H :   -0.480395

  Mayer bond orders larger than 0.100000
B(  0-C ,  1-C ) :   0.8191 B(  0-C ,  6-H ) :   0.9397 B(  0-C ,  7-H ) :   0.9687
B(  0-C ,  8-H ) :   0.9687 B(  1-C ,  2-C ) :   1.2395 B(  1-C ,  9-H ) :   0.8689
B(  2-C ,  3-C ) :   0.7439 B(  2-C , 10-H ) :   0.9189 B(  3-C ,  4-O ) :   1.4917
B(  3-C ,  5-O ) :   1.0427 B(  5-O , 11-H ) :   0.9551

MP2 TOTAL ENERGY:     -305.951346241 Eh
FINAL SINGLE POINT ENERGY      -305.951346241394

DIPOLE MOMENT
-------------
                                X             Y             Z
Electronic contribution:      7.22016       0.84974      -0.00001
Nuclear contribution   :     -7.97010      -1.39149       0.00002
                        -----------------------------------------
Total Dipole Moment    :     -0.74995      -0.54175       0.00001
                        -----------------------------------------
Magnitude (a.u.)       :      0.92515
Magnitude (Debye)      :      2.35155

Rotational constants in cm-1:     0.335840     0.063440     0.053886
Rotational constants in MHz : 10068.219343  1901.882021  1615.469298

                             ****ORCA TERMINATED NORMALLY****
TOTAL RUN TIME: 0 days 0 hours 2 minutes 19 seconds 80 msec
