                         Program Version 5.0.3 -  RELEASE  -
|  1> !ri-mp2 aug-cc-pvtz aug-cc-pvtz/c tightscf
|  2> %pal nprocs 16 end
|  3>
|  4> * xyz 0 1
|  5> Cl    -0.142353    1.682318    0.000006
|  6> S      0.908059   -1.112252   -0.000003
|  7> S     -1.983399   -0.651574   -0.000005
|  8> C     -0.475009   -0.060877    0.000000
|  9> C      2.395894   -0.059942    0.000003
| 10> H      2.437172    0.555719    0.893120
| 11> H      3.225785   -0.764724    0.000001
| 12> H      2.437174    0.555726   -0.893110
| 13> *
| 14>
| 15>                          ****END OF INPUT****

CARTESIAN COORDINATES (ANGSTROEM)
---------------------------------
  Cl    -0.142353    1.682318    0.000006
  S      0.908059   -1.112252   -0.000003
  S     -1.983399   -0.651574   -0.000005
  C     -0.475009   -0.060877    0.000000
  C      2.395894   -0.059942    0.000003
  H      2.437172    0.555719    0.893120
  H      3.225785   -0.764724    0.000001
  H      2.437174    0.555726   -0.893110

 Total Charge           Charge          ....    0
 Multiplicity           Mult            ....    1
 Number of Electrons    NEL             ....   64
 Basis Dimension        Dim             ....  311

ORBITAL ENERGIES
----------------

  NO   OCC          E(Eh)            E(eV)
   0   2.0000    -104.872795     -2853.7338
   1   2.0000     -92.005748     -2503.6037
   2   2.0000     -91.949943     -2502.0851
   3   2.0000     -11.412724      -310.5560
   4   2.0000     -11.283298      -307.0342
   5   2.0000     -10.596477      -288.3448
   6   2.0000      -9.005930      -245.0638
   7   2.0000      -8.952877      -243.6202
   8   2.0000      -8.063156      -219.4096
   9   2.0000      -8.061250      -219.3578
  10   2.0000      -8.061103      -219.3538
  11   2.0000      -6.687031      -181.9634
  12   2.0000      -6.685696      -181.9270
  13   2.0000      -6.685044      -181.9093
  14   2.0000      -6.633829      -180.5157
  15   2.0000      -6.632634      -180.4831
  16   2.0000      -6.631400      -180.4496
  17   2.0000      -1.194834       -32.5131
  18   2.0000      -1.080485       -29.4015
  19   2.0000      -1.028732       -27.9932
  20   2.0000      -0.912420       -24.8282
  21   2.0000      -0.728615       -19.8266
  22   2.0000      -0.638766       -17.3817
  23   2.0000      -0.623654       -16.9705
  24   2.0000      -0.604865       -16.4592
  25   2.0000      -0.554856       -15.0984
  26   2.0000      -0.541286       -14.7291
  27   2.0000      -0.492184       -13.3930
  28   2.0000      -0.461008       -12.5447
  29   2.0000      -0.442905       -12.0521
  30   2.0000      -0.357851        -9.7376
  31   2.0000      -0.353293        -9.6136
  32   0.0000       0.024285         0.6608
  33   0.0000       0.032985         0.8976
  34   0.0000       0.042199         1.1483
  35   0.0000       0.045746         1.2448
  36   0.0000       0.057508         1.5649

MULLIKEN ATOMIC CHARGES
-----------------------
   0 Cl:   -0.210302
   1 S :    0.082838
   2 S :   -0.197010
   3 C :    0.179651
   4 C :   -0.807994
   5 H :    0.339551
   6 H :    0.273716
   7 H :    0.339550
Sum of atomic charges:    0.0000000

LOEWDIN ATOMIC CHARGES
----------------------
   0 Cl:    0.815538
   1 S :    1.022126
   2 S :    0.727940
   3 C :   -1.978385
   4 C :    0.197867
   5 H :   -0.263862
   6 H :   -0.257363
   7 H :   -0.263861

  Mayer bond orders larger than 0.100000
B(  0-Cl,  3-C ) :   0.8826 B(  1-S ,  3-C ) :   1.1288 B(  1-S ,  4-C ) :   0.9602
B(  2-S ,  3-C ) :   1.8191 B(  4-C ,  5-H ) :   0.8768 B(  4-C ,  6-H ) :   0.9589
B(  4-C ,  7-H ) :   0.8768

MP2 TOTAL ENERGY:    -1332.986935534 Eh
FINAL SINGLE POINT ENERGY     -1332.986935533921

DIPOLE MOMENT
-------------
                                X             Y             Z
Electronic contribution:     -6.48573       2.16255       0.00000
Nuclear contribution   :      7.91410      -1.90394       0.00000
                        -----------------------------------------
Total Dipole Moment    :      1.42837       0.25861       0.00000
                        -----------------------------------------
Magnitude (a.u.)       :      1.45160
Magnitude (Debye)      :      3.68966

Rotational constants in cm-1:     0.107726     0.067848     0.041962
Rotational constants in MHz :  3229.555309  2034.026039  1258.000685

                             ****ORCA TERMINATED NORMALLY****
TOTAL RUN TIME: 0 days 0 hours 1 minutes 28 seconds 579 msec
