                         Program Version 5.0.3 -  RELEASE  -
|  1> !ri-mp2 aug-cc-pvtz aug-cc-pvtz/c tightscf
|  2> %pal nprocs 16 end
|  3>
|  4> * xyz 0 1
|  5> C     0.000000     1.082580    0.123180
|  6> C     1.082580     0.000000   -0.123180
|  7> C    -1.082580     0.000000   -0.123180
|  8> C     0.000000    -1.082580    0.123180
|  9> H     0.000000    -1.957007   -0.526411
| 10> H     1.957007     0.000000    0.526411
| 11> H    -1.957007     0.000000    0.526411
| 12> H     0.000000     1.957007   -0.526411
| 13> H     0.000000     1.422103    1.159302
| 14> H    -1.422103     0.000000   -1.159302
| 15> H     1.422103     0.000000   -1.159302
| 16> H     0.000000    -1.422103    1.159302
| 17> *
| 18>
| 19>                          ****END OF INPUT****

CARTESIAN COORDINATES (ANGSTROEM)
---------------------------------
  C      0.000000    1.082580    0.123180
  C      1.082580    0.000000   -0.123180
  C     -1.082580    0.000000   -0.123180
  C      0.000000   -1.082580    0.123180
  H      0.000000   -1.957007   -0.526411
  H      1.957007    0.000000    0.526411
  H     -1.957007    0.000000    0.526411
  H      0.000000    1.957007   -0.526411
  H      0.000000    1.422103    1.159302
  H     -1.422103    0.000000   -1.159302
  H      1.422103    0.000000   -1.159302
  H      0.000000   -1.422103    1.159302

 Total Charge           Charge          ....    0
 Multiplicity           Mult            ....    1
 Number of Electrons    NEL             ....   32
 Basis Dimension        Dim             ....  368

ORBITAL ENERGIES
----------------

  NO   OCC          E(Eh)            E(eV)
   0   2.0000     -11.215812      -305.1978
   1   2.0000     -11.215266      -305.1829
   2   2.0000     -11.215266      -305.1829
   3   2.0000     -11.214714      -305.1679
   4   2.0000      -1.119225       -30.4556
   5   2.0000      -0.891479       -24.2584
   6   2.0000      -0.891479       -24.2584
   7   2.0000      -0.747662       -20.3449
   8   2.0000      -0.646994       -17.6056
   9   2.0000      -0.638946       -17.3866
  10   2.0000      -0.534954       -14.5568
  11   2.0000      -0.534954       -14.5568
  12   2.0000      -0.483442       -13.1551
  13   2.0000      -0.450284       -12.2528
  14   2.0000      -0.433660       -11.8005
  15   2.0000      -0.433660       -11.8005
  16   0.0000       0.032394         0.8815
  17   0.0000       0.039459         1.0737
  18   0.0000       0.040355         1.0981
  19   0.0000       0.040355         1.0981
  20   0.0000       0.059292         1.6134

MULLIKEN ATOMIC CHARGES
-----------------------
   0 C :   -0.628943
   1 C :   -0.628943
   2 C :   -0.628943
   3 C :   -0.628943
   4 H :    0.378513
   5 H :    0.378513
   6 H :    0.378513
   7 H :    0.378513
   8 H :    0.250430
   9 H :    0.250430
  10 H :    0.250430
  11 H :    0.250430
Sum of atomic charges:    0.0000000

LOEWDIN ATOMIC CHARGES
----------------------
   0 C :    0.313689
   1 C :    0.313689
   2 C :    0.313689
   3 C :    0.313689
   4 H :   -0.156244
   5 H :   -0.156244
   6 H :   -0.156244
   7 H :   -0.156244
   8 H :   -0.157445
   9 H :   -0.157445
  10 H :   -0.157445
  11 H :   -0.157445

  Mayer bond orders larger than 0.100000
B(  0-C ,  1-C ) :   1.0139 B(  0-C ,  2-C ) :   1.0139 B(  0-C ,  7-H ) :   0.8218
B(  0-C ,  8-H ) :   0.9564 B(  1-C ,  3-C ) :   1.0139 B(  1-C ,  5-H ) :   0.8218
B(  1-C , 10-H ) :   0.9564 B(  2-C ,  3-C ) :   1.0139 B(  2-C ,  6-H ) :   0.8218
B(  2-C ,  9-H ) :   0.9564 B(  3-C ,  4-H ) :   0.8218 B(  3-C , 11-H ) :   0.9564

MP2 TOTAL ENERGY:     -156.852483264 Eh
FINAL SINGLE POINT ENERGY      -156.852483263904

DIPOLE MOMENT
-------------
                                X             Y             Z
Electronic contribution:      0.00000       0.00000       0.00000
Nuclear contribution   :      0.00000       0.00000       0.00000
                        -----------------------------------------
Total Dipole Moment    :      0.00000       0.00000       0.00000
                        -----------------------------------------
Magnitude (a.u.)       :      0.00000
Magnitude (Debye)      :      0.00000

Rotational constants in cm-1:     0.357028     0.357028     0.210977
Rotational constants in MHz : 10703.415920 10703.415920  6324.923022

                             ****ORCA TERMINATED NORMALLY****
TOTAL RUN TIME: 0 days 0 hours 1 minutes 44 seconds 656 msec
