                         Program Version 5.0.3 -  RELEASE  -
|  1> !ri-mp2 aug-cc-pvtz aug-cc-pvtz/c tightscf
|  2> %pal nprocs 16 end
|  3>
|  4> * xyz 0 1
|  5> C      1.506018    0.680611    0.000000
|  6> C      0.000000    0.820714    0.000000
|  7> H      1.961216    1.673866    0.000000
|  8> H      1.851632    0.145961    0.883624
|  9> H      1.851632    0.145961   -0.883624
| 10> Cl    -0.821829   -0.802430    0.000000
| 11> H     -0.364745    1.333788    0.885068
| 12> H     -0.364745    1.333788   -0.885068
| 13> *
| 14>
| 15>                          ****END OF INPUT****

CARTESIAN COORDINATES (ANGSTROEM)
---------------------------------
  C      1.506018    0.680611    0.000000
  C      0.000000    0.820714    0.000000
  H      1.961216    1.673866    0.000000
  H      1.851632    0.145961    0.883624
  H      1.851632    0.145961   -0.883624
  Cl    -0.821829   -0.802430    0.000000
  H     -0.364745    1.333788    0.885068
  H     -0.364745    1.333788   -0.885068

 Total Charge           Charge          ....    0
 Multiplicity           Mult            ....    1
 Number of Electrons    NEL             ....   34
 Basis Dimension        Dim             ....  257

ORBITAL ENERGIES
----------------

  NO   OCC          E(Eh)            E(eV)
   0   2.0000    -104.819052     -2852.2714
   1   2.0000     -11.296810      -307.4018
   2   2.0000     -11.234590      -305.7087
   3   2.0000     -10.543174      -286.8943
   4   2.0000      -8.009946      -217.9617
   5   2.0000      -8.008260      -217.9158
   6   2.0000      -8.008237      -217.9152
   7   2.0000      -1.129398       -30.7325
   8   2.0000      -1.002181       -27.2707
   9   2.0000      -0.845032       -22.9945
  10   2.0000      -0.650717       -17.7069
  11   2.0000      -0.609280       -16.5794
  12   2.0000      -0.562192       -15.2980
  13   2.0000      -0.530474       -14.4349
  14   2.0000      -0.502336       -13.6692
  15   2.0000      -0.431481       -11.7412
  16   2.0000      -0.430603       -11.7173
  17   0.0000       0.028434         0.7737
  18   0.0000       0.040408         1.0996
  19   0.0000       0.041295         1.1237
  20   0.0000       0.049115         1.3365
  21   0.0000       0.064151         1.7456

MULLIKEN ATOMIC CHARGES
-----------------------
   0 C :   -0.867884
   1 C :   -0.292406
   2 H :    0.295610
   3 H :    0.313732
   4 H :    0.313732
   5 Cl:   -0.325858
   6 H :    0.281537
   7 H :    0.281537
Sum of atomic charges:    0.0000000

LOEWDIN ATOMIC CHARGES
----------------------
   0 C :    0.484510
   1 C :   -0.274609
   2 H :   -0.178463
   3 H :   -0.188535
   4 H :   -0.188535
   5 Cl:    0.838427
   6 H :   -0.246397
   7 H :   -0.246397

  Mayer bond orders larger than 0.100000
B(  0-C ,  1-C ) :   0.9219 B(  0-C ,  2-H ) :   0.9177 B(  0-C ,  3-H ) :   0.9189
B(  0-C ,  4-H ) :   0.9189 B(  1-C ,  5-Cl) :   0.8490 B(  1-C ,  6-H ) :   0.9280
B(  1-C ,  7-H ) :   0.9280

MP2 TOTAL ENERGY:     -538.757496271 Eh
FINAL SINGLE POINT ENERGY      -538.757496271179

DIPOLE MOMENT
-------------
                                X             Y             Z
Electronic contribution:     -5.54456      -4.90853      -0.00000
Nuclear contribution   :      6.04818       5.72217       0.00000
                        -----------------------------------------
Total Dipole Moment    :      0.50362       0.81365      -0.00000
                        -----------------------------------------
Magnitude (a.u.)       :      0.95690
Magnitude (Debye)      :      2.43225

Rotational constants in cm-1:     1.054989     0.178531     0.161942
Rotational constants in MHz : 31627.776416  5352.215512  4854.902626

                             ****ORCA TERMINATED NORMALLY****
TOTAL RUN TIME: 0 days 0 hours 0 minutes 49 seconds 126 msec
