                         Program Version 5.0.3 -  RELEASE  -
|  1> !ri-mp2 aug-cc-pvtz aug-cc-pvtz/c tightscf
|  2> %pal nprocs 16 end
|  3>
|  4> * xyz 0 1
|  5> C      0.028542    0.674903    0.133473
|  6> C      1.166085   -0.321837    0.199900
|  7> Cl    -1.550178   -0.167557   -0.077281
|  8> O      2.264073   -0.071400   -0.217240
|  9> H     -0.023974    1.228514    1.070602
| 10> H      0.172885    1.363727   -0.692610
| 11> H      0.923765   -1.290966    0.673464
| 12> *
| 13>
| 14>                          ****END OF INPUT****

CARTESIAN COORDINATES (ANGSTROEM)
---------------------------------
  C      0.028542    0.674903    0.133473
  C      1.166085   -0.321837    0.199900
  Cl    -1.550178   -0.167557   -0.077281
  O      2.264073   -0.071400   -0.217240
  H     -0.023974    1.228514    1.070602
  H      0.172885    1.363727   -0.692610
  H      0.923765   -1.290966    0.673464

 Total Charge           Charge          ....    0
 Multiplicity           Mult            ....    1
 Number of Electrons    NEL             ....   40
 Basis Dimension        Dim             ....  257

ORBITAL ENERGIES
----------------

  NO   OCC          E(Eh)            E(eV)
   0   2.0000    -104.850817     -2853.1358
   1   2.0000     -20.584483      -560.1323
   2   2.0000     -11.358387      -309.0774
   3   2.0000     -11.321931      -308.0854
   4   2.0000     -10.574704      -287.7523
   5   2.0000      -8.041534      -218.8213
   6   2.0000      -8.039695      -218.7712
   7   2.0000      -8.039646      -218.7699
   8   2.0000      -1.423176       -38.7266
   9   2.0000      -1.157230       -31.4898
  10   2.0000      -0.982115       -26.7247
  11   2.0000      -0.827384       -22.5143
  12   2.0000      -0.694200       -18.8901
  13   2.0000      -0.663890       -18.0654
  14   2.0000      -0.649155       -17.6644
  15   2.0000      -0.572128       -15.5684
  16   2.0000      -0.534769       -14.5518
  17   2.0000      -0.480158       -13.0658
  18   2.0000      -0.459368       -12.5000
  19   2.0000      -0.439646       -11.9634
  20   0.0000       0.029412         0.8003
  21   0.0000       0.038508         1.0479
  22   0.0000       0.044566         1.2127
  23   0.0000       0.062342         1.6964
  24   0.0000       0.083092         2.2610

MULLIKEN ATOMIC CHARGES
-----------------------
   0 C :   -0.161420
   1 C :   -0.083145
   2 Cl:   -0.289558
   3 O :   -0.631050
   4 H :    0.293675
   5 H :    0.316123
   6 H :    0.555374
Sum of atomic charges:    0.0000000

LOEWDIN ATOMIC CHARGES
----------------------
   0 C :   -0.289617
   1 C :   -0.305598
   2 Cl:    0.872340
   3 O :    0.432847
   4 H :   -0.248098
   5 H :   -0.252389
   6 H :   -0.209486

  Mayer bond orders larger than 0.100000
B(  0-C ,  1-C ) :   0.9066 B(  0-C ,  2-Cl) :   0.8751 B(  0-C ,  4-H ) :   0.8953
B(  0-C ,  5-H ) :   0.9023 B(  1-C ,  3-O ) :   1.6963 B(  1-C ,  6-H ) :   0.6154

MP2 TOTAL ENERGY:     -612.669297350 Eh
FINAL SINGLE POINT ENERGY      -612.669297350138

DIPOLE MOMENT
-------------
                                X             Y             Z
Electronic contribution:     -3.61178      -1.23253      -0.64001
Nuclear contribution   :      3.18313       1.47366       1.10878
                        -----------------------------------------
Total Dipole Moment    :     -0.42865       0.24113       0.46877
                        -----------------------------------------
Magnitude (a.u.)       :      0.67943
Magnitude (Debye)      :      1.72698

Rotational constants in cm-1:     1.017507     0.089657     0.085500
Rotational constants in MHz : 30504.104372  2687.860136  2563.224068

                             ****ORCA TERMINATED NORMALLY****
TOTAL RUN TIME: 0 days 0 hours 0 minutes 58 seconds 412 msec
