                         Program Version 5.0.3 -  RELEASE  -
|  1> !ri-mp2 aug-cc-pvtz aug-cc-pvtz/c tightscf
|  2> %pal nprocs 16 end
|  3>
|  4> * xyz 0 1
|  5> C      0.000000    0.000000    0.000000
|  6> O      0.000000    0.000000    1.160386
|  7> O      0.000000    0.000000   -1.160386
|  8> *
|  9>
| 10>                          ****END OF INPUT****

CARTESIAN COORDINATES (ANGSTROEM)
---------------------------------
  C      0.000000    0.000000    0.000000
  O      0.000000    0.000000    1.160386
  O      0.000000    0.000000   -1.160386

 Total Charge           Charge          ....    0
 Multiplicity           Mult            ....    1
 Number of Electrons    NEL             ....   22
 Basis Dimension        Dim             ....  138

ORBITAL ENERGIES
----------------

  NO   OCC          E(Eh)            E(eV)
   0   2.0000     -20.653038      -561.9977
   1   2.0000     -20.652992      -561.9965
   2   2.0000     -11.461226      -311.8758
   3   2.0000      -1.532111       -41.6909
   4   2.0000      -1.479068       -40.2475
   5   2.0000      -0.801139       -21.8001
   6   2.0000      -0.743932       -20.2434
   7   2.0000      -0.715972       -19.4826
   8   2.0000      -0.715972       -19.4826
   9   2.0000      -0.544941       -14.8286
  10   2.0000      -0.544941       -14.8286
  11   0.0000       0.047372         1.2891
  12   0.0000       0.072825         1.9817
  13   0.0000       0.072825         1.9817
  14   0.0000       0.078833         2.1451
  15   0.0000       0.160997         4.3810

MULLIKEN ATOMIC CHARGES
-----------------------
   0 C :    0.482157
   1 O :   -0.241078
   2 O :   -0.241078
Sum of atomic charges:    0.0000000

LOEWDIN ATOMIC CHARGES
----------------------
   0 C :   -0.719192
   1 O :    0.359596
   2 O :    0.359596

  Mayer bond orders larger than 0.100000
B(  0-C ,  1-O ) :   2.0130 B(  0-C ,  2-O ) :   2.0130

MP2 TOTAL ENERGY:     -188.321270714 Eh
FINAL SINGLE POINT ENERGY      -188.321270713847

DIPOLE MOMENT
-------------
                                X             Y             Z
Electronic contribution:      0.00000      -0.00000       0.00000
Nuclear contribution   :      0.00000       0.00000       0.00000
                        -----------------------------------------
Total Dipole Moment    :      0.00000      -0.00000       0.00000
                        -----------------------------------------
Magnitude (a.u.)       :      0.00000
Magnitude (Debye)      :      0.00000

Rotational constants in cm-1:     0.000000     0.391263     0.391263
Rotational constants in MHz :     0.000000 11729.778443 11729.778443

                             ****ORCA TERMINATED NORMALLY****
TOTAL RUN TIME: 0 days 0 hours 0 minutes 37 seconds 75 msec
