                         Program Version 5.0.3 -  RELEASE  -
|  1> !ri-mp2 aug-cc-pvtz aug-cc-pvtz/c tightscf
|  2> %pal nprocs 16 end
|  3>
|  4> * xyz 0 1
|  5> C      0.570687   -0.092261    0.000000
|  6> F      0.570687   -0.879813    1.088316
|  7> F      0.570687   -0.879813   -1.088316
|  8> Cl    -0.890989    0.932054    0.000000
|  9> H      1.450337    0.545289    0.000000
| 10> *
| 11>
| 12>                          ****END OF INPUT****

CARTESIAN COORDINATES (ANGSTROEM)
---------------------------------
  C      0.570687   -0.092261    0.000000
  F      0.570687   -0.879813    1.088316
  F      0.570687   -0.879813   -1.088316
  Cl    -0.890989    0.932054    0.000000
  H      1.450337    0.545289    0.000000

 Total Charge           Charge          ....    0
 Multiplicity           Mult            ....    1
 Number of Electrons    NEL             ....   42
 Basis Dimension        Dim             ....  211

ORBITAL ENERGIES
----------------

  NO   OCC          E(Eh)            E(eV)
   0   2.0000    -104.865420     -2853.5331
   1   2.0000     -26.348127      -716.9690
   2   2.0000     -26.348107      -716.9684
   3   2.0000     -11.490857      -312.6821
   4   2.0000     -10.589999      -288.1685
   5   2.0000      -8.056773      -219.2359
   6   2.0000      -8.054816      -219.1827
   7   2.0000      -8.054778      -219.1817
   8   2.0000      -1.704263       -46.3754
   9   2.0000      -1.639111       -44.6025
  10   2.0000      -1.159184       -31.5430
  11   2.0000      -0.957466       -26.0540
  12   2.0000      -0.820432       -22.3251
  13   2.0000      -0.798684       -21.7333
  14   2.0000      -0.770528       -20.9671
  15   2.0000      -0.699588       -19.0368
  16   2.0000      -0.665780       -18.1168
  17   2.0000      -0.652628       -17.7589
  18   2.0000      -0.552422       -15.0322
  19   2.0000      -0.488594       -13.2953
  20   2.0000      -0.484348       -13.1798
  21   0.0000       0.029369         0.7992
  22   0.0000       0.063861         1.7378
  23   0.0000       0.079110         2.1527
  24   0.0000       0.079171         2.1543
  25   0.0000       0.107632         2.9288

MULLIKEN ATOMIC CHARGES
-----------------------
   0 C :    0.582747
   1 F :   -0.363777
   2 F :   -0.363777
   3 Cl:   -0.191106
   4 H :    0.335914
Sum of atomic charges:    0.0000000

LOEWDIN ATOMIC CHARGES
----------------------
   0 C :   -1.399771
   1 F :    0.419760
   2 F :    0.419760
   3 Cl:    0.846262
   4 H :   -0.286012

  Mayer bond orders larger than 0.100000
B(  0-C ,  1-F ) :   0.8360 B(  0-C ,  2-F ) :   0.8360 B(  0-C ,  3-Cl) :   0.9878
B(  0-C ,  4-H ) :   0.8865

MP2 TOTAL ENERGY:     -697.810442272 Eh
FINAL SINGLE POINT ENERGY      -697.810442272473

DIPOLE MOMENT
-------------
                                X             Y             Z
Electronic contribution:     -0.97603      -0.42500       0.00000
Nuclear contribution   :      1.45759       0.86629       0.00000
                        -----------------------------------------
Total Dipole Moment    :      0.48156       0.44129       0.00000
                        -----------------------------------------
Magnitude (a.u.)       :      0.65318
Magnitude (Debye)      :      1.66024

Rotational constants in cm-1:     0.339296     0.157365     0.114330
Rotational constants in MHz : 10171.849170  4717.682365  3427.516198

                             ****ORCA TERMINATED NORMALLY****
TOTAL RUN TIME: 0 days 0 hours 0 minutes 56 seconds 53 msec
