                         Program Version 5.0.3 -  RELEASE  -
|  1> !ri-mp2 aug-cc-pvtz aug-cc-pvtz/c tightscf
|  2> %pal nprocs 16 end
|  3>
|  4> * xyz 0 1
|  5> C     0.667787     1.563913    0.371103
|  6> C    -0.667787     1.563913    0.371103
|  7> C     0.667787    -1.563913    0.371103
|  8> C    -0.667787    -1.563913    0.371103
|  9> C     1.563913     0.667787   -0.371103
| 10> C    -1.563913     0.667787   -0.371103
| 11> C     1.563913    -0.667787   -0.371103
| 12> C    -1.563913    -0.667787   -0.371103
| 13> H     1.166556     2.358559    0.918777
| 14> H    -1.166556     2.358559    0.918777
| 15> H     1.166556    -2.358559    0.918777
| 16> H    -1.166556    -2.358559    0.918777
| 17> H     2.358559     1.166556   -0.918777
| 18> H    -2.358559     1.166556   -0.918777
| 19> H     2.358559    -1.166556   -0.918777
| 20> H    -2.358559    -1.166556   -0.918777
| 21> *
| 22>
| 23>                          ****END OF INPUT****

CARTESIAN COORDINATES (ANGSTROEM)
---------------------------------
  C      0.667787    1.563913    0.371103
  C     -0.667787    1.563913    0.371103
  C      0.667787   -1.563913    0.371103
  C     -0.667787   -1.563913    0.371103
  C      1.563913    0.667787   -0.371103
  C     -1.563913    0.667787   -0.371103
  C      1.563913   -0.667787   -0.371103
  C     -1.563913   -0.667787   -0.371103
  H      1.166556    2.358559    0.918777
  H     -1.166556    2.358559    0.918777
  H      1.166556   -2.358559    0.918777
  H     -1.166556   -2.358559    0.918777
  H      2.358559    1.166556   -0.918777
  H     -2.358559    1.166556   -0.918777
  H      2.358559   -1.166556   -0.918777
  H     -2.358559   -1.166556   -0.918777

 Total Charge           Charge          ....    0
 Multiplicity           Mult            ....    1
 Number of Electrons    NEL             ....   56
 Basis Dimension        Dim             ....  552

ORBITAL ENERGIES
----------------

  NO   OCC          E(Eh)            E(eV)
   0   2.0000     -11.237511      -305.7882
   1   2.0000     -11.237225      -305.7804
   2   2.0000     -11.237225      -305.7804
   3   2.0000     -11.236752      -305.7676
   4   2.0000     -11.235852      -305.7431
   5   2.0000     -11.235352      -305.7295
   6   2.0000     -11.235352      -305.7295
   7   2.0000     -11.235035      -305.7208
   8   2.0000      -1.129424       -30.7332
   9   2.0000      -1.061067       -28.8731
  10   2.0000      -1.061067       -28.8731
  11   2.0000      -0.955230       -25.9931
  12   2.0000      -0.896834       -24.4041
  13   2.0000      -0.775855       -21.1121
  14   2.0000      -0.775855       -21.1121
  15   2.0000      -0.689985       -18.7754
  16   2.0000      -0.633361       -17.2346
  17   2.0000      -0.628110       -17.0917
  18   2.0000      -0.628110       -17.0917
  19   2.0000      -0.623705       -16.9719
  20   2.0000      -0.587113       -15.9762
  21   2.0000      -0.513219       -13.9654
  22   2.0000      -0.513219       -13.9654
  23   2.0000      -0.478413       -13.0183
  24   2.0000      -0.440981       -11.9997
  25   2.0000      -0.375656       -10.2221
  26   2.0000      -0.375656       -10.2221
  27   2.0000      -0.299587        -8.1522
  28   0.0000       0.029628         0.8062
  29   0.0000       0.034064         0.9269
  30   0.0000       0.034064         0.9269
  31   0.0000       0.040296         1.0965
  32   0.0000       0.045123         1.2279

MULLIKEN ATOMIC CHARGES
-----------------------
   0 C :   -0.353895
   1 C :   -0.353911
   2 C :   -0.353911
   3 C :   -0.353895
   4 C :   -0.353912
   5 C :   -0.353896
   6 C :   -0.353896
   7 C :   -0.353912
   8 H :    0.353903
   9 H :    0.353900
  10 H :    0.353900
  11 H :    0.353903
  12 H :    0.353906
  13 H :    0.353905
  14 H :    0.353905
  15 H :    0.353906
Sum of atomic charges:    0.0000000

LOEWDIN ATOMIC CHARGES
----------------------
   0 C :    0.193306
   1 C :    0.193306
   2 C :    0.193306
   3 C :    0.193306
   4 C :    0.193306
   5 C :    0.193306
   6 C :    0.193306
   7 C :    0.193306
   8 H :   -0.193306
   9 H :   -0.193306
  10 H :   -0.193306
  11 H :   -0.193306
  12 H :   -0.193306
  13 H :   -0.193306
  14 H :   -0.193306
  15 H :   -0.193306

  Mayer bond orders larger than 0.100000
B(  0-C ,  1-C ) :   1.8000 B(  0-C ,  4-C ) :   0.7075 B(  0-C ,  7-C ) :   0.1089
B(  0-C ,  8-H ) :   0.9141 B(  1-C ,  5-C ) :   0.7075 B(  1-C ,  6-C ) :   0.1089
B(  1-C ,  9-H ) :   0.9141 B(  2-C ,  3-C ) :   1.8000 B(  2-C ,  5-C ) :   0.1089
B(  2-C ,  6-C ) :   0.7075 B(  2-C , 10-H ) :   0.9141 B(  3-C ,  4-C ) :   0.1089
B(  3-C ,  7-C ) :   0.7075 B(  3-C , 11-H ) :   0.9141 B(  4-C ,  6-C ) :   1.8000
B(  4-C , 12-H ) :   0.9141 B(  5-C ,  7-C ) :   1.8000 B(  5-C , 13-H ) :   0.9141
B(  6-C , 14-H ) :   0.9141 B(  7-C , 15-H ) :   0.9141

MP2 TOTAL ENERGY:     -308.910009839 Eh
FINAL SINGLE POINT ENERGY      -308.910009838981

DIPOLE MOMENT
-------------
                                X             Y             Z
Electronic contribution:      0.00000      -0.00000       0.00000
Nuclear contribution   :      0.00000       0.00000      -0.00000
                        -----------------------------------------
Total Dipole Moment    :      0.00000      -0.00000       0.00000
                        -----------------------------------------
Magnitude (a.u.)       :      0.00000
Magnitude (Debye)      :      0.00000

Rotational constants in cm-1:     0.090202     0.090202     0.050518
Rotational constants in MHz :  2704.179669  2704.179669  1514.490228

                             ****ORCA TERMINATED NORMALLY****
TOTAL RUN TIME: 0 days 0 hours 5 minutes 46 seconds 257 msec
