                         Program Version 5.0.3 -  RELEASE  -
|  1> !ri-mp2 aug-cc-pvtz aug-cc-pvtz/c tightscf
|  2> %pal nprocs 16 end
|  3>
|  4> * xyz 0 1
|  5> C      2.273854    0.274215   -0.203952
|  6> C      1.762908   -1.084479    0.283467
|  7> C      0.328202   -1.357217   -0.186256
|  8> C     -0.603815   -0.222061    0.229009
|  9> C     -0.109581    1.129030   -0.279562
| 10> C      1.321941    1.404284    0.197425
| 11> O     -1.885928   -0.581152   -0.300631
| 12> O     -2.882481    0.292841    0.300204
| 13> H      3.273677    0.463179    0.192478
| 14> H      2.369370    0.253715   -1.294443
| 15> H      1.795630   -1.111497    1.377231
| 16> H      2.418338   -1.885041   -0.064459
| 17> H     -0.041640   -2.299048    0.220652
| 18> H      0.306159   -1.447044   -1.276226
| 19> H     -0.688027   -0.199332    1.321058
| 20> H     -0.139153    1.116756   -1.373872
| 21> H     -0.781503    1.918852    0.057557
| 22> H      1.326109    1.510541    1.287156
| 23> H      1.670130    2.357427   -0.205005
| 24> H     -3.202874    0.765346   -0.479497
| 25> *
| 26>
| 27>                          ****END OF INPUT****

CARTESIAN COORDINATES (ANGSTROEM)
---------------------------------
  C      2.273854    0.274215   -0.203952
  C      1.762908   -1.084479    0.283467
  C      0.328202   -1.357217   -0.186256
  C     -0.603815   -0.222061    0.229009
  C     -0.109581    1.129030   -0.279562
  C      1.321941    1.404284    0.197425
  O     -1.885928   -0.581152   -0.300631
  O     -2.882481    0.292841    0.300204
  H      3.273677    0.463179    0.192478
  H      2.369370    0.253715   -1.294443
  H      1.795630   -1.111497    1.377231
  H      2.418338   -1.885041   -0.064459
  H     -0.041640   -2.299048    0.220652
  H      0.306159   -1.447044   -1.276226
  H     -0.688027   -0.199332    1.321058
  H     -0.139153    1.116756   -1.373872
  H     -0.781503    1.918852    0.057557
  H      1.326109    1.510541    1.287156
  H      1.670130    2.357427   -0.205005
  H     -3.202874    0.765346   -0.479497

 Total Charge           Charge          ....    0
 Multiplicity           Mult            ....    1
 Number of Electrons    NEL             ....   64
 Basis Dimension        Dim             ....  644

ORBITAL ENERGIES
----------------

  NO   OCC          E(Eh)            E(eV)
   0   2.0000     -20.616980      -561.0165
   1   2.0000     -20.615737      -560.9827
   2   2.0000     -11.279058      -306.9188
   3   2.0000     -11.223316      -305.4020
   4   2.0000     -11.223050      -305.3947
   5   2.0000     -11.221175      -305.3437
   6   2.0000     -11.220605      -305.3282
   7   2.0000     -11.219682      -305.3031
   8   2.0000      -1.462315       -39.7916
   9   2.0000      -1.226753       -33.3816
  10   2.0000      -1.109758       -30.1980
  11   2.0000      -1.011125       -27.5141
  12   2.0000      -0.988584       -26.9007
  13   2.0000      -0.843152       -22.9433
  14   2.0000      -0.825165       -22.4539
  15   2.0000      -0.768199       -20.9038
  16   2.0000      -0.707330       -19.2474
  17   2.0000      -0.668846       -18.2002
  18   2.0000      -0.635594       -17.2954
  19   2.0000      -0.627354       -17.0712
  20   2.0000      -0.610375       -16.6092
  21   2.0000      -0.596469       -16.2307
  22   2.0000      -0.569230       -15.4895
  23   2.0000      -0.534174       -14.5356
  24   2.0000      -0.522446       -14.2165
  25   2.0000      -0.505998       -13.7689
  26   2.0000      -0.491144       -13.3647
  27   2.0000      -0.481745       -13.1090
  28   2.0000      -0.464376       -12.6363
  29   2.0000      -0.463606       -12.6154
  30   2.0000      -0.443310       -12.0631
  31   2.0000      -0.423918       -11.5354
  32   0.0000       0.028472         0.7748
  33   0.0000       0.032603         0.8872
  34   0.0000       0.036296         0.9877
  35   0.0000       0.037991         1.0338
  36   0.0000       0.049600         1.3497

MULLIKEN ATOMIC CHARGES
-----------------------
   0 C :   -0.465360
   1 C :   -0.498839
   2 C :   -0.550073
   3 C :    0.686068
   4 C :   -0.581199
   5 C :   -0.509470
   6 O :   -0.619941
   7 O :   -0.385628
   8 H :    0.318964
   9 H :    0.157307
  10 H :    0.158876
  11 H :    0.319875
  12 H :    0.300564
  13 H :    0.207194
  14 H :    0.251390
  15 H :    0.209309
  16 H :    0.290280
  17 H :    0.169411
  18 H :    0.310965
  19 H :    0.230306
Sum of atomic charges:   -0.0000000

LOEWDIN ATOMIC CHARGES
----------------------
   0 C :    0.290972
   1 C :    0.294606
   2 C :    0.286865
   3 C :   -0.306451
   4 C :    0.287605
   5 C :    0.293890
   6 O :    0.380651
   7 O :    0.586895
   8 H :   -0.142518
   9 H :   -0.141053
  10 H :   -0.140619
  11 H :   -0.141684
  12 H :   -0.142000
  13 H :   -0.140739
  14 H :   -0.140047
  15 H :   -0.140483
  16 H :   -0.153669
  17 H :   -0.139961
  18 H :   -0.141754
  19 H :   -0.550504

  Mayer bond orders larger than 0.100000
B(  0-C ,  1-C ) :   0.8724 B(  0-C ,  5-C ) :   0.8839 B(  0-C ,  8-H ) :   0.9110
B(  0-C ,  9-H ) :   1.0348 B(  1-C ,  2-C ) :   0.9305 B(  1-C , 10-H ) :   1.0513
B(  1-C , 11-H ) :   0.9081 B(  2-C ,  3-C ) :   0.8136 B(  2-C ,  4-C ) :   0.1578
B(  2-C ,  6-O ) :   0.1405 B(  2-C , 12-H ) :   0.9038 B(  2-C , 13-H ) :   1.0038
B(  3-C ,  4-C ) :   0.8715 B(  3-C ,  6-O ) :   0.2626 B(  3-C ,  7-O ) :  -0.1213
B(  3-C , 14-H ) :   1.0255 B(  4-C ,  5-C ) :   0.9350 B(  4-C ,  6-O ) :   0.1411
B(  4-C , 15-H ) :   0.9908 B(  4-C , 16-H ) :   0.9060 B(  5-C , 17-H ) :   1.0314
B(  5-C , 18-H ) :   0.9067 B(  6-O ,  7-O ) :   0.8894 B(  7-O , 19-H ) :   0.9753

MP2 TOTAL ENERGY:     -385.507097283 Eh
FINAL SINGLE POINT ENERGY      -385.507097282900

DIPOLE MOMENT
-------------
                                X             Y             Z
Electronic contribution:     -7.91248      -1.01994      -0.02531
Nuclear contribution   :      8.51708       1.48933      -0.24563
                        -----------------------------------------
Total Dipole Moment    :      0.60461       0.46939      -0.27094
                        -----------------------------------------
Magnitude (a.u.)       :      0.81196
Magnitude (Debye)      :      2.06384

Rotational constants in cm-1:     0.132466     0.044953     0.036113
Rotational constants in MHz :  3971.239947  1347.664271  1082.645882

                             ****ORCA TERMINATED NORMALLY****
TOTAL RUN TIME: 0 days 0 hours 10 minutes 1 seconds 425 msec
