                         Program Version 5.0.3 -  RELEASE  -
|  1> !ri-mp2 aug-cc-pvtz aug-cc-pvtz/c tightscf
|  2> %pal nprocs 16 end
|  3> %maxcore 3800
|  4>
|  5> * xyz 0 1
|  6> C    -1.366891    0.474228   -0.146969
|  7> C     0.275353   -1.434457   -0.131432
|  8> C     1.099759    0.948113   -0.139858
|  9> C    -1.098479   -0.958309    0.321858
| 10> C    -0.269625    1.432558    0.319250
| 11> C     1.373754   -0.482882    0.325882
| 12> O    -2.056536   -1.879394   -0.204100
| 13> O    -0.446869    2.750757   -0.204758
| 14> O     2.605127   -0.984857   -0.196602
| 15> H    -1.412028    0.488864   -1.238475
| 16> H    -2.339459    0.812617    0.226852
| 17> H     0.466279   -2.436160    0.253202
| 18> H     0.288581   -1.495060   -1.222313
| 19> H     1.141058    0.982010   -1.231171
| 20> H     1.867909    1.627151    0.238193
| 21> H    -1.139106   -0.987591    1.419260
| 22> H    -0.278931    1.479268    1.416737
| 23> H     1.418949   -0.497589    1.423644
| 24> H    -2.934028   -1.628557    0.100071
| 25> H    -1.297930    3.093159    0.085131
| 26> H     3.321704   -0.405651    0.080163
| 27> *
| 28>
| 29>                          ****END OF INPUT****

CARTESIAN COORDINATES (ANGSTROEM)
---------------------------------
  C     -1.366891    0.474228   -0.146969
  C      0.275353   -1.434457   -0.131432
  C      1.099759    0.948113   -0.139858
  C     -1.098479   -0.958309    0.321858
  C     -0.269625    1.432558    0.319250
  C      1.373754   -0.482882    0.325882
  O     -2.056536   -1.879394   -0.204100
  O     -0.446869    2.750757   -0.204758
  O      2.605127   -0.984857   -0.196602
  H     -1.412028    0.488864   -1.238475
  H     -2.339459    0.812617    0.226852
  H      0.466279   -2.436160    0.253202
  H      0.288581   -1.495060   -1.222313
  H      1.141058    0.982010   -1.231171
  H      1.867909    1.627151    0.238193
  H     -1.139106   -0.987591    1.419260
  H     -0.278931    1.479268    1.416737
  H      1.418949   -0.497589    1.423644
  H     -2.934028   -1.628557    0.100071
  H     -1.297930    3.093159    0.085131
  H      3.321704   -0.405651    0.080163

 Total Charge           Charge          ....    0
 Multiplicity           Mult            ....    1
 Number of Electrons    NEL             ....   72
 Basis Dimension        Dim             ....  690

ORBITAL ENERGIES
----------------

  NO   OCC          E(Eh)            E(eV)
   0   2.0000     -20.563940      -559.5732
   1   2.0000     -20.561239      -559.4998
   2   2.0000     -20.558218      -559.4175
   3   2.0000     -11.290568      -307.2320
   4   2.0000     -11.287927      -307.1601
   5   2.0000     -11.284866      -307.0768
   6   2.0000     -11.228733      -305.5494
   7   2.0000     -11.223083      -305.3956
   8   2.0000     -11.217287      -305.2379
   9   2.0000      -1.367419       -37.2094
  10   2.0000      -1.363140       -37.0929
  11   2.0000      -1.360161       -37.0119
  12   2.0000      -1.111139       -30.2356
  13   2.0000      -1.003371       -27.3031
  14   2.0000      -1.000591       -27.2275
  15   2.0000      -0.848289       -23.0831
  16   2.0000      -0.834442       -22.7063
  17   2.0000      -0.778369       -21.1805
  18   2.0000      -0.709124       -19.2963
  19   2.0000      -0.694752       -18.9052
  20   2.0000      -0.684051       -18.6140
  21   2.0000      -0.657918       -17.9028
  22   2.0000      -0.642333       -17.4788
  23   2.0000      -0.613454       -16.6929
  24   2.0000      -0.572955       -15.5909
  25   2.0000      -0.569306       -15.4916
  26   2.0000      -0.556567       -15.1449
  27   2.0000      -0.545109       -14.8332
  28   2.0000      -0.531364       -14.4591
  29   2.0000      -0.515416       -14.0252
  30   2.0000      -0.479690       -13.0530
  31   2.0000      -0.472740       -12.8639
  32   2.0000      -0.470057       -12.7909
  33   2.0000      -0.459528       -12.5044
  34   2.0000      -0.438071       -11.9205
  35   2.0000      -0.429580       -11.6895
  36   0.0000       0.022244         0.6053
  37   0.0000       0.030608         0.8329
  38   0.0000       0.035341         0.9617
  39   0.0000       0.038225         1.0401
  40   0.0000       0.049199         1.3388

MULLIKEN ATOMIC CHARGES
-----------------------
   0 C :   -0.719649
   1 C :   -0.497394
   2 C :   -0.605945
   3 C :    0.562950
   4 C :    0.588212
   5 C :    0.538624
   6 O :   -0.790500
   7 O :   -0.795611
   8 O :   -0.791408
   9 H :    0.169815
  10 H :    0.325934
  11 H :    0.339326
  12 H :    0.179082
  13 H :    0.177081
  14 H :    0.329446
  15 H :    0.182148
  16 H :    0.207248
  17 H :    0.150842
  18 H :    0.146704
  19 H :    0.151267
  20 H :    0.151830
Sum of atomic charges:   -0.0000000

LOEWDIN ATOMIC CHARGES
----------------------
   0 C :    0.309880
   1 C :    0.296669
   2 C :    0.302481
   3 C :   -0.253535
   4 C :   -0.254554
   5 C :   -0.254187
   6 O :    0.838421
   7 O :    0.837821
   8 O :    0.838651
   9 H :   -0.135329
  10 H :   -0.142247
  11 H :   -0.135833
  12 H :   -0.134855
  13 H :   -0.134877
  14 H :   -0.138990
  15 H :   -0.127917
  16 H :   -0.127795
  17 H :   -0.128003
  18 H :   -0.485504
  19 H :   -0.485263
  20 H :   -0.485033

  Mayer bond orders larger than 0.100000
B(  0-C ,  1-C ) :   0.1348 B(  0-C ,  2-C ) :   0.1270 B(  0-C ,  3-C ) :   0.8800
B(  0-C ,  4-C ) :   0.8919 B(  0-C ,  6-O ) :   0.1393 B(  0-C ,  7-O ) :   0.1409
B(  0-C ,  9-H ) :   0.9921 B(  0-C , 10-H ) :   0.8779 B(  1-C ,  2-C ) :   0.1415
B(  1-C ,  3-C ) :   0.8270 B(  1-C ,  5-C ) :   0.8165 B(  1-C ,  6-O ) :   0.1300
B(  1-C ,  8-O ) :   0.1168 B(  1-C , 11-H ) :   0.8888 B(  1-C , 12-H ) :   1.0074
B(  2-C ,  4-C ) :   0.8205 B(  2-C ,  5-C ) :   0.8788 B(  2-C ,  7-O ) :   0.1234
B(  2-C ,  8-O ) :   0.1261 B(  2-C , 13-H ) :   0.9968 B(  2-C , 14-H ) :   0.8867
B(  3-C ,  6-O ) :   0.2518 B(  3-C , 15-H ) :   1.1088 B(  4-C ,  7-O ) :   0.2401
B(  4-C , 16-H ) :   1.0714 B(  5-C ,  8-O ) :   0.2752 B(  5-C , 17-H ) :   1.1396
B(  6-O , 18-H ) :   1.0453 B(  7-O , 19-H ) :   1.0365 B(  8-O , 20-H ) :   1.0413

MP2 TOTAL ENERGY:     -460.730630370 Eh
FINAL SINGLE POINT ENERGY      -460.730630370139

DIPOLE MOMENT
-------------
                                X             Y             Z
Electronic contribution:      0.29672      -0.34152      -0.50789
Nuclear contribution   :     -0.91615       1.05455       1.57747
                        -----------------------------------------
Total Dipole Moment    :     -0.61942       0.71304       1.06958
                        -----------------------------------------
Magnitude (a.u.)       :      1.42692
Magnitude (Debye)      :      3.62695

Rotational constants in cm-1:     0.054359     0.053382     0.028505
Rotational constants in MHz :  1629.639277  1600.341188   854.552551

                             ****ORCA TERMINATED NORMALLY****
TOTAL RUN TIME: 0 days 0 hours 12 minutes 17 seconds 537 msec
