                         Program Version 5.0.3 -  RELEASE  -
|  1> !ri-mp2 aug-cc-pvtz aug-cc-pvtz/c tightscf
|  2> %pal nprocs 16 end
|  3>
|  4> * xyz 0 1
|  5> C      0.636065    0.415283    0.571630
|  6> C     -0.713037   -0.368475    0.430685
|  7> C      1.364965   -0.856683    0.052791
|  8> C      0.013200   -1.382989   -0.489869
|  9> C      0.802735    1.630562   -0.331113
| 10> C     -1.968744    0.323549   -0.068200
| 11> H      0.880376    0.697694    1.597241
| 12> H     -0.928293   -0.850203    1.387512
| 13> H      2.167047   -0.700311   -0.668994
| 14> H     -0.125626   -1.141655   -1.544800
| 15> H      1.747856   -1.473016    0.866030
| 16> H     -0.212001   -2.439705   -0.348512
| 17> H      0.603423    1.391862   -1.377604
| 18> H     -1.805638    0.816530   -1.027783
| 19> H      0.132470    2.442392   -0.042514
| 20> H      1.825302    2.008700   -0.271645
| 21> H     -2.318826    1.078652    0.639323
| 22> H     -2.777199   -0.398427   -0.203797
| 23> *
| 24>
| 25>                          ****END OF INPUT****

CARTESIAN COORDINATES (ANGSTROEM)
---------------------------------
  C      0.636065    0.415283    0.571630
  C     -0.713037   -0.368475    0.430685
  C      1.364965   -0.856683    0.052791
  C      0.013200   -1.382989   -0.489869
  C      0.802735    1.630562   -0.331113
  C     -1.968744    0.323549   -0.068200
  H      0.880376    0.697694    1.597241
  H     -0.928293   -0.850203    1.387512
  H      2.167047   -0.700311   -0.668994
  H     -0.125626   -1.141655   -1.544800
  H      1.747856   -1.473016    0.866030
  H     -0.212001   -2.439705   -0.348512
  H      0.603423    1.391862   -1.377604
  H     -1.805638    0.816530   -1.027783
  H      0.132470    2.442392   -0.042514
  H      1.825302    2.008700   -0.271645
  H     -2.318826    1.078652    0.639323
  H     -2.777199   -0.398427   -0.203797

 Total Charge           Charge          ....    0
 Multiplicity           Mult            ....    1
 Number of Electrons    NEL             ....   48
 Basis Dimension        Dim             ....  552

ORBITAL ENERGIES
----------------

  NO   OCC          E(Eh)            E(eV)
   0   2.0000     -11.219351      -305.2941
   1   2.0000     -11.218810      -305.2793
   2   2.0000     -11.211836      -305.0896
   3   2.0000     -11.211148      -305.0708
   4   2.0000     -11.208730      -305.0051
   5   2.0000     -11.207342      -304.9673
   6   2.0000      -1.132137       -30.8070
   7   2.0000      -0.984856       -26.7993
   8   2.0000      -0.968179       -26.3455
   9   2.0000      -0.847928       -23.0733
  10   2.0000      -0.837718       -22.7955
  11   2.0000      -0.712060       -19.3761
  12   2.0000      -0.661426       -17.9983
  13   2.0000      -0.608104       -16.5473
  14   2.0000      -0.588721       -16.0199
  15   2.0000      -0.565865       -15.3980
  16   2.0000      -0.542034       -14.7495
  17   2.0000      -0.531672       -14.4675
  18   2.0000      -0.517191       -14.0735
  19   2.0000      -0.502680       -13.6786
  20   2.0000      -0.452668       -12.3177
  21   2.0000      -0.440274       -11.9805
  22   2.0000      -0.415211       -11.2985
  23   2.0000      -0.413133       -11.2419
  24   0.0000       0.030170         0.8210
  25   0.0000       0.036056         0.9811
  26   0.0000       0.037342         1.0161
  27   0.0000       0.037593         1.0230
  28   0.0000       0.053377         1.4525

MULLIKEN ATOMIC CHARGES
-----------------------
   0 C :   -0.289436
   1 C :    0.107928
   2 C :   -0.766735
   3 C :   -0.771196
   4 C :   -0.882352
   5 C :   -0.914402
   6 H :    0.467139
   7 H :    0.406372
   8 H :    0.349190
   9 H :    0.171883
  10 H :    0.179619
  11 H :    0.412764
  12 H :    0.288837
  13 H :    0.289860
  14 H :    0.230256
  15 H :    0.258048
  16 H :    0.261989
  17 H :    0.200235
Sum of atomic charges:   -0.0000000

LOEWDIN ATOMIC CHARGES
----------------------
   0 C :    0.019151
   1 C :    0.010493
   2 C :    0.333334
   3 C :    0.333297
   4 C :    0.578744
   5 C :    0.590290
   6 H :   -0.132849
   7 H :   -0.133858
   8 H :   -0.148620
   9 H :   -0.151063
  10 H :   -0.149810
  11 H :   -0.146875
  12 H :   -0.166937
  13 H :   -0.177005
  14 H :   -0.164212
  15 H :   -0.164119
  16 H :   -0.164086
  17 H :   -0.165875

  Mayer bond orders larger than 0.100000
B(  0-C ,  1-C ) :   1.0514 B(  0-C ,  2-C ) :   1.1889 B(  0-C ,  4-C ) :   0.6489
B(  0-C ,  6-H ) :   0.6722 B(  1-C ,  2-C ) :  -0.2597 B(  1-C ,  3-C ) :   1.0168
B(  1-C ,  5-C ) :   0.6427 B(  1-C ,  7-H ) :   0.7808 B(  2-C ,  3-C ) :   1.1947
B(  2-C ,  8-H ) :   0.8638 B(  2-C , 10-H ) :   1.0256 B(  3-C ,  9-H ) :   1.0446
B(  3-C , 11-H ) :   0.7742 B(  4-C , 12-H ) :   0.9583 B(  4-C , 14-H ) :   1.0129
B(  4-C , 15-H ) :   1.0000 B(  5-C , 13-H ) :   0.9573 B(  5-C , 16-H ) :   1.0031
B(  5-C , 17-H ) :   1.0752

MP2 TOTAL ENERGY:     -235.309081656 Eh
FINAL SINGLE POINT ENERGY      -235.309081656167

DIPOLE MOMENT
-------------
                                X             Y             Z
Electronic contribution:      0.85736      -1.52889       1.12376
Nuclear contribution   :     -0.86879       1.53439      -1.06635
                        -----------------------------------------
Total Dipole Moment    :     -0.01144       0.00551       0.05741
                        -----------------------------------------
Magnitude (a.u.)       :      0.05880
Magnitude (Debye)      :      0.14945

Rotational constants in cm-1:     0.145207     0.120797     0.079780
Rotational constants in MHz :  4353.198859  3621.393576  2391.746047

                             ****ORCA TERMINATED NORMALLY****
TOTAL RUN TIME: 0 days 0 hours 5 minutes 29 seconds 195 msec
