                         Program Version 5.0.3 -  RELEASE  -
|  1> !ri-mp2 aug-cc-pvtz aug-cc-pvtz/c tightscf
|  2> %pal nprocs 16 end
|  3>
|  4> * xyz 0 1
|  5> N      0.137512    2.151652    0.000000
|  6> C      0.448122    0.721591    0.000000
|  7> H      1.532762    0.530144    0.000000
|  8> H      0.533560    2.608259    0.813100
|  9> H      0.533560    2.608259   -0.813100
| 10> C     -0.167084   -1.496898    0.778524
| 11> C     -0.167084   -1.496898   -0.778524
| 12> C     -0.167084   -0.013012   -1.194728
| 13> C     -0.167084   -0.013012    1.194728
| 14> H     -1.025406   -2.027487   -1.189237
| 15> H     -1.025406   -2.027487    1.189237
| 16> H      0.721946   -2.002668    1.157019
| 17> H      0.721946   -2.002668   -1.157019
| 18> H     -1.187175    0.355253   -1.326931
| 19> H     -1.187175    0.355253    1.326931
| 20> H      0.370046    0.165478   -2.127734
| 21> H      0.370046    0.165478    2.127734
| 22> *
| 23>
| 24>                          ****END OF INPUT****

CARTESIAN COORDINATES (ANGSTROEM)
---------------------------------
  N      0.137512    2.151652    0.000000
  C      0.448122    0.721591    0.000000
  H      1.532762    0.530144    0.000000
  H      0.533560    2.608259    0.813100
  H      0.533560    2.608259   -0.813100
  C     -0.167084   -1.496898    0.778524
  C     -0.167084   -1.496898   -0.778524
  C     -0.167084   -0.013012   -1.194728
  C     -0.167084   -0.013012    1.194728
  H     -1.025406   -2.027487   -1.189237
  H     -1.025406   -2.027487    1.189237
  H      0.721946   -2.002668    1.157019
  H      0.721946   -2.002668   -1.157019
  H     -1.187175    0.355253   -1.326931
  H     -1.187175    0.355253    1.326931
  H      0.370046    0.165478   -2.127734
  H      0.370046    0.165478    2.127734

 Total Charge           Charge          ....    0
 Multiplicity           Mult            ....    1
 Number of Electrons    NEL             ....   48
 Basis Dimension        Dim             ....  529

ORBITAL ENERGIES
----------------

  NO   OCC          E(Eh)            E(eV)
   0   2.0000     -15.535791      -422.7504
   1   2.0000     -11.245462      -306.0046
   2   2.0000     -11.213554      -305.1363
   3   2.0000     -11.213016      -305.1217
   4   2.0000     -11.209175      -305.0172
   5   2.0000     -11.209162      -305.0168
   6   2.0000      -1.183872       -32.2148
   7   2.0000      -1.088967       -29.6323
   8   2.0000      -0.958951       -26.0944
   9   2.0000      -0.930887       -25.3307
  10   2.0000      -0.775387       -21.0994
  11   2.0000      -0.765359       -20.8265
  12   2.0000      -0.660754       -17.9800
  13   2.0000      -0.638705       -17.3800
  14   2.0000      -0.637037       -17.3347
  15   2.0000      -0.591771       -16.1029
  16   2.0000      -0.565869       -15.3981
  17   2.0000      -0.498199       -13.5567
  18   2.0000      -0.475737       -12.9455
  19   2.0000      -0.474379       -12.9085
  20   2.0000      -0.466254       -12.6874
  21   2.0000      -0.452621       -12.3165
  22   2.0000      -0.449342       -12.2272
  23   2.0000      -0.385090       -10.4788
  24   0.0000       0.029472         0.8020
  25   0.0000       0.036628         0.9967
  26   0.0000       0.037449         1.0190
  27   0.0000       0.039393         1.0719
  28   0.0000       0.053155         1.4464

MULLIKEN ATOMIC CHARGES
-----------------------
   0 N :   -0.734928
   1 C :    0.550908
   2 H :    0.282534
   3 H :    0.074384
   4 H :    0.074384
   5 C :   -0.582982
   6 C :   -0.582982
   7 C :   -0.624020
   8 C :   -0.624020
   9 H :    0.318039
  10 H :    0.318039
  11 H :    0.209321
  12 H :    0.209321
  13 H :    0.171516
  14 H :    0.171516
  15 H :    0.384486
  16 H :    0.384486
Sum of atomic charges:   -0.0000000

LOEWDIN ATOMIC CHARGES
----------------------
   0 N :    0.858353
   1 C :   -0.157520
   2 H :   -0.119942
   3 H :   -0.319822
   4 H :   -0.319822
   5 C :    0.318967
   6 C :    0.318967
   7 C :    0.302989
   8 C :    0.302989
   9 H :   -0.152479
  10 H :   -0.152479
  11 H :   -0.154063
  12 H :   -0.154063
  13 H :   -0.144407
  14 H :   -0.144407
  15 H :   -0.141631
  16 H :   -0.141631

  Mayer bond orders larger than 0.100000
B(  0-N ,  1-C ) :   0.2278 B(  0-N ,  3-H ) :   1.0166 B(  0-N ,  4-H ) :   1.0166
B(  0-N ,  7-C ) :   0.1594 B(  0-N ,  8-C ) :   0.1594 B(  1-C ,  2-H ) :   0.9397
B(  1-C ,  7-C ) :   0.7751 B(  1-C ,  8-C ) :   0.7751 B(  5-C ,  6-C ) :   0.9900
B(  5-C ,  8-C ) :   0.9896 B(  5-C , 10-H ) :   0.8932 B(  5-C , 11-H ) :   1.0149
B(  6-C ,  7-C ) :   0.9896 B(  6-C ,  9-H ) :   0.8932 B(  6-C , 12-H ) :   1.0149
B(  7-C ,  8-C ) :   0.1215 B(  7-C , 13-H ) :   1.0611 B(  7-C , 15-H ) :   0.8285
B(  8-C , 14-H ) :   1.0611 B(  8-C , 16-H ) :   0.8285

MP2 TOTAL ENERGY:     -251.374737064 Eh
FINAL SINGLE POINT ENERGY      -251.374737064345

DIPOLE MOMENT
-------------
                                X             Y             Z
Electronic contribution:      0.11124       1.28229       0.00000
Nuclear contribution   :      0.38061      -1.33348       0.00000
                        -----------------------------------------
Total Dipole Moment    :      0.49185      -0.05119       0.00000
                        -----------------------------------------
Magnitude (a.u.)       :      0.49450
Magnitude (Debye)      :      1.25693

Rotational constants in cm-1:     0.212455     0.099844     0.074490
Rotational constants in MHz :  6369.229396  2993.247706  2233.149391

                             ****ORCA TERMINATED NORMALLY****
TOTAL RUN TIME: 0 days 0 hours 4 minutes 59 seconds 977 msec
