                         Program Version 5.0.3 -  RELEASE  -
|  1> !ri-mp2 aug-cc-pvtz aug-cc-pvtz/c tightscf
|  2> %pal nprocs 16 end
|  3>
|  4> * xyz 0 1
|  5> H     -0.839567   -2.094249    0.000000
|  6> H      0.927182   -2.122428    0.000000
|  7> C      0.054138   -1.475036    0.000000
|  8> O     -0.153392    1.866794    0.000000
|  9> C     -0.034224    0.676084    0.000000
| 10> H      0.974306   -0.304588    1.688889
| 11> H      0.974306   -0.304588   -1.688889
| 12> H     -0.789114   -0.376716    1.798667
| 13> H     -0.789114   -0.376716   -1.798667
| 14> C      0.054138   -0.380113    1.107874
| 15> C      0.054138   -0.380113   -1.107874
| 16> *
| 17>
| 18>                          ****END OF INPUT****

CARTESIAN COORDINATES (ANGSTROEM)
---------------------------------
  H     -0.839567   -2.094249    0.000000
  H      0.927182   -2.122428    0.000000
  C      0.054138   -1.475036    0.000000
  O     -0.153392    1.866794    0.000000
  C     -0.034224    0.676084    0.000000
  H      0.974306   -0.304588    1.688889
  H      0.974306   -0.304588   -1.688889
  H     -0.789114   -0.376716    1.798667
  H     -0.789114   -0.376716   -1.798667
  C      0.054138   -0.380113    1.107874
  C      0.054138   -0.380113   -1.107874

 Total Charge           Charge          ....    0
 Multiplicity           Mult            ....    1
 Number of Electrons    NEL             ....   38
 Basis Dimension        Dim             ....  368

ORBITAL ENERGIES
----------------

  NO   OCC          E(Eh)            E(eV)
   0   2.0000     -20.553476      -559.2885
   1   2.0000     -11.331968      -308.3585
   2   2.0000     -11.242925      -305.9355
   3   2.0000     -11.241478      -305.8962
   4   2.0000     -11.241356      -305.8928
   5   2.0000      -1.394880       -37.9566
   6   2.0000      -1.135311       -30.8934
   7   2.0000      -0.935457       -25.4551
   8   2.0000      -0.868764       -23.6403
   9   2.0000      -0.727579       -19.7984
  10   2.0000      -0.668068       -18.1790
  11   2.0000      -0.666586       -18.1387
  12   2.0000      -0.618316       -16.8252
  13   2.0000      -0.567158       -15.4331
  14   2.0000      -0.543464       -14.7884
  15   2.0000      -0.508015       -13.8238
  16   2.0000      -0.485637       -13.2148
  17   2.0000      -0.480464       -13.0741
  18   2.0000      -0.399058       -10.8589
  19   0.0000       0.027006         0.7349
  20   0.0000       0.036497         0.9931
  21   0.0000       0.038117         1.0372
  22   0.0000       0.042533         1.1574
  23   0.0000       0.056277         1.5314

MULLIKEN ATOMIC CHARGES
-----------------------
   0 H :    0.290884
   1 H :    0.335422
   2 C :   -0.565182
   3 O :   -0.740736
   4 C :    0.439466
   5 H :    0.310872
   6 H :    0.310872
   7 H :    0.336387
   8 H :    0.336387
   9 C :   -0.527186
  10 C :   -0.527186
Sum of atomic charges:    0.0000000

LOEWDIN ATOMIC CHARGES
----------------------
   0 H :   -0.160484
   1 H :   -0.160158
   2 C :    0.306706
   3 O :    0.432670
   4 C :   -0.481179
   5 H :   -0.155139
   6 H :   -0.155139
   7 H :   -0.154706
   8 H :   -0.154706
   9 C :    0.341067
  10 C :    0.341067

  Mayer bond orders larger than 0.100000
B(  0-H ,  2-C ) :   0.9231 B(  1-H ,  2-C ) :   0.8692 B(  2-C ,  4-C ) :  -0.1200
B(  2-C ,  9-C ) :   1.0802 B(  2-C , 10-C ) :   1.0802 B(  3-O ,  4-C ) :   1.4463
B(  4-C ,  9-C ) :   0.8687 B(  4-C , 10-C ) :   0.8687 B(  5-H ,  9-C ) :   0.8967
B(  6-H , 10-C ) :   0.8967 B(  7-H ,  9-C ) :   0.8702 B(  8-H , 10-C ) :   0.8702

MP2 TOTAL ENERGY:     -230.784247648 Eh
FINAL SINGLE POINT ENERGY      -230.784247647802

DIPOLE MOMENT
-------------
                                X             Y             Z
Electronic contribution:     -0.32969       4.28877      -0.00000
Nuclear contribution   :      0.46387      -5.65087       0.00000
                        -----------------------------------------
Total Dipole Moment    :      0.13418      -1.36210      -0.00000
                        -----------------------------------------
Magnitude (a.u.)       :      1.36870
Magnitude (Debye)      :      3.47895

Rotational constants in cm-1:     0.362115     0.160413     0.118675
Rotational constants in MHz : 10855.926986  4809.060266  3557.778230

                             ****ORCA TERMINATED NORMALLY****
TOTAL RUN TIME: 0 days 0 hours 1 minutes 50 seconds 905 msec
