                         Program Version 5.0.3 -  RELEASE  -
|  1> !ri-mp2 aug-cc-pvtz aug-cc-pvtz/c tightscf
|  2> %pal nprocs 16 end
|  3> %maxcore 3800
|  4>
|  5> * xyz 0 1
|  6> C      1.927322    0.636513   -0.258294
|  7> C      1.743892   -0.637759    0.593827
|  8> C      0.967529    1.802826    0.029936
|  9> C      1.010427   -1.805008   -0.082822
| 10> C     -0.389151   -1.492307   -0.630603
| 11> C     -2.508959   -0.040026   -0.047710
| 12> C     -1.316135    0.696622    0.507138
| 13> C     -1.283474   -0.807165    0.375253
| 14> C     -0.501762    1.619138   -0.377467
| 15> H      1.877073    0.382557   -1.322304
| 16> H      2.940001    1.013596   -0.097779
| 17> H      1.232847   -0.376497    1.523302
| 18> H      2.727826   -1.006927    0.892208
| 19> H      1.350022    2.683406   -0.493672
| 20> H      1.017205    2.045069    1.097068
| 21> H      0.931656   -2.621757    0.641307
| 22> H      1.627908   -2.187488   -0.901162
| 23> H     -0.854124   -2.427139   -0.957440
| 24> H     -2.696494    0.053458   -1.110254
| 25> H     -1.427595    1.064908    1.521416
| 26> H     -0.986303    2.600318   -0.368695
| 27> H     -0.546416    1.282133   -1.416116
| 28> H     -3.404364   -0.117946    0.553456
| 29> H     -0.305848   -0.875995   -1.527448
| 30> H     -1.381530   -1.348693    1.310563
| 31> *
| 32>
| 33>                          ****END OF INPUT****

CARTESIAN COORDINATES (ANGSTROEM)
---------------------------------
  C      1.927322    0.636513   -0.258294
  C      1.743892   -0.637759    0.593827
  C      0.967529    1.802826    0.029936
  C      1.010427   -1.805008   -0.082822
  C     -0.389151   -1.492307   -0.630603
  C     -2.508959   -0.040026   -0.047710
  C     -1.316135    0.696622    0.507138
  C     -1.283474   -0.807165    0.375253
  C     -0.501762    1.619138   -0.377467
  H      1.877073    0.382557   -1.322304
  H      2.940001    1.013596   -0.097779
  H      1.232847   -0.376497    1.523302
  H      2.727826   -1.006927    0.892208
  H      1.350022    2.683406   -0.493672
  H      1.017205    2.045069    1.097068
  H      0.931656   -2.621757    0.641307
  H      1.627908   -2.187488   -0.901162
  H     -0.854124   -2.427139   -0.957440
  H     -2.696494    0.053458   -1.110254
  H     -1.427595    1.064908    1.521416
  H     -0.986303    2.600318   -0.368695
  H     -0.546416    1.282133   -1.416116
  H     -3.404364   -0.117946    0.553456
  H     -0.305848   -0.875995   -1.527448
  H     -1.381530   -1.348693    1.310563

 Total Charge           Charge          ....    0
 Multiplicity           Mult            ....    1
 Number of Electrons    NEL             ....   70
 Basis Dimension        Dim             ....  782

ORBITAL ENERGIES
----------------

  NO   OCC          E(Eh)            E(eV)
   0   2.0000     -11.220854      -305.3349
   1   2.0000     -11.220033      -305.3126
   2   2.0000     -11.215463      -305.1883
   3   2.0000     -11.213857      -305.1446
   4   2.0000     -11.213568      -305.1367
   5   2.0000     -11.213319      -305.1299
   6   2.0000     -11.212344      -305.1034
   7   2.0000     -11.212206      -305.0996
   8   2.0000     -11.210035      -305.0405
   9   2.0000      -1.149824       -31.2883
  10   2.0000      -1.071531       -29.1578
  11   2.0000      -1.040879       -28.3238
  12   2.0000      -0.956102       -26.0168
  13   2.0000      -0.912143       -24.8207
  14   2.0000      -0.824259       -22.4292
  15   2.0000      -0.793476       -21.5916
  16   2.0000      -0.778459       -21.1830
  17   2.0000      -0.724091       -19.7035
  18   2.0000      -0.667403       -18.1609
  19   2.0000      -0.628440       -17.1007
  20   2.0000      -0.621710       -16.9176
  21   2.0000      -0.590548       -16.0696
  22   2.0000      -0.579023       -15.7560
  23   2.0000      -0.565622       -15.3913
  24   2.0000      -0.544533       -14.8175
  25   2.0000      -0.520532       -14.1644
  26   2.0000      -0.504337       -13.7237
  27   2.0000      -0.494663       -13.4605
  28   2.0000      -0.477686       -12.9985
  29   2.0000      -0.475745       -12.9457
  30   2.0000      -0.449490       -12.2312
  31   2.0000      -0.446658       -12.1542
  32   2.0000      -0.436350       -11.8737
  33   2.0000      -0.390038       -10.6135
  34   2.0000      -0.383206       -10.4276
  35   0.0000       0.029414         0.8004
  36   0.0000       0.033033         0.8989
  37   0.0000       0.033278         0.9055
  38   0.0000       0.034815         0.9474
  39   0.0000       0.046847         1.2748

MULLIKEN ATOMIC CHARGES
-----------------------
   0 C :   -0.430237
   1 C :   -0.445499
   2 C :   -0.485396
   3 C :   -0.480481
   4 C :   -0.271574
   5 C :   -1.431958
   6 C :    0.065967
   7 C :   -0.031293
   8 C :   -0.274360
   9 H :    0.108575
  10 H :    0.258426
  11 H :    0.155982
  12 H :    0.299039
  13 H :    0.290558
  14 H :    0.103603
  15 H :    0.178884
  16 H :    0.213701
  17 H :    0.375748
  18 H :    0.079962
  19 H :    0.357032
  20 H :    0.248506
  21 H :    0.168486
  22 H :    0.437428
  23 H :    0.096827
  24 H :    0.412076
Sum of atomic charges:    0.0000000

LOEWDIN ATOMIC CHARGES
----------------------
   0 C :    0.309537
   1 C :    0.305201
   2 C :    0.303304
   3 C :    0.299117
   4 C :    0.303724
   5 C :    0.400380
   6 C :    0.060168
   7 C :    0.051463
   8 C :    0.306769
   9 H :   -0.146986
  10 H :   -0.151923
  11 H :   -0.153295
  12 H :   -0.149185
  13 H :   -0.148912
  14 H :   -0.143184
  15 H :   -0.144364
  16 H :   -0.143505
  17 H :   -0.135744
  18 H :   -0.151387
  19 H :   -0.128419
  20 H :   -0.140027
  21 H :   -0.158276
  22 H :   -0.154695
  23 H :   -0.164218
  24 H :   -0.125543

  Mayer bond orders larger than 0.100000
B(  0-C ,  1-C ) :   0.9028 B(  0-C ,  2-C ) :   0.8655 B(  0-C ,  9-H ) :   1.1100
B(  0-C , 10-H ) :   0.9492 B(  1-C ,  3-C ) :   0.7968 B(  1-C , 11-H ) :   1.1209
B(  1-C , 12-H ) :   0.9070 B(  2-C ,  8-C ) :   0.8632 B(  2-C , 13-H ) :   0.9534
B(  2-C , 14-H ) :   1.1017 B(  3-C ,  4-C ) :   0.8723 B(  3-C , 15-H ) :   1.0454
B(  3-C , 16-H ) :   1.0140 B(  4-C ,  5-C ) :  -0.1262 B(  4-C ,  7-C ) :   0.7857
B(  4-C , 17-H ) :   0.8874 B(  4-C , 23-H ) :   1.1062 B(  5-C ,  6-C ) :   1.0023
B(  5-C ,  7-C ) :   1.0029 B(  5-C , 18-H ) :   1.2314 B(  5-C , 22-H ) :   0.6657
B(  5-C , 24-H ) :  -0.1277 B(  6-C ,  7-C ) :   0.2441 B(  6-C ,  8-C ) :   0.7667
B(  6-C , 19-H ) :   0.7409 B(  7-C , 17-H ) :  -0.1046 B(  7-C , 24-H ) :   0.6835
B(  8-C , 20-H ) :   0.9905 B(  8-C , 21-H ) :   1.0430

MP2 TOTAL ENERGY:     -351.786324194 Eh
FINAL SINGLE POINT ENERGY      -351.786324193666

DIPOLE MOMENT
-------------
                                X             Y             Z
Electronic contribution:     -2.16722      -0.15809       0.71516
Nuclear contribution   :      2.22433       0.17250      -0.69375
                        -----------------------------------------
Total Dipole Moment    :      0.05711       0.01441       0.02142
                        -----------------------------------------
Magnitude (a.u.)       :      0.06267
Magnitude (Debye)      :      0.15930

Rotational constants in cm-1:     0.070635     0.053762     0.034970
Rotational constants in MHz :  2117.580178  1611.756988  1048.360863

                             ****ORCA TERMINATED NORMALLY****
TOTAL RUN TIME: 0 days 0 hours 18 minutes 25 seconds 612 msec
