                         Program Version 5.0.3 -  RELEASE  -
|  1> !ri-mp2 aug-cc-pvtz aug-cc-pvtz/c tightscf
|  2> %pal nprocs 16 end
|  3>
|  4> * xyz 0 1
|  5> H     -1.297824    0.008644   -1.543899
|  6> H     -2.422921    0.029181   -0.180212
|  7> C     -1.370643    0.014803   -0.458265
|  8> H     -0.900800    1.519610    1.097315
|  9> H     -0.113750    1.903984   -0.444735
| 10> C     -0.464979    1.093290    0.193316
| 11> H      0.987868   -0.008659    1.529152
| 12> C      0.579115   -0.009257    0.514978
| 13> H     -0.932014   -1.492737    1.105684
| 14> H     -0.141293   -1.892778   -0.431151
| 15> C     -0.487824   -1.078003    0.201469
| 16> H      2.214363    0.655067   -0.337686
| 17> O      1.634045   -0.105913   -0.437932
| 18> *
| 19>
| 20>                          ****END OF INPUT****

CARTESIAN COORDINATES (ANGSTROEM)
---------------------------------
  H     -1.297824    0.008644   -1.543899
  H     -2.422921    0.029181   -0.180212
  C     -1.370643    0.014803   -0.458265
  H     -0.900800    1.519610    1.097315
  H     -0.113750    1.903984   -0.444735
  C     -0.464979    1.093290    0.193316
  H      0.987868   -0.008659    1.529152
  C      0.579115   -0.009257    0.514978
  H     -0.932014   -1.492737    1.105684
  H     -0.141293   -1.892778   -0.431151
  C     -0.487824   -1.078003    0.201469
  H      2.214363    0.655067   -0.337686
  O      1.634045   -0.105913   -0.437932

 Total Charge           Charge          ....    0
 Multiplicity           Mult            ....    1
 Number of Electrons    NEL             ....   40
 Basis Dimension        Dim             ....  414

ORBITAL ENERGIES
----------------

  NO   OCC          E(Eh)            E(eV)
   0   2.0000     -20.555574      -559.3456
   1   2.0000     -11.276377      -306.8458
   2   2.0000     -11.219017      -305.2850
   3   2.0000     -11.217897      -305.2545
   4   2.0000     -11.215461      -305.1882
   5   2.0000      -1.357520       -36.9400
   6   2.0000      -1.112762       -30.2798
   7   2.0000      -0.903767       -24.5927
   8   2.0000      -0.885529       -24.0965
   9   2.0000      -0.750288       -20.4164
  10   2.0000      -0.695624       -18.9289
  11   2.0000      -0.653787       -17.7904
  12   2.0000      -0.622018       -16.9260
  13   2.0000      -0.568832       -15.4787
  14   2.0000      -0.535744       -14.5783
  15   2.0000      -0.516611       -14.0577
  16   2.0000      -0.476486       -12.9658
  17   2.0000      -0.467384       -12.7182
  18   2.0000      -0.433130       -11.7861
  19   2.0000      -0.412920       -11.2361
  20   0.0000       0.029611         0.8058
  21   0.0000       0.037806         1.0288
  22   0.0000       0.039101         1.0640
  23   0.0000       0.043099         1.1728
  24   0.0000       0.056558         1.5390

MULLIKEN ATOMIC CHARGES
-----------------------
   0 H :    0.288868
   1 H :    0.370060
   2 C :   -0.598565
   3 H :    0.272871
   4 H :    0.341351
   5 C :   -0.810864
   6 H :    0.412694
   7 C :    0.405112
   8 H :    0.264842
   9 H :    0.361042
  10 C :   -0.791459
  11 H :    0.139960
  12 O :   -0.655911
Sum of atomic charges:   -0.0000000

LOEWDIN ATOMIC CHARGES
----------------------
   0 H :   -0.156463
   1 H :   -0.158150
   2 C :    0.325498
   3 H :   -0.156981
   4 H :   -0.156710
   5 C :    0.330697
   6 H :   -0.142628
   7 C :   -0.226339
   8 H :   -0.154983
   9 H :   -0.154633
  10 C :    0.325173
  11 H :   -0.489527
  12 O :    0.815046

  Mayer bond orders larger than 0.100000
B(  0-H ,  2-C ) :   0.9124 B(  1-H ,  2-C ) :   0.8294 B(  2-C ,  5-C ) :   1.0688
B(  2-C ,  7-C ) :  -0.1707 B(  2-C , 10-C ) :   1.0778 B(  3-H ,  5-C ) :   0.9369
B(  4-H ,  5-C ) :   0.8345 B(  5-C ,  7-C ) :   0.9627 B(  5-C , 12-O ) :   0.1245
B(  6-H ,  7-C ) :   0.8128 B(  7-C , 10-C ) :   0.9586 B(  7-C , 12-O ) :   0.4059
B(  8-H , 10-C ) :   0.9526 B(  9-H , 10-C ) :   0.8354 B( 10-C , 12-O ) :   0.1067
B( 11-H , 12-O ) :   1.0277

MP2 TOTAL ENERGY:     -231.979661487 Eh
FINAL SINGLE POINT ENERGY      -231.979661487131

DIPOLE MOMENT
-------------
                                X             Y             Z
Electronic contribution:      2.56283      -0.27159      -0.40282
Nuclear contribution   :     -2.68855       0.75078       0.82050
                        -----------------------------------------
Total Dipole Moment    :     -0.12571       0.47919       0.41768
                        -----------------------------------------
Magnitude (a.u.)       :      0.64799
Magnitude (Debye)      :      1.64705

Rotational constants in cm-1:     0.289919     0.156924     0.128949
Rotational constants in MHz :  8691.556030  4704.455324  3865.795691

                             ****ORCA TERMINATED NORMALLY****
TOTAL RUN TIME: 0 days 0 hours 2 minutes 30 seconds 278 msec
