                         Program Version 5.0.3 -  RELEASE  -
|  1> !ri-mp2 aug-cc-pvtz aug-cc-pvtz/c tightscf
|  2> %pal nprocs 16 end
|  3>
|  4> * xyz 0 1
|  5> C      0.611276    0.150433    0.000000
|  6> C     -0.558771    0.979132    0.000000
|  7> H      1.547692    0.693190    0.000000
|  8> C      0.611276   -1.169532    0.748025
|  9> C      0.611276   -1.169532   -0.748025
| 10> C     -1.538704    1.673681    0.000000
| 11> H     -2.403449    2.288355    0.000000
| 12> H      1.520070   -1.440716    1.265675
| 13> H     -0.301248   -1.442601    1.256473
| 14> H      1.520070   -1.440716   -1.265675
| 15> H     -0.301248   -1.442601   -1.256473
| 16> *
| 17>
| 18>                          ****END OF INPUT****

CARTESIAN COORDINATES (ANGSTROEM)
---------------------------------
  C      0.611276    0.150433    0.000000
  C     -0.558771    0.979132    0.000000
  H      1.547692    0.693190    0.000000
  C      0.611276   -1.169532    0.748025
  C      0.611276   -1.169532   -0.748025
  C     -1.538704    1.673681    0.000000
  H     -2.403449    2.288355    0.000000
  H      1.520070   -1.440716    1.265675
  H     -0.301248   -1.442601    1.256473
  H      1.520070   -1.440716   -1.265675
  H     -0.301248   -1.442601   -1.256473

 Total Charge           Charge          ....    0
 Multiplicity           Mult            ....    1
 Number of Electrons    NEL             ....   36
 Basis Dimension        Dim             ....  368

ORBITAL ENERGIES
----------------

  NO   OCC          E(Eh)            E(eV)
   0   2.0000     -11.258469      -306.3585
   1   2.0000     -11.240032      -305.8568
   2   2.0000     -11.239334      -305.8378
   3   2.0000     -11.232642      -305.6557
   4   2.0000     -11.217510      -305.2440
   5   2.0000      -1.161700       -31.6115
   6   2.0000      -1.021719       -27.8024
   7   2.0000      -0.868817       -23.6417
   8   2.0000      -0.834586       -22.7102
   9   2.0000      -0.723573       -19.6894
  10   2.0000      -0.685478       -18.6528
  11   2.0000      -0.652654       -17.7596
  12   2.0000      -0.559303       -15.2194
  13   2.0000      -0.528703       -14.3867
  14   2.0000      -0.478635       -13.0243
  15   2.0000      -0.459613       -12.5067
  16   2.0000      -0.381050       -10.3689
  17   2.0000      -0.359543        -9.7837
  18   0.0000       0.029876         0.8130
  19   0.0000       0.033375         0.9082
  20   0.0000       0.040493         1.1019
  21   0.0000       0.041561         1.1309
  22   0.0000       0.052971         1.4414

MULLIKEN ATOMIC CHARGES
-----------------------
   0 C :   -0.006415
   1 C :    1.226355
   2 H :    0.280715
   3 C :   -0.834484
   4 C :   -0.834484
   5 C :   -1.752817
   6 H :    0.418316
   7 H :    0.384802
   8 H :    0.366604
   9 H :    0.384802
  10 H :    0.366604
Sum of atomic charges:    0.0000000

LOEWDIN ATOMIC CHARGES
----------------------
   0 C :   -0.053181
   1 C :    0.022504
   2 H :   -0.157029
   3 C :    0.363202
   4 C :    0.363202
   5 C :    0.397986
   6 H :   -0.306628
   7 H :   -0.157183
   8 H :   -0.157845
   9 H :   -0.157183
  10 H :   -0.157845

  Mayer bond orders larger than 0.100000
B(  0-C ,  1-C ) :   0.7883 B(  0-C ,  2-H ) :   0.9246 B(  0-C ,  3-C ) :   0.8815
B(  0-C ,  4-C ) :   0.8815 B(  0-C ,  5-C ) :  -0.1923 B(  1-C ,  5-C ) :   0.6448
B(  1-C ,  6-H ) :  -0.2828 B(  3-C ,  4-C ) :   1.0538 B(  3-C ,  7-H ) :   0.8234
B(  3-C ,  8-H ) :   0.8265 B(  4-C ,  9-H ) :   0.8234 B(  4-C , 10-H ) :   0.8265
B(  5-C ,  6-H ) :   1.2277

MP2 TOTAL ENERGY:     -193.615999814 Eh
FINAL SINGLE POINT ENERGY      -193.615999814276

DIPOLE MOMENT
-------------
                                X             Y             Z
Electronic contribution:     -1.37687       2.54987       0.00000
Nuclear contribution   :      1.61796      -2.84861       0.00000
                        -----------------------------------------
Total Dipole Moment    :      0.24110      -0.29874       0.00000
                        -----------------------------------------
Magnitude (a.u.)       :      0.38389
Magnitude (Debye)      :      0.97577

Rotational constants in cm-1:     0.533572     0.111633     0.105942
Rotational constants in MHz : 15996.096487  3346.684486  3176.048453

                             ****ORCA TERMINATED NORMALLY****
TOTAL RUN TIME: 0 days 0 hours 1 minutes 37 seconds 668 msec
