                         Program Version 5.0.3 -  RELEASE  -
|  1> !ri-mp2 aug-cc-pvtz aug-cc-pvtz/c tightscf
|  2> %pal nprocs 16 end
|  3>
|  4> * xyz 0 1
|  5> C      0.000000    0.510905        0.000000
|  6> O     -0.797403    1.370426        0.000000
|  7> Cl    -0.321200   -1.202070        0.000000
|  8> F      1.315513    0.711817        0.000000
|  9> *
| 10>
| 11>                          ****END OF INPUT****

CARTESIAN COORDINATES (ANGSTROEM)
---------------------------------
  C      0.000000    0.510905    0.000000
  O     -0.797403    1.370426    0.000000
  Cl    -0.321200   -1.202070    0.000000
  F      1.315513    0.711817    0.000000

 Total Charge           Charge          ....    0
 Multiplicity           Mult            ....    1
 Number of Electrons    NEL             ....   40
 Basis Dimension        Dim             ....  188

ORBITAL ENERGIES
----------------

  NO   OCC          E(Eh)            E(eV)
   0   2.0000    -104.899225     -2854.4530
   1   2.0000     -26.379179      -717.8140
   2   2.0000     -20.623596      -561.1966
   3   2.0000     -11.504636      -313.0571
   4   2.0000     -10.623275      -289.0740
   5   2.0000      -8.090132      -220.1437
   6   2.0000      -8.087988      -220.0853
   7   2.0000      -8.087808      -220.0805
   8   2.0000      -1.707037       -46.4508
   9   2.0000      -1.480768       -40.2937
  10   2.0000      -1.182183       -32.1688
  11   2.0000      -0.900194       -24.4955
  12   2.0000      -0.784521       -21.3479
  13   2.0000      -0.768444       -20.9104
  14   2.0000      -0.757788       -20.6204
  15   2.0000      -0.655163       -17.8279
  16   2.0000      -0.602008       -16.3815
  17   2.0000      -0.542821       -14.7709
  18   2.0000      -0.508001       -13.8234
  19   2.0000      -0.503876       -13.7112
  20   0.0000       0.049986         1.3602
  21   0.0000       0.072879         1.9831
  22   0.0000       0.079994         2.1767
  23   0.0000       0.083738         2.2786
  24   0.0000       0.105247         2.8639

MULLIKEN ATOMIC CHARGES
-----------------------
   0 C :    0.625550
   1 O :   -0.365236
   2 Cl:   -0.025037
   3 F :   -0.235277
Sum of atomic charges:   -0.0000000

LOEWDIN ATOMIC CHARGES
----------------------
   0 C :   -1.607089
   1 O :    0.330553
   2 Cl:    0.876814
   3 F :    0.399722

  Mayer bond orders larger than 0.100000
B(  0-C ,  1-O ) :   1.9665 B(  0-C ,  2-Cl) :   1.0727 B(  0-C ,  3-F ) :   0.9521

MP2 TOTAL ENERGY:     -672.608524220 Eh
FINAL SINGLE POINT ENERGY      -672.608524220288

DIPOLE MOMENT
-------------
                                X             Y             Z
Electronic contribution:      0.96063      -1.51205       0.00000
Nuclear contribution   :     -0.77639       0.94597       0.00000
                        -----------------------------------------
Total Dipole Moment    :      0.18424      -0.56608       0.00000
                        -----------------------------------------
Magnitude (a.u.)       :      0.59531
Magnitude (Debye)      :      1.51316

Rotational constants in cm-1:     0.393272     0.172266     0.119793
Rotational constants in MHz : 11789.983597  5164.402210  3591.295965

                             ****ORCA TERMINATED NORMALLY****
TOTAL RUN TIME: 0 days 0 hours 0 minutes 48 seconds 530 msec
