                         Program Version 5.0.3 -  RELEASE  -
|  1> !ri-mp2 aug-cc-pvtz aug-cc-pvtz/c tightscf
|  2> %pal nprocs 16 end
|  3>
|  4> * xyz 0 1
|  5> H      0.336332    2.019953    1.266776
|  6> H      0.336332    2.019953   -1.266776
|  7> H     -1.118471    0.924048   -1.256429
|  8> H     -1.118471    0.924048    1.256429
|  9> H      1.651115    0.325415    0.000000
| 10> C      0.575980    0.213094    0.000000
| 11> N     -0.228299   -2.244511    0.000000
| 12> C      0.132495   -1.150808    0.000000
| 13> C     -0.228299    1.260370    0.746697
| 14> C     -0.228299    1.260370   -0.746697
| 15> *
| 16>
| 17>                          ****END OF INPUT****

CARTESIAN COORDINATES (ANGSTROEM)
---------------------------------
  H      0.336332    2.019953    1.266776
  H      0.336332    2.019953   -1.266776
  H     -1.118471    0.924048   -1.256429
  H     -1.118471    0.924048    1.256429
  H      1.651115    0.325415    0.000000
  C      0.575980    0.213094    0.000000
  N     -0.228299   -2.244511    0.000000
  C      0.132495   -1.150808    0.000000
  C     -0.228299    1.260370    0.746697
  C     -0.228299    1.260370   -0.746697

 Total Charge           Charge          ....    0
 Multiplicity           Mult            ....    1
 Number of Electrons    NEL             ....   36
 Basis Dimension        Dim             ....  345

ORBITAL ENERGIES
----------------

  NO   OCC          E(Eh)            E(eV)
   0   2.0000     -15.564992      -423.5450
   1   2.0000     -11.288422      -307.1736
   2   2.0000     -11.271909      -306.7242
   3   2.0000     -11.265141      -306.5401
   4   2.0000     -11.264428      -306.5207
   5   2.0000      -1.224340       -33.3160
   6   2.0000      -1.176186       -32.0056
   7   2.0000      -0.919323       -25.0161
   8   2.0000      -0.858269       -23.3547
   9   2.0000      -0.739112       -20.1123
  10   2.0000      -0.685021       -18.6404
  11   2.0000      -0.600380       -16.3372
  12   2.0000      -0.552442       -15.0327
  13   2.0000      -0.550678       -14.9847
  14   2.0000      -0.523247       -14.2383
  15   2.0000      -0.497989       -13.5510
  16   2.0000      -0.443924       -12.0798
  17   2.0000      -0.419047       -11.4028
  18   0.0000       0.022529         0.6130
  19   0.0000       0.035358         0.9621
  20   0.0000       0.035493         0.9658
  21   0.0000       0.043471         1.1829
  22   0.0000       0.057505         1.5648

MULLIKEN ATOMIC CHARGES
-----------------------
   0 H :    0.387888
   1 H :    0.387888
   2 H :    0.395076
   3 H :    0.395076
   4 H :    0.342485
   5 C :    0.100147
   6 N :   -0.707612
   7 C :    0.346878
   8 C :   -0.823913
   9 C :   -0.823913
Sum of atomic charges:    0.0000000

LOEWDIN ATOMIC CHARGES
----------------------
   0 H :   -0.152118
   1 H :   -0.152118
   2 H :   -0.152524
   3 H :   -0.152524
   4 H :   -0.155090
   5 C :   -0.028981
   6 N :    0.258114
   7 C :   -0.207998
   8 C :    0.371620
   9 C :    0.371620

  Mayer bond orders larger than 0.100000
B(  0-H ,  8-C ) :   0.8160 B(  1-H ,  9-C ) :   0.8160 B(  2-H ,  9-C ) :   0.8004
B(  3-H ,  8-C ) :   0.8004 B(  4-H ,  5-C ) :   0.8664 B(  5-C ,  7-C ) :   0.9487
B(  5-C ,  8-C ) :   0.8063 B(  5-C ,  9-C ) :   0.8063 B(  6-N ,  7-C ) :   2.2062
B(  8-C ,  9-C ) :   1.0504

MP2 TOTAL ENERGY:     -209.714794376 Eh
FINAL SINGLE POINT ENERGY      -209.714794375870

DIPOLE MOMENT
-------------
                                X             Y             Z
Electronic contribution:      0.28240      -4.46394      -0.00000
Nuclear contribution   :      0.08616       6.24826       0.00000
                        -----------------------------------------
Total Dipole Moment    :      0.36856       1.78432      -0.00000
                        -----------------------------------------
Magnitude (a.u.)       :      1.82199
Magnitude (Debye)      :      4.63113

Rotational constants in cm-1:     0.535399     0.115195     0.109127
Rotational constants in MHz : 16050.850954  3453.453855  3271.560068

                             ****ORCA TERMINATED NORMALLY****
TOTAL RUN TIME: 0 days 0 hours 1 minutes 40 seconds 411 msec
