                         Program Version 5.0.3 -  RELEASE  -
|  1> !ri-mp2 aug-cc-pvtz aug-cc-pvtz/c tightscf
|  2> %pal nprocs 16 end
|  3>
|  4> * xyz 0 1
|  5> C      0.000000    0.000000    0.101922
|  6> O      0.000000    0.000000    1.305118
|  7> O      0.000000    1.088420   -0.679394
|  8> O      0.000000   -1.088420   -0.679394
|  9> H      0.000000    1.854503   -0.091082
| 10> H      0.000000   -1.854503   -0.091082
| 11> *
| 12>
| 13>                          ****END OF INPUT****

CARTESIAN COORDINATES (ANGSTROEM)
---------------------------------
  C      0.000000    0.000000    0.101922
  O      0.000000    0.000000    1.305118
  O      0.000000    1.088420   -0.679394
  O      0.000000   -1.088420   -0.679394
  H      0.000000    1.854503   -0.091082
  H      0.000000   -1.854503   -0.091082

 Total Charge           Charge          ....    0
 Multiplicity           Mult            ....    1
 Number of Electrons    NEL             ....   32
 Basis Dimension        Dim             ....  230

ORBITAL ENERGIES
----------------

  NO   OCC          E(Eh)            E(eV)
   0   2.0000     -20.634177      -561.4845
   1   2.0000     -20.634153      -561.4839
   2   2.0000     -20.561994      -559.5203
   3   2.0000     -11.452408      -311.6359
   4   2.0000      -1.525510       -41.5112
   5   2.0000      -1.417993       -38.5855
   6   2.0000      -1.382004       -37.6062
   7   2.0000      -0.907067       -24.6825
   8   2.0000      -0.750827       -20.4310
   9   2.0000      -0.735156       -20.0046
  10   2.0000      -0.691448       -18.8153
  11   2.0000      -0.673802       -18.3351
  12   2.0000      -0.614146       -16.7118
  13   2.0000      -0.558400       -15.1948
  14   2.0000      -0.496978       -13.5234
  15   2.0000      -0.488496       -13.2927
  16   0.0000       0.026982         0.7342
  17   0.0000       0.035417         0.9637
  18   0.0000       0.076096         2.0707
  19   0.0000       0.083090         2.2610
  20   0.0000       0.106139         2.8882

MULLIKEN ATOMIC CHARGES
-----------------------
   0 C :    0.588245
   1 O :   -0.537381
   2 O :   -0.285725
   3 O :   -0.285725
   4 H :    0.260293
   5 H :    0.260293
Sum of atomic charges:    0.0000000

LOEWDIN ATOMIC CHARGES
----------------------
   0 C :   -1.094972
   1 O :    0.411025
   2 O :    0.818643
   3 O :    0.818643
   4 H :   -0.476670
   5 H :   -0.476670

  Mayer bond orders larger than 0.100000
B(  0-C ,  1-O ) :   1.7260 B(  0-C ,  2-O ) :   1.1412 B(  0-C ,  3-O ) :   1.1412
B(  2-O ,  4-H ) :   0.9415 B(  3-O ,  5-H ) :   0.9415

MP2 TOTAL ENERGY:     -264.641761170 Eh
FINAL SINGLE POINT ENERGY      -264.641761169582

DIPOLE MOMENT
-------------
                                X             Y             Z
Electronic contribution:      0.00000      -0.00000       0.04107
Nuclear contribution   :      0.00000       0.00000      -0.17733
                        -----------------------------------------
Total Dipole Moment    :      0.00000      -0.00000      -0.13626
                        -----------------------------------------
Magnitude (a.u.)       :      0.13626
Magnitude (Debye)      :      0.34635

Rotational constants in cm-1:     0.399829     0.375950     0.193761
Rotational constants in MHz : 11986.581518 11270.708843  5808.813848

                             ****ORCA TERMINATED NORMALLY****
TOTAL RUN TIME: 0 days 0 hours 0 minutes 52 seconds 609 msec
