                         Program Version 5.0.3 -  RELEASE  -
|  1> !ri-mp2 aug-cc-pvtz aug-cc-pvtz/c tightscf
|  2> %pal nprocs 16 end
|  3>
|  4> * xyz 0 1
|  5> C     -1.730590   -2.882390        0.000000
|  6> O     -1.562058   -4.083390        0.000000
|  7> C     -0.655985   -1.894403        0.000000
|  8> C     -0.933573   -0.580286        0.000000
|  9> C      0.000000    0.539524        0.000000
| 10> C     -0.511516    1.844139        0.000000
| 11> C      0.333448    2.945067        0.000000
| 12> C      1.710603    2.761404        0.000000
| 13> C      2.236083    1.470696        0.000000
| 14> C      1.393141    0.372360        0.000000
| 15> H     -2.755406   -2.457004        0.000000
| 16> H      0.353546   -2.285206        0.000000
| 17> H     -1.983825   -0.299778        0.000000
| 18> H     -1.584212    1.989985        0.000000
| 19> H     -0.081742    3.943603        0.000000
| 20> H      2.373203    3.616136        0.000000
| 21> H      3.307662    1.324322        0.000000
| 22> H      1.817575   -0.621621        0.000000
| 23> *
| 24>
| 25>                          ****END OF INPUT****

CARTESIAN COORDINATES (ANGSTROEM)
---------------------------------
  C     -1.730590   -2.882390    0.000000
  O     -1.562058   -4.083390    0.000000
  C     -0.655985   -1.894403    0.000000
  C     -0.933573   -0.580286    0.000000
  C      0.000000    0.539524    0.000000
  C     -0.511516    1.844139    0.000000
  C      0.333448    2.945067    0.000000
  C      1.710603    2.761404    0.000000
  C      2.236083    1.470696    0.000000
  C      1.393141    0.372360    0.000000
  H     -2.755406   -2.457004    0.000000
  H      0.353546   -2.285206    0.000000
  H     -1.983825   -0.299778    0.000000
  H     -1.584212    1.989985    0.000000
  H     -0.081742    3.943603    0.000000
  H      2.373203    3.616136    0.000000
  H      3.307662    1.324322    0.000000
  H      1.817575   -0.621621    0.000000

 Total Charge           Charge          ....    0
 Multiplicity           Mult            ....    1
 Number of Electrons    NEL             ....   70
 Basis Dimension        Dim             ....  644

ORBITAL ENERGIES
----------------

  NO   OCC          E(Eh)            E(eV)
   0   2.0000     -20.548785      -559.1609
   1   2.0000     -11.328938      -308.2761
   2   2.0000     -11.277893      -306.8871
   3   2.0000     -11.264184      -306.5140
   4   2.0000     -11.256852      -306.3145
   5   2.0000     -11.255430      -306.2758
   6   2.0000     -11.254836      -306.2597
   7   2.0000     -11.251387      -306.1658
   8   2.0000     -11.251161      -306.1596
   9   2.0000     -11.246443      -306.0313
  10   2.0000      -1.383504       -37.6471
  11   2.0000      -1.181173       -32.1414
  12   2.0000      -1.106501       -30.1094
  13   2.0000      -1.037402       -28.2291
  14   2.0000      -1.028328       -27.9822
  15   2.0000      -0.902298       -24.5528
  16   2.0000      -0.851386       -23.1674
  17   2.0000      -0.817377       -22.2420
  18   2.0000      -0.779818       -21.2199
  19   2.0000      -0.723172       -19.6785
  20   2.0000      -0.679063       -18.4782
  21   2.0000      -0.669300       -18.2126
  22   2.0000      -0.635830       -17.3018
  23   2.0000      -0.627694       -17.0804
  24   2.0000      -0.606004       -16.4902
  25   2.0000      -0.600248       -16.3336
  26   2.0000      -0.557177       -15.1615
  27   2.0000      -0.545076       -14.8323
  28   2.0000      -0.526761       -14.3339
  29   2.0000      -0.521839       -14.1999
  30   2.0000      -0.507869       -13.8198
  31   2.0000      -0.426827       -11.6145
  32   2.0000      -0.425067       -11.5667
  33   2.0000      -0.357225        -9.7206
  34   2.0000      -0.326014        -8.8713
  35   0.0000       0.022437         0.6105
  36   0.0000       0.026590         0.7235
  37   0.0000       0.032954         0.8967
  38   0.0000       0.041569         1.1311
  39   0.0000       0.042686         1.1615

MULLIKEN ATOMIC CHARGES
-----------------------
   0 C :   -0.264274
   1 O :   -0.797490
   2 C :   -0.069141
   3 C :   -0.233127
   4 C :    2.187674
   5 C :   -1.078520
   6 C :   -0.690035
   7 C :   -0.117516
   8 C :   -0.787182
   9 C :   -0.672243
  10 H :    0.477275
  11 H :    0.351343
  12 H :    0.284240
  13 H :    0.005259
  14 H :    0.588537
  15 H :    0.365651
  16 H :    0.539166
  17 H :   -0.089616
Sum of atomic charges:   -0.0000000

LOEWDIN ATOMIC CHARGES
----------------------
   0 C :   -0.269780
   1 O :    0.415666
   2 C :    0.201318
   3 C :    0.208141
   4 C :   -0.122078
   5 C :    0.215195
   6 C :    0.207959
   7 C :    0.206786
   8 C :    0.210752
   9 C :    0.223818
  10 H :   -0.193604
  11 H :   -0.203293
  12 H :   -0.189946
  13 H :   -0.178464
  14 H :   -0.182447
  15 H :   -0.181108
  16 H :   -0.181343
  17 H :   -0.187572

  Mayer bond orders larger than 0.100000
B(  0-C ,  1-O ) :   1.3792 B(  0-C ,  2-C ) :   0.5070 B(  0-C , 10-H ) :   0.8150
B(  0-C , 11-H ) :  -0.2111 B(  1-O ,  2-C ) :  -0.1259 B(  1-O ,  3-C ) :   0.1156
B(  1-O , 10-H ) :  -0.1055 B(  1-O , 11-H ) :   0.1420 B(  2-C ,  3-C ) :   0.8548
B(  2-C ,  4-C ) :  -0.1191 B(  2-C ,  8-C ) :  -0.1127 B(  2-C , 11-H ) :   1.1334
B(  2-C , 17-H ) :  -0.1720 B(  3-C ,  5-C ) :   0.1248 B(  3-C ,  7-C ) :   0.1850
B(  3-C ,  9-C ) :   0.3817 B(  3-C , 11-H ) :  -0.1427 B(  3-C , 12-H ) :   1.0680
B(  3-C , 13-H ) :  -0.2034 B(  3-C , 14-H ) :   0.1113 B(  4-C ,  6-C ) :   0.1096
B(  4-C ,  8-C ) :   0.1567 B(  4-C ,  9-C ) :   0.3241 B(  4-C , 13-H ) :  -0.3443
B(  4-C , 17-H ) :  -0.4752 B(  5-C ,  6-C ) :   1.1500 B(  5-C ,  7-C ) :  -0.2529
B(  5-C ,  8-C ) :   0.1253 B(  5-C ,  9-C ) :  -0.4165 B(  5-C , 13-H ) :   1.9329
B(  5-C , 14-H ) :  -0.2485 B(  5-C , 15-H ) :   0.2692 B(  5-C , 17-H ) :   0.3060
B(  6-C ,  7-C ) :   1.0798 B(  6-C ,  8-C ) :   0.2915 B(  6-C , 13-H ) :  -0.1469
B(  6-C , 14-H ) :   0.5437 B(  6-C , 15-H ) :  -0.1697 B(  7-C ,  8-C ) :   1.0757
B(  7-C ,  9-C ) :  -0.2110 B(  7-C , 15-H ) :   0.9423 B(  8-C ,  9-C ) :   1.2073
B(  8-C , 15-H ) :  -0.2002 B(  8-C , 16-H ) :   0.5957 B(  8-C , 17-H ) :  -0.1697
B(  9-C , 11-H ) :  -0.1520 B(  9-C , 13-H ) :   0.1855 B(  9-C , 17-H ) :   1.9266
B( 13-H , 17-H ) :   0.1727

MP2 TOTAL ENERGY:     -422.130925817 Eh
FINAL SINGLE POINT ENERGY      -422.130925817490

DIPOLE MOMENT
-------------
                                X             Y             Z
Electronic contribution:     -1.10229      -3.15667       0.00000
Nuclear contribution   :      1.41468       5.11893       0.00000
                        -----------------------------------------
Total Dipole Moment    :      0.31238       1.96227       0.00000
                        -----------------------------------------
Magnitude (a.u.)       :      1.98697
Magnitude (Debye)      :      5.05049

Rotational constants in cm-1:     0.164162     0.019311     0.017278
Rotational constants in MHz :  4921.447248   578.925990   517.992797

                             ****ORCA TERMINATED NORMALLY****
TOTAL RUN TIME: 0 days 0 hours 10 minutes 51 seconds 969 msec
