                         Program Version 5.0.3 -  RELEASE  -
|  1> !ri-mp2 aug-cc-pvtz aug-cc-pvtz/c tightscf
|  2> %pal nprocs 16 end
|  3>
|  4> * xyz 0 1
|  5> C      0.420637    2.644566    0.000000
|  6> C      0.421753    1.947096    1.203090
|  7> C      0.421753    1.947096   -1.203090
|  8> C      0.421753    0.558318    1.201822
|  9> C      0.421753    0.558318   -1.201822
| 10> C      0.421492   -0.150366    0.000000
| 11> C      0.426140   -1.643412    0.000000
| 12> Cl    -1.272788   -2.340959    0.000000
| 13> H      0.421639    3.726146    0.000000
| 14> H      0.424437    2.484779    2.141585
| 15> H      0.424437    2.484779   -2.141585
| 16> H      0.419754    0.018155    2.140045
| 17> H      0.419754    0.018155   -2.140045
| 18> H      0.897849   -2.052701    0.887296
| 19> H      0.897849   -2.052701   -0.887296
| 20> *
| 21>
| 22>                          ****END OF INPUT****

CARTESIAN COORDINATES (ANGSTROEM)
---------------------------------
  C      0.420637    2.644566    0.000000
  C      0.421753    1.947096    1.203090
  C      0.421753    1.947096   -1.203090
  C      0.421753    0.558318    1.201822
  C      0.421753    0.558318   -1.201822
  C      0.421492   -0.150366    0.000000
  C      0.426140   -1.643412    0.000000
  Cl    -1.272788   -2.340959    0.000000
  H      0.421639    3.726146    0.000000
  H      0.424437    2.484779    2.141585
  H      0.424437    2.484779   -2.141585
  H      0.419754    0.018155    2.140045
  H      0.419754    0.018155   -2.140045
  H      0.897849   -2.052701    0.887296
  H      0.897849   -2.052701   -0.887296

 Total Charge           Charge          ....    0
 Multiplicity           Mult            ....    1
 Number of Electrons    NEL             ....   66
 Basis Dimension        Dim             ....  533

ORBITAL ENERGIES
----------------

  NO   OCC          E(Eh)            E(eV)
   0   2.0000    -104.820408     -2852.3083
   1   2.0000     -11.302822      -307.5654
   2   2.0000     -11.254174      -306.2416
   3   2.0000     -11.244708      -305.9841
   4   2.0000     -11.244691      -305.9836
   5   2.0000     -11.243780      -305.9588
   6   2.0000     -11.242645      -305.9279
   7   2.0000     -11.242054      -305.9118
   8   2.0000     -10.544255      -286.9238
   9   2.0000      -8.010974      -217.9897
  10   2.0000      -8.009249      -217.9427
  11   2.0000      -8.009220      -217.9420
  12   2.0000      -1.174146       -31.9501
  13   2.0000      -1.119514       -30.4635
  14   2.0000      -1.034532       -28.1510
  15   2.0000      -1.026475       -27.9318
  16   2.0000      -0.918492       -24.9934
  17   2.0000      -0.840303       -22.8658
  18   2.0000      -0.809240       -22.0205
  19   2.0000      -0.708961       -19.2918
  20   2.0000      -0.661011       -17.9870
  21   2.0000      -0.650928       -17.7127
  22   2.0000      -0.599389       -16.3102
  23   2.0000      -0.597620       -16.2621
  24   2.0000      -0.586649       -15.9635
  25   2.0000      -0.558967       -15.2103
  26   2.0000      -0.512076       -13.9343
  27   2.0000      -0.502291       -13.6680
  28   2.0000      -0.499336       -13.5876
  29   2.0000      -0.434540       -11.8244
  30   2.0000      -0.432767       -11.7762
  31   2.0000      -0.346879        -9.4391
  32   2.0000      -0.340871        -9.2756
  33   0.0000       0.027731         0.7546
  34   0.0000       0.032248         0.8775
  35   0.0000       0.032737         0.8908
  36   0.0000       0.045224         1.2306
  37   0.0000       0.047130         1.2825

MULLIKEN ATOMIC CHARGES
-----------------------
   0 C :   -0.254223
   1 C :   -0.452849
   2 C :   -0.452849
   3 C :   -1.032448
   4 C :   -1.032448
   5 C :    1.256259
   6 C :   -0.139219
   7 Cl:   -0.348886
   8 H :    0.436065
   9 H :    0.479862
  10 H :    0.479862
  11 H :    0.264356
  12 H :    0.264356
  13 H :    0.266080
  14 H :    0.266080
Sum of atomic charges:   -0.0000000

LOEWDIN ATOMIC CHARGES
----------------------
   0 C :    0.198976
   1 C :    0.202575
   2 C :    0.202575
   3 C :    0.201955
   4 C :    0.201955
   5 C :   -0.218936
   6 C :   -0.236279
   7 Cl:    0.839973
   8 H :   -0.184212
   9 H :   -0.183694
  10 H :   -0.183694
  11 H :   -0.176717
  12 H :   -0.176717
  13 H :   -0.243880
  14 H :   -0.243880

  Mayer bond orders larger than 0.100000
B(  0-C ,  1-C ) :   1.0578 B(  0-C ,  2-C ) :   1.0578 B(  0-C ,  8-H ) :   0.8482
B(  1-C ,  3-C ) :   1.2240 B(  1-C ,  8-H ) :  -0.1530 B(  1-C ,  9-H ) :   0.8222
B(  2-C ,  4-C ) :   1.2240 B(  2-C ,  8-H ) :  -0.1530 B(  2-C , 10-H ) :   0.8222
B(  3-C ,  4-C ) :   0.1838 B(  3-C ,  5-C ) :   0.5300 B(  3-C ,  8-H ) :   0.1178
B(  3-C , 11-H ) :   1.1318 B(  4-C ,  5-C ) :   0.5300 B(  4-C ,  8-H ) :   0.1178
B(  4-C , 12-H ) :   1.1318 B(  5-C ,  6-C ) :   0.8001 B(  5-C , 11-H ) :  -0.1163
B(  5-C , 12-H ) :  -0.1163 B(  6-C ,  7-Cl) :   0.7131 B(  6-C , 13-H ) :   0.9692
B(  6-C , 14-H ) :   0.9692

MP2 TOTAL ENERGY:     -730.095013789 Eh
FINAL SINGLE POINT ENERGY      -730.095013789124

DIPOLE MOMENT
-------------
                                X             Y             Z
Electronic contribution:     -4.82540      -7.27726      -0.00000
Nuclear contribution   :      5.60752       7.80981       0.00000
                        -----------------------------------------
Total Dipole Moment    :      0.78212       0.53255      -0.00000
                        -----------------------------------------
Magnitude (a.u.)       :      0.94622
Magnitude (Debye)      :      2.40509

Rotational constants in cm-1:     0.140227     0.032501     0.029189
Rotational constants in MHz :  4203.890297   974.346434   875.063489

                             ****ORCA TERMINATED NORMALLY****
TOTAL RUN TIME: 0 days 0 hours 5 minutes 34 seconds 911 msec
