                         Program Version 5.0.3 -  RELEASE  -
|  1> !ri-mp2 aug-cc-pvtz aug-cc-pvtz/c tightscf
|  2> %pal nprocs 16 end
|  3>
|  4> * xyz 0 1
|  5> C      0.005646    0.665273    1.302124
|  6> C     -0.005646   -0.665273    1.302124
|  7> C     -0.005646    1.497566    0.048624
|  8> C      0.005646   -1.497566    0.048624
|  9> C     -0.367769    0.670959   -1.190000
| 10> C      0.367769   -0.670959   -1.190000
| 11> H      0.020501    1.196537    2.247558
| 12> H     -0.020501   -1.196537    2.247558
| 13> H     -0.708445    2.326979    0.166811
| 14> H      0.977019    1.965639   -0.085347
| 15> H      0.708445   -2.326979    0.166811
| 16> H     -0.977019   -1.965639   -0.085347
| 17> H     -1.446378    0.487192   -1.195721
| 18> H     -0.141259    1.233380   -2.097788
| 19> H      1.446378   -0.487192   -1.195721
| 20> H      0.141259   -1.233380   -2.097788
| 21> *
| 22>
| 23>                          ****END OF INPUT****

CARTESIAN COORDINATES (ANGSTROEM)
---------------------------------
  C      0.005646    0.665273    1.302124
  C     -0.005646   -0.665273    1.302124
  C     -0.005646    1.497566    0.048624
  C      0.005646   -1.497566    0.048624
  C     -0.367769    0.670959   -1.190000
  C      0.367769   -0.670959   -1.190000
  H      0.020501    1.196537    2.247558
  H     -0.020501   -1.196537    2.247558
  H     -0.708445    2.326979    0.166811
  H      0.977019    1.965639   -0.085347
  H      0.708445   -2.326979    0.166811
  H     -0.977019   -1.965639   -0.085347
  H     -1.446378    0.487192   -1.195721
  H     -0.141259    1.233380   -2.097788
  H      1.446378   -0.487192   -1.195721
  H      0.141259   -1.233380   -2.097788

 Total Charge           Charge          ....    0
 Multiplicity           Mult            ....    1
 Number of Electrons    NEL             ....   46
 Basis Dimension        Dim             ....  506

ORBITAL ENERGIES
----------------

  NO   OCC          E(Eh)            E(eV)
   0   2.0000     -11.219810      -305.3066
   1   2.0000     -11.219756      -305.3051
   2   2.0000     -11.218639      -305.2747
   3   2.0000     -11.216947      -305.2286
   4   2.0000     -11.215991      -305.2026
   5   2.0000     -11.215384      -305.1861
   6   2.0000      -1.117170       -30.3997
   7   2.0000      -1.003997       -27.3202
   8   2.0000      -1.000751       -27.2318
   9   2.0000      -0.845351       -23.0032
  10   2.0000      -0.815219       -22.1832
  11   2.0000      -0.696609       -18.9557
  12   2.0000      -0.666329       -18.1317
  13   2.0000      -0.612904       -16.6780
  14   2.0000      -0.582358       -15.8468
  15   2.0000      -0.565871       -15.3981
  16   2.0000      -0.537472       -14.6254
  17   2.0000      -0.527966       -14.3667
  18   2.0000      -0.523302       -14.2398
  19   2.0000      -0.463142       -12.6027
  20   2.0000      -0.450116       -12.2483
  21   2.0000      -0.435751       -11.8574
  22   2.0000      -0.341002        -9.2791
  23   0.0000       0.030711         0.8357
  24   0.0000       0.036194         0.9849
  25   0.0000       0.036372         0.9897
  26   0.0000       0.040223         1.0945
  27   0.0000       0.050487         1.3738

MULLIKEN ATOMIC CHARGES
-----------------------
   0 C :   -0.613754
   1 C :   -0.613754
   2 C :   -0.232267
   3 C :   -0.232267
   4 C :   -0.516918
   5 C :   -0.516918
   6 H :    0.355006
   7 H :    0.355006
   8 H :    0.283045
   9 H :    0.233933
  10 H :    0.283045
  11 H :    0.233933
  12 H :    0.215999
  13 H :    0.274956
  14 H :    0.215999
  15 H :    0.274956
Sum of atomic charges:   -0.0000000

LOEWDIN ATOMIC CHARGES
----------------------
   0 C :    0.230026
   1 C :    0.230026
   2 C :    0.262193
   3 C :    0.262193
   4 C :    0.281997
   5 C :    0.281997
   6 H :   -0.186239
   7 H :   -0.186239
   8 H :   -0.153827
   9 H :   -0.148330
  10 H :   -0.153827
  11 H :   -0.148330
  12 H :   -0.141538
  13 H :   -0.144283
  14 H :   -0.141538
  15 H :   -0.144283

  Mayer bond orders larger than 0.100000
B(  0-C ,  1-C ) :   1.5248 B(  0-C ,  2-C ) :   0.7333 B(  0-C ,  4-C ) :   0.1014
B(  0-C ,  6-H ) :   0.8984 B(  1-C ,  3-C ) :   0.7333 B(  1-C ,  5-C ) :   0.1014
B(  1-C ,  7-H ) :   0.8984 B(  2-C ,  4-C ) :   0.9066 B(  2-C ,  8-H ) :   0.9780
B(  2-C ,  9-H ) :   0.9746 B(  3-C ,  5-C ) :   0.9066 B(  3-C , 10-H ) :   0.9780
B(  3-C , 11-H ) :   0.9746 B(  4-C ,  5-C ) :   0.9018 B(  4-C , 12-H ) :   0.9896
B(  4-C , 13-H ) :   0.9633 B(  5-C , 14-H ) :   0.9896 B(  5-C , 15-H ) :   0.9633

MP2 TOTAL ENERGY:     -234.122667265 Eh
FINAL SINGLE POINT ENERGY      -234.122667265138

DIPOLE MOMENT
-------------
                                X             Y             Z
Electronic contribution:      0.00000       0.00000       1.89307
Nuclear contribution   :      0.00000      -0.00000      -2.02866
                        -----------------------------------------
Total Dipole Moment    :      0.00000       0.00000      -0.13560
                        -----------------------------------------
Magnitude (a.u.)       :      0.13560
Magnitude (Debye)      :      0.34466

Rotational constants in cm-1:     0.158081     0.152003     0.085225
Rotational constants in MHz :  4739.152944  4556.948365  2554.993737

                             ****ORCA TERMINATED NORMALLY****
TOTAL RUN TIME: 0 days 0 hours 4 minutes 24 seconds 311 msec
