                         Program Version 5.0.3 -  RELEASE  -
|  1> !ri-mp2 aug-cc-pvtz aug-cc-pvtz/c tightscf
|  2> %pal nprocs 16 end
|  3>
|  4> * xyz 0 1
|  5> C     0.000000     0.000000    0.861410
|  6> C     0.000000     0.643280   -0.499979
|  7> C     0.000000    -0.643280   -0.499979
|  8> H     0.000000     1.571117   -1.041246
|  9> H     0.000000    -1.571117   -1.041246
| 10> H     0.910708     0.000000    1.456887
| 11> H    -0.910708     0.000000    1.456887
| 12> *
| 13>
| 14>                          ****END OF INPUT****

CARTESIAN COORDINATES (ANGSTROEM)
---------------------------------
  C      0.000000    0.000000    0.861410
  C      0.000000    0.643280   -0.499979
  C      0.000000   -0.643280   -0.499979
  H      0.000000    1.571117   -1.041246
  H      0.000000   -1.571117   -1.041246
  H      0.910708    0.000000    1.456887
  H     -0.910708    0.000000    1.456887

 Total Charge           Charge          ....    0
 Multiplicity           Mult            ....    1
 Number of Electrons    NEL             ....   22
 Basis Dimension        Dim             ....  230

ORBITAL ENERGIES
----------------

  NO   OCC          E(Eh)            E(eV)
   0   2.0000     -11.243838      -305.9604
   1   2.0000     -11.241539      -305.8978
   2   2.0000     -11.238182      -305.8065
   3   2.0000      -1.158707       -31.5300
   4   2.0000      -0.825116       -22.4526
   5   2.0000      -0.766998       -20.8711
   6   2.0000      -0.681620       -18.5478
   7   2.0000      -0.596652       -16.2357
   8   2.0000      -0.494637       -13.4598
   9   2.0000      -0.420130       -11.4323
  10   2.0000      -0.359139        -9.7727
  11   0.0000       0.031520         0.8577
  12   0.0000       0.036276         0.9871
  13   0.0000       0.041790         1.1372
  14   0.0000       0.047046         1.2802
  15   0.0000       0.090300         2.4572

MULLIKEN ATOMIC CHARGES
-----------------------
   0 C :   -0.590671
   1 C :   -0.536318
   2 C :   -0.536318
   3 H :    0.465722
   4 H :    0.465722
   5 H :    0.365931
   6 H :    0.365931
Sum of atomic charges:    0.0000000

LOEWDIN ATOMIC CHARGES
----------------------
   0 C :    0.273820
   1 C :    0.267317
   2 C :    0.267317
   3 H :   -0.199106
   4 H :   -0.199106
   5 H :   -0.205121
   6 H :   -0.205121

  Mayer bond orders larger than 0.100000
B(  0-C ,  1-C ) :   0.8798 B(  0-C ,  2-C ) :   0.8798 B(  0-C ,  5-H ) :   0.8106
B(  0-C ,  6-H ) :   0.8106 B(  1-C ,  2-C ) :   1.2611 B(  1-C ,  3-H ) :   0.8156
B(  2-C ,  4-H ) :   0.8156

MP2 TOTAL ENERGY:     -116.359290365 Eh
FINAL SINGLE POINT ENERGY      -116.359290365483

DIPOLE MOMENT
-------------
                                X             Y             Z
Electronic contribution:      0.00000      -0.00000      -1.05073
Nuclear contribution   :      0.00000       0.00000       0.85727
                        -----------------------------------------
Total Dipole Moment    :      0.00000      -0.00000      -0.19345
                        -----------------------------------------
Magnitude (a.u.)       :      0.19345
Magnitude (Debye)      :      0.49172

Rotational constants in cm-1:     1.016201     0.731757     0.464628
Rotational constants in MHz : 30464.947943 21937.511045 13929.200353

                             ****ORCA TERMINATED NORMALLY****
TOTAL RUN TIME: 0 days 0 hours 0 minutes 41 seconds 289 msec
