                         Program Version 5.0.3 -  RELEASE  -
|  1> !ri-mp2 aug-cc-pvtz aug-cc-pvtz/c tightscf
|  2> %pal nprocs 16 end
|  3>
|  4> * xyz 0 1
|  5> O     -0.110702    1.322911   -0.000131
|  6> O      3.466618    0.112051   -0.000002
|  7> N      1.198390   -0.579867    0.000060
|  8> N     -3.543633    0.280825   -0.000038
|  9> C     -1.194850   -0.840419    0.000081
| 10> C     -0.022543    0.130129   -0.000013
| 11> C     -2.498057   -0.193546    0.000012
| 12> C      2.344250   -0.163499    0.000022
| 13> H     -1.101710   -1.491289   -0.872483
| 14> H     -1.101714   -1.491113    0.872777
| 15> *
| 16>
| 17>                          ****END OF INPUT****

CARTESIAN COORDINATES (ANGSTROEM)
---------------------------------
  O     -0.110702    1.322911   -0.000131
  O      3.466618    0.112051   -0.000002
  N      1.198390   -0.579867    0.000060
  N     -3.543633    0.280825   -0.000038
  C     -1.194850   -0.840419    0.000081
  C     -0.022543    0.130129   -0.000013
  C     -2.498057   -0.193546    0.000012
  C      2.344250   -0.163499    0.000022
  H     -1.101710   -1.491289   -0.872483
  H     -1.101714   -1.491113    0.872777

 Total Charge           Charge          ....    0
 Multiplicity           Mult            ....    1
 Number of Electrons    NEL             ....   56
 Basis Dimension        Dim             ....  414

ORBITAL ENERGIES
----------------

  NO   OCC          E(Eh)            E(eV)
   0   2.0000     -20.670708      -562.4786
   1   2.0000     -20.599256      -560.5343
   2   2.0000     -15.633356      -425.4052
   3   2.0000     -15.587939      -424.1694
   4   2.0000     -11.461137      -311.8734
   5   2.0000     -11.432015      -311.0809
   6   2.0000     -11.324996      -308.1688
   7   2.0000     -11.291129      -307.2473
   8   2.0000      -1.525426       -41.5090
   9   2.0000      -1.462735       -39.8030
  10   2.0000      -1.314188       -35.7609
  11   2.0000      -1.240313       -33.7506
  12   2.0000      -1.107190       -30.1282
  13   2.0000      -0.943710       -25.6796
  14   2.0000      -0.785300       -21.3691
  15   2.0000      -0.753132       -20.4938
  16   2.0000      -0.740848       -20.1595
  17   2.0000      -0.713876       -19.4256
  18   2.0000      -0.694345       -18.8941
  19   2.0000      -0.677724       -18.4418
  20   2.0000      -0.672269       -18.2934
  21   2.0000      -0.586614       -15.9626
  22   2.0000      -0.573024       -15.5928
  23   2.0000      -0.543485       -14.7890
  24   2.0000      -0.490325       -13.3424
  25   2.0000      -0.483751       -13.1635
  26   2.0000      -0.477082       -12.9821
  27   2.0000      -0.477020       -12.9804
  28   0.0000       0.017753         0.4831
  29   0.0000       0.034702         0.9443
  30   0.0000       0.043943         1.1958
  31   0.0000       0.059046         1.6067
  32   0.0000       0.072734         1.9792

MULLIKEN ATOMIC CHARGES
-----------------------
   0 O :   -0.600933
   1 O :   -0.403972
   2 N :    0.328644
   3 N :   -0.617564
   4 C :    0.175462
   5 C :    0.197568
   6 C :    0.258283
   7 C :   -0.001140
   8 H :    0.331826
   9 H :    0.331826
Sum of atomic charges:    0.0000000

LOEWDIN ATOMIC CHARGES
----------------------
   0 O :    0.484073
   1 O :    0.433986
   2 N :    0.295184
   3 N :    0.274092
   4 C :    0.219568
   5 C :   -0.740469
   6 C :   -0.214933
   7 C :   -0.429548
   8 H :   -0.160976
   9 H :   -0.160976

  Mayer bond orders larger than 0.100000
B(  0-O ,  5-C ) :   1.6864 B(  1-O ,  2-N ) :  -0.2387 B(  1-O ,  7-C ) :   2.1070
B(  2-N ,  4-C ) :  -0.1259 B(  2-N ,  5-C ) :   0.7904 B(  2-N ,  7-C ) :   1.5332
B(  3-N ,  6-C ) :   2.1982 B(  4-C ,  5-C ) :   0.6744 B(  4-C ,  6-C ) :   0.9357
B(  4-C ,  8-H ) :   0.8886 B(  4-C ,  9-H ) :   0.8886 B(  5-C ,  6-C ) :   0.1410

MP2 TOTAL ENERGY:     -412.879789112 Eh
FINAL SINGLE POINT ENERGY      -412.879789112350

DIPOLE MOMENT
-------------
                                X             Y             Z
Electronic contribution:      3.08930       1.33920      -0.00013
Nuclear contribution   :     -2.06794      -2.82970       0.00028
                        -----------------------------------------
Total Dipole Moment    :      1.02136      -1.49051       0.00015
                        -----------------------------------------
Magnitude (a.u.)       :      1.80687
Magnitude (Debye)      :      4.59270

Rotational constants in cm-1:     0.341315     0.030620     0.028244
Rotational constants in MHz : 10232.363704   917.963548   846.724443

                             ****ORCA TERMINATED NORMALLY****
TOTAL RUN TIME: 0 days 0 hours 2 minutes 32 seconds 238 msec
