                         Program Version 5.0.3 -  RELEASE  -
|  1> !ri-mp2 aug-cc-pvtz aug-cc-pvtz/c tightscf
|  2> %pal nprocs 16 end
|  3>
|  4> * xyz 0 1
|  5> C      1.868671    0.015665   -0.274924
|  6> C      1.165857   -1.254608    0.213738
|  7> C      1.143210    1.275650    0.207070
|  8> C     -0.316921   -1.266074   -0.173397
|  9> C     -0.338799    1.251562   -0.185476
| 10> C     -1.031529   -0.014315    0.318188
| 11> O     -2.389229   -0.097381   -0.127585
| 12> H      2.907050    0.026674    0.063303
| 13> H      1.897315    0.013456   -1.369367
| 14> H      1.659644   -2.140622   -0.189833
| 15> H      1.257836   -1.320104    1.302922
| 16> H      1.229487    1.346791    1.296330
| 17> H      1.621046    2.169628   -0.198474
| 18> H     -0.419613   -1.310640   -1.261741
| 19> H     -0.817792   -2.148289    0.228615
| 20> H     -0.850240    2.135483    0.207891
| 21> H     -0.437987    1.283978   -1.274557
| 22> H     -1.013629   -0.011453    1.417302
| 23> H     -2.862212    0.686872    0.167083
| 24> *
| 25>
| 26>                          ****END OF INPUT****

CARTESIAN COORDINATES (ANGSTROEM)
---------------------------------
  C      1.868671    0.015665   -0.274924
  C      1.165857   -1.254608    0.213738
  C      1.143210    1.275650    0.207070
  C     -0.316921   -1.266074   -0.173397
  C     -0.338799    1.251562   -0.185476
  C     -1.031529   -0.014315    0.318188
  O     -2.389229   -0.097381   -0.127585
  H      2.907050    0.026674    0.063303
  H      1.897315    0.013456   -1.369367
  H      1.659644   -2.140622   -0.189833
  H      1.257836   -1.320104    1.302922
  H      1.229487    1.346791    1.296330
  H      1.621046    2.169628   -0.198474
  H     -0.419613   -1.310640   -1.261741
  H     -0.817792   -2.148289    0.228615
  H     -0.850240    2.135483    0.207891
  H     -0.437987    1.283978   -1.274557
  H     -1.013629   -0.011453    1.417302
  H     -2.862212    0.686872    0.167083

 Total Charge           Charge          ....    0
 Multiplicity           Mult            ....    1
 Number of Electrons    NEL             ....   56
 Basis Dimension        Dim             ....  598

ORBITAL ENERGIES
----------------

  NO   OCC          E(Eh)            E(eV)
   0   2.0000     -20.550714      -559.2133
   1   2.0000     -11.273067      -306.7558
   2   2.0000     -11.220643      -305.3292
   3   2.0000     -11.217942      -305.2557
   4   2.0000     -11.217726      -305.2498
   5   2.0000     -11.217059      -305.2317
   6   2.0000     -11.211774      -305.0879
   7   2.0000      -1.352466       -36.8025
   8   2.0000      -1.110973       -30.2311
   9   2.0000      -1.006591       -27.3907
  10   2.0000      -0.991786       -26.9879
  11   2.0000      -0.840760       -22.8782
  12   2.0000      -0.823421       -22.4064
  13   2.0000      -0.758682       -20.6448
  14   2.0000      -0.684860       -18.6360
  15   2.0000      -0.649110       -17.6632
  16   2.0000      -0.612851       -16.6765
  17   2.0000      -0.607119       -16.5205
  18   2.0000      -0.586149       -15.9499
  19   2.0000      -0.546575       -14.8731
  20   2.0000      -0.529150       -14.3989
  21   2.0000      -0.526754       -14.3337
  22   2.0000      -0.490310       -13.3420
  23   2.0000      -0.485178       -13.2024
  24   2.0000      -0.461696       -12.5634
  25   2.0000      -0.458476       -12.4758
  26   2.0000      -0.435971       -11.8634
  27   2.0000      -0.420519       -11.4429
  28   0.0000       0.028736         0.7820
  29   0.0000       0.033466         0.9107
  30   0.0000       0.036124         0.9830
  31   0.0000       0.038968         1.0604
  32   0.0000       0.050981         1.3873

MULLIKEN ATOMIC CHARGES
-----------------------
   0 C :   -0.471390
   1 C :   -0.502058
   2 C :   -0.492572
   3 C :   -0.518994
   4 C :   -0.598119
   5 C :    0.563915
   6 O :   -0.785894
   7 H :    0.319291
   8 H :    0.159114
   9 H :    0.318298
  10 H :    0.146405
  11 H :    0.174153
  12 H :    0.312886
  13 H :    0.193932
  14 H :    0.321460
  15 H :    0.312146
  16 H :    0.192233
  17 H :    0.206243
  18 H :    0.148951
Sum of atomic charges:    0.0000000

LOEWDIN ATOMIC CHARGES
----------------------
   0 C :    0.290165
   1 C :    0.292407
   2 C :    0.292542
   3 C :    0.291424
   4 C :    0.296854
   5 C :   -0.260363
   6 O :    0.832367
   7 H :   -0.143214
   8 H :   -0.141175
   9 H :   -0.142568
  10 H :   -0.141751
  11 H :   -0.141666
  12 H :   -0.142720
  13 H :   -0.139532
  14 H :   -0.140595
  15 H :   -0.143313
  16 H :   -0.139495
  17 H :   -0.129169
  18 H :   -0.490199

  Mayer bond orders larger than 0.100000
B(  0-C ,  1-C ) :   0.8719 B(  0-C ,  2-C ) :   0.8862 B(  0-C ,  7-H ) :   0.9113
B(  0-C ,  8-H ) :   1.0348 B(  1-C ,  3-C ) :   0.9255 B(  1-C ,  9-H ) :   0.9061
B(  1-C , 10-H ) :   1.0606 B(  2-C ,  4-C ) :   0.9226 B(  2-C , 11-H ) :   1.0275
B(  2-C , 12-H ) :   0.9029 B(  3-C ,  4-C ) :   0.1543 B(  3-C ,  5-C ) :   0.8029
B(  3-C ,  6-O ) :   0.1017 B(  3-C , 13-H ) :   1.0019 B(  3-C , 14-H ) :   0.9000
B(  4-C ,  5-C ) :   0.8614 B(  4-C ,  6-O ) :   0.1184 B(  4-C , 15-H ) :   0.8904
B(  4-C , 16-H ) :   0.9960 B(  5-C ,  6-O ) :   0.3124 B(  5-C , 17-H ) :   1.0731
B(  6-O , 18-H ) :   1.0390

MP2 TOTAL ENERGY:     -310.475635422 Eh
FINAL SINGLE POINT ENERGY      -310.475635422216

DIPOLE MOMENT
-------------
                                X             Y             Z
Electronic contribution:     -3.94844      -0.28535      -0.08270
Nuclear contribution   :      4.34003       0.76677       0.40685
                        -----------------------------------------
Total Dipole Moment    :      0.39159       0.48142       0.32415
                        -----------------------------------------
Magnitude (a.u.)       :      0.70013
Magnitude (Debye)      :      1.77959

Rotational constants in cm-1:     0.143242     0.074175     0.053518
Rotational constants in MHz :  4294.274493  2223.698467  1604.423887

                             ****ORCA TERMINATED NORMALLY****
TOTAL RUN TIME: 0 days 0 hours 7 minutes 37 seconds 458 msec
