                         Program Version 5.0.3 -  RELEASE  -
|  1> !ri-mp2 aug-cc-pvtz aug-cc-pvtz/c tightscf
|  2> %pal nprocs 16 end
|  3>
|  4> * xyz 0 1
|  5> N     -1.278679    0.891680    0.000794
|  6> C     -1.183279   -0.527836   -0.000005
|  7> O     -2.212368   -1.174968    0.000543
|  8> N      0.081477   -1.045063    0.000860
|  9> C      1.129520   -0.251037   -0.001356
| 10> N      2.350160   -0.839822   -0.016923
| 11> C      1.044869    1.182278   -0.000701
| 12> C     -0.202442    1.706311    0.000829
| 13> H     -2.216305    1.259538    0.001831
| 14> H      2.393103   -1.842117    0.040782
| 15> H      3.193278   -0.305790    0.070447
| 16> H      1.919772    1.812089   -0.004556
| 17> H     -0.393620    2.770157    0.001442
| 18> *
| 19>
| 20>                          ****END OF INPUT****

CARTESIAN COORDINATES (ANGSTROEM)
---------------------------------
  N     -1.278679    0.891680    0.000794
  C     -1.183279   -0.527836   -0.000005
  O     -2.212368   -1.174968    0.000543
  N      0.081477   -1.045063    0.000860
  C      1.129520   -0.251037   -0.001356
  N      2.350160   -0.839822   -0.016923
  C      1.044869    1.182278   -0.000701
  C     -0.202442    1.706311    0.000829
  H     -2.216305    1.259538    0.001831
  H      2.393103   -1.842117    0.040782
  H      3.193278   -0.305790    0.070447
  H      1.919772    1.812089   -0.004556
  H     -0.393620    2.770157    0.001442

 Total Charge           Charge          ....    0
 Multiplicity           Mult            ....    1
 Number of Electrons    NEL             ....   58
 Basis Dimension        Dim             ....  483

ORBITAL ENERGIES
----------------

  NO   OCC          E(Eh)            E(eV)
   0   2.0000     -20.501643      -557.8781
   1   2.0000     -15.620340      -425.0510
   2   2.0000     -15.596546      -424.4036
   3   2.0000     -15.538827      -422.8330
   4   2.0000     -11.368585      -309.3549
   5   2.0000     -11.353782      -308.9521
   6   2.0000     -11.329058      -308.2793
   7   2.0000     -11.244458      -305.9773
   8   2.0000      -1.387163       -37.7466
   9   2.0000      -1.300978       -35.4014
  10   2.0000      -1.265390       -34.4330
  11   2.0000      -1.174036       -31.9471
  12   2.0000      -1.066623       -29.0243
  13   2.0000      -0.903336       -24.5810
  14   2.0000      -0.879931       -23.9441
  15   2.0000      -0.765136       -20.8204
  16   2.0000      -0.762546       -20.7499
  17   2.0000      -0.722656       -19.6645
  18   2.0000      -0.682702       -18.5773
  19   2.0000      -0.628081       -17.0910
  20   2.0000      -0.626561       -17.0496
  21   2.0000      -0.610514       -16.6129
  22   2.0000      -0.594922       -16.1886
  23   2.0000      -0.539107       -14.6698
  24   2.0000      -0.492882       -13.4120
  25   2.0000      -0.443491       -12.0680
  26   2.0000      -0.418882       -11.3984
  27   2.0000      -0.385955       -10.5024
  28   2.0000      -0.343977        -9.3601
  29   0.0000       0.015749         0.4286
  30   0.0000       0.023541         0.6406
  31   0.0000       0.036473         0.9925
  32   0.0000       0.050980         1.3872
  33   0.0000       0.059078         1.6076

MULLIKEN ATOMIC CHARGES
-----------------------
   0 N :    0.004127
   1 C :    0.032911
   2 O :   -0.768014
   3 N :   -0.249998
   4 C :    0.836052
   5 N :   -0.490237
   6 C :   -0.202134
   7 C :   -0.440521
   8 H :    0.079897
   9 H :    0.131557
  10 H :    0.095838
  11 H :    0.238901
  12 H :    0.731621
Sum of atomic charges:    0.0000000

LOEWDIN ATOMIC CHARGES
----------------------
   0 N :    0.536847
   1 C :   -0.874894
   2 O :    0.394680
   3 N :    0.384933
   4 C :   -0.459099
   5 N :    0.867613
   6 C :    0.231208
   7 C :    0.121194
   8 H :   -0.273533
   9 H :   -0.286536
  10 H :   -0.293487
  11 H :   -0.202101
  12 H :   -0.146825

  Mayer bond orders larger than 0.100000
B(  0-N ,  1-C ) :   1.0101 B(  0-N ,  6-C ) :  -0.2058 B(  0-N ,  7-C ) :   1.0648
B(  0-N ,  8-H ) :   1.1181 B(  1-C ,  2-O ) :   1.6288 B(  1-C ,  3-N ) :   1.1819
B(  1-C ,  4-C ) :  -0.1997 B(  1-C ,  7-C ) :  -0.2081 B(  2-O ,  3-N ) :  -0.1916
B(  3-N ,  4-C ) :   0.9166 B(  3-N ,  5-N ) :  -0.2374 B(  4-C ,  5-N ) :   1.0306
B(  4-C ,  6-C ) :   0.7174 B(  4-C ,  7-C ) :   0.1913 B(  5-N ,  6-C ) :  -0.1538
B(  5-N ,  9-H ) :   1.0841 B(  5-N , 10-H ) :   1.1148 B(  6-C ,  7-C ) :   1.0858
B(  6-C , 11-H ) :   1.1102 B(  7-C , 12-H ) :   0.3246

MP2 TOTAL ENERGY:     -394.243775765 Eh
FINAL SINGLE POINT ENERGY      -394.243775765284

DIPOLE MOMENT
-------------
                                X             Y             Z
Electronic contribution:     -2.91870      -1.44352      -0.02306
Nuclear contribution   :      4.77279       3.59766       0.10771
                        -----------------------------------------
Total Dipole Moment    :      1.85409       2.15414       0.08465
                        -----------------------------------------
Magnitude (a.u.)       :      2.84343
Magnitude (Debye)      :      7.22744

Rotational constants in cm-1:     0.129622     0.067607     0.044435
Rotational constants in MHz :  3885.974705  2026.804172  1332.120386

                             ****ORCA TERMINATED NORMALLY****
TOTAL RUN TIME: 0 days 0 hours 4 minutes 26 seconds 516 msec
