                         Program Version 5.0.3 -  RELEASE  -
|  1> !ri-mp2 aug-cc-pvtz aug-cc-pvtz/c tightscf
|  2> %pal nprocs 16 end
|  3>
|  4> * xyz 0 1
|  5> C      1.610605    1.384300    0.549759
|  6> H      2.332239    2.160342    0.292049
|  7> H      0.860212    1.834406    1.198917
|  8> H      2.129278    0.606001    1.108397
|  9> C     -2.280666    0.756806   -0.091466
| 10> H     -2.643528    0.312964   -1.019464
| 11> H     -3.146309    0.940646    0.545887
| 12> H     -1.838910    1.724439   -0.328261
| 13> C     -1.298769   -0.163282    0.619431
| 14> H     -1.776187   -1.092001    0.931530
| 15> H     -0.846975    0.288433    1.501243
| 16> C      0.999535    0.803974   -0.714910
| 17> H      0.322444    1.489329   -1.225847
| 18> S      0.072252   -0.774645   -0.452665
| 19> O      0.937001   -1.633899    0.435963
| 20> H      1.771453    0.510148   -1.426400
| 21> *
| 22>
| 23>                          ****END OF INPUT****

CARTESIAN COORDINATES (ANGSTROEM)
---------------------------------
  C      1.610605    1.384300    0.549759
  H      2.332239    2.160342    0.292049
  H      0.860212    1.834406    1.198917
  H      2.129278    0.606001    1.108397
  C     -2.280666    0.756806   -0.091466
  H     -2.643528    0.312964   -1.019464
  H     -3.146309    0.940646    0.545887
  H     -1.838910    1.724439   -0.328261
  C     -1.298769   -0.163282    0.619431
  H     -1.776187   -1.092001    0.931530
  H     -0.846975    0.288433    1.501243
  C      0.999535    0.803974   -0.714910
  H      0.322444    1.489329   -1.225847
  S      0.072252   -0.774645   -0.452665
  O      0.937001   -1.633899    0.435963
  H      1.771453    0.510148   -1.426400

 Total Charge           Charge          ....    0
 Multiplicity           Mult            ....    1
 Number of Electrons    NEL             ....   58
 Basis Dimension        Dim             ....  510

ORBITAL ENERGIES
----------------

  NO   OCC          E(Eh)            E(eV)
   0   2.0000     -92.060569     -2505.0954
   1   2.0000     -20.498151      -557.7830
   2   2.0000     -11.265855      -306.5595
   3   2.0000     -11.265091      -306.5387
   4   2.0000     -11.243189      -305.9427
   5   2.0000     -11.229641      -305.5741
   6   2.0000      -9.047278      -246.1889
   7   2.0000      -6.728797      -183.0999
   8   2.0000      -6.728652      -183.0959
   9   2.0000      -6.727326      -183.0598
  10   2.0000      -1.321658       -35.9641
  11   2.0000      -1.085628       -29.5414
  12   2.0000      -1.044987       -28.4355
  13   2.0000      -0.932734       -25.3810
  14   2.0000      -0.876891       -23.8614
  15   2.0000      -0.782702       -21.2984
  16   2.0000      -0.660652       -17.9772
  17   2.0000      -0.648617       -17.6498
  18   2.0000      -0.605589       -16.4789
  19   2.0000      -0.598687       -16.2911
  20   2.0000      -0.582809       -15.8590
  21   2.0000      -0.549743       -14.9593
  22   2.0000      -0.540127       -14.6976
  23   2.0000      -0.533790       -14.5252
  24   2.0000      -0.509747       -13.8709
  25   2.0000      -0.507530       -13.8106
  26   2.0000      -0.499988       -13.6054
  27   2.0000      -0.403253       -10.9731
  28   2.0000      -0.358647        -9.7593
  29   0.0000       0.024315         0.6616
  30   0.0000       0.031780         0.8648
  31   0.0000       0.035282         0.9601
  32   0.0000       0.041553         1.1307
  33   0.0000       0.051901         1.4123

MULLIKEN ATOMIC CHARGES
-----------------------
   0 C :   -0.935865
   1 H :    0.276190
   2 H :    0.318805
   3 H :    0.348071
   4 C :   -0.922761
   5 H :    0.296064
   6 H :    0.275481
   7 H :    0.325233
   8 C :   -0.335125
   9 H :    0.339045
  10 H :    0.196687
  11 C :   -0.409292
  12 H :    0.236273
  13 S :    0.668096
  14 O :   -0.995235
  15 H :    0.318333
Sum of atomic charges:   -0.0000000

LOEWDIN ATOMIC CHARGES
----------------------
   0 C :    0.529160
   1 H :   -0.172895
   2 H :   -0.186651
   3 H :   -0.187642
   4 C :    0.528479
   5 H :   -0.177838
   6 H :   -0.171575
   7 H :   -0.190151
   8 C :    0.093832
   9 H :   -0.213907
  10 H :   -0.214087
  11 C :    0.099730
  12 H :   -0.219626
  13 S :    0.878454
  14 O :   -0.179199
  15 H :   -0.216085

  Mayer bond orders larger than 0.100000
B(  0-C ,  1-H ) :   0.9554 B(  0-C ,  2-H ) :   0.9155 B(  0-C ,  3-H ) :   0.8985
B(  0-C , 11-C ) :   0.9024 B(  0-C , 13-S ) :   0.1412 B(  4-C ,  5-H ) :   0.9445
B(  4-C ,  6-H ) :   0.9783 B(  4-C ,  7-H ) :   0.9012 B(  4-C ,  8-C ) :   0.8878
B(  8-C ,  9-H ) :   0.8882 B(  8-C , 10-H ) :   0.9607 B(  8-C , 13-S ) :   0.8439
B( 11-C , 12-H ) :   0.9429 B( 11-C , 13-S ) :   0.8642 B( 11-C , 15-H ) :   0.9138
B( 13-S , 14-O ) :   1.2616

MP2 TOTAL ENERGY:     -630.903726740 Eh
FINAL SINGLE POINT ENERGY      -630.903726739822

DIPOLE MOMENT
-------------
                                X             Y             Z
Electronic contribution:      1.98648      -7.40705      -2.02028
Nuclear contribution   :     -2.89674       8.99967       1.64023
                        -----------------------------------------
Total Dipole Moment    :     -0.91026       1.59262      -0.38005
                        -----------------------------------------
Magnitude (a.u.)       :      1.87335
Magnitude (Debye)      :      4.76169

Rotational constants in cm-1:     0.112208     0.078899     0.057361
Rotational constants in MHz :  3363.914482  2365.329758  1719.648328

                             ****ORCA TERMINATED NORMALLY****
TOTAL RUN TIME: 0 days 0 hours 4 minutes 37 seconds 551 msec
