                         Program Version 5.0.3 -  RELEASE  -
|  1> !ri-mp2 aug-cc-pvtz aug-cc-pvtz/c tightscf
|  2> %pal nprocs 16 end
|  3>
|  4> * xyz 0 1
|  5> C      0.000000    0.000000    0.599276
|  6> C      0.000000    0.000000   -0.599276
|  7> Cl     0.000000    0.000000    2.241149
|  8> Cl     0.000000    0.000000   -2.241149
|  9> *
| 10>
| 11>                          ****END OF INPUT****

CARTESIAN COORDINATES (ANGSTROEM)
---------------------------------
  C      0.000000    0.000000    0.599276
  C      0.000000    0.000000   -0.599276
  Cl     0.000000    0.000000    2.241149
  Cl     0.000000    0.000000   -2.241149

 Total Charge           Charge          ....    0
 Multiplicity           Mult            ....    1
 Number of Electrons    NEL             ....   46
 Basis Dimension        Dim             ....  192

ORBITAL ENERGIES
----------------

  NO   OCC          E(Eh)            E(eV)
   0   2.0000    -104.896750     -2854.3857
   1   2.0000    -104.896750     -2854.3857
   2   2.0000     -11.307669      -307.6973
   3   2.0000     -11.303851      -307.5934
   4   2.0000     -10.619446      -288.9698
   5   2.0000     -10.619445      -288.9698
   6   2.0000      -8.086719      -220.0508
   7   2.0000      -8.086719      -220.0508
   8   2.0000      -8.084178      -219.9817
   9   2.0000      -8.084178      -219.9817
  10   2.0000      -8.084176      -219.9816
  11   2.0000      -8.084176      -219.9816
  12   2.0000      -1.207994       -32.8712
  13   2.0000      -1.184900       -32.2428
  14   2.0000      -1.015956       -27.6456
  15   2.0000      -0.717778       -19.5317
  16   2.0000      -0.668001       -18.1772
  17   2.0000      -0.576659       -15.6917
  18   2.0000      -0.576659       -15.6917
  19   2.0000      -0.528351       -14.3772
  20   2.0000      -0.528351       -14.3772
  21   2.0000      -0.384519       -10.4633
  22   2.0000      -0.384519       -10.4633
  23   0.0000       0.049324         1.3422
  24   0.0000       0.057021         1.5516
  25   0.0000       0.097088         2.6419
  26   0.0000       0.097780         2.6607
  27   0.0000       0.097780         2.6607

MULLIKEN ATOMIC CHARGES
-----------------------
   0 C :    0.186227
   1 C :    0.186227
   2 Cl:   -0.186227
   3 Cl:   -0.186227
Sum of atomic charges:   -0.0000000

LOEWDIN ATOMIC CHARGES
----------------------
   0 C :   -0.916658
   1 C :   -0.916658
   2 Cl:    0.916658
   3 Cl:    0.916658

  Mayer bond orders larger than 0.100000
B(  0-C ,  1-C ) :   2.7789 B(  0-C ,  2-Cl) :   0.8064 B(  0-C ,  3-Cl) :   0.1282
B(  1-C ,  2-Cl) :   0.1282 B(  1-C ,  3-Cl) :   0.8064

MP2 TOTAL ENERGY:     -995.384997689 Eh
FINAL SINGLE POINT ENERGY      -995.384997688666

DIPOLE MOMENT
-------------
                                X             Y             Z
Electronic contribution:      0.00000       0.00000       0.00000
Nuclear contribution   :      0.00000       0.00000       0.00000
                        -----------------------------------------
Total Dipole Moment    :      0.00000       0.00000       0.00000
                        -----------------------------------------
Magnitude (a.u.)       :      0.00000
Magnitude (Debye)      :      0.00000

Rotational constants in cm-1:     0.000000     0.046214     0.046214
Rotational constants in MHz :     0.000000  1385.474005  1385.474005

                             ****ORCA TERMINATED NORMALLY****
TOTAL RUN TIME: 0 days 0 hours 0 minutes 33 seconds 577 msec
