                         Program Version 5.0.3 -  RELEASE  -
|  1> !ri-mp2 aug-cc-pvtz aug-cc-pvtz/c tightscf
|  2> %pal nprocs 16 end
|  3>
|  4> * xyz 0 1
|  5> C      0.392398   -0.014823    0.000000
|  6> C     -0.171128    1.398319    0.000000
|  7> H      1.474917   -0.012492    0.000000
|  8> Cl    -0.171128   -0.843017    1.485142
|  9> Cl    -0.171128   -0.843017   -1.485142
| 10> O      0.536130    2.365239    0.000000
| 11> H     -1.273222    1.452187    0.000000
| 12> *
| 13>
| 14>                          ****END OF INPUT****

CARTESIAN COORDINATES (ANGSTROEM)
---------------------------------
  C      0.392398   -0.014823    0.000000
  C     -0.171128    1.398319    0.000000
  H      1.474917   -0.012492    0.000000
  Cl    -0.171128   -0.843017    1.485142
  Cl    -0.171128   -0.843017   -1.485142
  O      0.536130    2.365239    0.000000
  H     -1.273222    1.452187    0.000000

 Total Charge           Charge          ....    0
 Multiplicity           Mult            ....    1
 Number of Electrons    NEL             ....   56
 Basis Dimension        Dim             ....  284

ORBITAL ENERGIES
----------------

  NO   OCC          E(Eh)            E(eV)
   0   2.0000    -104.871822     -2853.7073
   1   2.0000    -104.871822     -2853.7073
   2   2.0000     -20.598906      -560.5247
   3   2.0000     -11.393211      -310.0250
   4   2.0000     -11.372766      -309.4687
   5   2.0000     -10.595680      -288.3231
   6   2.0000     -10.595673      -288.3229
   7   2.0000      -8.062449      -219.3904
   8   2.0000      -8.062448      -219.3904
   9   2.0000      -8.060462      -219.3363
  10   2.0000      -8.060462      -219.3363
  11   2.0000      -8.060406      -219.3348
  12   2.0000      -8.060406      -219.3348
  13   2.0000      -1.438505       -39.1437
  14   2.0000      -1.215134       -33.0655
  15   2.0000      -1.116083       -30.3702
  16   2.0000      -0.967345       -26.3228
  17   2.0000      -0.838728       -22.8230
  18   2.0000      -0.701410       -19.0863
  19   2.0000      -0.692012       -18.8306
  20   2.0000      -0.626236       -17.0407
  21   2.0000      -0.625112       -17.0102
  22   2.0000      -0.549183       -14.9440
  23   2.0000      -0.514384       -13.9971
  24   2.0000      -0.492250       -13.3948
  25   2.0000      -0.479776       -13.0554
  26   2.0000      -0.467000       -12.7077
  27   2.0000      -0.447535       -12.1781
  28   0.0000       0.034702         0.9443
  29   0.0000       0.037375         1.0170
  30   0.0000       0.059919         1.6305
  31   0.0000       0.063607         1.7308
  32   0.0000       0.084209         2.2915

MULLIKEN ATOMIC CHARGES
-----------------------
   0 C :    0.341478
   1 C :    0.024362
   2 H :    0.296193
   3 Cl:   -0.288026
   4 Cl:   -0.288026
   5 O :   -0.637488
   6 H :    0.551506
Sum of atomic charges:    0.0000000

LOEWDIN ATOMIC CHARGES
----------------------
   0 C :   -1.205373
   1 C :   -0.424649
   2 H :   -0.338355
   3 Cl:    0.872655
   4 Cl:    0.872655
   5 O :    0.437280
   6 H :   -0.214212

  Mayer bond orders larger than 0.100000
B(  0-C ,  1-C ) :   0.8552 B(  0-C ,  2-H ) :   0.9013 B(  0-C ,  3-Cl) :   0.8755
B(  0-C ,  4-Cl) :   0.8755 B(  1-C ,  5-O ) :   1.7042 B(  1-C ,  6-H ) :   0.6493

MP2 TOTAL ENERGY:    -1071.786417236 Eh
FINAL SINGLE POINT ENERGY     -1071.786417236439

DIPOLE MOMENT
-------------
                                X             Y             Z
Electronic contribution:     -0.85271      -4.03164       0.00000
Nuclear contribution   :      0.65165       3.62153       0.00000
                        -----------------------------------------
Total Dipole Moment    :     -0.20107      -0.41011       0.00000
                        -----------------------------------------
Magnitude (a.u.)       :      0.45675
Magnitude (Debye)      :      1.16097

Rotational constants in cm-1:     0.102234     0.094666     0.051715
Rotational constants in MHz :  3064.893123  2838.005765  1550.387788

                             ****ORCA TERMINATED NORMALLY****
TOTAL RUN TIME: 0 days 0 hours 1 minutes 3 seconds 439 msec
