                         Program Version 5.0.3 -  RELEASE  -
|  1> !ri-mp2 aug-cc-pvtz aug-cc-pvtz/c tightscf
|  2> %pal nprocs 16 end
|  3>
|  4> * xyz 0 1
|  5> S      0.000000   -0.857107   -0.318004
|  6> O      0.000000   -1.053613    1.137761
|  7> O      1.279962    0.121780   -0.679264
|  8> O     -1.279962    0.121780   -0.679265
|  9> C      1.785232    1.045978    0.304035
| 10> C     -1.785232    1.045978    0.304035
| 11> H      2.837899    1.182815    0.071216
| 12> H     -2.837900    1.182815    0.071215
| 13> H      1.263493    1.999548    0.224505
| 14> H      1.675420    0.638837    1.307173
| 15> H     -1.675421    0.638836    1.307172
| 16> H     -1.263493    1.999547    0.224506
| 17> *
| 18>
| 19>                          ****END OF INPUT****

CARTESIAN COORDINATES (ANGSTROEM)
---------------------------------
  S      0.000000   -0.857107   -0.318004
  O      0.000000   -1.053613    1.137761
  O      1.279962    0.121780   -0.679264
  O     -1.279962    0.121780   -0.679265
  C      1.785232    1.045978    0.304035
  C     -1.785232    1.045978    0.304035
  H      2.837899    1.182815    0.071216
  H     -2.837900    1.182815    0.071215
  H      1.263493    1.999548    0.224505
  H      1.675420    0.638837    1.307173
  H     -1.675421    0.638836    1.307172
  H     -1.263493    1.999547    0.224506

 Total Charge           Charge          ....    0
 Multiplicity           Mult            ....    1
 Number of Electrons    NEL             ....   58
 Basis Dimension        Dim             ....  418

ORBITAL ENERGIES
----------------

  NO   OCC          E(Eh)            E(eV)
   0   2.0000     -92.167338     -2508.0008
   1   2.0000     -20.607609      -560.7615
   2   2.0000     -20.607592      -560.7611
   3   2.0000     -20.551349      -559.2306
   4   2.0000     -11.293968      -307.3245
   5   2.0000     -11.293966      -307.3245
   6   2.0000      -9.140638      -248.7294
   7   2.0000      -6.821872      -185.6326
   8   2.0000      -6.821651      -185.6265
   9   2.0000      -6.819312      -185.5629
  10   2.0000      -1.464594       -39.8536
  11   2.0000      -1.381642       -37.5964
  12   2.0000      -1.347548       -36.6687
  13   2.0000      -1.008118       -27.4323
  14   2.0000      -0.951258       -25.8850
  15   2.0000      -0.842611       -22.9286
  16   2.0000      -0.724053       -19.7025
  17   2.0000      -0.700819       -19.0703
  18   2.0000      -0.675195       -18.3730
  19   2.0000      -0.650607       -17.7039
  20   2.0000      -0.635147       -17.2832
  21   2.0000      -0.633125       -17.2282
  22   2.0000      -0.566373       -15.4118
  23   2.0000      -0.540871       -14.7179
  24   2.0000      -0.525081       -14.2882
  25   2.0000      -0.505960       -13.7679
  26   2.0000      -0.481727       -13.1084
  27   2.0000      -0.470641       -12.8068
  28   2.0000      -0.427614       -11.6360
  29   0.0000       0.027126         0.7381
  30   0.0000       0.035174         0.9571
  31   0.0000       0.046641         1.2692
  32   0.0000       0.048932         1.3315
  33   0.0000       0.062080         1.6893

MULLIKEN ATOMIC CHARGES
-----------------------
   0 S :    1.212292
   1 O :   -0.844989
   2 O :   -0.549818
   3 O :   -0.549818
   4 C :   -0.764485
   5 C :   -0.764485
   6 H :    0.333095
   7 H :    0.333094
   8 H :    0.383400
   9 H :    0.414157
  10 H :    0.414157
  11 H :    0.383401
Sum of atomic charges:   -0.0000000

LOEWDIN ATOMIC CHARGES
----------------------
   0 S :    0.458507
   1 O :   -0.120563
   2 O :    0.196142
   3 O :    0.196142
   4 C :    0.261633
   5 C :    0.261634
   6 H :   -0.195509
   7 H :   -0.195508
   8 H :   -0.200012
   9 H :   -0.231226
  10 H :   -0.231227
  11 H :   -0.200013

  Mayer bond orders larger than 0.100000
B(  0-S ,  1-O ) :   1.5368 B(  0-S ,  2-O ) :   0.8153 B(  0-S ,  3-O ) :   0.8153
B(  2-O ,  4-C ) :   0.7315 B(  3-O ,  5-C ) :   0.7315 B(  4-C ,  6-H ) :   0.9258
B(  4-C ,  8-H ) :   0.8401 B(  4-C ,  9-H ) :   0.8453 B(  5-C ,  7-H ) :   0.9258
B(  5-C , 10-H ) :   0.8453 B(  5-C , 11-H ) :   0.8401

MP2 TOTAL ENERGY:     -702.701411006 Eh
FINAL SINGLE POINT ENERGY      -702.701411005674

DIPOLE MOMENT
-------------
                                X             Y             Z
Electronic contribution:      0.00000      -6.54522      -3.09788
Nuclear contribution   :     -0.00000       7.57274       3.17715
                        -----------------------------------------
Total Dipole Moment    :     -0.00000       1.02752       0.07928
                        -----------------------------------------
Magnitude (a.u.)       :      1.03057
Magnitude (Debye)      :      2.61951

Rotational constants in cm-1:     0.136335     0.085030     0.072170
Rotational constants in MHz :  4087.234852  2549.135686  2163.590000

                             ****ORCA TERMINATED NORMALLY****
TOTAL RUN TIME: 0 days 0 hours 2 minutes 30 seconds 329 msec
