                         Program Version 5.0.3 -  RELEASE  -
|  1> !ri-mp2 aug-cc-pvtz aug-cc-pvtz/c tightscf
|  2> %pal nprocs 16 end
|  3> %maxcore 3800
|  4>
|  5> * xyz 0 1
|  6> C     -4.175993    0.207367   -0.005507
|  7> C     -5.448491   -0.614286    0.019396
|  8> C      6.054156    0.386362    0.006408
|  9> C     -2.871799   -0.571984   -0.012818
| 10> C      4.792505   -0.475092   -0.009332
| 11> C     -1.613136    0.286980    0.008336
| 12> C      3.501105    0.343620    0.008693
| 13> C     -0.327445   -0.540456   -0.008111
| 14> C      2.232016   -0.508852   -0.007095
| 15> C      0.941983    0.311836    0.009646
| 16> O     -4.204668    1.417596   -0.016635
| 17> H     -5.462714   -1.326538   -0.807857
| 18> H     -5.497683   -1.198360    0.941164
| 19> H     -6.314776    0.039007   -0.041572
| 20> H      6.089348    1.049308   -0.860580
| 21> H      6.956755   -0.226164   -0.008139
| 22> H      6.092680    1.012377    0.900299
| 23> H     -2.890569   -1.259757    0.840286
| 24> H     -2.883947   -1.221971   -0.895528
| 25> H      4.801833   -1.150837    0.851256
| 26> H      4.799527   -1.115634   -0.896480
| 27> H     -1.631210    0.927231    0.893082
| 28> H     -1.629208    0.965732   -0.846946
| 29> H      3.492536    1.020304   -0.852403
| 30> H      3.494509    0.985345    0.896184
| 31> H     -0.318063   -1.217877    0.852696
| 32> H     -0.317710   -1.181637   -0.896260
| 33> H      2.240008   -1.150711   -0.894489
| 34> H      2.241093   -1.184885    0.854517
| 35> H      0.932828    0.988464   -0.851005
| 36> H      0.932699    0.952874    0.897157
| 37> *
| 38>
| 39>                          ****END OF INPUT****

CARTESIAN COORDINATES (ANGSTROEM)
---------------------------------
  C     -4.175993    0.207367   -0.005507
  C     -5.448491   -0.614286    0.019396
  C      6.054156    0.386362    0.006408
  C     -2.871799   -0.571984   -0.012818
  C      4.792505   -0.475092   -0.009332
  C     -1.613136    0.286980    0.008336
  C      3.501105    0.343620    0.008693
  C     -0.327445   -0.540456   -0.008111
  C      2.232016   -0.508852   -0.007095
  C      0.941983    0.311836    0.009646
  O     -4.204668    1.417596   -0.016635
  H     -5.462714   -1.326538   -0.807857
  H     -5.497683   -1.198360    0.941164
  H     -6.314776    0.039007   -0.041572
  H      6.089348    1.049308   -0.860580
  H      6.956755   -0.226164   -0.008139
  H      6.092680    1.012377    0.900299
  H     -2.890569   -1.259757    0.840286
  H     -2.883947   -1.221971   -0.895528
  H      4.801833   -1.150837    0.851256
  H      4.799527   -1.115634   -0.896480
  H     -1.631210    0.927231    0.893082
  H     -1.629208    0.965732   -0.846946
  H      3.492536    1.020304   -0.852403
  H      3.494509    0.985345    0.896184
  H     -0.318063   -1.217877    0.852696
  H     -0.317710   -1.181637   -0.896260
  H      2.240008   -1.150711   -0.894489
  H      2.241093   -1.184885    0.854517
  H      0.932828    0.988464   -0.851005
  H      0.932699    0.952874    0.897157

 Total Charge           Charge          ....    0
 Multiplicity           Mult            ....    1
 Number of Electrons    NEL             ....   88
 Basis Dimension        Dim             ....  966

ORBITAL ENERGIES
----------------

  NO   OCC          E(Eh)            E(eV)
   0   2.0000     -20.542695      -558.9952
   1   2.0000     -11.327958      -308.2494
   2   2.0000     -11.235845      -305.7429
   3   2.0000     -11.232767      -305.6591
   4   2.0000     -11.218888      -305.2815
   5   2.0000     -11.218275      -305.2648
   6   2.0000     -11.215452      -305.1880
   7   2.0000     -11.214998      -305.1756
   8   2.0000     -11.214286      -305.1562
   9   2.0000     -11.213191      -305.1264
  10   2.0000     -11.209210      -305.0181
  11   2.0000      -1.385093       -37.6903
  12   2.0000      -1.096551       -29.8387
  13   2.0000      -1.072576       -29.1863
  14   2.0000      -1.036538       -28.2056
  15   2.0000      -1.003906       -27.3177
  16   2.0000      -0.958001       -26.0685
  17   2.0000      -0.892988       -24.2995
  18   2.0000      -0.827708       -22.5231
  19   2.0000      -0.790674       -21.5153
  20   2.0000      -0.786288       -21.3960
  21   2.0000      -0.731772       -19.9125
  22   2.0000      -0.662303       -18.0222
  23   2.0000      -0.650029       -17.6882
  24   2.0000      -0.642329       -17.4787
  25   2.0000      -0.623802       -16.9745
  26   2.0000      -0.613005       -16.6807
  27   2.0000      -0.587872       -15.9968
  28   2.0000      -0.583890       -15.8885
  29   2.0000      -0.572226       -15.5711
  30   2.0000      -0.555057       -15.1039
  31   2.0000      -0.550646       -14.9838
  32   2.0000      -0.539098       -14.6696
  33   2.0000      -0.511487       -13.9183
  34   2.0000      -0.508713       -13.8428
  35   2.0000      -0.497730       -13.5439
  36   2.0000      -0.487555       -13.2670
  37   2.0000      -0.476557       -12.9678
  38   2.0000      -0.472989       -12.8707
  39   2.0000      -0.463209       -12.6046
  40   2.0000      -0.459017       -12.4905
  41   2.0000      -0.458553       -12.4778
  42   2.0000      -0.440220       -11.9790
  43   2.0000      -0.405149       -11.0247
  44   0.0000       0.024925         0.6782
  45   0.0000       0.029706         0.8083
  46   0.0000       0.034800         0.9469
  47   0.0000       0.035571         0.9679
  48   0.0000       0.038944         1.0597

MULLIKEN ATOMIC CHARGES
-----------------------
   0 C :    0.446717
   1 C :   -0.891806
   2 C :   -1.011393
   3 C :   -0.301945
   4 C :   -0.521422
   5 C :   -0.354009
   6 C :   -0.324573
   7 C :   -0.258433
   8 C :   -0.360054
   9 C :   -0.326296
  10 O :   -0.874278
  11 H :    0.307632
  12 H :    0.309702
  13 H :    0.313637
  14 H :    0.260402
  15 H :    0.273911
  16 H :    0.260412
  17 H :    0.214480
  18 H :    0.214848
  19 H :    0.222422
  20 H :    0.222080
  21 H :    0.208270
  22 H :    0.211794
  23 H :    0.223761
  24 H :    0.222999
  25 H :    0.223018
  26 H :    0.223509
  27 H :    0.211352
  28 H :    0.210943
  29 H :    0.220588
  30 H :    0.221734
Sum of atomic charges:   -0.0000000

LOEWDIN ATOMIC CHARGES
----------------------
   0 C :   -0.508240
   1 C :    0.589225
   2 C :    0.577776
   3 C :    0.273726
   4 C :    0.256280
   5 C :    0.269108
   6 C :    0.269722
   7 C :    0.279272
   8 C :    0.277655
   9 C :    0.281734
  10 O :    0.474447
  11 H :   -0.174257
  12 H :   -0.172564
  13 H :   -0.182985
  14 H :   -0.171771
  15 H :   -0.174431
  16 H :   -0.171754
  17 H :   -0.145909
  18 H :   -0.145816
  19 H :   -0.148354
  20 H :   -0.148350
  21 H :   -0.141233
  22 H :   -0.142504
  23 H :   -0.141394
  24 H :   -0.141308
  25 H :   -0.140125
  26 H :   -0.140200
  27 H :   -0.140302
  28 H :   -0.140284
  29 H :   -0.138620
  30 H :   -0.138545

  Mayer bond orders larger than 0.100000
B(  0-C ,  1-C ) :   0.9551 B(  0-C ,  3-C ) :   0.7752 B(  0-C , 10-O ) :   1.1785
B(  1-C , 11-H ) :   0.9423 B(  1-C , 12-H ) :   0.9361 B(  1-C , 13-H ) :   0.9463
B(  2-C ,  4-C ) :   0.9363 B(  2-C , 14-H ) :   0.9742 B(  2-C , 15-H ) :   0.9935
B(  2-C , 16-H ) :   0.9743 B(  3-C ,  5-C ) :   1.0461 B(  3-C , 17-H ) :   0.9725
B(  3-C , 18-H ) :   0.9695 B(  4-C ,  6-C ) :   0.9139 B(  4-C , 19-H ) :   0.9798
B(  4-C , 20-H ) :   0.9801 B(  5-C ,  7-C ) :   0.9040 B(  5-C , 21-H ) :   0.9792
B(  5-C , 22-H ) :   0.9793 B(  6-C ,  8-C ) :   0.9860 B(  6-C , 23-H ) :   0.9694
B(  6-C , 24-H ) :   0.9701 B(  7-C ,  9-C ) :   0.9374 B(  7-C , 25-H ) :   0.9568
B(  7-C , 26-H ) :   0.9585 B(  8-C ,  9-C ) :   0.9598 B(  8-C , 27-H ) :   0.9640
B(  8-C , 28-H ) :   0.9651 B(  9-C , 29-H ) :   0.9536 B(  9-C , 30-H ) :   0.9537

MP2 TOTAL ENERGY:     -467.365090067 Eh
FINAL SINGLE POINT ENERGY      -467.365090066699

DIPOLE MOMENT
-------------
                                X             Y             Z
Electronic contribution:    -15.81904       3.27282      -0.06594
Nuclear contribution   :     15.92924      -4.51742       0.07945
                        -----------------------------------------
Total Dipole Moment    :      0.11020      -1.24461       0.01350
                        -----------------------------------------
Magnitude (a.u.)       :      1.24955
Magnitude (Debye)      :      3.17611

Rotational constants in cm-1:     0.183460     0.007470     0.007264
Rotational constants in MHz :  5499.999583   223.956673   217.769924

                             ****ORCA TERMINATED NORMALLY****
TOTAL RUN TIME: 0 days 0 hours 28 minutes 37 seconds 440 msec
