                         Program Version 5.0.3 -  RELEASE  -
|  1> !ri-mp2 aug-cc-pvtz aug-cc-pvtz/c tightscf
|  2> %pal nprocs 16 end
|  3>
|  4> * xyz 0 1
|  5> N     -1.948870   -0.047511    0.054375
|  6> N      1.948870   -0.047536   -0.054353
|  7> C     -0.602828    0.001551    0.003804
|  8> C      0.602828    0.001550   -0.003806
|  9> H     -2.420980   -0.433572   -0.748716
| 10> H     -2.421589    0.756865    0.436515
| 11> H      2.420977   -0.433234    0.748914
| 12> H      2.421590    0.756668   -0.436853
| 13> *
| 14>
| 15>                          ****END OF INPUT****

CARTESIAN COORDINATES (ANGSTROEM)
---------------------------------
  N     -1.948870   -0.047511    0.054375
  N      1.948870   -0.047536   -0.054353
  C     -0.602828    0.001551    0.003804
  C      0.602828    0.001550   -0.003806
  H     -2.420980   -0.433572   -0.748716
  H     -2.421589    0.756865    0.436515
  H      2.420977   -0.433234    0.748914
  H      2.421590    0.756668   -0.436853

 Total Charge           Charge          ....    0
 Multiplicity           Mult            ....    1
 Number of Electrons    NEL             ....   30
 Basis Dimension        Dim             ....  276

ORBITAL ENERGIES
----------------

  NO   OCC          E(Eh)            E(eV)
   0   2.0000     -15.578113      -423.9020
   1   2.0000     -15.578112      -423.9020
   2   2.0000     -11.235894      -305.7442
   3   2.0000     -11.232248      -305.6450
   4   2.0000      -1.218006       -33.1436
   5   2.0000      -1.203413       -32.7465
   6   2.0000      -0.970165       -26.3995
   7   2.0000      -0.748460       -20.3666
   8   2.0000      -0.696240       -18.9456
   9   2.0000      -0.691018       -18.8036
  10   2.0000      -0.690635       -18.7931
  11   2.0000      -0.506232       -13.7753
  12   2.0000      -0.505288       -13.7496
  13   2.0000      -0.328146        -8.9293
  14   2.0000      -0.327893        -8.9224
  15   0.0000       0.025484         0.6935
  16   0.0000       0.032484         0.8839
  17   0.0000       0.049037         1.3344
  18   0.0000       0.049109         1.3363
  19   0.0000       0.099479         2.7070

MULLIKEN ATOMIC CHARGES
-----------------------
   0 N :   -0.547527
   1 N :   -0.547525
   2 C :    0.171961
   3 C :    0.171959
   4 H :    0.190313
   5 H :    0.185253
   6 H :    0.190313
   7 H :    0.185253
Sum of atomic charges:    0.0000000

LOEWDIN ATOMIC CHARGES
----------------------
   0 N :    0.737055
   1 N :    0.737056
   2 C :   -0.085767
   3 C :   -0.085767
   4 H :   -0.325162
   5 H :   -0.326127
   6 H :   -0.325162
   7 H :   -0.326127

  Mayer bond orders larger than 0.100000
B(  0-N ,  2-C ) :   0.6900 B(  0-N ,  4-H ) :   0.9758 B(  0-N ,  5-H ) :   0.9776
B(  1-N ,  3-C ) :   0.6900 B(  1-N ,  6-H ) :   0.9758 B(  1-N ,  7-H ) :   0.9776
B(  2-C ,  3-C ) :   2.6282

MP2 TOTAL ENERGY:     -187.690228354 Eh
FINAL SINGLE POINT ENERGY      -187.690228353749

DIPOLE MOMENT
-------------
                                X             Y             Z
Electronic contribution:      0.00000      -0.14779       0.00003
Nuclear contribution   :     -0.00000       0.64933      -0.00014
                        -----------------------------------------
Total Dipole Moment    :     -0.00000       0.50154      -0.00011
                        -----------------------------------------
Magnitude (a.u.)       :      0.50154
Magnitude (Debye)      :      1.27481

Rotational constants in cm-1:     5.316529     0.120098     0.120092
Rotational constants in MHz : 159385.534109  3600.453332  3600.257975

                             ****ORCA TERMINATED NORMALLY****
TOTAL RUN TIME: 0 days 0 hours 0 minutes 45 seconds 800 msec
