                         Program Version 5.0.3 -  RELEASE  -
|  1> !ri-mp2 aug-cc-pvtz aug-cc-pvtz/c tightscf
|  2> %pal nprocs 16 end
|  3>
|  4> * xyz 0 1
|  5> C      0.000000    2.489253    0.832738
|  6> C      0.000000   -2.489253    0.832738
|  7> C      0.000000    2.874720   -0.476647
|  8> C      0.000000   -2.874720   -0.476647
|  9> C      0.000000    1.073622    0.774661
| 10> C      0.000000   -1.073622    0.774661
| 11> C      0.000000    0.706341   -0.549010
| 12> C      0.000000   -0.706341   -0.549010
| 13> O      0.000000    1.799140   -1.343744
| 14> O      0.000000   -1.799140   -1.343744
| 15> O      0.000000    0.000000    1.629823
| 16> H      0.000000    3.143332    1.686236
| 17> H      0.000000   -3.143332    1.686236
| 18> H      0.000000    3.840540   -0.946024
| 19> H      0.000000   -3.840540   -0.946024
| 20> *
| 21>
| 22>                          ****END OF INPUT****

CARTESIAN COORDINATES (ANGSTROEM)
---------------------------------
  C      0.000000    2.489253    0.832738
  C      0.000000   -2.489253    0.832738
  C      0.000000    2.874720   -0.476647
  C      0.000000   -2.874720   -0.476647
  C      0.000000    1.073622    0.774661
  C      0.000000   -1.073622    0.774661
  C      0.000000    0.706341   -0.549010
  C      0.000000   -0.706341   -0.549010
  O      0.000000    1.799140   -1.343744
  O      0.000000   -1.799140   -1.343744
  O      0.000000    0.000000    1.629823
  H      0.000000    3.143332    1.686236
  H      0.000000   -3.143332    1.686236
  H      0.000000    3.840540   -0.946024
  H      0.000000   -3.840540   -0.946024

 Total Charge           Charge          ....    0
 Multiplicity           Mult            ....    1
 Number of Electrons    NEL             ....   76
 Basis Dimension        Dim             ....  598

ORBITAL ENERGIES
----------------

  NO   OCC          E(Eh)            E(eV)
   0   2.0000     -20.639292      -561.6237
   1   2.0000     -20.639291      -561.6237
   2   2.0000     -20.636190      -561.5393
   3   2.0000     -11.305469      -307.6374
   4   2.0000     -11.305468      -307.6374
   5   2.0000     -11.301423      -307.5274
   6   2.0000     -11.300431      -307.5004
   7   2.0000     -11.294017      -307.3258
   8   2.0000     -11.293991      -307.3251
   9   2.0000     -11.253601      -306.2260
  10   2.0000     -11.253599      -306.2260
  11   2.0000      -1.482211       -40.3330
  12   2.0000      -1.466041       -39.8930
  13   2.0000      -1.450526       -39.4708
  14   2.0000      -1.108371       -30.1603
  15   2.0000      -1.105047       -30.0699
  16   2.0000      -1.069646       -29.1065
  17   2.0000      -0.976055       -26.5598
  18   2.0000      -0.863033       -23.4843
  19   2.0000      -0.832041       -22.6410
  20   2.0000      -0.800536       -21.7837
  21   2.0000      -0.788003       -21.4427
  22   2.0000      -0.725066       -19.7300
  23   2.0000      -0.698669       -19.0118
  24   2.0000      -0.688440       -18.7334
  25   2.0000      -0.652658       -17.7597
  26   2.0000      -0.638824       -17.3833
  27   2.0000      -0.626867       -17.0579
  28   2.0000      -0.620400       -16.8819
  29   2.0000      -0.612426       -16.6649
  30   2.0000      -0.592676       -16.1275
  31   2.0000      -0.587357       -15.9828
  32   2.0000      -0.538661       -14.6577
  33   2.0000      -0.517858       -14.0916
  34   2.0000      -0.419537       -11.4162
  35   2.0000      -0.389273       -10.5926
  36   2.0000      -0.384194       -10.4544
  37   2.0000      -0.269334        -7.3290
  38   0.0000       0.028236         0.7683
  39   0.0000       0.028520         0.7761
  40   0.0000       0.036173         0.9843
  41   0.0000       0.041906         1.1403
  42   0.0000       0.067354         1.8328

MULLIKEN ATOMIC CHARGES
-----------------------
   0 C :   -0.752075
   1 C :   -0.752068
   2 C :   -0.688428
   3 C :   -0.688436
   4 C :    0.686636
   5 C :    0.686627
   6 C :    0.461655
   7 C :    0.461660
   8 O :   -0.625813
   9 O :   -0.625812
  10 O :   -0.647258
  11 H :    0.443008
  12 H :    0.443009
  13 H :    0.798648
  14 H :    0.798648
Sum of atomic charges:   -0.0000000

LOEWDIN ATOMIC CHARGES
----------------------
   0 C :    0.234592
   1 C :    0.234592
   2 C :   -0.000963
   3 C :   -0.000963
   4 C :   -0.392330
   5 C :   -0.392330
   6 C :   -0.349896
   7 C :   -0.349896
   8 O :    0.586708
   9 O :    0.586708
  10 O :    0.615205
  11 H :   -0.190115
  12 H :   -0.190115
  13 H :   -0.195599
  14 H :   -0.195599

  Mayer bond orders larger than 0.100000
B(  0-C ,  2-C ) :   1.4399 B(  0-C ,  4-C ) :   0.9073 B(  0-C , 11-H ) :   0.9636
B(  1-C ,  3-C ) :   1.4399 B(  1-C ,  5-C ) :   0.9073 B(  1-C , 12-H ) :   0.9636
B(  2-C ,  4-C ) :  -0.1773 B(  2-C ,  6-C ) :  -0.2399 B(  2-C ,  8-O ) :   1.2792
B(  2-C , 13-H ) :   0.2433 B(  3-C ,  5-C ) :  -0.1773 B(  3-C ,  7-C ) :  -0.2399
B(  3-C ,  9-O ) :   1.2792 B(  3-C , 14-H ) :   0.2433 B(  4-C ,  6-C ) :   1.5985
B(  4-C ,  7-C ) :  -0.1253 B(  4-C ,  8-O ) :  -0.1156 B(  4-C , 10-O ) :   0.9032
B(  5-C ,  6-C ) :  -0.1253 B(  5-C ,  7-C ) :   1.5985 B(  5-C ,  9-O ) :  -0.1156
B(  5-C , 10-O ) :   0.9032 B(  6-C ,  7-C ) :   1.0520 B(  6-C ,  8-O ) :   0.7877
B(  7-C ,  9-O ) :   0.7877

MP2 TOTAL ENERGY:     -531.898324428 Eh
FINAL SINGLE POINT ENERGY      -531.898324427715

DIPOLE MOMENT
-------------
                                X             Y             Z
Electronic contribution:     -0.00000      -0.00000      -1.06025
Nuclear contribution   :      0.00000       0.00000       1.41055
                        -----------------------------------------
Total Dipole Moment    :     -0.00000      -0.00000       0.35030
                        -----------------------------------------
Magnitude (a.u.)       :      0.35030
Magnitude (Debye)      :      0.89040

Rotational constants in cm-1:     0.111220     0.031202     0.024366
Rotational constants in MHz :  3334.303864   935.418397   730.485260

                             ****ORCA TERMINATED NORMALLY****
TOTAL RUN TIME: 0 days 0 hours 8 minutes 22 seconds 939 msec
