                         Program Version 5.0.3 -  RELEASE  -
|  1> !ri-mp2 aug-cc-pvtz aug-cc-pvtz/c tightscf
|  2> %pal nprocs 16 end
|  3>
|  4> * xyz 0 1
|  5> C     0.000000     0.728728    0.184208
|  6> C    -0.763274     1.830763   -0.441725
|  7> C     0.763274     1.830763   -0.441725
|  8> C     0.000000    -0.728728    0.184208
|  9> C     0.000000     0.000000    1.493939
| 10> C    -0.763274    -1.830763   -0.441725
| 11> C     0.763274    -1.830763   -0.441725
| 12> H    -1.265756     2.542902    0.199945
| 13> H    -1.265398     1.641386   -1.381956
| 14> H     1.265756     2.542902    0.199945
| 15> H     1.265398     1.641386   -1.381956
| 16> H    -0.913191     0.000000    2.077660
| 17> H     0.913191     0.000000    2.077660
| 18> H    -1.265398    -1.641386   -1.381956
| 19> H    -1.265756    -2.542902    0.199945
| 20> H     1.265398    -1.641386   -1.381956
| 21> H     1.265756    -2.542902    0.199945
| 22> *
| 23>
| 24>                          ****END OF INPUT****

CARTESIAN COORDINATES (ANGSTROEM)
---------------------------------
  C      0.000000    0.728728    0.184208
  C     -0.763274    1.830763   -0.441725
  C      0.763274    1.830763   -0.441725
  C      0.000000   -0.728728    0.184208
  C      0.000000    0.000000    1.493939
  C     -0.763274   -1.830763   -0.441725
  C      0.763274   -1.830763   -0.441725
  H     -1.265756    2.542902    0.199945
  H     -1.265398    1.641386   -1.381956
  H      1.265756    2.542902    0.199945
  H      1.265398    1.641386   -1.381956
  H     -0.913191    0.000000    2.077660
  H      0.913191    0.000000    2.077660
  H     -1.265398   -1.641386   -1.381956
  H     -1.265756   -2.542902    0.199945
  H      1.265398   -1.641386   -1.381956
  H      1.265756   -2.542902    0.199945

 Total Charge           Charge          ....    0
 Multiplicity           Mult            ....    1
 Number of Electrons    NEL             ....   52
 Basis Dimension        Dim             ....  552

ORBITAL ENERGIES
----------------

  NO   OCC          E(Eh)            E(eV)
   0   2.0000     -11.236061      -305.7488
   1   2.0000     -11.235229      -305.7261
   2   2.0000     -11.224294      -305.4286
   3   2.0000     -11.224123      -305.4239
   4   2.0000     -11.224118      -305.4238
   5   2.0000     -11.223538      -305.4080
   6   2.0000     -11.223532      -305.4078
   7   2.0000      -1.187674       -32.3183
   8   2.0000      -1.114299       -30.3216
   9   2.0000      -1.025652       -27.9094
  10   2.0000      -0.830308       -22.5938
  11   2.0000      -0.816950       -22.2303
  12   2.0000      -0.783954       -21.3325
  13   2.0000      -0.716294       -19.4914
  14   2.0000      -0.665561       -18.1108
  15   2.0000      -0.644157       -17.5284
  16   2.0000      -0.633218       -17.2307
  17   2.0000      -0.603004       -16.4086
  18   2.0000      -0.516799       -14.0628
  19   2.0000      -0.511180       -13.9099
  20   2.0000      -0.508990       -13.8503
  21   2.0000      -0.457805       -12.4575
  22   2.0000      -0.445526       -12.1234
  23   2.0000      -0.391754       -10.6602
  24   2.0000      -0.386620       -10.5205
  25   2.0000      -0.378948       -10.3117
  26   0.0000       0.031583         0.8594
  27   0.0000       0.033985         0.9248
  28   0.0000       0.037900         1.0313
  29   0.0000       0.038029         1.0348
  30   0.0000       0.049946         1.3591

MULLIKEN ATOMIC CHARGES
-----------------------
   0 C :    1.340913
   1 C :   -1.208129
   2 C :   -1.208129
   3 C :    1.340913
   4 C :   -0.909993
   5 C :   -1.208129
   6 C :   -1.208129
   7 H :    0.298917
   8 H :    0.314711
   9 H :    0.298917
  10 H :    0.314711
  11 H :    0.303086
  12 H :    0.303086
  13 H :    0.314711
  14 H :    0.298917
  15 H :    0.314711
  16 H :    0.298917
Sum of atomic charges:    0.0000000

LOEWDIN ATOMIC CHARGES
----------------------
   0 C :   -0.242798
   1 C :    0.401727
   2 C :    0.401727
   3 C :   -0.242798
   4 C :    0.446051
   5 C :    0.401727
   6 C :    0.401727
   7 H :   -0.158188
   8 H :   -0.157583
   9 H :   -0.158188
  10 H :   -0.157583
  11 H :   -0.152140
  12 H :   -0.152140
  13 H :   -0.157583
  14 H :   -0.158188
  15 H :   -0.157583
  16 H :   -0.158188

  Mayer bond orders larger than 0.100000
B(  0-C ,  3-C ) :  -0.1643 B(  0-C ,  4-C ) :   0.7769 B(  0-C ,  5-C ) :  -0.1804
B(  0-C ,  6-C ) :  -0.1804 B(  1-C ,  2-C ) :   1.5517 B(  1-C ,  3-C ) :  -0.1804
B(  1-C ,  7-H ) :   0.9667 B(  1-C ,  8-H ) :   0.9252 B(  2-C ,  3-C ) :  -0.1804
B(  2-C ,  9-H ) :   0.9667 B(  2-C , 10-H ) :   0.9252 B(  3-C ,  4-C ) :   0.7769
B(  4-C , 11-H ) :   0.9568 B(  4-C , 12-H ) :   0.9568 B(  5-C ,  6-C ) :   1.5517
B(  5-C , 13-H ) :   0.9252 B(  5-C , 14-H ) :   0.9667 B(  6-C , 15-H ) :   0.9252
B(  6-C , 16-H ) :   0.9667

MP2 TOTAL ENERGY:     -272.045442014 Eh
FINAL SINGLE POINT ENERGY      -272.045442013545

DIPOLE MOMENT
-------------
                                X             Y             Z
Electronic contribution:      0.00000      -0.00000       0.60156
Nuclear contribution   :     -0.00000       0.00000      -0.59403
                        -----------------------------------------
Total Dipole Moment    :      0.00000      -0.00000       0.00753
                        -----------------------------------------
Magnitude (a.u.)       :      0.00753
Magnitude (Debye)      :      0.01914

Rotational constants in cm-1:     0.175338     0.066550     0.063788
Rotational constants in MHz :  5256.496589  1995.121547  1912.306653

                             ****ORCA TERMINATED NORMALLY****
TOTAL RUN TIME: 0 days 0 hours 5 minutes 56 seconds 283 msec
