                         Program Version 5.0.3 -  RELEASE  -
|  1> !ri-mp2 aug-cc-pvtz aug-cc-pvtz/c tightscf
|  2> %pal nprocs 16 end
|  3>
|  4> * xyz 0 1
|  5> O      1.240989    2.316707   -0.287642
|  6> N      0.074392    0.539266    0.153552
|  7> N      0.338574    1.835872    0.364116
|  8> C     -1.018081   -0.017513    0.938595
|  9> C      0.805026   -0.270810   -0.823168
| 10> C     -2.168330   -0.409668    0.125287
| 11> C      1.525451   -1.378278   -0.205251
| 12> C     -3.106676   -0.740595   -0.542391
| 13> C      2.105048   -2.294984    0.304845
| 14> H     -0.653615   -0.880360    1.501749
| 15> H     -1.300451    0.756689    1.652149
| 16> H      1.494721    0.413664   -1.317408
| 17> H      0.099799   -0.648227   -1.567386
| 18> H     -3.943385   -1.027237   -1.129310
| 19> H      2.629621   -3.103060    0.750177
| 20> *
| 21>
| 22>                          ****END OF INPUT****

CARTESIAN COORDINATES (ANGSTROEM)
---------------------------------
  O      1.240989    2.316707   -0.287642
  N      0.074392    0.539266    0.153552
  N      0.338574    1.835872    0.364116
  C     -1.018081   -0.017513    0.938595
  C      0.805026   -0.270810   -0.823168
  C     -2.168330   -0.409668    0.125287
  C      1.525451   -1.378278   -0.205251
  C     -3.106676   -0.740595   -0.542391
  C      2.105048   -2.294984    0.304845
  H     -0.653615   -0.880360    1.501749
  H     -1.300451    0.756689    1.652149
  H      1.494721    0.413664   -1.317408
  H      0.099799   -0.648227   -1.567386
  H     -3.943385   -1.027237   -1.129310
  H      2.629621   -3.103060    0.750177

 Total Charge           Charge          ....    0
 Multiplicity           Mult            ....    1
 Number of Electrons    NEL             ....   64
 Basis Dimension        Dim             ....  552

ORBITAL ENERGIES
----------------

  NO   OCC          E(Eh)            E(eV)
   0   2.0000     -20.592173      -560.3415
   1   2.0000     -15.739503      -428.2937
   2   2.0000     -15.644608      -425.7114
   3   2.0000     -11.315464      -307.9094
   4   2.0000     -11.308787      -307.7278
   5   2.0000     -11.252947      -306.2083
   6   2.0000     -11.251632      -306.1725
   7   2.0000     -11.245104      -305.9948
   8   2.0000     -11.242456      -305.9228
   9   2.0000      -1.525310       -41.5058
  10   2.0000      -1.300434       -35.3866
  11   2.0000      -1.089429       -29.6449
  12   2.0000      -1.078251       -29.3407
  13   2.0000      -1.003575       -27.3087
  14   2.0000      -0.993500       -27.0345
  15   2.0000      -0.842605       -22.9284
  16   2.0000      -0.766755       -20.8645
  17   2.0000      -0.740236       -20.1428
  18   2.0000      -0.733578       -19.9617
  19   2.0000      -0.714790       -19.4504
  20   2.0000      -0.700688       -19.0667
  21   2.0000      -0.645157       -17.5556
  22   2.0000      -0.619612       -16.8605
  23   2.0000      -0.610967       -16.6253
  24   2.0000      -0.600731       -16.3467
  25   2.0000      -0.588897       -16.0247
  26   2.0000      -0.438843       -11.9415
  27   2.0000      -0.423180       -11.5153
  28   2.0000      -0.412320       -11.2198
  29   2.0000      -0.408386       -11.1127
  30   2.0000      -0.406355       -11.0575
  31   2.0000      -0.399446       -10.8695
  32   0.0000       0.024427         0.6647
  33   0.0000       0.027407         0.7458
  34   0.0000       0.038040         1.0351
  35   0.0000       0.042430         1.1546
  36   0.0000       0.051361         1.3976

MULLIKEN ATOMIC CHARGES
-----------------------
   0 O :   -0.532200
   1 N :    0.292209
   2 N :   -0.090405
   3 C :   -0.276920
   4 C :   -0.295836
   5 C :    1.019817
   6 C :    1.047356
   7 C :   -1.775863
   8 C :   -1.786335
   9 H :    0.310190
  10 H :    0.424401
  11 H :    0.486968
  12 H :    0.294358
  13 H :    0.446523
  14 H :    0.435737
Sum of atomic charges:    0.0000000

LOEWDIN ATOMIC CHARGES
----------------------
   0 O :    0.262701
   1 N :    0.058320
   2 N :   -0.113048
   3 C :    0.095124
   4 C :    0.110709
   5 C :    0.033083
   6 C :    0.031618
   7 C :    0.407817
   8 C :    0.408613
   9 H :   -0.159390
  10 H :   -0.175341
  11 H :   -0.215739
  12 H :   -0.156170
  13 H :   -0.293693
  14 H :   -0.294603

  Mayer bond orders larger than 0.100000
B(  0-O ,  1-N ) :   0.1868 B(  0-O ,  2-N ) :   1.1829 B(  1-N ,  2-N ) :   0.8553
B(  1-N ,  3-C ) :   1.0507 B(  1-N ,  4-C ) :   1.0311 B(  3-C ,  5-C ) :   0.9493
B(  3-C ,  7-C ) :  -0.1522 B(  3-C ,  9-H ) :   0.9201 B(  3-C , 10-H ) :   0.8089
B(  4-C ,  6-C ) :   0.9521 B(  4-C ,  8-C ) :  -0.1544 B(  4-C , 11-H ) :   0.7789
B(  4-C , 12-H ) :   0.9472 B(  5-C ,  7-C ) :   0.3477 B(  5-C , 13-H ) :  -0.2268
B(  6-C ,  8-C ) :   0.3334 B(  6-C , 14-H ) :  -0.2410 B(  7-C , 13-H ) :   1.1362
B(  8-C , 14-H ) :   1.1649

MP2 TOTAL ENERGY:     -415.977870126 Eh
FINAL SINGLE POINT ENERGY      -415.977870126452

DIPOLE MOMENT
-------------
                                X             Y             Z
Electronic contribution:      1.01774       3.11810       0.19437
Nuclear contribution   :     -1.62522      -4.36792      -0.10976
                        -----------------------------------------
Total Dipole Moment    :     -0.60748      -1.24983       0.08460
                        -----------------------------------------
Magnitude (a.u.)       :      1.39221
Magnitude (Debye)      :      3.53872

Rotational constants in cm-1:     0.059404     0.046059     0.029449
Rotational constants in MHz :  1780.898828  1380.825236   882.860247

                             ****ORCA TERMINATED NORMALLY****
TOTAL RUN TIME: 0 days 0 hours 6 minutes 22 seconds 710 msec
