                         Program Version 5.0.3 -  RELEASE  -
|  1> !ri-mp2 aug-cc-pvtz aug-cc-pvtz/c tightscf
|  2> %pal nprocs 16 end
|  3> %maxcore 3800
|  4>
|  5> * xyz 0 1
|  6> S      0.000000    1.198969   -1.022088
|  7> O     -0.000019    2.525292   -0.313898
|  8> C     -1.379883    0.233902   -0.310543
|  9> C     -1.827639   -0.916094   -0.948304
| 10> C     -2.903944   -1.613131   -0.411977
| 11> C     -3.530081   -1.148516    0.740491
| 12> C     -3.084519    0.016906    1.355299
| 13> C     -2.005880    0.718377    0.827890
| 14> C      1.379888    0.233926   -0.310531
| 15> C      2.005793    0.718340    0.827976
| 16> C      3.084431    0.016873    1.355398
| 17> C      3.530079   -1.148482    0.740528
| 18> C      2.904037   -1.613032   -0.412019
| 19> C      1.827738   -0.915998   -0.948359
| 20> H     -1.351533   -1.264663   -1.855542
| 21> H     -3.259487   -2.510929   -0.899140
| 22> H     -4.371765   -1.688895    1.151883
| 23> H     -3.580077    0.384290    2.243835
| 24> H     -1.652216    1.637972    1.273661
| 25> H      1.652066    1.637890    1.273792
| 26> H      3.579920    0.384210    2.243992
| 27> H      4.371760   -1.688857    1.151931
| 28> H      3.259655   -2.510772   -0.899234
| 29> H      1.351714   -1.264502   -1.855665
| 30> *
| 31>
| 32>                          ****END OF INPUT****

CARTESIAN COORDINATES (ANGSTROEM)
---------------------------------
  S      0.000000    1.198969   -1.022088
  O     -0.000019    2.525292   -0.313898
  C     -1.379883    0.233902   -0.310543
  C     -1.827639   -0.916094   -0.948304
  C     -2.903944   -1.613131   -0.411977
  C     -3.530081   -1.148516    0.740491
  C     -3.084519    0.016906    1.355299
  C     -2.005880    0.718377    0.827890
  C      1.379888    0.233926   -0.310531
  C      2.005793    0.718340    0.827976
  C      3.084431    0.016873    1.355398
  C      3.530079   -1.148482    0.740528
  C      2.904037   -1.613032   -0.412019
  C      1.827738   -0.915998   -0.948359
  H     -1.351533   -1.264663   -1.855542
  H     -3.259487   -2.510929   -0.899140
  H     -4.371765   -1.688895    1.151883
  H     -3.580077    0.384290    2.243835
  H     -1.652216    1.637972    1.273661
  H      1.652066    1.637890    1.273792
  H      3.579920    0.384210    2.243992
  H      4.371760   -1.688857    1.151931
  H      3.259655   -2.510772   -0.899234
  H      1.351714   -1.264502   -1.855665

 Total Charge           Charge          ....    0
 Multiplicity           Mult            ....    1
 Number of Electrons    NEL             ....  106
 Basis Dimension        Dim             ....  878

ORBITAL ENERGIES
----------------

  NO   OCC          E(Eh)            E(eV)
   0   2.0000     -92.080866     -2505.6478
   1   2.0000     -20.511718      -558.1522
   2   2.0000     -11.271427      -306.7111
   3   2.0000     -11.271419      -306.7109
   4   2.0000     -11.256679      -306.3098
   5   2.0000     -11.256677      -306.3098
   6   2.0000     -11.250390      -306.1387
   7   2.0000     -11.250390      -306.1387
   8   2.0000     -11.249219      -306.1068
   9   2.0000     -11.249218      -306.1068
  10   2.0000     -11.248425      -306.0852
  11   2.0000     -11.248424      -306.0852
  12   2.0000     -11.246949      -306.0450
  13   2.0000     -11.246948      -306.0450
  14   2.0000      -9.066236      -246.7048
  15   2.0000      -6.747758      -183.6158
  16   2.0000      -6.747710      -183.6145
  17   2.0000      -6.746386      -183.5785
  18   2.0000      -1.339769       -36.4570
  19   2.0000      -1.175669       -31.9916
  20   2.0000      -1.170063       -31.8390
  21   2.0000      -1.062426       -28.9101
  22   2.0000      -1.033627       -28.1264
  23   2.0000      -1.032488       -28.0954
  24   2.0000      -1.031306       -28.0633
  25   2.0000      -0.928063       -25.2539
  26   2.0000      -0.847964       -23.0743
  27   2.0000      -0.842857       -22.9353
  28   2.0000      -0.834928       -22.7195
  29   2.0000      -0.797441       -21.6995
  30   2.0000      -0.723618       -19.6907
  31   2.0000      -0.710606       -19.3366
  32   2.0000      -0.652469       -17.7546
  33   2.0000      -0.649951       -17.6861
  34   2.0000      -0.641296       -17.4506
  35   2.0000      -0.641000       -17.4425
  36   2.0000      -0.610051       -16.6003
  37   2.0000      -0.609120       -16.5750
  38   2.0000      -0.602011       -16.3815
  39   2.0000      -0.601167       -16.3586
  40   2.0000      -0.547700       -14.9037
  41   2.0000      -0.531798       -14.4709
  42   2.0000      -0.526020       -14.3137
  43   2.0000      -0.517025       -14.0690
  44   2.0000      -0.511185       -13.9101
  45   2.0000      -0.509821       -13.8729
  46   2.0000      -0.509414       -13.8619
  47   2.0000      -0.426816       -11.6142
  48   2.0000      -0.402387       -10.9495
  49   2.0000      -0.355271        -9.6674
  50   2.0000      -0.349146        -9.5008
  51   2.0000      -0.345694        -9.4068
  52   2.0000      -0.342716        -9.3258
  53   0.0000       0.023845         0.6489
  54   0.0000       0.027397         0.7455
  55   0.0000       0.030297         0.8244
  56   0.0000       0.039210         1.0670
  57   0.0000       0.039562         1.0765

MULLIKEN ATOMIC CHARGES
-----------------------
   0 S :    0.098801
   1 O :   -1.058593
   2 C :    1.007778
   3 C :   -0.817687
   4 C :   -0.536429
   5 C :   -0.266168
   6 C :   -0.460521
   7 C :   -0.730082
   8 C :    1.007692
   9 C :   -0.729886
  10 C :   -0.460406
  11 C :   -0.266118
  12 C :   -0.536561
  13 C :   -0.817540
  14 H :    0.548209
  15 H :    0.297819
  16 H :    0.640689
  17 H :    0.288487
  18 H :    0.507682
  19 H :    0.507665
  20 H :    0.288336
  21 H :    0.640695
  22 H :    0.297849
  23 H :    0.548290
Sum of atomic charges:    0.0000000

LOEWDIN ATOMIC CHARGES
----------------------
   0 S :    0.892575
   1 O :   -0.134168
   2 C :   -0.321781
   3 C :    0.138519
   4 C :    0.197606
   5 C :    0.201505
   6 C :    0.204726
   7 C :    0.150596
   8 C :   -0.321788
   9 C :    0.150598
  10 C :    0.204728
  11 C :    0.201505
  12 C :    0.197606
  13 C :    0.138517
  14 H :   -0.193135
  15 H :   -0.183571
  16 H :   -0.182270
  17 H :   -0.182278
  18 H :   -0.209121
  19 H :   -0.209114
  20 H :   -0.182278
  21 H :   -0.182270
  22 H :   -0.183571
  23 H :   -0.193136

  Mayer bond orders larger than 0.100000
B(  0-S ,  1-O ) :   1.1471 B(  0-S ,  2-C ) :   1.1230 B(  0-S ,  3-C ) :  -0.1452
B(  0-S ,  8-C ) :   1.1230 B(  0-S , 13-C ) :  -0.1453 B(  0-S , 14-H ) :  -0.1422
B(  0-S , 23-H ) :  -0.1424 B(  2-C ,  3-C ) :   0.6186 B(  2-C ,  4-C ) :  -0.1384
B(  2-C ,  7-C ) :   0.6577 B(  2-C ,  8-C ) :   0.3135 B(  2-C , 13-C ) :  -0.1030
B(  3-C ,  4-C ) :   1.2864 B(  3-C ,  5-C ) :   0.1588 B(  3-C ,  7-C ) :   0.2107
B(  3-C ,  8-C ) :  -0.1030 B(  3-C ,  9-C ) :   0.1162 B(  3-C , 13-C ) :   0.1598
B(  3-C , 14-H ) :   0.6649 B(  3-C , 15-H ) :  -0.1001 B(  4-C ,  5-C ) :   1.1667
B(  4-C , 15-H ) :   1.1508 B(  5-C ,  6-C ) :   1.1392 B(  5-C ,  7-C ) :   0.1699
B(  5-C , 16-H ) :   0.5365 B(  5-C , 17-H ) :  -0.1026 B(  6-C ,  7-C ) :   1.0242
B(  6-C , 17-H ) :   1.1834 B(  7-C ,  9-C ) :   0.1254 B(  7-C , 13-C ) :   0.1161
B(  7-C , 18-H ) :   0.6793 B(  8-C ,  9-C ) :   0.6578 B(  8-C , 12-C ) :  -0.1383
B(  8-C , 13-C ) :   0.6188 B(  9-C , 10-C ) :   1.0241 B(  9-C , 11-C ) :   0.1698
B(  9-C , 13-C ) :   0.2106 B(  9-C , 19-H ) :   0.6794 B( 10-C , 11-C ) :   1.1392
B( 10-C , 20-H ) :   1.1836 B( 11-C , 12-C ) :   1.1668 B( 11-C , 13-C ) :   0.1587
B( 11-C , 20-H ) :  -0.1027 B( 11-C , 21-H ) :   0.5366 B( 12-C , 13-C ) :   1.2866
B( 12-C , 22-H ) :   1.1507 B( 13-C , 22-H ) :  -0.1000 B( 13-C , 23-H ) :   0.6649

MP2 TOTAL ENERGY:     -935.129267979 Eh
FINAL SINGLE POINT ENERGY      -935.129267978547

DIPOLE MOMENT
-------------
                                X             Y             Z
Electronic contribution:     -0.00000       5.01299      -3.59083
Nuclear contribution   :      0.00004      -6.77274       3.79519
                        -----------------------------------------
Total Dipole Moment    :      0.00003      -1.75975       0.20436
                        -----------------------------------------
Magnitude (a.u.)       :      1.77158
Magnitude (Debye)      :      4.50299

Rotational constants in cm-1:     0.036271     0.013947     0.012466
Rotational constants in MHz :  1087.377472   418.132866   373.724652

                             ****ORCA TERMINATED NORMALLY****
TOTAL RUN TIME: 0 days 0 hours 27 minutes 43 seconds 17 msec
