                         Program Version 5.0.3 -  RELEASE  -
|  1> !ri-mp2 aug-cc-pvtz aug-cc-pvtz/c tightscf
|  2> %pal nprocs 16 end
|  3>
|  4> * xyz 0 1
|  5> C     0.000000     0.000000    0.550170
|  6> N     0.000000     1.261601   -0.185123
|  7> N     0.000000    -1.261601   -0.185123
|  8> H     0.876907     0.000000    1.198167
|  9> H    -0.876907     0.000000    1.198167
| 10> H     0.817663     1.348464   -0.776410
| 11> H    -0.817663     1.348464   -0.776410
| 12> H    -0.817663    -1.348464   -0.776410
| 13> H     0.817663    -1.348464   -0.776410
| 14> *
| 15>
| 16>                          ****END OF INPUT****

CARTESIAN COORDINATES (ANGSTROEM)
---------------------------------
  C      0.000000    0.000000    0.550170
  N      0.000000    1.261601   -0.185123
  N      0.000000   -1.261601   -0.185123
  H      0.876907    0.000000    1.198167
  H     -0.876907    0.000000    1.198167
  H      0.817663    1.348464   -0.776410
  H     -0.817663    1.348464   -0.776410
  H     -0.817663   -1.348464   -0.776410
  H      0.817663   -1.348464   -0.776410

 Total Charge           Charge          ....    0
 Multiplicity           Mult            ....    1
 Number of Electrons    NEL             ....   26
 Basis Dimension        Dim             ....  276

ORBITAL ENERGIES
----------------

  NO   OCC          E(Eh)            E(eV)
   0   2.0000     -15.541432      -422.9039
   1   2.0000     -15.541410      -422.9033
   2   2.0000     -11.275905      -306.8330
   3   2.0000      -1.213024       -33.0081
   4   2.0000      -1.123740       -30.5785
   5   2.0000      -0.870020       -23.6744
   6   2.0000      -0.699056       -19.0223
   7   2.0000      -0.628110       -17.0917
   8   2.0000      -0.623792       -16.9742
   9   2.0000      -0.575431       -15.6583
  10   2.0000      -0.505404       -13.7527
  11   2.0000      -0.438534       -11.9331
  12   2.0000      -0.379137       -10.3168
  13   0.0000       0.026705         0.7267
  14   0.0000       0.039488         1.0745
  15   0.0000       0.044832         1.2199
  16   0.0000       0.045346         1.2339
  17   0.0000       0.065739         1.7888

MULLIKEN ATOMIC CHARGES
-----------------------
   0 C :   -0.052313
   1 N :   -0.591055
   2 N :   -0.591055
   3 H :    0.379484
   4 H :    0.379484
   5 H :    0.118864
   6 H :    0.118864
   7 H :    0.118864
   8 H :    0.118864
Sum of atomic charges:    0.0000000

LOEWDIN ATOMIC CHARGES
----------------------
   0 C :    0.023265
   1 N :    0.826428
   2 N :    0.826428
   3 H :   -0.166881
   4 H :   -0.166881
   5 H :   -0.335590
   6 H :   -0.335590
   7 H :   -0.335590
   8 H :   -0.335590

  Mayer bond orders larger than 0.100000
B(  0-C ,  1-N ) :   0.7324 B(  0-C ,  2-N ) :   0.7324 B(  0-C ,  3-H ) :   0.8911
B(  0-C ,  4-H ) :   0.8911 B(  1-N ,  5-H ) :   0.9940 B(  1-N ,  6-H ) :   0.9940
B(  2-N ,  7-H ) :   0.9940 B(  2-N ,  8-H ) :   0.9940

MP2 TOTAL ENERGY:     -150.934591419 Eh
FINAL SINGLE POINT ENERGY      -150.934591418610

DIPOLE MOMENT
-------------
                                X             Y             Z
Electronic contribution:      0.00000      -0.00000       0.03906
Nuclear contribution   :      0.00000       0.00000      -0.75405
                        -----------------------------------------
Total Dipole Moment    :      0.00000      -0.00000      -0.71499
                        -----------------------------------------
Magnitude (a.u.)       :      0.71499
Magnitude (Debye)      :      1.81736

Rotational constants in cm-1:     1.190897     0.300142     0.272648
Rotational constants in MHz : 35702.199992  8998.017120  8173.796231

                             ****ORCA TERMINATED NORMALLY****
TOTAL RUN TIME: 0 days 0 hours 0 minutes 48 seconds 57 msec
