                         Program Version 5.0.3 -  RELEASE  -
|  1> !ri-mp2 aug-cc-pvtz aug-cc-pvtz/c tightscf
|  2> %pal nprocs 16 end
|  3> %maxcore 3800
|  4>
|  5> * xyz 0 1
|  6> C     -2.486191   -0.072064    0.552450
|  7> C     -1.024223    0.142152    0.935317
|  8> S     -0.047098    0.993348   -0.402402
|  9> O      0.947086    1.893124    0.293391
| 10> C     -2.714523   -1.122271   -0.534399
| 11> C      0.925143   -0.441946   -1.093699
| 12> C      2.275145   -0.662317   -0.419059
| 13> C      2.229720   -1.279940    0.977069
| 14> H     -2.917557    0.881786    0.239294
| 15> H     -3.024646   -0.367002    1.456918
| 16> H     -0.533523   -0.786746    1.217820
| 17> H     -0.928225    0.849831    1.758194
| 18> H     -2.255162   -0.831273   -1.480484
| 19> H     -2.300045   -2.089896   -0.243556
| 20> H     -3.779511   -1.261717   -0.720802
| 21> H      1.067876   -0.172666   -2.140309
| 22> H      0.277509   -1.317972   -1.055491
| 23> H      2.793803    0.296174   -0.372767
| 24> H      2.859562   -1.304564   -1.083624
| 25> H      1.774757   -0.601276    1.697093
| 26> H      1.672070   -2.219643    0.985066
| 27> H      3.239545   -1.495279    1.327871
| 28> *
| 29>
| 30>                          ****END OF INPUT****

CARTESIAN COORDINATES (ANGSTROEM)
---------------------------------
  C     -2.486191   -0.072064    0.552450
  C     -1.024223    0.142152    0.935317
  S     -0.047098    0.993348   -0.402402
  O      0.947086    1.893124    0.293391
  C     -2.714523   -1.122271   -0.534399
  C      0.925143   -0.441946   -1.093699
  C      2.275145   -0.662317   -0.419059
  C      2.229720   -1.279940    0.977069
  H     -2.917557    0.881786    0.239294
  H     -3.024646   -0.367002    1.456918
  H     -0.533523   -0.786746    1.217820
  H     -0.928225    0.849831    1.758194
  H     -2.255162   -0.831273   -1.480484
  H     -2.300045   -2.089896   -0.243556
  H     -3.779511   -1.261717   -0.720802
  H      1.067876   -0.172666   -2.140309
  H      0.277509   -1.317972   -1.055491
  H      2.793803    0.296174   -0.372767
  H      2.859562   -1.304564   -1.083624
  H      1.774757   -0.601276    1.697093
  H      1.672070   -2.219643    0.985066
  H      3.239545   -1.495279    1.327871

 Total Charge           Charge          ....    0
 Multiplicity           Mult            ....    1
 Number of Electrons    NEL             ....   74
 Basis Dimension        Dim             ....  694

ORBITAL ENERGIES
----------------

  NO   OCC          E(Eh)            E(eV)
   0   2.0000     -92.057785     -2505.0197
   1   2.0000     -20.496538      -557.7392
   2   2.0000     -11.262430      -306.4663
   3   2.0000     -11.260484      -306.4134
   4   2.0000     -11.243294      -305.9456
   5   2.0000     -11.230633      -305.6011
   6   2.0000     -11.230459      -305.5963
   7   2.0000     -11.216850      -305.2260
   8   2.0000      -9.044484      -246.1129
   9   2.0000      -6.725940      -183.0221
  10   2.0000      -6.725858      -183.0199
  11   2.0000      -6.724538      -182.9840
  12   2.0000      -1.318542       -35.8794
  13   2.0000      -1.094650       -29.7869
  14   2.0000      -1.071369       -29.1534
  15   2.0000      -0.988523       -26.8991
  16   2.0000      -0.951373       -25.8882
  17   2.0000      -0.869233       -23.6530
  18   2.0000      -0.814471       -22.1629
  19   2.0000      -0.777708       -21.1625
  20   2.0000      -0.658353       -17.9147
  21   2.0000      -0.638858       -17.3842
  22   2.0000      -0.630160       -17.1475
  23   2.0000      -0.626462       -17.0469
  24   2.0000      -0.582869       -15.8607
  25   2.0000      -0.579574       -15.7710
  26   2.0000      -0.560391       -15.2490
  27   2.0000      -0.547196       -14.8900
  28   2.0000      -0.536379       -14.5956
  29   2.0000      -0.512718       -13.9518
  30   2.0000      -0.505818       -13.7640
  31   2.0000      -0.500406       -13.6168
  32   2.0000      -0.487995       -13.2790
  33   2.0000      -0.482851       -13.1390
  34   2.0000      -0.481605       -13.1051
  35   2.0000      -0.399439       -10.8693
  36   2.0000      -0.352996        -9.6055
  37   0.0000       0.024179         0.6579
  38   0.0000       0.030594         0.8325
  39   0.0000       0.032500         0.8844
  40   0.0000       0.039146         1.0652
  41   0.0000       0.044875         1.2211

MULLIKEN ATOMIC CHARGES
-----------------------
   0 C :   -0.453947
   1 C :   -0.322426
   2 S :    0.647475
   3 O :   -1.036589
   4 C :   -0.924294
   5 C :   -0.369359
   6 C :   -0.431286
   7 C :   -0.934865
   8 H :    0.261038
   9 H :    0.230964
  10 H :    0.280158
  11 H :    0.305087
  12 H :    0.272491
  13 H :    0.258235
  14 H :    0.307906
  15 H :    0.315400
  16 H :    0.245180
  17 H :    0.261187
  18 H :    0.258837
  19 H :    0.290658
  20 H :    0.239548
  21 H :    0.298601
Sum of atomic charges:    0.0000000

LOEWDIN ATOMIC CHARGES
----------------------
   0 C :    0.208620
   1 C :    0.126029
   2 S :    0.914474
   3 O :   -0.169236
   4 C :    0.565176
   5 C :    0.128631
   6 C :    0.212788
   7 C :    0.570256
   8 H :   -0.162466
   9 H :   -0.152769
  10 H :   -0.222640
  11 H :   -0.210016
  12 H :   -0.182189
  13 H :   -0.170020
  14 H :   -0.169139
  15 H :   -0.213384
  16 H :   -0.217421
  17 H :   -0.179660
  18 H :   -0.154672
  19 H :   -0.184703
  20 H :   -0.170060
  21 H :   -0.167598

  Mayer bond orders larger than 0.100000
B(  0-C ,  1-C ) :   0.9381 B(  0-C ,  4-C ) :   0.8491 B(  0-C ,  8-H ) :   0.9893
B(  0-C ,  9-H ) :   0.9838 B(  1-C ,  2-S ) :   0.8455 B(  1-C , 10-H ) :   0.9064
B(  1-C , 11-H ) :   0.9299 B(  2-S ,  3-O ) :   1.1446 B(  2-S ,  5-C ) :   0.7999
B(  2-S ,  6-C ) :   0.1454 B(  3-O ,  5-C ) :   0.1023 B(  4-C , 12-H ) :   0.9525
B(  4-C , 13-H ) :   0.9700 B(  4-C , 14-H ) :   0.9433 B(  5-C ,  6-C ) :   0.9176
B(  5-C , 15-H ) :   0.9190 B(  5-C , 16-H ) :   0.9458 B(  6-C ,  7-C ) :   0.8441
B(  6-C , 17-H ) :   0.9763 B(  6-C , 18-H ) :   0.9481 B(  7-C , 19-H ) :   0.9344
B(  7-C , 20-H ) :   0.9839 B(  7-C , 21-H ) :   0.9515

MP2 TOTAL ENERGY:     -709.349300052 Eh
FINAL SINGLE POINT ENERGY      -709.349300051827

DIPOLE MOMENT
-------------
                                X             Y             Z
Electronic contribution:      1.28545       9.20758      -1.92776
Nuclear contribution   :     -2.10910     -10.78906       1.65885
                        -----------------------------------------
Total Dipole Moment    :     -0.82365      -1.58148      -0.26891
                        -----------------------------------------
Magnitude (a.u.)       :      1.80327
Magnitude (Debye)      :      4.58355

Rotational constants in cm-1:     0.074785     0.035558     0.030612
Rotational constants in MHz :  2241.995073  1066.006596   917.729790

                             ****ORCA TERMINATED NORMALLY****
TOTAL RUN TIME: 0 days 0 hours 12 minutes 34 seconds 119 msec
