                         Program Version 5.0.3 -  RELEASE  -
|  1> !ri-mp2 aug-cc-pvtz aug-cc-pvtz/c tightscf
|  2> %pal nprocs 16 end
|  3>
|  4> * xyz 0 1
|  5> O     -2.011808   -0.775896   -0.227722
|  6> O     -1.126265    1.260042   -0.024183
|  7> N      1.364084    0.336361    0.181249
|  8> N      2.444806    0.013050   -0.303623
|  9> C     -1.063326   -0.080407   -0.006367
| 10> C      0.305241   -0.661369    0.352535
| 11> H     -0.236965    1.621218    0.140319
| 12> H      2.475277   -1.001924   -0.544358
| 13> H      0.269739   -0.910304    1.417114
| 14> H      0.482809   -1.577382   -0.218226
| 15> *
| 16>
| 17>                          ****END OF INPUT****

CARTESIAN COORDINATES (ANGSTROEM)
---------------------------------
  O     -2.011808   -0.775896   -0.227722
  O     -1.126265    1.260042   -0.024183
  N      1.364084    0.336361    0.181249
  N      2.444806    0.013050   -0.303623
  C     -1.063326   -0.080407   -0.006367
  C      0.305241   -0.661369    0.352535
  H     -0.236965    1.621218    0.140319
  H      2.475277   -1.001924   -0.544358
  H      0.269739   -0.910304    1.417114
  H      0.482809   -1.577382   -0.218226

 Total Charge           Charge          ....    0
 Multiplicity           Mult            ....    1
 Number of Electrons    NEL             ....   46
 Basis Dimension        Dim             ....  368

ORBITAL ENERGIES
----------------

  NO   OCC          E(Eh)            E(eV)
   0   2.0000     -20.621663      -561.1440
   1   2.0000     -20.558825      -559.4341
   2   2.0000     -15.673236      -426.4904
   3   2.0000     -15.662931      -426.2100
   4   2.0000     -11.403679      -310.3099
   5   2.0000     -11.313330      -307.8514
   6   2.0000      -1.475685       -40.1554
   7   2.0000      -1.406207       -38.2648
   8   2.0000      -1.380339       -37.5609
   9   2.0000      -1.090881       -29.6844
  10   2.0000      -0.910215       -24.7682
  11   2.0000      -0.840215       -22.8634
  12   2.0000      -0.773256       -21.0414
  13   2.0000      -0.733397       -19.9567
  14   2.0000      -0.695342       -18.9212
  15   2.0000      -0.664082       -18.0706
  16   2.0000      -0.623316       -16.9613
  17   2.0000      -0.595955       -16.2168
  18   2.0000      -0.574786       -15.6407
  19   2.0000      -0.535597       -14.5743
  20   2.0000      -0.489160       -13.3107
  21   2.0000      -0.464071       -12.6280
  22   2.0000      -0.431631       -11.7453
  23   0.0000       0.021266         0.5787
  24   0.0000       0.034340         0.9344
  25   0.0000       0.042400         1.1538
  26   0.0000       0.048176         1.3109
  27   0.0000       0.070133         1.9084

MULLIKEN ATOMIC CHARGES
-----------------------
   0 O :   -0.649194
   1 O :   -0.423024
   2 N :    0.030006
   3 N :   -0.572195
   4 C :    0.470372
   5 C :   -0.000722
   6 H :    0.260339
   7 H :    0.236415
   8 H :    0.305259
   9 H :    0.342744
Sum of atomic charges:    0.0000000

LOEWDIN ATOMIC CHARGES
----------------------
   0 O :    0.432932
   1 O :    0.837733
   2 N :    0.180703
   3 N :    0.494576
   4 C :   -0.797640
   5 C :    0.141444
   6 H :   -0.567641
   7 H :   -0.394716
   8 H :   -0.154102
   9 H :   -0.173290

  Mayer bond orders larger than 0.100000
B(  0-O ,  4-C ) :   1.5760 B(  1-O ,  4-C ) :   0.9393 B(  1-O ,  6-H ) :   0.9075
B(  2-N ,  3-N ) :   0.9753 B(  2-N ,  5-C ) :   0.7199 B(  3-N ,  7-H ) :   0.8470
B(  4-C ,  5-C ) :   0.7937 B(  5-C ,  8-H ) :   0.8862 B(  5-C ,  9-H ) :   0.9051

MP2 TOTAL ENERGY:     -337.979923872 Eh
FINAL SINGLE POINT ENERGY      -337.979923872107

DIPOLE MOMENT
-------------
                                X             Y             Z
Electronic contribution:     -1.59942       1.25538      -0.40479
Nuclear contribution   :      2.90739      -1.82336       0.77513
                        -----------------------------------------
Total Dipole Moment    :      1.30797      -0.56798       0.37034
                        -----------------------------------------
Magnitude (a.u.)       :      1.47328
Magnitude (Debye)      :      3.74477

Rotational constants in cm-1:     0.304903     0.075754     0.063638
Rotational constants in MHz :  9140.772818  2271.039570  1907.827460

                             ****ORCA TERMINATED NORMALLY****
TOTAL RUN TIME: 0 days 0 hours 1 minutes 56 seconds 258 msec
