                         Program Version 5.0.3 -  RELEASE  -
|  1> !ri-mp2 aug-cc-pvtz aug-cc-pvtz/c tightscf
|  2> %pal nprocs 16 end
|  3>
|  4> * xyz 0 1
|  5> C     0.000000     1.419305   -0.919648
|  6> C     0.000000    -1.419305   -0.919648
|  7> O    -1.263521     0.000000    0.917477
|  8> O     1.263521     0.000000    0.917477
|  9> S     0.000000     0.000000    0.188195
| 10> H     0.000000     2.292780   -0.271559
| 11> H     0.900388     1.399538   -1.527965
| 12> H    -0.900388     1.399538   -1.527965
| 13> H     0.900388    -1.399538   -1.527965
| 14> H     0.000000    -2.292780   -0.271559
| 15> H    -0.900388    -1.399538   -1.527965
| 16> *
| 17>
| 18>                          ****END OF INPUT****

CARTESIAN COORDINATES (ANGSTROEM)
---------------------------------
  C      0.000000    1.419305   -0.919648
  C      0.000000   -1.419305   -0.919648
  O     -1.263521    0.000000    0.917477
  O      1.263521    0.000000    0.917477
  S      0.000000    0.000000    0.188195
  H      0.000000    2.292780   -0.271559
  H      0.900388    1.399538   -1.527965
  H     -0.900388    1.399538   -1.527965
  H      0.900388   -1.399538   -1.527965
  H      0.000000   -2.292780   -0.271559
  H     -0.900388   -1.399538   -1.527965

 Total Charge           Charge          ....    0
 Multiplicity           Mult            ....    1
 Number of Electrons    NEL             ....   50
 Basis Dimension        Dim             ....  372

ORBITAL ENERGIES
----------------

  NO   OCC          E(Eh)            E(eV)
   0   2.0000     -92.182607     -2508.4163
   1   2.0000     -20.542727      -558.9960
   2   2.0000     -20.542706      -558.9955
   3   2.0000     -11.280416      -306.9557
   4   2.0000     -11.280402      -306.9553
   5   2.0000      -9.152117      -249.0418
   6   2.0000      -6.836768      -186.0379
   7   2.0000      -6.836244      -186.0237
   8   2.0000      -6.836156      -186.0213
   9   2.0000      -1.442666       -39.2569
  10   2.0000      -1.330914       -36.2160
  11   2.0000      -1.069178       -29.0938
  12   2.0000      -1.008652       -27.4468
  13   2.0000      -0.817471       -22.2445
  14   2.0000      -0.684069       -18.6145
  15   2.0000      -0.672019       -18.2866
  16   2.0000      -0.664505       -18.0821
  17   2.0000      -0.617087       -16.7918
  18   2.0000      -0.614176       -16.7126
  19   2.0000      -0.597104       -16.2480
  20   2.0000      -0.582723       -15.8567
  21   2.0000      -0.493650       -13.4329
  22   2.0000      -0.493220       -13.4212
  23   2.0000      -0.466759       -12.7012
  24   2.0000      -0.440120       -11.9763
  25   0.0000       0.020928         0.5695
  26   0.0000       0.034676         0.9436
  27   0.0000       0.038809         1.0560
  28   0.0000       0.046898         1.2762
  29   0.0000       0.056809         1.5459

MULLIKEN ATOMIC CHARGES
-----------------------
   0 C :   -0.990147
   1 C :   -0.990147
   2 O :   -1.017009
   3 O :   -1.017009
   4 S :    2.168254
   5 H :    0.299259
   6 H :    0.311885
   7 H :    0.311885
   8 H :    0.311885
   9 H :    0.299259
  10 H :    0.311885
Sum of atomic charges:   -0.0000000

LOEWDIN ATOMIC CHARGES
----------------------
   0 C :    0.503197
   1 C :    0.503197
   2 O :    0.011635
   3 O :    0.011635
   4 S :    0.221204
   5 H :   -0.208111
   6 H :   -0.208662
   7 H :   -0.208662
   8 H :   -0.208662
   9 H :   -0.208111
  10 H :   -0.208662

  Mayer bond orders larger than 0.100000
B(  0-C ,  4-S ) :   0.8696 B(  0-C ,  5-H ) :   0.9272 B(  0-C ,  6-H ) :   0.8845
B(  0-C ,  7-H ) :   0.8845 B(  1-C ,  4-S ) :   0.8696 B(  1-C ,  8-H ) :   0.8845
B(  1-C ,  9-H ) :   0.9272 B(  1-C , 10-H ) :   0.8845 B(  2-O ,  4-S ) :   1.2655
B(  3-O ,  4-S ) :   1.2655

MP2 TOTAL ENERGY:     -627.591993824 Eh
FINAL SINGLE POINT ENERGY      -627.591993823515

DIPOLE MOMENT
-------------
                                X             Y             Z
Electronic contribution:     -0.00000      -0.00000       4.53915
Nuclear contribution   :      0.00000       0.00000      -6.61605
                        -----------------------------------------
Total Dipole Moment    :     -0.00000      -0.00000      -2.07691
                        -----------------------------------------
Magnitude (a.u.)       :      2.07691
Magnitude (Debye)      :      5.27907

Rotational constants in cm-1:     0.150729     0.139045     0.135541
Rotational constants in MHz :  4518.749358  4168.458887  4063.406721

                             ****ORCA TERMINATED NORMALLY****
TOTAL RUN TIME: 0 days 0 hours 1 minutes 54 seconds 672 msec
