                         Program Version 5.0.3 -  RELEASE  -
|  1> !ri-mp2 aug-cc-pvtz aug-cc-pvtz/c tightscf
|  2> %pal nprocs 16 end
|  3>
|  4> * xyz 0 1
|  5> O    -0.015813     0.731327    0.000000
|  6> O     0.015813    -0.731327    0.000000
|  7> C    -1.344283    -1.140143    0.000000
|  8> H    -1.844417    -0.742104    0.887786
|  9> C     1.344283     1.140143    0.000000
| 10> H     1.844417     0.742104   -0.887786
| 11> H     1.844417     0.742104    0.887786
| 12> C     1.344283     2.657005    0.000000
| 13> C    -1.344283    -2.657005    0.000000
| 14> H    -1.844417    -0.742104   -0.887786
| 15> H     0.842512     3.047916   -0.884749
| 16> H     0.842512     3.047916    0.884749
| 17> H     2.372433     3.019890    0.000000
| 18> H    -0.842512    -3.047916   -0.884749
| 19> H    -0.842512    -3.047916    0.884749
| 20> H    -2.372433    -3.019890    0.000000
| 21> *
| 22>
| 23>                          ****END OF INPUT****

CARTESIAN COORDINATES (ANGSTROEM)
---------------------------------
  O     -0.015813    0.731327    0.000000
  O      0.015813   -0.731327    0.000000
  C     -1.344283   -1.140143    0.000000
  H     -1.844417   -0.742104    0.887786
  C      1.344283    1.140143    0.000000
  H      1.844417    0.742104   -0.887786
  H      1.844417    0.742104    0.887786
  C      1.344283    2.657005    0.000000
  C     -1.344283   -2.657005    0.000000
  H     -1.844417   -0.742104   -0.887786
  H      0.842512    3.047916   -0.884749
  H      0.842512    3.047916    0.884749
  H      2.372433    3.019890    0.000000
  H     -0.842512   -3.047916   -0.884749
  H     -0.842512   -3.047916    0.884749
  H     -2.372433   -3.019890    0.000000

 Total Charge           Charge          ....    0
 Multiplicity           Mult            ....    1
 Number of Electrons    NEL             ....   50
 Basis Dimension        Dim             ....  506

ORBITAL ENERGIES
----------------

  NO   OCC          E(Eh)            E(eV)
   0   2.0000     -20.610611      -560.8432
   1   2.0000     -20.610330      -560.8356
   2   2.0000     -11.275421      -306.8198
   3   2.0000     -11.275417      -306.8197
   4   2.0000     -11.219223      -305.2906
   5   2.0000     -11.219223      -305.2906
   6   2.0000      -1.460785       -39.7500
   7   2.0000      -1.241601       -33.7857
   8   2.0000      -1.019487       -27.7416
   9   2.0000      -0.987997       -26.8848
  10   2.0000      -0.847698       -23.0670
  11   2.0000      -0.827554       -22.5189
  12   2.0000      -0.689083       -18.7509
  13   2.0000      -0.678420       -18.4607
  14   2.0000      -0.638621       -17.3777
  15   2.0000      -0.636824       -17.3289
  16   2.0000      -0.562828       -15.3153
  17   2.0000      -0.560235       -15.2448
  18   2.0000      -0.546552       -14.8724
  19   2.0000      -0.517503       -14.0820
  20   2.0000      -0.516747       -14.0614
  21   2.0000      -0.514958       -14.0127
  22   2.0000      -0.478076       -13.0091
  23   2.0000      -0.472913       -12.8686
  24   2.0000      -0.415177       -11.2975
  25   0.0000       0.031645         0.8611
  26   0.0000       0.036117         0.9828
  27   0.0000       0.039070         1.0631
  28   0.0000       0.040559         1.1037
  29   0.0000       0.051562         1.4031

MULLIKEN ATOMIC CHARGES
-----------------------
   0 O :   -0.426520
   1 O :   -0.426520
   2 C :   -0.144890
   3 H :    0.300550
   4 C :   -0.144889
   5 H :    0.300550
   6 H :    0.300550
   7 C :   -0.911510
   8 C :   -0.911510
   9 H :    0.300550
  10 H :    0.284381
  11 H :    0.284381
  12 H :    0.313058
  13 H :    0.284381
  14 H :    0.284381
  15 H :    0.313058
Sum of atomic charges:   -0.0000000

LOEWDIN ATOMIC CHARGES
----------------------
   0 O :    0.357526
   1 O :    0.357526
   2 C :   -0.051449
   3 H :   -0.169131
   4 C :   -0.051449
   5 H :   -0.169131
   6 H :   -0.169131
   7 C :    0.563893
   8 C :    0.563893
   9 H :   -0.169131
  10 H :   -0.177108
  11 H :   -0.177108
  12 H :   -0.177492
  13 H :   -0.177108
  14 H :   -0.177108
  15 H :   -0.177492

  Mayer bond orders larger than 0.100000
B(  0-O ,  1-O ) :   0.9305 B(  0-O ,  4-C ) :   0.8441 B(  1-O ,  2-C ) :   0.8441
B(  2-C ,  3-H ) :   0.9170 B(  2-C ,  8-C ) :   0.8943 B(  2-C ,  9-H ) :   0.9170
B(  4-C ,  5-H ) :   0.9170 B(  4-C ,  6-H ) :   0.9170 B(  4-C ,  7-C ) :   0.8943
B(  7-C , 10-H ) :   0.9352 B(  7-C , 11-H ) :   0.9352 B(  7-C , 12-H ) :   0.9296
B(  8-C , 13-H ) :   0.9352 B(  8-C , 14-H ) :   0.9352 B(  8-C , 15-H ) :   0.9296

MP2 TOTAL ENERGY:     -308.232697825 Eh
FINAL SINGLE POINT ENERGY      -308.232697825325

DIPOLE MOMENT
-------------
                                X             Y             Z
Electronic contribution:     -0.00000      -0.00000       0.00000
Nuclear contribution   :      0.00000      -0.00000       0.00000
                        -----------------------------------------
Total Dipole Moment    :     -0.00000      -0.00000       0.00000
                        -----------------------------------------
Magnitude (a.u.)       :      0.00000
Magnitude (Debye)      :      0.00000

Rotational constants in cm-1:     0.578299     0.045042     0.043142
Rotational constants in MHz : 17336.961376  1350.337452  1293.377698

                             ****ORCA TERMINATED NORMALLY****
TOTAL RUN TIME: 0 days 0 hours 3 minutes 25 seconds 98 msec
