                         Program Version 5.0.3 -  RELEASE  -
|  1> !ri-mp2 aug-cc-pvtz aug-cc-pvtz/c tightscf
|  2> %pal nprocs 16 end
|  3>
|  4> * xyz 0 1
|  5> F     0.000000     1.105295   -0.290293
|  6> F     0.000000    -1.105295   -0.290293
|  7> C     0.000000     0.000000    0.502981
|  8> H     0.909963     0.000000    1.103692
|  9> H    -0.909963     0.000000    1.103692
| 10> *
| 11>
| 12>                          ****END OF INPUT****

CARTESIAN COORDINATES (ANGSTROEM)
---------------------------------
  F      0.000000    1.105295   -0.290293
  F      0.000000   -1.105295   -0.290293
  C      0.000000    0.000000    0.502981
  H      0.909963    0.000000    1.103692
  H     -0.909963    0.000000    1.103692

 Total Charge           Charge          ....    0
 Multiplicity           Mult            ....    1
 Number of Electrons    NEL             ....   26
 Basis Dimension        Dim             ....  184

ORBITAL ENERGIES
----------------

  NO   OCC          E(Eh)            E(eV)
   0   2.0000     -26.314034      -716.0413
   1   2.0000     -26.314016      -716.0408
   2   2.0000     -11.408781      -310.4487
   3   2.0000      -1.660079       -45.1730
   4   2.0000      -1.601374       -43.5756
   5   2.0000      -0.971687       -26.4409
   6   2.0000      -0.777908       -21.1680
   7   2.0000      -0.769044       -20.9268
   8   2.0000      -0.754540       -20.5321
   9   2.0000      -0.667560       -18.1652
  10   2.0000      -0.633817       -17.2470
  11   2.0000      -0.622644       -16.9430
  12   2.0000      -0.538624       -14.6567
  13   0.0000       0.028093         0.7645
  14   0.0000       0.042389         1.1535
  15   0.0000       0.073494         1.9999
  16   0.0000       0.075555         2.0560
  17   0.0000       0.126109         3.4316

MULLIKEN ATOMIC CHARGES
-----------------------
   0 F :   -0.384809
   1 F :   -0.384809
   2 C :    0.161603
   3 H :    0.304008
   4 H :    0.304008
Sum of atomic charges:    0.0000000

LOEWDIN ATOMIC CHARGES
----------------------
   0 F :    0.438882
   1 F :    0.438882
   2 C :   -0.466566
   3 H :   -0.205599
   4 H :   -0.205599

  Mayer bond orders larger than 0.100000
B(  0-F ,  2-C ) :   0.7801 B(  1-F ,  2-C ) :   0.7801 B(  2-C ,  3-H ) :   0.9216
B(  2-C ,  4-H ) :   0.9216

MP2 TOTAL ENERGY:     -238.688590441 Eh
FINAL SINGLE POINT ENERGY      -238.688590441172

DIPOLE MOMENT
-------------
                                X             Y             Z
Electronic contribution:     -0.00000       0.00000      -1.73975
Nuclear contribution   :      0.00000       0.00000       2.61009
                        -----------------------------------------
Total Dipole Moment    :     -0.00000       0.00000       0.87034
                        -----------------------------------------
Magnitude (a.u.)       :      0.87034
Magnitude (Debye)      :      2.21223

Rotational constants in cm-1:     1.649662     0.350557     0.306679
Rotational constants in MHz : 49455.616342 10509.438020  9194.004208

                             ****ORCA TERMINATED NORMALLY****
TOTAL RUN TIME: 0 days 0 hours 0 minutes 28 seconds 262 msec
