                         Program Version 5.0.3 -  RELEASE  -
|  1> !ri-mp2 aug-cc-pvtz aug-cc-pvtz/c tightscf
|  2> %pal nprocs 16 end
|  3>
|  4> * xyz 0 1
|  5> C      0.000000    0.000000    0.794985
|  6> N      0.000000    0.748957   -0.440025
|  7> N      0.000000   -0.748957   -0.440025
|  8> H      0.911241    0.078114    1.376716
|  9> H     -0.911241   -0.078114    1.376716
| 10> H     -0.955168    0.999325   -0.681494
| 11> H      0.955168   -0.999325   -0.681494
| 12> *
| 13>
| 14>                          ****END OF INPUT****

CARTESIAN COORDINATES (ANGSTROEM)
---------------------------------
  C      0.000000    0.000000    0.794985
  N      0.000000    0.748957   -0.440025
  N      0.000000   -0.748957   -0.440025
  H      0.911241    0.078114    1.376716
  H     -0.911241   -0.078114    1.376716
  H     -0.955168    0.999325   -0.681494
  H      0.955168   -0.999325   -0.681494

 Total Charge           Charge          ....    0
 Multiplicity           Mult            ....    1
 Number of Electrons    NEL             ....   24
 Basis Dimension        Dim             ....  230

ORBITAL ENERGIES
----------------

  NO   OCC          E(Eh)            E(eV)
   0   2.0000     -15.594595      -424.3505
   1   2.0000     -15.594204      -424.3399
   2   2.0000     -11.293841      -307.3211
   3   2.0000      -1.344549       -36.5871
   4   2.0000      -0.990860       -26.9627
   5   2.0000      -0.882483       -24.0136
   6   2.0000      -0.701411       -19.0864
   7   2.0000      -0.675904       -18.3923
   8   2.0000      -0.532427       -14.4881
   9   2.0000      -0.506615       -13.7857
  10   2.0000      -0.447159       -12.1678
  11   2.0000      -0.418450       -11.3866
  12   0.0000       0.029811         0.8112
  13   0.0000       0.038644         1.0516
  14   0.0000       0.044411         1.2085
  15   0.0000       0.050929         1.3858
  16   0.0000       0.082815         2.2535

MULLIKEN ATOMIC CHARGES
-----------------------
   0 C :   -0.452177
   1 N :   -0.380031
   2 N :   -0.380031
   3 H :    0.441203
   4 H :    0.441203
   5 H :    0.164917
   6 H :    0.164917
Sum of atomic charges:    0.0000000

LOEWDIN ATOMIC CHARGES
----------------------
   0 C :    0.059564
   1 N :    0.513225
   2 N :    0.513225
   3 H :   -0.170009
   4 H :   -0.170009
   5 H :   -0.372998
   6 H :   -0.372998

  Mayer bond orders larger than 0.100000
B(  0-C ,  1-N ) :   0.8096 B(  0-C ,  2-N ) :   0.8096 B(  0-C ,  3-H ) :   0.7775
B(  0-C ,  4-H ) :   0.7775 B(  1-N ,  2-N ) :   0.8311 B(  1-N ,  5-H ) :   0.8816
B(  2-N ,  6-H ) :   0.8816

MP2 TOTAL ENERGY:     -149.665621390 Eh
FINAL SINGLE POINT ENERGY      -149.665621389857

DIPOLE MOMENT
-------------
                                X             Y             Z
Electronic contribution:     -0.00000      -0.00000      -0.83877
Nuclear contribution   :      0.00000       0.00000       1.41725
                        -----------------------------------------
Total Dipole Moment    :     -0.00000      -0.00000       0.57848
                        -----------------------------------------
Magnitude (a.u.)       :      0.57848
Magnitude (Debye)      :      1.47038

Rotational constants in cm-1:     0.801861     0.793191     0.472354
Rotational constants in MHz : 24039.183608 23779.258660 14160.818353

                             ****ORCA TERMINATED NORMALLY****
TOTAL RUN TIME: 0 days 0 hours 0 minutes 37 seconds 784 msec
