                         Program Version 5.0.3 -  RELEASE  -
|  1> !ri-mp2 aug-cc-pvtz aug-cc-pvtz/c tightscf
|  2> %pal nprocs 16 end
|  3> %maxcore 3800
|  4>
|  5> * xyz 0 1
|  6> C      0.002905   -0.287931    3.765494
|  7> C      0.002905   -0.287931   -3.765494
|  8> C      0.002905    0.516132    2.466843
|  9> C      0.002905    0.516132   -2.466843
| 10> C      0.019045   -0.366124    1.223486
| 11> C      0.019045   -0.366124   -1.223486
| 12> N      0.041090    0.425929    0.000000
| 13> H     -0.869191   -0.941707    3.829272
| 14> H      0.892625   -0.916399    3.840202
| 15> H     -0.011524    0.368209    4.636319
| 16> H      0.892625   -0.916399   -3.840202
| 17> H     -0.869191   -0.941707   -3.829272
| 18> H     -0.011524    0.368209   -4.636319
| 19> H      0.868617    1.180978    2.434926
| 20> H     -0.882182    1.160098    2.437277
| 21> H     -0.882182    1.160098   -2.437277
| 22> H      0.868617    1.180978   -2.434926
| 23> H     -0.839000   -1.059882    1.257260
| 24> H      0.917482   -0.990937    1.233278
| 25> H      0.917482   -0.990937   -1.233278
| 26> H     -0.839000   -1.059882   -1.257260
| 27> H     -0.739557    1.072851    0.000000
| 28> *
| 29>
| 30>                          ****END OF INPUT****

CARTESIAN COORDINATES (ANGSTROEM)
---------------------------------
  C      0.002905   -0.287931    3.765494
  C      0.002905   -0.287931   -3.765494
  C      0.002905    0.516132    2.466843
  C      0.002905    0.516132   -2.466843
  C      0.019045   -0.366124    1.223486
  C      0.019045   -0.366124   -1.223486
  N      0.041090    0.425929    0.000000
  H     -0.869191   -0.941707    3.829272
  H      0.892625   -0.916399    3.840202
  H     -0.011524    0.368209    4.636319
  H      0.892625   -0.916399   -3.840202
  H     -0.869191   -0.941707   -3.829272
  H     -0.011524    0.368209   -4.636319
  H      0.868617    1.180978    2.434926
  H     -0.882182    1.160098    2.437277
  H     -0.882182    1.160098   -2.437277
  H      0.868617    1.180978   -2.434926
  H     -0.839000   -1.059882    1.257260
  H      0.917482   -0.990937    1.233278
  H      0.917482   -0.990937   -1.233278
  H     -0.839000   -1.059882   -1.257260
  H     -0.739557    1.072851    0.000000

 Total Charge           Charge          ....    0
 Multiplicity           Mult            ....    1
 Number of Electrons    NEL             ....   58
 Basis Dimension        Dim             ....  667

ORBITAL ENERGIES
----------------

  NO   OCC          E(Eh)            E(eV)
   0   2.0000     -15.534929      -422.7269
   1   2.0000     -11.240925      -305.8811
   2   2.0000     -11.240909      -305.8807
   3   2.0000     -11.215519      -305.1898
   4   2.0000     -11.215518      -305.1898
   5   2.0000     -11.211218      -305.0728
   6   2.0000     -11.211218      -305.0728
   7   2.0000      -1.202070       -32.7100
   8   2.0000      -1.058298       -28.7978
   9   2.0000      -1.025253       -27.8986
  10   2.0000      -0.926347       -25.2072
  11   2.0000      -0.867093       -23.5948
  12   2.0000      -0.808773       -22.0078
  13   2.0000      -0.791782       -21.5455
  14   2.0000      -0.665897       -18.1200
  15   2.0000      -0.624787       -17.0013
  16   2.0000      -0.613783       -16.7019
  17   2.0000      -0.612547       -16.6683
  18   2.0000      -0.571885       -15.5618
  19   2.0000      -0.561679       -15.2841
  20   2.0000      -0.527847       -14.3634
  21   2.0000      -0.527261       -14.3475
  22   2.0000      -0.516203       -14.0466
  23   2.0000      -0.485207       -13.2032
  24   2.0000      -0.481906       -13.1133
  25   2.0000      -0.473605       -12.8874
  26   2.0000      -0.464939       -12.6516
  27   2.0000      -0.452418       -12.3109
  28   2.0000      -0.363297        -9.8858
  29   0.0000       0.030433         0.8281
  30   0.0000       0.031591         0.8596
  31   0.0000       0.035899         0.9769
  32   0.0000       0.038663         1.0521
  33   0.0000       0.046610         1.2683

MULLIKEN ATOMIC CHARGES
-----------------------
   0 C :   -0.950196
   1 C :   -0.950196
   2 C :   -0.485680
   3 C :   -0.485680
   4 C :   -0.242452
   5 C :   -0.242452
   6 N :   -0.437402
   7 H :    0.271183
   8 H :    0.274740
   9 H :    0.283647
  10 H :    0.274740
  11 H :    0.271183
  12 H :    0.283647
  13 H :    0.250827
  14 H :    0.231670
  15 H :    0.231670
  16 H :    0.250827
  17 H :    0.289147
  18 H :    0.295692
  19 H :    0.295692
  20 H :    0.289147
  21 H :    0.000246
Sum of atomic charges:   -0.0000000

LOEWDIN ATOMIC CHARGES
----------------------
   0 C :    0.575872
   1 C :    0.575872
   2 C :    0.258970
   3 C :    0.258970
   4 C :    0.138040
   5 C :    0.138040
   6 N :    0.564372
   7 H :   -0.172507
   8 H :   -0.171284
   9 H :   -0.174275
  10 H :   -0.171284
  11 H :   -0.172507
  12 H :   -0.174275
  13 H :   -0.148266
  14 H :   -0.150190
  15 H :   -0.150190
  16 H :   -0.148266
  17 H :   -0.136770
  18 H :   -0.146204
  19 H :   -0.146204
  20 H :   -0.136770
  21 H :   -0.311144

  Mayer bond orders larger than 0.100000
B(  0-C ,  2-C ) :   0.8981 B(  0-C ,  7-H ) :   0.9518 B(  0-C ,  8-H ) :   0.9560
B(  0-C ,  9-H ) :   0.9856 B(  1-C ,  3-C ) :   0.8981 B(  1-C , 10-H ) :   0.9560
B(  1-C , 11-H ) :   0.9518 B(  1-C , 12-H ) :   0.9856 B(  2-C ,  4-C ) :   0.8587
B(  2-C , 13-H ) :   0.9615 B(  2-C , 14-H ) :   0.9649 B(  3-C ,  5-C ) :   0.8587
B(  3-C , 15-H ) :   0.9649 B(  3-C , 16-H ) :   0.9615 B(  4-C ,  6-N ) :   0.9647
B(  4-C , 17-H ) :   0.9042 B(  4-C , 18-H ) :   0.9196 B(  5-C ,  6-N ) :   0.9647
B(  5-C , 19-H ) :   0.9196 B(  5-C , 20-H ) :   0.9042 B(  6-N , 21-H ) :   0.9790

MP2 TOTAL ENERGY:     -291.786065660 Eh
FINAL SINGLE POINT ENERGY      -291.786065659808

DIPOLE MOMENT
-------------
                                X             Y             Z
Electronic contribution:      0.30367       1.30531       0.00000
Nuclear contribution   :     -0.63043      -1.42513       0.00000
                        -----------------------------------------
Total Dipole Moment    :     -0.32676      -0.11982       0.00000
                        -----------------------------------------
Magnitude (a.u.)       :      0.34804
Magnitude (Debye)      :      0.88464

Rotational constants in cm-1:     0.435205     0.025333     0.024631
Rotational constants in MHz : 13047.118550   759.465623   738.423512

                             ****ORCA TERMINATED NORMALLY****
TOTAL RUN TIME: 0 days 0 hours 8 minutes 28 seconds 8 msec
