                         Program Version 5.0.3 -  RELEASE  -
|  1> !ri-mp2 aug-cc-pvtz aug-cc-pvtz/c tightscf
|  2> %pal nprocs 16 end
|  3>
|  4> * xyz 0 1
|  5> S      0.000000    0.000000    1.056821
|  6> S      0.000000    1.684277   -0.162632
|  7> S      0.000000   -1.684277   -0.162632
|  8> C      1.760232    1.865036   -0.616415
|  9> C     -1.760232   -1.865036   -0.616415
| 10> H      1.824265    2.768057   -1.223005
| 11> H     -1.824265   -2.768057   -1.223005
| 12> H      2.373978    1.976752    0.273229
| 13> H      2.086891    1.011010   -1.204189
| 14> H     -2.373978   -1.976752    0.273229
| 15> H     -2.086891   -1.011010   -1.204189
| 16> *
| 17>
| 18>                          ****END OF INPUT****

CARTESIAN COORDINATES (ANGSTROEM)
---------------------------------
  S      0.000000    0.000000    1.056821
  S      0.000000    1.684277   -0.162632
  S      0.000000   -1.684277   -0.162632
  C      1.760232    1.865036   -0.616415
  C     -1.760232   -1.865036   -0.616415
  H      1.824265    2.768057   -1.223005
  H     -1.824265   -2.768057   -1.223005
  H      2.373978    1.976752    0.273229
  H      2.086891    1.011010   -1.204189
  H     -2.373978   -1.976752    0.273229
  H     -2.086891   -1.011010   -1.204189

 Total Charge           Charge          ....    0
 Multiplicity           Mult            ....    1
 Number of Electrons    NEL             ....   66
 Basis Dimension        Dim             ....  380

ORBITAL ENERGIES
----------------

  NO   OCC          E(Eh)            E(eV)
   0   2.0000     -92.001193     -2503.4797
   1   2.0000     -91.981580     -2502.9460
   2   2.0000     -91.981580     -2502.9460
   3   2.0000     -11.262084      -306.4569
   4   2.0000     -11.262084      -306.4569
   5   2.0000      -8.997251      -244.8276
   6   2.0000      -8.979759      -244.3517
   7   2.0000      -8.979753      -244.3515
   8   2.0000      -6.677898      -181.7149
   9   2.0000      -6.676726      -181.6829
  10   2.0000      -6.675757      -181.6566
  11   2.0000      -6.660731      -181.2477
  12   2.0000      -6.660729      -181.2477
  13   2.0000      -6.659540      -181.2153
  14   2.0000      -6.659540      -181.2153
  15   2.0000      -6.658665      -181.1915
  16   2.0000      -6.658665      -181.1915
  17   2.0000      -1.090070       -29.6623
  18   2.0000      -1.039146       -28.2766
  19   2.0000      -0.959901       -26.1202
  20   2.0000      -0.867284       -23.6000
  21   2.0000      -0.773928       -21.0596
  22   2.0000      -0.608476       -16.5575
  23   2.0000      -0.602993       -16.4083
  24   2.0000      -0.595302       -16.1990
  25   2.0000      -0.591641       -16.0994
  26   2.0000      -0.547366       -14.8946
  27   2.0000      -0.497468       -13.5368
  28   2.0000      -0.476132       -12.9562
  29   2.0000      -0.463123       -12.6022
  30   2.0000      -0.368264       -10.0210
  31   2.0000      -0.360116        -9.7992
  32   2.0000      -0.352652        -9.5962
  33   0.0000       0.030724         0.8360
  34   0.0000       0.034557         0.9403
  35   0.0000       0.044998         1.2245
  36   0.0000       0.045119         1.2278
  37   0.0000       0.054055         1.4709

MULLIKEN ATOMIC CHARGES
-----------------------
   0 S :   -0.117586
   1 S :   -0.091890
   2 S :   -0.091890
   3 C :   -0.752971
   4 C :   -0.752971
   5 H :    0.299823
   6 H :    0.299823
   7 H :    0.302035
   8 H :    0.301795
   9 H :    0.302035
  10 H :    0.301795
Sum of atomic charges:   -0.0000000

LOEWDIN ATOMIC CHARGES
----------------------
   0 S :    0.157504
   1 S :    0.584998
   2 S :    0.584998
   3 C :    0.136221
   4 C :    0.136221
   5 H :   -0.267661
   6 H :   -0.267661
   7 H :   -0.265522
   8 H :   -0.266787
   9 H :   -0.265522
  10 H :   -0.266787

  Mayer bond orders larger than 0.100000
B(  0-S ,  1-S ) :   1.0343 B(  0-S ,  2-S ) :   1.0343 B(  1-S ,  3-C ) :   0.9579
B(  2-S ,  4-C ) :   0.9579 B(  3-C ,  5-H ) :   0.9154 B(  3-C ,  7-H ) :   0.9115
B(  3-C ,  8-H ) :   0.9022 B(  4-C ,  6-H ) :   0.9154 B(  4-C ,  9-H ) :   0.9115
B(  4-C , 10-H ) :   0.9022

MP2 TOTAL ENERGY:    -1272.810380941 Eh
FINAL SINGLE POINT ENERGY     -1272.810380941358

DIPOLE MOMENT
-------------
                                X             Y             Z
Electronic contribution:     -0.00000      -0.00000       3.73552
Nuclear contribution   :     -0.00000       0.00000      -4.25171
                        -----------------------------------------
Total Dipole Moment    :     -0.00000      -0.00000      -0.51619
                        -----------------------------------------
Magnitude (a.u.)       :      0.51619
Magnitude (Debye)      :      1.31206

Rotational constants in cm-1:     0.154884     0.043400     0.042991
Rotational constants in MHz :  4643.307860  1301.104135  1288.845037

                             ****ORCA TERMINATED NORMALLY****
TOTAL RUN TIME: 0 days 0 hours 1 minutes 48 seconds 428 msec
