                         Program Version 5.0.3 -  RELEASE  -
|  1> !ri-mp2 aug-cc-pvtz aug-cc-pvtz/c tightscf
|  2> %pal nprocs 16 end
|  3> %maxcore 3800
|  4>
|  5> * xyz 0 1
|  6> O      0.573550   -0.456962   -0.218509
|  7> O     -0.573550    0.456962   -0.218509
|  8> C     -0.080170    1.796241   -0.003020
|  9> C      0.884776    2.195036   -1.121036
| 10> C     -1.367264    2.619106   -0.073034
| 11> C      0.573550    1.917363    1.374169
| 12> C      0.080170   -1.796241   -0.003020
| 13> C     -0.884776   -2.195036   -1.121036
| 14> C      1.367264   -2.619106   -0.073034
| 15> C     -0.573550   -1.917363    1.374169
| 16> H      0.409795    2.068957   -2.094034
| 17> H      1.176355    3.240428   -1.011020
| 18> H      1.784373    1.583641   -1.095314
| 19> H     -2.069771    2.304245    0.698415
| 20> H     -1.138092    3.673801    0.079206
| 21> H     -1.845273    2.506130   -1.045680
| 22> H      1.459710    1.289466    1.438562
| 23> H      0.871203    2.950204    1.559960
| 24> H     -0.124150    1.615244    2.155502
| 25> H     -0.409795   -2.068957   -2.094034
| 26> H     -1.176355   -3.240428   -1.011020
| 27> H     -1.784373   -1.583641   -1.095314
| 28> H      2.069771   -2.304245    0.698415
| 29> H      1.138092   -3.673801    0.079206
| 30> H      1.845273   -2.506130   -1.045680
| 31> H     -1.459710   -1.289466    1.438562
| 32> H     -0.871203   -2.950204    1.559960
| 33> H      0.124150   -1.615244    2.155502
| 34> *
| 35>
| 36>                          ****END OF INPUT****

CARTESIAN COORDINATES (ANGSTROEM)
---------------------------------
  O      0.573550   -0.456962   -0.218509
  O     -0.573550    0.456962   -0.218509
  C     -0.080170    1.796241   -0.003020
  C      0.884776    2.195036   -1.121036
  C     -1.367264    2.619106   -0.073034
  C      0.573550    1.917363    1.374169
  C      0.080170   -1.796241   -0.003020
  C     -0.884776   -2.195036   -1.121036
  C      1.367264   -2.619106   -0.073034
  C     -0.573550   -1.917363    1.374169
  H      0.409795    2.068957   -2.094034
  H      1.176355    3.240428   -1.011020
  H      1.784373    1.583641   -1.095314
  H     -2.069771    2.304245    0.698415
  H     -1.138092    3.673801    0.079206
  H     -1.845273    2.506130   -1.045680
  H      1.459710    1.289466    1.438562
  H      0.871203    2.950204    1.559960
  H     -0.124150    1.615244    2.155502
  H     -0.409795   -2.068957   -2.094034
  H     -1.176355   -3.240428   -1.011020
  H     -1.784373   -1.583641   -1.095314
  H      2.069771   -2.304245    0.698415
  H      1.138092   -3.673801    0.079206
  H      1.845273   -2.506130   -1.045680
  H     -1.459710   -1.289466    1.438562
  H     -0.871203   -2.950204    1.559960
  H      0.124150   -1.615244    2.155502

 Total Charge           Charge          ....    0
 Multiplicity           Mult            ....    1
 Number of Electrons    NEL             ....   82
 Basis Dimension        Dim             ....  874

ORBITAL ENERGIES
----------------

  NO   OCC          E(Eh)            E(eV)
   0   2.0000     -20.600679      -560.5730
   1   2.0000     -20.600402      -560.5654
   2   2.0000     -11.286448      -307.1199
   3   2.0000     -11.286444      -307.1198
   4   2.0000     -11.213129      -305.1247
   5   2.0000     -11.213128      -305.1247
   6   2.0000     -11.207903      -304.9826
   7   2.0000     -11.207903      -304.9826
   8   2.0000     -11.206387      -304.9413
   9   2.0000     -11.206387      -304.9413
  10   2.0000      -1.449391       -39.4399
  11   2.0000      -1.240758       -33.7627
  12   2.0000      -1.067408       -29.0456
  13   2.0000      -1.036056       -28.1925
  14   2.0000      -0.939112       -25.5545
  15   2.0000      -0.936702       -25.4890
  16   2.0000      -0.935449       -25.4549
  17   2.0000      -0.933554       -25.4033
  18   2.0000      -0.763036       -20.7633
  19   2.0000      -0.753017       -20.4906
  20   2.0000      -0.655524       -17.8377
  21   2.0000      -0.654356       -17.8059
  22   2.0000      -0.652792       -17.7634
  23   2.0000      -0.613968       -16.7069
  24   2.0000      -0.595692       -16.2096
  25   2.0000      -0.590879       -16.0786
  26   2.0000      -0.575312       -15.6550
  27   2.0000      -0.562537       -15.3074
  28   2.0000      -0.546385       -14.8679
  29   2.0000      -0.539180       -14.6718
  30   2.0000      -0.521084       -14.1794
  31   2.0000      -0.520931       -14.1753
  32   2.0000      -0.520403       -14.1609
  33   2.0000      -0.514264       -13.9938
  34   2.0000      -0.513097       -13.9621
  35   2.0000      -0.493626       -13.4323
  36   2.0000      -0.490580       -13.3494
  37   2.0000      -0.477288       -12.9877
  38   2.0000      -0.455014       -12.3816
  39   2.0000      -0.439754       -11.9663
  40   2.0000      -0.404313       -11.0019
  41   0.0000       0.029903         0.8137
  42   0.0000       0.033834         0.9207
  43   0.0000       0.036091         0.9821
  44   0.0000       0.036197         0.9850
  45   0.0000       0.047361         1.2888

MULLIKEN ATOMIC CHARGES
-----------------------
   0 O :   -0.477559
   1 O :   -0.477559
   2 C :    1.784773
   3 C :   -1.261468
   4 C :   -1.272658
   5 C :   -1.205049
   6 C :    1.784773
   7 C :   -1.261468
   8 C :   -1.272658
   9 C :   -1.205049
  10 H :    0.261908
  11 H :    0.252821
  12 H :    0.337277
  13 H :    0.247663
  14 H :    0.278605
  15 H :    0.238251
  16 H :    0.316536
  17 H :    0.234024
  18 H :    0.264877
  19 H :    0.261908
  20 H :    0.252821
  21 H :    0.337277
  22 H :    0.247664
  23 H :    0.278604
  24 H :    0.238250
  25 H :    0.316535
  26 H :    0.234024
  27 H :    0.264878
Sum of atomic charges:   -0.0000000

LOEWDIN ATOMIC CHARGES
----------------------
   0 O :    0.407820
   1 O :    0.407820
   2 C :   -0.643838
   3 C :    0.579707
   4 C :    0.570906
   5 C :    0.577285
   6 C :   -0.643838
   7 C :    0.579707
   8 C :    0.570906
   9 C :    0.577285
  10 H :   -0.161930
  11 H :   -0.163042
  12 H :   -0.177464
  13 H :   -0.163947
  14 H :   -0.161275
  15 H :   -0.163711
  16 H :   -0.175420
  17 H :   -0.162509
  18 H :   -0.162583
  19 H :   -0.161930
  20 H :   -0.163042
  21 H :   -0.177464
  22 H :   -0.163947
  23 H :   -0.161275
  24 H :   -0.163711
  25 H :   -0.175420
  26 H :   -0.162509
  27 H :   -0.162583

  Mayer bond orders larger than 0.100000
B(  0-O ,  1-O ) :   0.6613 B(  0-O ,  2-C ) :  -0.1401 B(  0-O ,  6-C ) :   0.2630
B(  1-O ,  2-C ) :   0.2630 B(  1-O ,  6-C ) :  -0.1401 B(  2-C ,  3-C ) :   0.6000
B(  2-C ,  4-C ) :   0.3295 B(  2-C ,  5-C ) :   0.5841 B(  3-C ,  5-C ) :   0.1158
B(  3-C , 10-H ) :   1.0313 B(  3-C , 11-H ) :   1.0204 B(  3-C , 12-H ) :   0.9240
B(  4-C , 13-H ) :   1.0787 B(  4-C , 14-H ) :   1.0286 B(  4-C , 15-H ) :   1.0874
B(  5-C , 16-H ) :   0.9379 B(  5-C , 17-H ) :   1.0305 B(  5-C , 18-H ) :   1.0075
B(  6-C ,  7-C ) :   0.6000 B(  6-C ,  8-C ) :   0.3295 B(  6-C ,  9-C ) :   0.5841
B(  7-C ,  9-C ) :   0.1158 B(  7-C , 19-H ) :   1.0313 B(  7-C , 20-H ) :   1.0204
B(  7-C , 21-H ) :   0.9240 B(  8-C , 22-H ) :   1.0787 B(  8-C , 23-H ) :   1.0286
B(  8-C , 24-H ) :   1.0874 B(  9-C , 25-H ) :   0.9379 B(  9-C , 26-H ) :   1.0305
B(  9-C , 27-H ) :   1.0075

MP2 TOTAL ENERGY:     -465.157984765 Eh
FINAL SINGLE POINT ENERGY      -465.157984764678

DIPOLE MOMENT
-------------
                                X             Y             Z
Electronic contribution:     -0.00000      -0.00000      -1.25306
Nuclear contribution   :     -0.00000      -0.00000       1.43682
                        -----------------------------------------
Total Dipole Moment    :     -0.00000      -0.00000       0.18376
                        -----------------------------------------
Magnitude (a.u.)       :      0.18376
Magnitude (Debye)      :      0.46707

Rotational constants in cm-1:     0.074536     0.024843     0.024775
Rotational constants in MHz :  2234.542066   744.764519   742.740129

                             ****ORCA TERMINATED NORMALLY****
TOTAL RUN TIME: 0 days 0 hours 24 minutes 14 seconds 287 msec
