                         Program Version 5.0.3 -  RELEASE  -
|  1> !ri-mp2 aug-cc-pvtz aug-cc-pvtz/c tightscf
|  2> %pal nprocs 16 end
|  3>
|  4> * xyz 0 1
|  5> Cl    0.000000     1.489376   -0.216532
|  6> Cl    0.000000    -1.489376   -0.216532
|  7> C     0.000000     0.000000    0.769333
|  8> H    -0.896869     0.000000    1.373046
|  9> H     0.896869     0.000000    1.373046
| 10> *
| 11>
| 12>                          ****END OF INPUT****

CARTESIAN COORDINATES (ANGSTROEM)
---------------------------------
  Cl     0.000000    1.489376   -0.216532
  Cl     0.000000   -1.489376   -0.216532
  C      0.000000    0.000000    0.769333
  H     -0.896869    0.000000    1.373046
  H      0.896869    0.000000    1.373046

 Total Charge           Charge          ....    0
 Multiplicity           Mult            ....    1
 Number of Electrons    NEL             ....   42
 Basis Dimension        Dim             ....  192

ORBITAL ENERGIES
----------------

  NO   OCC          E(Eh)            E(eV)
   0   2.0000    -104.851035     -2853.1417
   1   2.0000    -104.851035     -2853.1417
   2   2.0000     -11.369104      -309.3690
   3   2.0000     -10.575068      -287.7622
   4   2.0000     -10.575061      -287.7620
   5   2.0000      -8.041886      -218.8308
   6   2.0000      -8.041885      -218.8308
   7   2.0000      -8.039962      -218.7785
   8   2.0000      -8.039962      -218.7785
   9   2.0000      -8.039870      -218.7760
  10   2.0000      -8.039870      -218.7760
  11   2.0000      -1.187595       -32.3161
  12   2.0000      -1.095405       -29.8075
  13   2.0000      -0.899080       -24.4652
  14   2.0000      -0.677797       -18.4438
  15   2.0000      -0.612566       -16.6688
  16   2.0000      -0.582515       -15.8510
  17   2.0000      -0.474329       -12.9071
  18   2.0000      -0.470745       -12.8096
  19   2.0000      -0.449324       -12.2267
  20   2.0000      -0.448006       -12.1909
  21   0.0000       0.029263         0.7963
  22   0.0000       0.042601         1.1592
  23   0.0000       0.063969         1.7407
  24   0.0000       0.066740         1.8161
  25   0.0000       0.112410         3.0588

MULLIKEN ATOMIC CHARGES
-----------------------
   0 Cl:   -0.226094
   1 Cl:   -0.226094
   2 C :   -0.171644
   3 H :    0.311916
   4 H :    0.311916
Sum of atomic charges:    0.0000000

LOEWDIN ATOMIC CHARGES
----------------------
   0 Cl:    0.805970
   1 Cl:    0.805970
   2 C :   -0.905146
   3 H :   -0.353397
   4 H :   -0.353397

  Mayer bond orders larger than 0.100000
B(  0-Cl,  2-C ) :   0.9094 B(  1-Cl,  2-C ) :   0.9094 B(  2-C ,  3-H ) :   0.8974
B(  2-C ,  4-H ) :   0.8974

MP2 TOTAL ENERGY:     -958.644696935 Eh
FINAL SINGLE POINT ENERGY      -958.644696935497

DIPOLE MOMENT
-------------
                                X             Y             Z
Electronic contribution:     -0.00000       0.00000      -2.39115
Nuclear contribution   :      0.00000       0.00000       3.12576
                        -----------------------------------------
Total Dipole Moment    :     -0.00000       0.00000       0.73461
                        -----------------------------------------
Magnitude (a.u.)       :      0.73461
Magnitude (Debye)      :      1.86723

Rotational constants in cm-1:     1.072093     0.106084     0.098359
Rotational constants in MHz : 32140.526339  3180.323379  2948.727174

                             ****ORCA TERMINATED NORMALLY****
TOTAL RUN TIME: 0 days 0 hours 0 minutes 32 seconds 634 msec
