                         Program Version 5.0.3 -  RELEASE  -
|  1> !ri-mp2 aug-cc-pvtz aug-cc-pvtz/c tightscf
|  2> %pal nprocs 16 end
|  3>
|  4> * xyz 0 1
|  5> O     -0.037714   -1.357944    1.090603
|  6> O     -0.037714   -1.357944   -1.090603
|  7> H     -1.093723    1.213482    1.547438
|  8> H      0.276620    2.273597    1.142183
|  9> H      0.546613    0.777805    2.052059
| 10> C     -0.037714    1.240481    1.264007
| 11> H     -1.093723    1.213482   -1.547438
| 12> H      0.546613    0.777805   -2.052059
| 13> H      0.276620    2.273597   -1.142183
| 14> C     -0.037714    1.240481   -1.264007
| 15> N      0.022482   -0.802092    0.000000
| 16> N      0.205657    0.560886    0.000000
| 17> *
| 18>
| 19>                          ****END OF INPUT****

CARTESIAN COORDINATES (ANGSTROEM)
---------------------------------
  O     -0.037714   -1.357944    1.090603
  O     -0.037714   -1.357944   -1.090603
  H     -1.093723    1.213482    1.547438
  H      0.276620    2.273597    1.142183
  H      0.546613    0.777805    2.052059
  C     -0.037714    1.240481    1.264007
  H     -1.093723    1.213482   -1.547438
  H      0.546613    0.777805   -2.052059
  H      0.276620    2.273597   -1.142183
  C     -0.037714    1.240481   -1.264007
  N      0.022482   -0.802092    0.000000
  N      0.205657    0.560886    0.000000

 Total Charge           Charge          ....    0
 Multiplicity           Mult            ....    1
 Number of Electrons    NEL             ....   48
 Basis Dimension        Dim             ....  414

ORBITAL ENERGIES
----------------

  NO   OCC          E(Eh)            E(eV)
   0   2.0000     -20.592768      -560.3577
   1   2.0000     -20.592719      -560.3564
   2   2.0000     -15.878829      -432.0849
   3   2.0000     -15.651191      -425.8906
   4   2.0000     -11.284349      -307.0628
   5   2.0000     -11.284331      -307.0622
   6   2.0000      -1.618090       -44.0305
   7   2.0000      -1.399482       -38.0818
   8   2.0000      -1.296600       -35.2823
   9   2.0000      -1.011625       -27.5277
  10   2.0000      -1.003620       -27.3099
  11   2.0000      -0.820949       -22.3391
  12   2.0000      -0.769787       -20.9470
  13   2.0000      -0.751516       -20.4498
  14   2.0000      -0.734528       -19.9875
  15   2.0000      -0.639686       -17.4067
  16   2.0000      -0.634262       -17.2591
  17   2.0000      -0.603941       -16.4341
  18   2.0000      -0.589302       -16.0357
  19   2.0000      -0.567817       -15.4511
  20   2.0000      -0.509447       -13.8628
  21   2.0000      -0.483188       -13.1482
  22   2.0000      -0.457940       -12.4612
  23   2.0000      -0.417626       -11.3642
  24   0.0000       0.021625         0.5885
  25   0.0000       0.036733         0.9995
  26   0.0000       0.038761         1.0547
  27   0.0000       0.046779         1.2729
  28   0.0000       0.057689         1.5698

MULLIKEN ATOMIC CHARGES
-----------------------
   0 O :   -0.744095
   1 O :   -0.744095
   2 H :    0.327380
   3 H :    0.365195
   4 H :    0.370133
   5 C :   -0.885917
   6 H :    0.327380
   7 H :    0.370133
   8 H :    0.365195
   9 C :   -0.885917
  10 N :    1.169939
  11 N :   -0.035331
Sum of atomic charges:   -0.0000000

LOEWDIN ATOMIC CHARGES
----------------------
   0 O :    0.385323
   1 O :    0.385323
   2 H :   -0.153103
   3 H :   -0.174285
   4 H :   -0.189045
   5 C :    0.472561
   6 H :   -0.153103
   7 H :   -0.189045
   8 H :   -0.174285
   9 C :    0.472561
  10 N :   -0.833346
  11 N :    0.150442

  Mayer bond orders larger than 0.100000
B(  0-O , 10-N ) :   0.8622 B(  0-O , 11-N ) :   0.2530 B(  1-O , 10-N ) :   0.8622
B(  1-O , 11-N ) :   0.2530 B(  2-H ,  5-C ) :   0.9027 B(  3-H ,  5-C ) :   0.8727
B(  4-H ,  5-C ) :   0.8978 B(  5-C , 11-N ) :   0.8740 B(  6-H ,  9-C ) :   0.9027
B(  7-H ,  9-C ) :   0.8978 B(  8-H ,  9-C ) :   0.8727 B(  9-C , 11-N ) :   0.8740
B( 10-N , 11-N ) :   1.0960

MP2 TOTAL ENERGY:     -339.105309075 Eh
FINAL SINGLE POINT ENERGY      -339.105309074826

DIPOLE MOMENT
-------------
                                X             Y             Z
Electronic contribution:      0.49285      -6.55669      -0.00000
Nuclear contribution   :     -0.54122       8.49171      -0.00000
                        -----------------------------------------
Total Dipole Moment    :     -0.04837       1.93502      -0.00000
                        -----------------------------------------
Magnitude (a.u.)       :      1.93562
Magnitude (Debye)      :      4.91996

Rotational constants in cm-1:     0.175210     0.132683     0.078186
Rotational constants in MHz :  5252.648924  3977.747327  2343.959414

                             ****ORCA TERMINATED NORMALLY****
TOTAL RUN TIME: 0 days 0 hours 2 minutes 37 seconds 230 msec
