                         Program Version 5.0.3 -  RELEASE  -
|  1> !ri-mp2 aug-cc-pvtz aug-cc-pvtz/c tightscf
|  2> %pal nprocs 16 end
|  3>
|  4> * xyz 0 1
|  5> C     -1.173933   -0.086028   -0.010331
|  6> C     -0.518527    1.277829   -0.187572
|  7> H     -1.108936    2.034769    0.327755
|  8> H     -0.554216    1.502662   -1.257211
|  9> C      0.925632    1.196028    0.287908
| 10> H      1.002801    1.342170    1.364887
| 11> H      1.581138    1.908061   -0.205713
| 12> C     -0.148546   -1.207971    0.168542
| 13> S      1.503686   -0.500212   -0.148246
| 14> H     -0.361635   -2.019932   -0.522700
| 15> O     -2.361719   -0.281087   -0.009054
| 16> H     -0.232119   -1.594793    1.186057
| 17> *
| 18>
| 19>                          ****END OF INPUT****

CARTESIAN COORDINATES (ANGSTROEM)
---------------------------------
  C     -1.173933   -0.086028   -0.010331
  C     -0.518527    1.277829   -0.187572
  H     -1.108936    2.034769    0.327755
  H     -0.554216    1.502662   -1.257211
  C      0.925632    1.196028    0.287908
  H      1.002801    1.342170    1.364887
  H      1.581138    1.908061   -0.205713
  C     -0.148546   -1.207971    0.168542
  S      1.503686   -0.500212   -0.148246
  H     -0.361635   -2.019932   -0.522700
  O     -2.361719   -0.281087   -0.009054
  H     -0.232119   -1.594793    1.186057

 Total Charge           Charge          ....    0
 Multiplicity           Mult            ....    1
 Number of Electrons    NEL             ....   54
 Basis Dimension        Dim             ....  418

ORBITAL ENERGIES
----------------

  NO   OCC          E(Eh)            E(eV)
   0   2.0000     -91.962524     -2502.4275
   1   2.0000     -20.559792      -559.4604
   2   2.0000     -11.347457      -308.7800
   3   2.0000     -11.277741      -306.8829
   4   2.0000     -11.274725      -306.8009
   5   2.0000     -11.254996      -306.2640
   6   2.0000      -8.962696      -243.8874
   7   2.0000      -6.643788      -180.7867
   8   2.0000      -6.643026      -180.7659
   9   2.0000      -6.641951      -180.7367
  10   2.0000      -1.404378       -38.2151
  11   2.0000      -1.133297       -30.8386
  12   2.0000      -1.013333       -27.5742
  13   2.0000      -0.952732       -25.9251
  14   2.0000      -0.822260       -22.3748
  15   2.0000      -0.751518       -20.4498
  16   2.0000      -0.673323       -18.3221
  17   2.0000      -0.666197       -18.1282
  18   2.0000      -0.618510       -16.8305
  19   2.0000      -0.608583       -16.5604
  20   2.0000      -0.566002       -15.4017
  21   2.0000      -0.561907       -15.2903
  22   2.0000      -0.511495       -13.9185
  23   2.0000      -0.495346       -13.4790
  24   2.0000      -0.460150       -12.5213
  25   2.0000      -0.414435       -11.2774
  26   2.0000      -0.355495        -9.6735
  27   0.0000       0.027302         0.7429
  28   0.0000       0.035841         0.9753
  29   0.0000       0.037795         1.0285
  30   0.0000       0.043717         1.1896
  31   0.0000       0.055734         1.5166

MULLIKEN ATOMIC CHARGES
-----------------------
   0 C :    0.450612
   1 C :   -0.326156
   2 H :    0.308342
   3 H :    0.287635
   4 C :   -0.440004
   5 H :    0.237133
   6 H :    0.309163
   7 C :   -0.290453
   8 S :   -0.299272
   9 H :    0.314864
  10 O :   -0.820614
  11 H :    0.268751
Sum of atomic charges:    0.0000000

LOEWDIN ATOMIC CHARGES
----------------------
   0 C :   -0.569625
   1 C :    0.217918
   2 H :   -0.154696
   3 H :   -0.155073
   4 C :   -0.040895
   5 H :   -0.216414
   6 H :   -0.222001
   7 C :   -0.050890
   8 S :    1.180588
   9 H :   -0.227387
  10 O :    0.458840
  11 H :   -0.220364

  Mayer bond orders larger than 0.100000
B(  0-C ,  1-C ) :   0.7766 B(  0-C ,  7-C ) :   0.8301 B(  0-C , 10-O ) :   1.3404
B(  1-C ,  2-H ) :   0.9062 B(  1-C ,  3-H ) :   0.9273 B(  1-C ,  4-C ) :   1.0292
B(  4-C ,  5-H ) :   0.9593 B(  4-C ,  6-H ) :   0.9097 B(  4-C ,  8-S ) :   0.9567
B(  7-C ,  8-S ) :   1.0074 B(  7-C ,  9-H ) :   0.9295 B(  7-C , 11-H ) :   0.9234

MP2 TOTAL ENERGY:     -628.539204728 Eh
FINAL SINGLE POINT ENERGY      -628.539204727880

DIPOLE MOMENT
-------------
                                X             Y             Z
Electronic contribution:      0.42335      -2.58529      -0.69748
Nuclear contribution   :      0.24165       3.16103       0.89105
                        -----------------------------------------
Total Dipole Moment    :      0.66500       0.57574       0.19356
                        -----------------------------------------
Magnitude (a.u.)       :      0.90065
Magnitude (Debye)      :      2.28927

Rotational constants in cm-1:     0.187466     0.082171     0.060302
Rotational constants in MHz :  5620.103950  2463.413476  1807.794519

                             ****ORCA TERMINATED NORMALLY****
TOTAL RUN TIME: 0 days 0 hours 2 minutes 52 seconds 994 msec
