                         Program Version 5.0.3 -  RELEASE  -
|  1> !ri-mp2 aug-cc-pvtz aug-cc-pvtz/c tightscf
|  2> %pal nprocs 16 end
|  3> %maxcore 3800
|  4>
|  5> * xyz 0 1
|  6> C     -1.682099    0.843342    1.108925
|  7> C     -2.329448   -0.758201   -0.729885
|  8> C      1.677526    1.040130   -0.932617
|  9> C      2.330696   -0.886661    0.546317
| 10> C     -1.240487    0.173905   -0.201334
| 11> C      1.245402    0.137972    0.223722
| 12> N      0.012917   -0.583301   -0.108885
| 13> H     -2.599081    1.417126    0.962026
| 14> H     -1.878405    0.091069    1.877487
| 15> H     -0.925163    1.527203    1.493070
| 16> H     -2.033698   -1.190788   -1.684763
| 17> H     -3.272260   -0.225869   -0.861804
| 18> H     -2.508153   -1.577776   -0.028379
| 19> H      2.612240    1.547255   -0.688563
| 20> H      1.827598    0.448053   -1.836881
| 21> H      0.936364    1.809119   -1.150478
| 22> H      2.039406   -1.518516    1.388533
| 23> H      3.264720   -0.390727    0.811648
| 24> H      2.513905   -1.532110   -0.314411
| 25> H     -1.083299    0.957612   -0.946157
| 26> H      1.117881    0.773535    1.113812
| 27> H     -0.112018   -1.354992    0.536287
| 28> *
| 29>
| 30>                          ****END OF INPUT****

CARTESIAN COORDINATES (ANGSTROEM)
---------------------------------
  C     -1.682099    0.843342    1.108925
  C     -2.329448   -0.758201   -0.729885
  C      1.677526    1.040130   -0.932617
  C      2.330696   -0.886661    0.546317
  C     -1.240487    0.173905   -0.201334
  C      1.245402    0.137972    0.223722
  N      0.012917   -0.583301   -0.108885
  H     -2.599081    1.417126    0.962026
  H     -1.878405    0.091069    1.877487
  H     -0.925163    1.527203    1.493070
  H     -2.033698   -1.190788   -1.684763
  H     -3.272260   -0.225869   -0.861804
  H     -2.508153   -1.577776   -0.028379
  H      2.612240    1.547255   -0.688563
  H      1.827598    0.448053   -1.836881
  H      0.936364    1.809119   -1.150478
  H      2.039406   -1.518516    1.388533
  H      3.264720   -0.390727    0.811648
  H      2.513905   -1.532110   -0.314411
  H     -1.083299    0.957612   -0.946157
  H      1.117881    0.773535    1.113812
  H     -0.112018   -1.354992    0.536287

 Total Charge           Charge          ....    0
 Multiplicity           Mult            ....    1
 Number of Electrons    NEL             ....   58
 Basis Dimension        Dim             ....  667

ORBITAL ENERGIES
----------------

  NO   OCC          E(Eh)            E(eV)
   0   2.0000     -15.531252      -422.6268
   1   2.0000     -11.249440      -306.1128
   2   2.0000     -11.249118      -306.1041
   3   2.0000     -11.209330      -305.0214
   4   2.0000     -11.208569      -305.0007
   5   2.0000     -11.206667      -304.9489
   6   2.0000     -11.205468      -304.9163
   7   2.0000      -1.204834       -32.7852
   8   2.0000      -1.057732       -28.7824
   9   2.0000      -0.984935       -26.8015
  10   2.0000      -0.930128       -25.3101
  11   2.0000      -0.928499       -25.2657
  12   2.0000      -0.802852       -21.8467
  13   2.0000      -0.769637       -20.9429
  14   2.0000      -0.662161       -18.0183
  15   2.0000      -0.624301       -16.9881
  16   2.0000      -0.613482       -16.6937
  17   2.0000      -0.591365       -16.0919
  18   2.0000      -0.559630       -15.2283
  19   2.0000      -0.554623       -15.0921
  20   2.0000      -0.536330       -14.5943
  21   2.0000      -0.533011       -14.5040
  22   2.0000      -0.520178       -14.1548
  23   2.0000      -0.496576       -13.5125
  24   2.0000      -0.492285       -13.3957
  25   2.0000      -0.474792       -12.9197
  26   2.0000      -0.463987       -12.6257
  27   2.0000      -0.456940       -12.4340
  28   2.0000      -0.357920        -9.7395
  29   0.0000       0.029218         0.7951
  30   0.0000       0.035031         0.9533
  31   0.0000       0.036451         0.9919
  32   0.0000       0.037949         1.0326
  33   0.0000       0.050193         1.3658

MULLIKEN ATOMIC CHARGES
-----------------------
   0 C :   -1.045786
   1 C :   -1.207688
   2 C :   -1.080831
   3 C :   -1.089391
   4 C :    0.388977
   5 C :    0.453519
   6 N :   -0.488159
   7 H :    0.262537
   8 H :    0.266497
   9 H :    0.314849
  10 H :    0.272052
  11 H :    0.283556
  12 H :    0.245768
  13 H :    0.245398
  14 H :    0.300006
  15 H :    0.312761
  16 H :    0.265702
  17 H :    0.277026
  18 H :    0.264067
  19 H :    0.450676
  20 H :    0.296308
  21 H :    0.012154
Sum of atomic charges:    0.0000000

LOEWDIN ATOMIC CHARGES
----------------------
   0 C :    0.597247
   1 C :    0.587612
   2 C :    0.590904
   3 C :    0.587585
   4 C :   -0.163522
   5 C :   -0.173905
   6 N :    0.592252
   7 H :   -0.166713
   8 H :   -0.161436
   9 H :   -0.180842
  10 H :   -0.165389
  11 H :   -0.167823
  12 H :   -0.164801
  13 H :   -0.166303
  14 H :   -0.158787
  15 H :   -0.178078
  16 H :   -0.165963
  17 H :   -0.166394
  18 H :   -0.160425
  19 H :   -0.155511
  20 H :   -0.146059
  21 H :   -0.313649

  Mayer bond orders larger than 0.100000
B(  0-C ,  1-C ) :   0.1435 B(  0-C ,  4-C ) :   0.6766 B(  0-C ,  7-H ) :   0.9838
B(  0-C ,  8-H ) :   0.9799 B(  0-C ,  9-H ) :   0.9462 B(  1-C ,  4-C ) :   0.6196
B(  1-C , 10-H ) :   0.9791 B(  1-C , 11-H ) :   0.9977 B(  1-C , 12-H ) :   1.0225
B(  2-C ,  3-C ) :   0.1471 B(  2-C ,  5-C ) :   0.6917 B(  2-C ,  6-N ) :   0.1139
B(  2-C , 13-H ) :   1.0174 B(  2-C , 14-H ) :   0.9480 B(  2-C , 15-H ) :   0.9448
B(  3-C ,  5-C ) :   0.6270 B(  3-C , 16-H ) :   0.9828 B(  3-C , 17-H ) :   1.0118
B(  3-C , 18-H ) :   1.0096 B(  4-C ,  6-N ) :   0.8068 B(  4-C , 19-H ) :   0.8161
B(  5-C ,  6-N ) :   0.6963 B(  5-C , 20-H ) :   0.9492 B(  6-N , 21-H ) :   0.9357

MP2 TOTAL ENERGY:     -291.793834070 Eh
FINAL SINGLE POINT ENERGY      -291.793834069688

DIPOLE MOMENT
-------------
                                X             Y             Z
Electronic contribution:      0.05378      -0.68719      -0.39345
Nuclear contribution   :     -0.10752       0.83614       0.72206
                        -----------------------------------------
Total Dipole Moment    :     -0.05375       0.14895       0.32862
                        -----------------------------------------
Magnitude (a.u.)       :      0.36478
Magnitude (Debye)      :      0.92720

Rotational constants in cm-1:     0.137162     0.046846     0.045742
Rotational constants in MHz :  4112.015030  1404.393266  1371.322476

                             ****ORCA TERMINATED NORMALLY****
TOTAL RUN TIME: 0 days 0 hours 8 minutes 36 seconds 651 msec
