                         Program Version 5.0.3 -  RELEASE  -
|  1> !ri-mp2 aug-cc-pvtz aug-cc-pvtz/c tightscf
|  2> %pal nprocs 16 end
|  3>
|  4> * xyz 0 1
|  5> C      0.000000    0.000000    0.681680
|  6> C      0.000000    0.000000   -0.681680
|  7> C      0.000000    0.000000    1.885975
|  8> C      0.000000    0.000000   -1.885975
|  9> H      0.000000    0.000000    2.946942
| 10> H      0.000000    0.000000   -2.946942
| 11> *
| 12>
| 13>                          ****END OF INPUT****

CARTESIAN COORDINATES (ANGSTROEM)
---------------------------------
  C      0.000000    0.000000    0.681680
  C      0.000000    0.000000   -0.681680
  C      0.000000    0.000000    1.885975
  C      0.000000    0.000000   -1.885975
  H      0.000000    0.000000    2.946942
  H      0.000000    0.000000   -2.946942

 Total Charge           Charge          ....    0
 Multiplicity           Mult            ....    1
 Number of Electrons    NEL             ....   26
 Basis Dimension        Dim             ....  230

ORBITAL ENERGIES
----------------

  NO   OCC          E(Eh)            E(eV)
   0   2.0000     -11.266474      -306.5763
   1   2.0000     -11.265284      -306.5440
   2   2.0000     -11.258110      -306.3488
   3   2.0000     -11.258030      -306.3466
   4   2.0000      -1.094237       -29.7757
   5   2.0000      -1.022623       -27.8270
   6   2.0000      -0.853379       -23.2216
   7   2.0000      -0.734167       -19.9777
   8   2.0000      -0.707033       -19.2393
   9   2.0000      -0.494443       -13.4545
  10   2.0000      -0.494443       -13.4545
  11   2.0000      -0.370953       -10.0942
  12   2.0000      -0.370953       -10.0942
  13   0.0000       0.028367         0.7719
  14   0.0000       0.029109         0.7921
  15   0.0000       0.073650         2.0041
  16   0.0000       0.073650         2.0041
  17   0.0000       0.074518         2.0277

MULLIKEN ATOMIC CHARGES
-----------------------
   0 C :    0.790201
   1 C :    0.790201
   2 C :   -1.176328
   3 C :   -1.176328
   4 H :    0.386127
   5 H :    0.386127
Sum of atomic charges:    0.0000000

LOEWDIN ATOMIC CHARGES
----------------------
   0 C :   -0.111584
   1 C :   -0.111584
   2 C :    0.401040
   3 C :    0.401040
   4 H :   -0.289456
   5 H :   -0.289456

  Mayer bond orders larger than 0.100000
B(  0-C ,  1-C ) :   1.5594 B(  0-C ,  2-C ) :   1.3013 B(  0-C ,  3-C ) :  -0.5827
B(  0-C ,  4-H ) :  -0.3165 B(  1-C ,  2-C ) :  -0.5827 B(  1-C ,  3-C ) :   1.3013
B(  1-C ,  5-H ) :  -0.3165 B(  2-C ,  3-C ) :   0.7544 B(  2-C ,  4-H ) :   1.1740
B(  3-C ,  5-H ) :   1.1740

MP2 TOTAL ENERGY:     -153.160582702 Eh
FINAL SINGLE POINT ENERGY      -153.160582701765

DIPOLE MOMENT
-------------
                                X             Y             Z
Electronic contribution:     -0.00000      -0.00000      -0.00000
Nuclear contribution   :      0.00000       0.00000       0.00000
                        -----------------------------------------
Total Dipole Moment    :     -0.00000      -0.00000      -0.00000
                        -----------------------------------------
Magnitude (a.u.)       :      0.00000
Magnitude (Debye)      :      0.00000

Rotational constants in cm-1:     0.000000     0.147726     0.147726
Rotational constants in MHz :     0.000000  4428.705027  4428.705027

                             ****ORCA TERMINATED NORMALLY****
TOTAL RUN TIME: 0 days 0 hours 0 minutes 36 seconds 71 msec
