                         Program Version 5.0.3 -  RELEASE  -
|  1> !ri-mp2 aug-cc-pvtz aug-cc-pvtz/c tightscf
|  2> %pal nprocs 16 end
|  3>
|  4> * xyz 0 1
|  5> S     -1.060866   -1.182537    0.010069
|  6> S      1.060865   -1.182537    0.010062
|  7> N     -2.426341    1.041613   -0.216817
|  8> N      2.426343    1.041611   -0.216812
|  9> C      0.000000    1.355502    0.314245
| 10> C     -1.267395    0.594687   -0.001788
| 11> C      1.267396    0.594686   -0.001787
| 12> H      0.000000    1.557660    1.390467
| 13> H      0.000000    2.314713   -0.204060
| 14> H     -2.461028    2.058497   -0.168561
| 15> H      2.461031    2.058496   -0.168554
| 16> *
| 17>
| 18>                          ****END OF INPUT****

CARTESIAN COORDINATES (ANGSTROEM)
---------------------------------
  S     -1.060866   -1.182537    0.010069
  S      1.060865   -1.182537    0.010062
  N     -2.426341    1.041613   -0.216817
  N      2.426343    1.041611   -0.216812
  C      0.000000    1.355502    0.314245
  C     -1.267395    0.594687   -0.001788
  C      1.267396    0.594686   -0.001787
  H      0.000000    1.557660    1.390467
  H      0.000000    2.314713   -0.204060
  H     -2.461028    2.058497   -0.168561
  H      2.461031    2.058496   -0.168554

 Total Charge           Charge          ....    0
 Multiplicity           Mult            ....    1
 Number of Electrons    NEL             ....   68
 Basis Dimension        Dim             ....  422

ORBITAL ENERGIES
----------------

  NO   OCC          E(Eh)            E(eV)
   0   2.0000     -92.004030     -2503.5569
   1   2.0000     -92.004028     -2503.5569
   2   2.0000     -15.575383      -423.8277
   3   2.0000     -15.575382      -423.8277
   4   2.0000     -11.351434      -308.8882
   5   2.0000     -11.351425      -308.8880
   6   2.0000     -11.293010      -307.2984
   7   2.0000      -9.003055      -244.9856
   8   2.0000      -9.002905      -244.9815
   9   2.0000      -6.683824      -181.8761
  10   2.0000      -6.683597      -181.8699
  11   2.0000      -6.682807      -181.8484
  12   2.0000      -6.682724      -181.8462
  13   2.0000      -6.681466      -181.8119
  14   2.0000      -6.681450      -181.8115
  15   2.0000      -1.266200       -34.4551
  16   2.0000      -1.246036       -33.9064
  17   2.0000      -1.099432       -29.9171
  18   2.0000      -1.026143       -27.9228
  19   2.0000      -0.944883       -25.7116
  20   2.0000      -0.785409       -21.3721
  21   2.0000      -0.763406       -20.7733
  22   2.0000      -0.696657       -18.9570
  23   2.0000      -0.690813       -18.7980
  24   2.0000      -0.663084       -18.0434
  25   2.0000      -0.574558       -15.6345
  26   2.0000      -0.538521       -14.6539
  27   2.0000      -0.510601       -13.8942
  28   2.0000      -0.506468       -13.7817
  29   2.0000      -0.471623       -12.8335
  30   2.0000      -0.461390       -12.5551
  31   2.0000      -0.423800       -11.5322
  32   2.0000      -0.419636       -11.4189
  33   2.0000      -0.333358        -9.0711
  34   0.0000       0.019359         0.5268
  35   0.0000       0.035894         0.9767
  36   0.0000       0.036062         0.9813
  37   0.0000       0.059059         1.6071
  38   0.0000       0.060026         1.6334

MULLIKEN ATOMIC CHARGES
-----------------------
   0 S :   -0.148970
   1 S :   -0.148969
   2 N :   -0.784880
   3 N :   -0.784881
   4 C :   -0.068815
   5 C :    0.515683
   6 C :    0.515683
   7 H :    0.318157
   8 H :    0.247588
   9 H :    0.169702
  10 H :    0.169702
Sum of atomic charges:   -0.0000000

LOEWDIN ATOMIC CHARGES
----------------------
   0 S :    0.748958
   1 S :    0.748958
   2 N :    0.561490
   3 N :    0.561489
   4 C :    0.141688
   5 C :   -0.790861
   6 C :   -0.790862
   7 H :   -0.153111
   8 H :   -0.164682
   9 H :   -0.431535
  10 H :   -0.431533

  Mayer bond orders larger than 0.100000
B(  0-S ,  1-S ) :   1.0030 B(  0-S ,  5-C ) :   0.8913 B(  1-S ,  6-C ) :   0.8913
B(  2-N ,  5-C ) :   1.2895 B(  2-N ,  9-H ) :   0.9167 B(  3-N ,  6-C ) :   1.2895
B(  3-N , 10-H ) :   0.9167 B(  4-C ,  5-C ) :   0.8519 B(  4-C ,  6-C ) :   0.8519
B(  4-C ,  7-H ) :   0.8791 B(  4-C ,  8-H ) :   0.9326

MP2 TOTAL ENERGY:    -1021.213641597 Eh
FINAL SINGLE POINT ENERGY     -1021.213641596629

DIPOLE MOMENT
-------------
                                X             Y             Z
Electronic contribution:     -0.00000      -6.45483      -0.39415
Nuclear contribution   :      0.00000       7.80033       0.81739
                        -----------------------------------------
Total Dipole Moment    :     -0.00000       1.34550       0.42323
                        -----------------------------------------
Magnitude (a.u.)       :      1.41050
Magnitude (Debye)      :      3.58519

Rotational constants in cm-1:     0.098538     0.057647     0.037098
Rotational constants in MHz :  2954.096518  1728.222472  1112.157437

                             ****ORCA TERMINATED NORMALLY****
TOTAL RUN TIME: 0 days 0 hours 3 minutes 31 seconds 223 msec
