                         Program Version 5.0.3 -  RELEASE  -
|  1> !ri-mp2 aug-cc-pvtz aug-cc-pvtz/c tightscf
|  2> %pal nprocs 16 end
|  3> %maxcore 3800
|  4>
|  5> * xyz 0 1
|  6> C      1.306354    0.956233   -0.134176
|  7> C     -1.044968    0.127302    0.167328
|  8> C      3.886887   -1.608049   -0.254851
|  9> C     -4.599276   -0.443312   -0.394492
| 10> C     -0.088316    0.906240   -0.718617
| 11> C      3.316527   -0.269540    0.153530
| 12> C     -3.305169   -0.571942    0.375011
| 13> O      1.744359    1.881556    0.499819
| 14> O     -0.757253   -0.411532    1.203966
| 15> O      1.990697   -0.161001   -0.420971
| 16> O     -2.276334    0.126892   -0.371097
| 17> H      4.887123   -1.722217    0.164487
| 18> H      3.266466   -2.424893    0.112600
| 19> H      3.960144   -1.689656   -1.339244
| 20> H     -5.395469   -0.960067    0.142386
| 21> H     -4.886137    0.601847   -0.507648
| 22> H     -4.512178   -0.886897   -1.386071
| 23> H     -0.462283    1.922798   -0.825864
| 24> H     -0.078310    0.440983   -1.704161
| 25> H      3.919903    0.562400   -0.209284
| 26> H      3.228446   -0.173746    1.235219
| 27> H     -2.999534   -1.611161    0.493470
| 28> H     -3.372156   -0.128302    1.367982
| 29> *
| 30>
| 31>                          ****END OF INPUT****

CARTESIAN COORDINATES (ANGSTROEM)
---------------------------------
  C      1.306354    0.956233   -0.134176
  C     -1.044968    0.127302    0.167328
  C      3.886887   -1.608049   -0.254851
  C     -4.599276   -0.443312   -0.394492
  C     -0.088316    0.906240   -0.718617
  C      3.316527   -0.269540    0.153530
  C     -3.305169   -0.571942    0.375011
  O      1.744359    1.881556    0.499819
  O     -0.757253   -0.411532    1.203966
  O      1.990697   -0.161001   -0.420971
  O     -2.276334    0.126892   -0.371097
  H      4.887123   -1.722217    0.164487
  H      3.266466   -2.424893    0.112600
  H      3.960144   -1.689656   -1.339244
  H     -5.395469   -0.960067    0.142386
  H     -4.886137    0.601847   -0.507648
  H     -4.512178   -0.886897   -1.386071
  H     -0.462283    1.922798   -0.825864
  H     -0.078310    0.440983   -1.704161
  H      3.919903    0.562400   -0.209284
  H      3.228446   -0.173746    1.235219
  H     -2.999534   -1.611161    0.493470
  H     -3.372156   -0.128302    1.367982

 Total Charge           Charge          ....    0
 Multiplicity           Mult            ....    1
 Number of Electrons    NEL             ....   86
 Basis Dimension        Dim             ....  782

ORBITAL ENERGIES
----------------

  NO   OCC          E(Eh)            E(eV)
   0   2.0000     -20.609908      -560.8241
   1   2.0000     -20.602312      -560.6174
   2   2.0000     -20.554238      -559.3092
   3   2.0000     -20.546288      -559.0929
   4   2.0000     -11.393729      -310.0391
   5   2.0000     -11.384045      -309.7756
   6   2.0000     -11.296232      -307.3861
   7   2.0000     -11.288478      -307.1751
   8   2.0000     -11.264709      -306.5283
   9   2.0000     -11.230511      -305.5978
  10   2.0000     -11.223990      -305.4203
  11   2.0000      -1.469765       -39.9943
  12   2.0000      -1.459666       -39.7195
  13   2.0000      -1.369821       -37.2747
  14   2.0000      -1.361527       -37.0490
  15   2.0000      -1.081481       -29.4286
  16   2.0000      -1.047317       -28.4989
  17   2.0000      -1.019115       -27.7315
  18   2.0000      -0.892881       -24.2965
  19   2.0000      -0.861929       -23.4543
  20   2.0000      -0.799551       -21.7569
  21   2.0000      -0.775632       -21.1060
  22   2.0000      -0.717086       -19.5129
  23   2.0000      -0.706080       -19.2134
  24   2.0000      -0.693577       -18.8732
  25   2.0000      -0.681585       -18.5469
  26   2.0000      -0.674636       -18.3578
  27   2.0000      -0.652186       -17.7469
  28   2.0000      -0.620680       -16.8896
  29   2.0000      -0.591805       -16.1038
  30   2.0000      -0.571299       -15.5458
  31   2.0000      -0.566751       -15.4221
  32   2.0000      -0.565646       -15.3920
  33   2.0000      -0.554364       -15.0850
  34   2.0000      -0.541549       -14.7363
  35   2.0000      -0.520493       -14.1633
  36   2.0000      -0.513324       -13.9683
  37   2.0000      -0.512437       -13.9441
  38   2.0000      -0.508237       -13.8298
  39   2.0000      -0.469025       -12.7628
  40   2.0000      -0.461198       -12.5498
  41   2.0000      -0.456497       -12.4219
  42   2.0000      -0.449971       -12.2443
  43   0.0000       0.026137         0.7112
  44   0.0000       0.031426         0.8552
  45   0.0000       0.034877         0.9491
  46   0.0000       0.038375         1.0442
  47   0.0000       0.044534         1.2118

MULLIKEN ATOMIC CHARGES
-----------------------
   0 C :    0.510864
   1 C :    0.321728
   2 C :   -0.958606
   3 C :   -0.956377
   4 C :    0.188648
   5 C :   -0.241150
   6 C :   -0.203285
   7 O :   -0.870558
   8 O :   -0.777372
   9 O :   -0.304018
  10 O :   -0.272828
  11 H :    0.315200
  12 H :    0.270924
  13 H :    0.258027
  14 H :    0.322269
  15 H :    0.261348
  16 H :    0.259371
  17 H :    0.312470
  18 H :    0.245164
  19 H :    0.333357
  20 H :    0.322821
  21 H :    0.328377
  22 H :    0.333627
Sum of atomic charges:   -0.0000000

LOEWDIN ATOMIC CHARGES
----------------------
   0 C :   -0.838331
   1 C :   -0.813169
   2 C :    0.583145
   3 C :    0.583499
   4 C :    0.275988
   5 C :    0.043872
   6 C :    0.044145
   7 O :    0.467973
   8 O :    0.476804
   9 O :    0.585381
  10 O :    0.583599
  11 H :   -0.173197
  12 H :   -0.171842
  13 H :   -0.173267
  14 H :   -0.172565
  15 H :   -0.172202
  16 H :   -0.172465
  17 H :   -0.163687
  18 H :   -0.160549
  19 H :   -0.159170
  20 H :   -0.157017
  21 H :   -0.158504
  22 H :   -0.158443

  Mayer bond orders larger than 0.100000
B(  0-C ,  1-C ) :   0.1054 B(  0-C ,  4-C ) :   0.6125 B(  0-C ,  7-O ) :   1.3579
B(  0-C ,  9-O ) :   1.0111 B(  1-C ,  4-C ) :   0.6508 B(  1-C ,  8-O ) :   1.5607
B(  1-C , 10-O ) :   1.0785 B(  2-C ,  5-C ) :   0.8909 B(  2-C , 11-H ) :   0.9372
B(  2-C , 12-H ) :   0.9545 B(  2-C , 13-H ) :   0.9712 B(  3-C ,  6-C ) :   0.8843
B(  3-C , 14-H ) :   0.9298 B(  3-C , 15-H ) :   0.9717 B(  3-C , 16-H ) :   0.9700
B(  4-C , 10-O ) :  -0.1208 B(  4-C , 17-H ) :   0.9593 B(  4-C , 18-H ) :   0.9846
B(  5-C ,  9-O ) :   0.7762 B(  5-C , 19-H ) :   0.9018 B(  5-C , 20-H ) :   0.9005
B(  6-C , 10-O ) :   0.7804 B(  6-C , 21-H ) :   0.9006 B(  6-C , 22-H ) :   0.8926

MP2 TOTAL ENERGY:     -573.903325817 Eh
FINAL SINGLE POINT ENERGY      -573.903325816739

DIPOLE MOMENT
-------------
                                X             Y             Z
Electronic contribution:      1.88671       5.48375       1.55754
Nuclear contribution   :     -2.45336      -6.09706      -2.46227
                        -----------------------------------------
Total Dipole Moment    :     -0.56665      -0.61331      -0.90472
                        -----------------------------------------
Magnitude (a.u.)       :      1.23116
Magnitude (Debye)      :      3.12937

Rotational constants in cm-1:     0.086588     0.014494     0.013509
Rotational constants in MHz :  2595.843336   434.522755   404.994905

                             ****ORCA TERMINATED NORMALLY****
TOTAL RUN TIME: 0 days 0 hours 13 minutes 42 seconds 648 msec
