                         Program Version 5.0.3 -  RELEASE  -
|  1> !ri-mp2 aug-cc-pvtz aug-cc-pvtz/c tightscf
|  2> %pal nprocs 16 end
|  3>
|  4> * xyz 0 1
|  5> C      0.000100   -1.136474    0.000000
|  6> N      0.000000    0.155349    0.000000
|  7> N     -0.000113    1.287404    0.000000
|  8> H      0.000095   -1.640214    0.950280
|  9> H      0.000095   -1.640214   -0.950280
| 10> *
| 11>
| 12>                          ****END OF INPUT****

CARTESIAN COORDINATES (ANGSTROEM)
---------------------------------
  C      0.000100   -1.136474    0.000000
  N      0.000000    0.155349    0.000000
  N     -0.000113    1.287404    0.000000
  H      0.000095   -1.640214    0.950280
  H      0.000095   -1.640214   -0.950280

 Total Charge           Charge          ....    0
 Multiplicity           Mult            ....    1
 Number of Electrons    NEL             ....   22
 Basis Dimension        Dim             ....  184

ORBITAL ENERGIES
----------------

  NO   OCC          E(Eh)            E(eV)
   0   2.0000     -15.736252      -428.2052
   1   2.0000     -15.656200      -426.0269
   2   2.0000     -11.266565      -306.5788
   3   2.0000      -1.462059       -39.7847
   4   2.0000      -1.124937       -30.6111
   5   2.0000      -0.760251       -20.6875
   6   2.0000      -0.697226       -18.9725
   7   2.0000      -0.663143       -18.0451
   8   2.0000      -0.656840       -17.8735
   9   2.0000      -0.540837       -14.7169
  10   2.0000      -0.330532        -8.9942
  11   0.0000       0.029100         0.7919
  12   0.0000       0.040415         1.0998
  13   0.0000       0.068504         1.8641
  14   0.0000       0.070733         1.9247
  15   0.0000       0.101340         2.7576

MULLIKEN ATOMIC CHARGES
-----------------------
   0 C :   -0.879728
   1 N :    0.579365
   2 N :   -0.618793
   3 H :    0.459578
   4 H :    0.459578
Sum of atomic charges:   -0.0000000

LOEWDIN ATOMIC CHARGES
----------------------
   0 C :    0.354698
   1 N :   -0.090327
   2 N :    0.274229
   3 H :   -0.269300
   4 H :   -0.269300

  Mayer bond orders larger than 0.100000
B(  0-C ,  1-N ) :   1.4641 B(  0-C ,  2-N ) :   0.1034 B(  0-C ,  3-H ) :   0.7379
B(  0-C ,  4-H ) :   0.7379 B(  1-N ,  2-N ) :   1.4507

MP2 TOTAL ENERGY:     -148.474377520 Eh
FINAL SINGLE POINT ENERGY      -148.474377520403

DIPOLE MOMENT
-------------
                                X             Y             Z
Electronic contribution:     -0.00018       2.61200       0.00000
Nuclear contribution   :      0.00019      -3.21566       0.00000
                        -----------------------------------------
Total Dipole Moment    :      0.00001      -0.60366       0.00000
                        -----------------------------------------
Magnitude (a.u.)       :      0.60366
Magnitude (Debye)      :      1.53437

Rotational constants in cm-1:     9.259834     0.381062     0.366000
Rotational constants in MHz : 277602.834741 11423.953476 10972.415012

                             ****ORCA TERMINATED NORMALLY****
TOTAL RUN TIME: 0 days 0 hours 0 minutes 37 seconds 811 msec
