                         Program Version 5.0.3 -  RELEASE  -
|  1> !ri-mp2 aug-cc-pvtz aug-cc-pvtz/c tightscf
|  2> %pal nprocs 16 end
|  3>
|  4> * xyz 0 1
|  5> C     0.000000     0.000000    0.075891
|  6> C     0.000000     2.340391   -0.016158
|  7> C     0.000000    -2.340391   -0.016158
|  8> O     0.000000     0.000000    1.281653
|  9> O     0.000000     1.081938   -0.709482
| 10> O     0.000000    -1.081938   -0.709482
| 11> H    -0.887790     2.432734    0.606454
| 12> H     0.000000     3.096867   -0.794390
| 13> H     0.887790     2.432734    0.606454
| 14> H     0.000000    -3.096867   -0.794390
| 15> H    -0.887790    -2.432734    0.606454
| 16> H     0.887790    -2.432734    0.606454
| 17> *
| 18>
| 19>                          ****END OF INPUT****

CARTESIAN COORDINATES (ANGSTROEM)
---------------------------------
  C      0.000000    0.000000    0.075891
  C      0.000000    2.340391   -0.016158
  C      0.000000   -2.340391   -0.016158
  O      0.000000    0.000000    1.281653
  O      0.000000    1.081938   -0.709482
  O      0.000000   -1.081938   -0.709482
  H     -0.887790    2.432734    0.606454
  H      0.000000    3.096867   -0.794390
  H      0.887790    2.432734    0.606454
  H      0.000000   -3.096867   -0.794390
  H     -0.887790   -2.432734    0.606454
  H      0.887790   -2.432734    0.606454

 Total Charge           Charge          ....    0
 Multiplicity           Mult            ....    1
 Number of Electrons    NEL             ....   48
 Basis Dimension        Dim             ....  414

ORBITAL ENERGIES
----------------

  NO   OCC          E(Eh)            E(eV)
   0   2.0000     -20.611557      -560.8690
   1   2.0000     -20.611533      -560.8683
   2   2.0000     -20.546578      -559.1008
   3   2.0000     -11.429747      -311.0192
   4   2.0000     -11.290695      -307.2354
   5   2.0000     -11.290694      -307.2354
   6   2.0000      -1.506598       -40.9966
   7   2.0000      -1.401564       -38.1385
   8   2.0000      -1.366085       -37.1731
   9   2.0000      -1.009889       -27.4805
  10   2.0000      -0.942299       -25.6413
  11   2.0000      -0.794611       -21.6225
  12   2.0000      -0.752136       -20.4667
  13   2.0000      -0.707583       -19.2543
  14   2.0000      -0.700249       -19.0548
  15   2.0000      -0.643987       -17.5238
  16   2.0000      -0.628831       -17.1114
  17   2.0000      -0.599816       -16.3218
  18   2.0000      -0.561036       -15.2666
  19   2.0000      -0.549414       -14.9503
  20   2.0000      -0.533385       -14.5141
  21   2.0000      -0.477295       -12.9879
  22   2.0000      -0.473857       -12.8943
  23   2.0000      -0.472798       -12.8655
  24   0.0000       0.029414         0.8004
  25   0.0000       0.034831         0.9478
  26   0.0000       0.044780         1.2185
  27   0.0000       0.046347         1.2612
  28   0.0000       0.056273         1.5313

MULLIKEN ATOMIC CHARGES
-----------------------
   0 C :    0.558373
   1 C :   -0.712567
   2 C :   -0.712567
   3 O :   -0.606430
   4 O :   -0.311982
   5 O :   -0.311982
   6 H :    0.342930
   7 H :    0.362718
   8 H :    0.342930
   9 H :    0.362718
  10 H :    0.342930
  11 H :    0.342930
Sum of atomic charges:    0.0000000

LOEWDIN ATOMIC CHARGES
----------------------
   0 C :   -1.155544
   1 C :    0.359276
   2 C :    0.359276
   3 O :    0.440292
   4 O :    0.547052
   5 O :    0.547052
   6 H :   -0.181082
   7 H :   -0.186539
   8 H :   -0.181082
   9 H :   -0.186539
  10 H :   -0.181082
  11 H :   -0.181082

  Mayer bond orders larger than 0.100000
B(  0-C ,  3-O ) :   1.6872 B(  0-C ,  4-O ) :   1.1391 B(  0-C ,  5-O ) :   1.1391
B(  1-C ,  4-O ) :   0.8195 B(  1-C ,  6-H ) :   0.8886 B(  1-C ,  7-H ) :   0.8898
B(  1-C ,  8-H ) :   0.8886 B(  2-C ,  5-O ) :   0.8195 B(  2-C ,  9-H ) :   0.8898
B(  2-C , 10-H ) :   0.8886 B(  2-C , 11-H ) :   0.8886

MP2 TOTAL ENERGY:     -343.056549074 Eh
FINAL SINGLE POINT ENERGY      -343.056549074202

DIPOLE MOMENT
-------------
                                X             Y             Z
Electronic contribution:      0.00000       0.00000      -1.00630
Nuclear contribution   :      0.00000      -0.00000       0.83552
                        -----------------------------------------
Total Dipole Moment    :      0.00000       0.00000      -0.17078
                        -----------------------------------------
Magnitude (a.u.)       :      0.17078
Magnitude (Debye)      :      0.43409

Rotational constants in cm-1:     0.348385     0.078258     0.065481
Rotational constants in MHz : 10444.312968  2346.127734  1963.079103

                             ****ORCA TERMINATED NORMALLY****
TOTAL RUN TIME: 0 days 0 hours 2 minutes 23 seconds 425 msec
