                         Program Version 5.0.3 -  RELEASE  -
|  1> !ri-mp2 aug-cc-pvtz aug-cc-pvtz/c tightscf
|  2> %pal nprocs 16 end
|  3>
|  4> * xyz 0 1
|  5> C     -0.178150    0.524281    0.000000
|  6> H     -1.074887    1.131933    0.000000
|  7> F      0.911211    1.319595    0.000000
|  8> Cl    -0.178150   -0.475117    1.474553
|  9> Cl    -0.178150   -0.475117   -1.474553
| 10> *
| 11>
| 12>                          ****END OF INPUT****

CARTESIAN COORDINATES (ANGSTROEM)
---------------------------------
  C     -0.178150    0.524281    0.000000
  H     -1.074887    1.131933    0.000000
  F      0.911211    1.319595    0.000000
  Cl    -0.178150   -0.475117    1.474553
  Cl    -0.178150   -0.475117   -1.474553

 Total Charge           Charge          ....    0
 Multiplicity           Mult            ....    1
 Number of Electrons    NEL             ....   50
 Basis Dimension        Dim             ....  215

ORBITAL ENERGIES
----------------

  NO   OCC          E(Eh)            E(eV)
   0   2.0000    -104.867590     -2853.5922
   1   2.0000    -104.867589     -2853.5922
   2   2.0000     -26.346551      -716.9261
   3   2.0000     -11.465816      -312.0007
   4   2.0000     -10.591904      -288.2204
   5   2.0000     -10.591895      -288.2201
   6   2.0000      -8.058678      -219.2878
   7   2.0000      -8.058677      -219.2877
   8   2.0000      -8.056655      -219.2327
   9   2.0000      -8.056654      -219.2327
  10   2.0000      -8.056600      -219.2312
  11   2.0000      -8.056600      -219.2312
  12   2.0000      -1.668774       -45.4097
  13   2.0000      -1.197381       -32.5824
  14   2.0000      -1.116845       -30.3909
  15   2.0000      -0.920878       -25.0584
  16   2.0000      -0.780478       -21.2379
  17   2.0000      -0.740881       -20.1604
  18   2.0000      -0.724143       -19.7049
  19   2.0000      -0.604755       -16.4562
  20   2.0000      -0.571135       -15.5414
  21   2.0000      -0.505197       -13.7471
  22   2.0000      -0.483944       -13.1688
  23   2.0000      -0.477344       -12.9892
  24   2.0000      -0.462978       -12.5983
  25   0.0000       0.031011         0.8438
  26   0.0000       0.062850         1.7102
  27   0.0000       0.066771         1.8169
  28   0.0000       0.083537         2.2732
  29   0.0000       0.107800         2.9334

MULLIKEN ATOMIC CHARGES
-----------------------
   0 C :    0.410607
   1 H :    0.319257
   2 F :   -0.381606
   3 Cl:   -0.174130
   4 Cl:   -0.174130
Sum of atomic charges:   -0.0000000

LOEWDIN ATOMIC CHARGES
----------------------
   0 C :   -1.633601
   1 H :   -0.367299
   2 F :    0.369556
   3 Cl:    0.815672
   4 Cl:    0.815672

  Mayer bond orders larger than 0.100000
B(  0-C ,  1-H ) :   0.8946 B(  0-C ,  2-F ) :   0.7648 B(  0-C ,  3-Cl) :   0.9737
B(  0-C ,  4-Cl) :   0.9737

MP2 TOTAL ENERGY:    -1057.781009910 Eh
FINAL SINGLE POINT ENERGY     -1057.781009910001

DIPOLE MOMENT
-------------
                                X             Y             Z
Electronic contribution:      0.81532      -0.85416      -0.00000
Nuclear contribution   :     -1.33666       1.08405       0.00000
                        -----------------------------------------
Total Dipole Moment    :     -0.52134       0.22989      -0.00000
                        -----------------------------------------
Magnitude (a.u.)       :      0.56977
Magnitude (Debye)      :      1.44824

Rotational constants in cm-1:     0.230242     0.105855     0.075830
Rotational constants in MHz :  6902.484341  3173.450156  2273.336035

                             ****ORCA TERMINATED NORMALLY****
TOTAL RUN TIME: 0 days 0 hours 0 minutes 36 seconds 472 msec
