                         Program Version 5.0.3 -  RELEASE  -
|  1> !ri-mp2 aug-cc-pvtz aug-cc-pvtz/c tightscf
|  2> %pal nprocs 16 end
|  3>
|  4> * xyz 0 1
|  5> S      0.000000    0.000000    0.622694
|  6> C      0.000000    1.368102   -0.488687
|  7> C      0.000000   -1.368102   -0.488687
|  8> C      0.070431    2.637301   -0.102333
|  9> C     -0.070431   -2.637301   -0.102333
| 10> H     -0.074147    1.103676   -1.536088
| 11> H      0.074147   -1.103676   -1.536088
| 12> H      0.052949    3.429596   -0.836759
| 13> H      0.143817    2.926289    0.937418
| 14> H     -0.052949   -3.429596   -0.836759
| 15> H     -0.143817   -2.926289    0.937418
| 16> *
| 17>
| 18>                          ****END OF INPUT****

CARTESIAN COORDINATES (ANGSTROEM)
---------------------------------
  S      0.000000    0.000000    0.622694
  C      0.000000    1.368102   -0.488687
  C      0.000000   -1.368102   -0.488687
  C      0.070431    2.637301   -0.102333
  C     -0.070431   -2.637301   -0.102333
  H     -0.074147    1.103676   -1.536088
  H      0.074147   -1.103676   -1.536088
  H      0.052949    3.429596   -0.836759
  H      0.143817    2.926289    0.937418
  H     -0.052949   -3.429596   -0.836759
  H     -0.143817   -2.926289    0.937418

 Total Charge           Charge          ....    0
 Multiplicity           Mult            ....    1
 Number of Electrons    NEL             ....   46
 Basis Dimension        Dim             ....  372

ORBITAL ENERGIES
----------------

  NO   OCC          E(Eh)            E(eV)
   0   2.0000     -91.971877     -2502.6820
   1   2.0000     -11.274708      -306.8004
   2   2.0000     -11.274696      -306.8001
   3   2.0000     -11.233587      -305.6814
   4   2.0000     -11.233586      -305.6814
   5   2.0000      -8.972573      -244.1561
   6   2.0000      -6.653878      -181.0612
   7   2.0000      -6.653019      -181.0379
   8   2.0000      -6.652115      -181.0133
   9   2.0000      -1.111356       -30.2415
  10   2.0000      -1.052326       -28.6352
  11   2.0000      -0.946270       -25.7493
  12   2.0000      -0.788008       -21.4428
  13   2.0000      -0.766221       -20.8499
  14   2.0000      -0.660967       -17.9858
  15   2.0000      -0.639132       -17.3917
  16   2.0000      -0.580480       -15.7957
  17   2.0000      -0.578339       -15.7374
  18   2.0000      -0.507416       -13.8075
  19   2.0000      -0.483267       -13.1504
  20   2.0000      -0.451974       -12.2988
  21   2.0000      -0.401819       -10.9341
  22   2.0000      -0.302523        -8.2321
  23   0.0000       0.029755         0.8097
  24   0.0000       0.031578         0.8593
  25   0.0000       0.037878         1.0307
  26   0.0000       0.051292         1.3957
  27   0.0000       0.054097         1.4721

MULLIKEN ATOMIC CHARGES
-----------------------
   0 S :   -0.174520
   1 C :   -0.141427
   2 C :   -0.141427
   3 C :   -1.021616
   4 C :   -1.021616
   5 H :    0.451535
   6 H :    0.451535
   7 H :    0.367547
   8 H :    0.431222
   9 H :    0.367547
  10 H :    0.431222
Sum of atomic charges:   -0.0000000

LOEWDIN ATOMIC CHARGES
----------------------
   0 S :    1.183363
   1 C :   -0.241533
   2 C :   -0.241533
   3 C :    0.412612
   4 C :    0.412612
   5 H :   -0.277495
   6 H :   -0.277495
   7 H :   -0.243117
   8 H :   -0.242148
   9 H :   -0.243117
  10 H :   -0.242148

  Mayer bond orders larger than 0.100000
B(  0-S ,  1-C ) :   1.1153 B(  0-S ,  2-C ) :   1.1153 B(  1-C ,  3-C ) :   1.4251
B(  1-C ,  5-H ) :   0.7284 B(  2-C ,  4-C ) :   1.4251 B(  2-C ,  6-H ) :   0.7284
B(  3-C ,  7-H ) :   0.8903 B(  3-C ,  8-H ) :   0.8889 B(  4-C ,  9-H ) :   0.8903
B(  4-C , 10-H ) :   0.8889

MP2 TOTAL ENERGY:     -553.350574781 Eh
FINAL SINGLE POINT ENERGY      -553.350574780653

DIPOLE MOMENT
-------------
                                X             Y             Z
Electronic contribution:     -0.00000      -0.00000       2.39887
Nuclear contribution   :      0.00000       0.00000      -2.89810
                        -----------------------------------------
Total Dipole Moment    :     -0.00000      -0.00000      -0.49923
                        -----------------------------------------
Magnitude (a.u.)       :      0.49923
Magnitude (Debye)      :      1.26895

Rotational constants in cm-1:     0.640428     0.065940     0.059809
Rotational constants in MHz : 19199.557486  1976.820353  1793.029699

                             ****ORCA TERMINATED NORMALLY****
TOTAL RUN TIME: 0 days 0 hours 1 minutes 41 seconds 892 msec
