                         Program Version 5.0.3 -  RELEASE  -
|  1> !ri-mp2 aug-cc-pvtz aug-cc-pvtz/c tightscf
|  2> %pal nprocs 16 end
|  3>
|  4> * xyz 0 1
|  5> S    -1.532660   -1.443390   -0.000144
|  6> S    -1.532666    1.443384    0.000144
|  7> N     2.115081    2.230324    0.000234
|  8> N     2.115090   -2.230316   -0.000233
|  9> C     0.830778    0.000002    0.000000
| 10> C    -0.544914    0.000000    0.000000
| 11> C     1.562090    1.217179    0.000129
| 12> C     1.562094   -1.217173   -0.000128
| 13> H    -0.513127   -2.326270   -0.000166
| 14> H    -0.513135    2.326268    0.000166
| 15> *
| 16>
| 17>                          ****END OF INPUT****

CARTESIAN COORDINATES (ANGSTROEM)
---------------------------------
  S     -1.532660   -1.443390   -0.000144
  S     -1.532666    1.443384    0.000144
  N      2.115081    2.230324    0.000234
  N      2.115090   -2.230316   -0.000233
  C      0.830778    0.000002    0.000000
  C     -0.544914    0.000000    0.000000
  C      1.562090    1.217179    0.000129
  C      1.562094   -1.217173   -0.000128
  H     -0.513127   -2.326270   -0.000166
  H     -0.513135    2.326268    0.000166

 Total Charge           Charge          ....    0
 Multiplicity           Mult            ....    1
 Number of Electrons    NEL             ....   72
 Basis Dimension        Dim             ....  422

ORBITAL ENERGIES
----------------

  NO   OCC          E(Eh)            E(eV)
   0   2.0000     -92.032424     -2504.3296
   1   2.0000     -92.032424     -2504.3296
   2   2.0000     -15.601399      -424.5357
   3   2.0000     -15.601399      -424.5356
   4   2.0000     -11.403093      -310.2939
   5   2.0000     -11.336208      -308.4739
   6   2.0000     -11.308370      -307.7164
   7   2.0000     -11.308349      -307.7158
   8   2.0000      -9.033560      -245.8157
   9   2.0000      -9.033555      -245.8155
  10   2.0000      -6.714759      -182.7179
  11   2.0000      -6.714757      -182.7178
  12   2.0000      -6.713622      -182.6869
  13   2.0000      -6.713615      -182.6867
  14   2.0000      -6.712697      -182.6618
  15   2.0000      -6.712693      -182.6617
  16   2.0000      -1.266152       -34.4537
  17   2.0000      -1.246723       -33.9250
  18   2.0000      -1.195377       -32.5279
  19   2.0000      -1.070884       -29.1402
  20   2.0000      -1.035820       -28.1861
  21   2.0000      -0.859706       -23.3938
  22   2.0000      -0.816629       -22.2216
  23   2.0000      -0.737783       -20.0761
  24   2.0000      -0.606313       -16.4986
  25   2.0000      -0.600925       -16.3520
  26   2.0000      -0.593378       -16.1466
  27   2.0000      -0.587509       -15.9869
  28   2.0000      -0.553611       -15.0645
  29   2.0000      -0.545064       -14.8320
  30   2.0000      -0.512085       -13.9346
  31   2.0000      -0.510114       -13.8809
  32   2.0000      -0.508271       -13.8308
  33   2.0000      -0.486144       -13.2287
  34   2.0000      -0.423960       -11.5365
  35   2.0000      -0.368616       -10.0305
  36   0.0000       0.024965         0.6793
  37   0.0000       0.025971         0.7067
  38   0.0000       0.036589         0.9956
  39   0.0000       0.054174         1.4741
  40   0.0000       0.063992         1.7413

MULLIKEN ATOMIC CHARGES
-----------------------
   0 S :   -0.341060
   1 S :   -0.341060
   2 N :   -0.706987
   3 N :   -0.706987
   4 C :    1.422324
   5 C :    0.118776
   6 C :    0.119122
   7 C :    0.119122
   8 H :    0.158375
   9 H :    0.158375
Sum of atomic charges:    0.0000000

LOEWDIN ATOMIC CHARGES
----------------------
   0 S :    1.323988
   1 S :    1.323988
   2 N :    0.293431
   3 N :    0.293431
   4 C :   -0.407005
   5 C :   -1.026476
   6 C :   -0.332336
   7 C :   -0.332335
   8 H :   -0.568343
   9 H :   -0.568341

  Mayer bond orders larger than 0.100000
B(  0-S ,  5-C ) :   1.0573 B(  0-S ,  8-H ) :   1.0135 B(  1-S ,  5-C ) :   1.0573
B(  1-S ,  9-H ) :   1.0135 B(  2-N ,  4-C ) :  -0.1039 B(  2-N ,  6-C ) :   2.1455
B(  3-N ,  4-C ) :  -0.1039 B(  3-N ,  7-C ) :   2.1455 B(  4-C ,  5-C ) :   1.0506
B(  4-C ,  6-C ) :   0.3795 B(  4-C ,  7-C ) :   0.3795 B(  5-C ,  6-C ) :   0.1939
B(  5-C ,  7-C ) :   0.1939 B(  6-C ,  7-C ) :   0.1951

MP2 TOTAL ENERGY:    -1058.029314006 Eh
FINAL SINGLE POINT ENERGY     -1058.029314006399

DIPOLE MOMENT
-------------
                                X             Y             Z
Electronic contribution:     -0.85083       0.00000       0.00000
Nuclear contribution   :     -0.86238      -0.00000      -0.00000
                        -----------------------------------------
Total Dipole Moment    :     -1.71321      -0.00000      -0.00000
                        -----------------------------------------
Magnitude (a.u.)       :      1.71321
Magnitude (Debye)      :      4.35462

Rotational constants in cm-1:     0.052773     0.048589     0.025297
Rotational constants in MHz :  1582.104827  1456.665123   758.397957

                             ****ORCA TERMINATED NORMALLY****
TOTAL RUN TIME: 0 days 0 hours 3 minutes 38 seconds 750 msec
