                         Program Version 5.0.3 -  RELEASE  -
|  1> !ri-mp2 aug-cc-pvtz aug-cc-pvtz/c tightscf
|  2> %pal nprocs 16 end
|  3> %maxcore 3800
|  4>
|  5> * xyz 0 1
|  6> C     2.789368     5.050688    0.000000
|  7> C    -2.789368    -5.050688    0.000000
|  8> C     2.800552     3.522861    0.000000
|  9> C    -2.800552    -3.522861    0.000000
| 10> C     1.400494     2.907631    0.000000
| 11> C    -1.400494    -2.907631    0.000000
| 12> C     1.400494     1.378640    0.000000
| 13> C    -1.400494    -1.378640    0.000000
| 14> C    -0.000057     0.764608    0.000000
| 15> C     0.000057    -0.764608    0.000000
| 16> H     3.801408     5.458123    0.000000
| 17> H     2.275152     5.441067    0.880579
| 18> H     2.275152     5.441067   -0.880579
| 19> H    -3.801408    -5.458123    0.000000
| 20> H    -2.275152    -5.441067   -0.880579
| 21> H    -2.275152    -5.441067    0.880579
| 22> H     3.351669     3.162311    0.873843
| 23> H     3.351669     3.162311   -0.873843
| 24> H    -3.351669    -3.162311    0.873843
| 25> H    -3.351669    -3.162311   -0.873843
| 26> H     0.848853     3.269313   -0.874391
| 27> H     0.848853     3.269313    0.874391
| 28> H    -0.848853    -3.269313   -0.874391
| 29> H    -0.848853    -3.269313    0.874391
| 30> H     1.952511     1.017990    0.874412
| 31> H     1.952511     1.017990   -0.874412
| 32> H    -1.952511    -1.017990    0.874412
| 33> H    -1.952511    -1.017990   -0.874412
| 34> H    -0.551998     1.125266   -0.874385
| 35> H    -0.551998     1.125266    0.874385
| 36> H     0.551998    -1.125266    0.874385
| 37> H     0.551998    -1.125266   -0.874385
| 38> *
| 39>
| 40>                          ****END OF INPUT****

CARTESIAN COORDINATES (ANGSTROEM)
---------------------------------
  C      2.789368    5.050688    0.000000
  C     -2.789368   -5.050688    0.000000
  C      2.800552    3.522861    0.000000
  C     -2.800552   -3.522861    0.000000
  C      1.400494    2.907631    0.000000
  C     -1.400494   -2.907631    0.000000
  C      1.400494    1.378640    0.000000
  C     -1.400494   -1.378640    0.000000
  C     -0.000057    0.764608    0.000000
  C      0.000057   -0.764608    0.000000
  H      3.801408    5.458123    0.000000
  H      2.275152    5.441067    0.880579
  H      2.275152    5.441067   -0.880579
  H     -3.801408   -5.458123    0.000000
  H     -2.275152   -5.441067   -0.880579
  H     -2.275152   -5.441067    0.880579
  H      3.351669    3.162311    0.873843
  H      3.351669    3.162311   -0.873843
  H     -3.351669   -3.162311    0.873843
  H     -3.351669   -3.162311   -0.873843
  H      0.848853    3.269313   -0.874391
  H      0.848853    3.269313    0.874391
  H     -0.848853   -3.269313   -0.874391
  H     -0.848853   -3.269313    0.874391
  H      1.952511    1.017990    0.874412
  H      1.952511    1.017990   -0.874412
  H     -1.952511   -1.017990    0.874412
  H     -1.952511   -1.017990   -0.874412
  H     -0.551998    1.125266   -0.874385
  H     -0.551998    1.125266    0.874385
  H      0.551998   -1.125266    0.874385
  H      0.551998   -1.125266   -0.874385

 Total Charge           Charge          ....    0
 Multiplicity           Mult            ....    1
 Number of Electrons    NEL             ....   82
 Basis Dimension        Dim             ....  966

ORBITAL ENERGIES
----------------

  NO   OCC          E(Eh)            E(eV)
   0   2.0000     -11.214000      -305.1485
   1   2.0000     -11.214000      -305.1485
   2   2.0000     -11.212100      -305.0967
   3   2.0000     -11.211952      -305.0927
   4   2.0000     -11.211710      -305.0861
   5   2.0000     -11.211442      -305.0789
   6   2.0000     -11.211194      -305.0721
   7   2.0000     -11.210996      -305.0667
   8   2.0000     -11.208200      -304.9906
   9   2.0000     -11.208200      -304.9906
  10   2.0000      -1.092763       -29.7356
  11   2.0000      -1.072807       -29.1926
  12   2.0000      -1.039875       -28.2964
  13   2.0000      -0.995338       -27.0845
  14   2.0000      -0.941442       -25.6179
  15   2.0000      -0.882035       -24.0014
  16   2.0000      -0.825344       -22.4587
  17   2.0000      -0.789386       -21.4803
  18   2.0000      -0.784400       -21.3446
  19   2.0000      -0.780441       -21.2369
  20   2.0000      -0.657735       -17.8979
  21   2.0000      -0.639968       -17.4144
  22   2.0000      -0.611976       -16.6527
  23   2.0000      -0.592523       -16.1234
  24   2.0000      -0.584183       -15.8964
  25   2.0000      -0.576799       -15.6955
  26   2.0000      -0.569495       -15.4967
  27   2.0000      -0.538938       -14.6653
  28   2.0000      -0.538576       -14.6554
  29   2.0000      -0.533036       -14.5046
  30   2.0000      -0.504006       -13.7147
  31   2.0000      -0.502337       -13.6693
  32   2.0000      -0.477388       -12.9904
  33   2.0000      -0.476077       -12.9547
  34   2.0000      -0.473159       -12.8753
  35   2.0000      -0.462006       -12.5718
  36   2.0000      -0.460156       -12.5215
  37   2.0000      -0.456394       -12.4191
  38   2.0000      -0.456312       -12.4169
  39   2.0000      -0.453660       -12.3447
  40   2.0000      -0.422370       -11.4933
  41   0.0000       0.029739         0.8092
  42   0.0000       0.031480         0.8566
  43   0.0000       0.034416         0.9365
  44   0.0000       0.036470         0.9924
  45   0.0000       0.039360         1.0711

MULLIKEN ATOMIC CHARGES
-----------------------
   0 C :   -1.011576
   1 C :   -1.011575
   2 C :   -0.524639
   3 C :   -0.524641
   4 C :   -0.327455
   5 C :   -0.327460
   6 C :   -0.358337
   7 C :   -0.358339
   8 C :   -0.310518
   9 C :   -0.310512
  10 H :    0.273664
  11 H :    0.259988
  12 H :    0.259988
  13 H :    0.273663
  14 H :    0.259987
  15 H :    0.259987
  16 H :    0.220782
  17 H :    0.220782
  18 H :    0.220781
  19 H :    0.220781
  20 H :    0.224125
  21 H :    0.224125
  22 H :    0.224125
  23 H :    0.224125
  24 H :    0.215260
  25 H :    0.215260
  26 H :    0.215262
  27 H :    0.215262
  28 H :    0.209277
  29 H :    0.209276
  30 H :    0.209276
  31 H :    0.209276
Sum of atomic charges:    0.0000000

LOEWDIN ATOMIC CHARGES
----------------------
   0 C :    0.577393
   1 C :    0.577393
   2 C :    0.256265
   3 C :    0.256265
   4 C :    0.269068
   5 C :    0.269068
   6 C :    0.277353
   7 C :    0.277353
   8 C :    0.279346
   9 C :    0.279346
  10 H :   -0.174529
  11 H :   -0.172088
  12 H :   -0.172088
  13 H :   -0.174529
  14 H :   -0.172088
  15 H :   -0.172088
  16 H :   -0.148366
  17 H :   -0.148366
  18 H :   -0.148366
  19 H :   -0.148366
  20 H :   -0.141755
  21 H :   -0.141755
  22 H :   -0.141755
  23 H :   -0.141755
  24 H :   -0.140283
  25 H :   -0.140283
  26 H :   -0.140283
  27 H :   -0.140283
  28 H :   -0.139955
  29 H :   -0.139955
  30 H :   -0.139955
  31 H :   -0.139955

  Mayer bond orders larger than 0.100000
B(  0-C ,  2-C ) :   0.9359 B(  0-C , 10-H ) :   0.9936 B(  0-C , 11-H ) :   0.9745
B(  0-C , 12-H ) :   0.9745 B(  1-C ,  3-C ) :   0.9359 B(  1-C , 13-H ) :   0.9936
B(  1-C , 14-H ) :   0.9745 B(  1-C , 15-H ) :   0.9745 B(  2-C ,  4-C ) :   0.9213
B(  2-C , 16-H ) :   0.9811 B(  2-C , 17-H ) :   0.9811 B(  3-C ,  5-C ) :   0.9213
B(  3-C , 18-H ) :   0.9811 B(  3-C , 19-H ) :   0.9811 B(  4-C ,  6-C ) :   0.9888
B(  4-C , 20-H ) :   0.9690 B(  4-C , 21-H ) :   0.9690 B(  5-C ,  7-C ) :   0.9888
B(  5-C , 22-H ) :   0.9690 B(  5-C , 23-H ) :   0.9690 B(  6-C ,  8-C ) :   0.9570
B(  6-C , 24-H ) :   0.9630 B(  6-C , 25-H ) :   0.9630 B(  7-C ,  9-C ) :   0.9569
B(  7-C , 26-H ) :   0.9630 B(  7-C , 27-H ) :   0.9630 B(  8-C ,  9-C ) :   0.9634
B(  8-C , 28-H ) :   0.9619 B(  8-C , 29-H ) :   0.9619 B(  9-C , 30-H ) :   0.9619
B(  9-C , 31-H ) :   0.9619

MP2 TOTAL ENERGY:     -393.435004307 Eh
FINAL SINGLE POINT ENERGY      -393.435004307307

DIPOLE MOMENT
-------------
                                X             Y             Z
Electronic contribution:     -0.00000       0.00000      -0.00000
Nuclear contribution   :      0.00000       0.00000       0.00000
                        -----------------------------------------
Total Dipole Moment    :     -0.00000       0.00000      -0.00000
                        -----------------------------------------
Magnitude (a.u.)       :      0.00000
Magnitude (Debye)      :      0.00000

Rotational constants in cm-1:     0.285582     0.008420     0.008304
Rotational constants in MHz :  8561.522573   252.430045   248.933383

                             ****ORCA TERMINATED NORMALLY****
TOTAL RUN TIME: 0 days 0 hours 23 minutes 25 seconds 90 msec
