                         Program Version 5.0.3 -  RELEASE  -
|  1> !ri-mp2 aug-cc-pvtz aug-cc-pvtz/c tightscf
|  2> %pal nprocs 16 end
|  3>
|  4> * xyz 0 1
|  5> O    -0.437201     0.587681    0.000000
|  6> O     0.437201    -0.587681    0.000000
|  7> C    -0.437201    -1.696109    0.000000
|  8> H    -1.064231    -1.705853    0.894667
|  9> C     0.437201     1.696109    0.000000
| 10> H     1.064231     1.705853   -0.894667
| 11> H     1.064231     1.705853    0.894667
| 12> H    -0.218746     2.566214    0.000000
| 13> H     0.218746    -2.566214    0.000000
| 14> H    -1.064231    -1.705853   -0.894667
| 15> *
| 16>
| 17>                          ****END OF INPUT****

CARTESIAN COORDINATES (ANGSTROEM)
---------------------------------
  O     -0.437201    0.587681    0.000000
  O      0.437201   -0.587681    0.000000
  C     -0.437201   -1.696109    0.000000
  H     -1.064231   -1.705853    0.894667
  C      0.437201    1.696109    0.000000
  H      1.064231    1.705853   -0.894667
  H      1.064231    1.705853    0.894667
  H     -0.218746    2.566214    0.000000
  H      0.218746   -2.566214    0.000000
  H     -1.064231   -1.705853   -0.894667

 Total Charge           Charge          ....    0
 Multiplicity           Mult            ....    1
 Number of Electrons    NEL             ....   34
 Basis Dimension        Dim             ....  322

ORBITAL ENERGIES
----------------

  NO   OCC          E(Eh)            E(eV)
   0   2.0000     -20.617844      -561.0401
   1   2.0000     -20.617565      -561.0325
   2   2.0000     -11.274665      -306.7992
   3   2.0000     -11.274661      -306.7991
   4   2.0000      -1.466734       -39.9119
   5   2.0000      -1.242823       -33.8189
   6   2.0000      -0.926616       -25.2145
   7   2.0000      -0.903207       -24.5775
   8   2.0000      -0.682832       -18.5808
   9   2.0000      -0.672914       -18.3109
  10   2.0000      -0.663903       -18.0657
  11   2.0000      -0.606041       -16.4912
  12   2.0000      -0.561062       -15.2673
  13   2.0000      -0.551155       -14.9977
  14   2.0000      -0.500204       -13.6113
  15   2.0000      -0.488655       -13.2970
  16   2.0000      -0.421381       -11.4664
  17   0.0000       0.031415         0.8548
  18   0.0000       0.038984         1.0608
  19   0.0000       0.044528         1.2117
  20   0.0000       0.045199         1.2299
  21   0.0000       0.057558         1.5662

MULLIKEN ATOMIC CHARGES
-----------------------
   0 O :   -0.368015
   1 O :   -0.368015
   2 C :   -0.669152
   3 H :    0.330500
   4 C :   -0.669152
   5 H :    0.330500
   6 H :    0.330500
   7 H :    0.376168
   8 H :    0.376168
   9 H :    0.330500
Sum of atomic charges:   -0.0000000

LOEWDIN ATOMIC CHARGES
----------------------
   0 O :    0.324703
   1 O :    0.324703
   2 C :    0.265691
   3 H :   -0.194164
   4 C :    0.265691
   5 H :   -0.194164
   6 H :   -0.194164
   7 H :   -0.202066
   8 H :   -0.202066
   9 H :   -0.194164

  Mayer bond orders larger than 0.100000
B(  0-O ,  1-O ) :   0.8613 B(  0-O ,  4-C ) :   0.8634 B(  1-O ,  2-C ) :   0.8634
B(  2-C ,  3-H ) :   0.8935 B(  2-C ,  8-H ) :   0.8585 B(  2-C ,  9-H ) :   0.8935
B(  4-C ,  5-H ) :   0.8935 B(  4-C ,  6-H ) :   0.8935 B(  4-C ,  7-H ) :   0.8585

MP2 TOTAL ENERGY:     -229.773674412 Eh
FINAL SINGLE POINT ENERGY      -229.773674412134

DIPOLE MOMENT
-------------
                                X             Y             Z
Electronic contribution:      0.00000       0.00000      -0.00000
Nuclear contribution   :      0.00000       0.00000       0.00000
                        -----------------------------------------
Total Dipole Moment    :      0.00000       0.00000      -0.00000
                        -----------------------------------------
Magnitude (a.u.)       :      0.00000
Magnitude (Debye)      :      0.00000

Rotational constants in cm-1:     1.059831     0.151753     0.139854
Rotational constants in MHz : 31772.924681  4549.441013  4192.719967

                             ****ORCA TERMINATED NORMALLY****
TOTAL RUN TIME: 0 days 0 hours 1 minutes 23 seconds 181 msec
