                         Program Version 5.0.3 -  RELEASE  -
|  1> !ri-mp2 aug-cc-pvtz aug-cc-pvtz/c tightscf
|  2> %pal nprocs 16 end
|  3>
|  4> * xyz 0 1
|  5> C      0.026505   -0.221412    1.216049
|  6> C      0.026505   -0.221412   -1.216049
|  7> N      0.026505    0.577608    0.000000
|  8> H     -0.798102   -0.949693    1.270491
|  9> H     -0.034174    0.431778    2.086295
| 10> H      0.962937   -0.778731    1.284180
| 11> H     -0.034174    0.431778   -2.086295
| 12> H     -0.798102   -0.949693   -1.270491
| 13> H      0.962937   -0.778731   -1.284180
| 14> H     -0.764915    1.206982    0.000000
| 15> *
| 16>
| 17>                          ****END OF INPUT****

CARTESIAN COORDINATES (ANGSTROEM)
---------------------------------
  C      0.026505   -0.221412    1.216049
  C      0.026505   -0.221412   -1.216049
  N      0.026505    0.577608    0.000000
  H     -0.798102   -0.949693    1.270491
  H     -0.034174    0.431778    2.086295
  H      0.962937   -0.778731    1.284180
  H     -0.034174    0.431778   -2.086295
  H     -0.798102   -0.949693   -1.270491
  H      0.962937   -0.778731   -1.284180
  H     -0.764915    1.206982    0.000000

 Total Charge           Charge          ....    0
 Multiplicity           Mult            ....    1
 Number of Electrons    NEL             ....   26
 Basis Dimension        Dim             ....  299

ORBITAL ENERGIES
----------------

  NO   OCC          E(Eh)            E(eV)
   0   2.0000     -15.540471      -422.8777
   1   2.0000     -11.239710      -305.8481
   2   2.0000     -11.239694      -305.8476
   3   2.0000      -1.196609       -32.5614
   4   2.0000      -0.945621       -25.7317
   5   2.0000      -0.852643       -23.2016
   6   2.0000      -0.659594       -17.9485
   7   2.0000      -0.610928       -16.6242
   8   2.0000      -0.590593       -16.0708
   9   2.0000      -0.537889       -14.6367
  10   2.0000      -0.510238       -13.8843
  11   2.0000      -0.506596       -13.7852
  12   2.0000      -0.366489        -9.9727
  13   0.0000       0.030174         0.8211
  14   0.0000       0.040956         1.1145
  15   0.0000       0.042169         1.1475
  16   0.0000       0.046344         1.2611
  17   0.0000       0.063177         1.7191

MULLIKEN ATOMIC CHARGES
-----------------------
   0 C :   -0.874286
   1 C :   -0.874286
   2 N :   -0.315668
   3 H :    0.306929
   4 H :    0.343836
   5 H :    0.340165
   6 H :    0.343836
   7 H :    0.306929
   8 H :    0.340165
   9 H :    0.082379
Sum of atomic charges:   -0.0000000

LOEWDIN ATOMIC CHARGES
----------------------
   0 C :    0.434832
   1 C :    0.434832
   2 N :    0.505627
   3 H :   -0.169505
   4 H :   -0.177811
   5 H :   -0.178021
   6 H :   -0.177811
   7 H :   -0.169505
   8 H :   -0.178021
   9 H :   -0.324617

  Mayer bond orders larger than 0.100000
B(  0-C ,  2-N ) :   0.9316 B(  0-C ,  3-H ) :   0.9026 B(  0-C ,  4-H ) :   0.9083
B(  0-C ,  5-H ) :   0.8898 B(  1-C ,  2-N ) :   0.9316 B(  1-C ,  6-H ) :   0.9083
B(  1-C ,  7-H ) :   0.9026 B(  1-C ,  8-H ) :   0.8898 B(  2-N ,  9-H ) :   0.9684

MP2 TOTAL ENERGY:     -134.880924744 Eh
FINAL SINGLE POINT ENERGY      -134.880924743878

DIPOLE MOMENT
-------------
                                X             Y             Z
Electronic contribution:      0.16267       1.32911       0.00000
Nuclear contribution   :     -0.54526      -1.49779       0.00000
                        -----------------------------------------
Total Dipole Moment    :     -0.38258      -0.16868       0.00000
                        -----------------------------------------
Magnitude (a.u.)       :      0.41812
Magnitude (Debye)      :      1.06277

Rotational constants in cm-1:     1.165750     0.309133     0.273298
Rotational constants in MHz : 34948.293758  9267.570308  8193.266678

                             ****ORCA TERMINATED NORMALLY****
TOTAL RUN TIME: 0 days 0 hours 0 minutes 59 seconds 873 msec
