                         Program Version 5.0.3 -  RELEASE  -
|  1> !ri-mp2 aug-cc-pvtz aug-cc-pvtz/c tightscf
|  2> %pal nprocs 16 end
|  3> %maxcore 3800
|  4>
|  5> * xyz 0 1
|  6> C      2.663848   -0.782766   -0.312447
|  7> C      1.574850    0.243819    0.027897
|  8> S      0.003172   -0.652999   -0.591505
|  9> O     -0.020248   -1.977073    0.141990
| 10> C      1.557609    0.507360    1.528193
| 11> C      1.785704    1.512671   -0.796723
| 12> C     -1.573874    0.251467    0.029249
| 13> C     -1.560609    1.730836   -0.336792
| 14> C     -1.776120    0.006480    1.519693
| 15> C     -2.659747   -0.480531   -0.773418
| 16> H      2.509176   -1.714151    0.227716
| 17> H      2.686446   -1.005976   -1.380264
| 18> H      3.635357   -0.369465   -0.033555
| 19> H      1.255380   -0.384375    2.076591
| 20> H      0.895101    1.328817    1.794977
| 21> H      2.563900    0.776586    1.859022
| 22> H      1.684867    1.314388   -1.864966
| 23> H      2.799008    1.883799   -0.626678
| 24> H      1.096530    2.309355   -0.528584
| 25> H     -1.282606    1.890906   -1.379789
| 26> H     -0.889760    2.308180    0.296527
| 27> H     -2.565562    2.138481   -0.202592
| 28> H     -1.549414   -1.030527    1.766119
| 29> H     -2.819894    0.198857    1.778581
| 30> H     -1.156770    0.655303    2.134375
| 31> H     -2.534148   -0.333472   -1.846700
| 32> H     -2.647862   -1.549896   -0.566985
| 33> H     -3.638489   -0.088261   -0.489546
| 34> *
| 35>
| 36>                          ****END OF INPUT****

CARTESIAN COORDINATES (ANGSTROEM)
---------------------------------
  C      2.663848   -0.782766   -0.312447
  C      1.574850    0.243819    0.027897
  S      0.003172   -0.652999   -0.591505
  O     -0.020248   -1.977073    0.141990
  C      1.557609    0.507360    1.528193
  C      1.785704    1.512671   -0.796723
  C     -1.573874    0.251467    0.029249
  C     -1.560609    1.730836   -0.336792
  C     -1.776120    0.006480    1.519693
  C     -2.659747   -0.480531   -0.773418
  H      2.509176   -1.714151    0.227716
  H      2.686446   -1.005976   -1.380264
  H      3.635357   -0.369465   -0.033555
  H      1.255380   -0.384375    2.076591
  H      0.895101    1.328817    1.794977
  H      2.563900    0.776586    1.859022
  H      1.684867    1.314388   -1.864966
  H      2.799008    1.883799   -0.626678
  H      1.096530    2.309355   -0.528584
  H     -1.282606    1.890906   -1.379789
  H     -0.889760    2.308180    0.296527
  H     -2.565562    2.138481   -0.202592
  H     -1.549414   -1.030527    1.766119
  H     -2.819894    0.198857    1.778581
  H     -1.156770    0.655303    2.134375
  H     -2.534148   -0.333472   -1.846700
  H     -2.647862   -1.549896   -0.566985
  H     -3.638489   -0.088261   -0.489546

 Total Charge           Charge          ....    0
 Multiplicity           Mult            ....    1
 Number of Electrons    NEL             ....   90
 Basis Dimension        Dim             ....  878

ORBITAL ENERGIES
----------------

  NO   OCC          E(Eh)            E(eV)
   0   2.0000     -92.045587     -2504.6878
   1   2.0000     -20.490295      -557.5693
   2   2.0000     -11.277578      -306.8785
   3   2.0000     -11.277053      -306.8642
   4   2.0000     -11.233565      -305.6809
   5   2.0000     -11.230398      -305.5947
   6   2.0000     -11.224620      -305.4374
   7   2.0000     -11.221977      -305.3655
   8   2.0000     -11.218744      -305.2776
   9   2.0000     -11.216262      -305.2100
  10   2.0000      -9.032923      -245.7983
  11   2.0000      -6.714132      -182.7008
  12   2.0000      -6.714056      -182.6988
  13   2.0000      -6.712762      -182.6635
  14   2.0000      -1.311817       -35.6964
  15   2.0000      -1.117107       -30.3980
  16   2.0000      -1.101582       -29.9756
  17   2.0000      -0.956666       -26.0322
  18   2.0000      -0.950009       -25.8511
  19   2.0000      -0.944596       -25.7038
  20   2.0000      -0.939469       -25.5643
  21   2.0000      -0.901175       -24.5222
  22   2.0000      -0.770357       -20.9625
  23   2.0000      -0.724859       -19.7244
  24   2.0000      -0.651490       -17.7279
  25   2.0000      -0.634737       -17.2721
  26   2.0000      -0.619077       -16.8460
  27   2.0000      -0.615731       -16.7549
  28   2.0000      -0.607412       -16.5285
  29   2.0000      -0.601809       -16.3760
  30   2.0000      -0.572861       -15.5883
  31   2.0000      -0.555628       -15.1194
  32   2.0000      -0.550599       -14.9826
  33   2.0000      -0.542409       -14.7597
  34   2.0000      -0.531129       -14.4528
  35   2.0000      -0.523613       -14.2482
  36   2.0000      -0.519438       -14.1346
  37   2.0000      -0.508562       -13.8387
  38   2.0000      -0.497932       -13.5494
  39   2.0000      -0.487515       -13.2660
  40   2.0000      -0.484402       -13.1812
  41   2.0000      -0.481446       -13.1008
  42   2.0000      -0.469956       -12.7882
  43   2.0000      -0.381587       -10.3835
  44   2.0000      -0.340220        -9.2579
  45   0.0000       0.024991         0.6800
  46   0.0000       0.030651         0.8340
  47   0.0000       0.033311         0.9064
  48   0.0000       0.036872         1.0033
  49   0.0000       0.045107         1.2274

MULLIKEN ATOMIC CHARGES
-----------------------
   0 C :   -1.402616
   1 C :    1.749423
   2 S :    0.590718
   3 O :   -1.131716
   4 C :   -1.197860
   5 C :   -1.318078
   6 C :    1.656827
   7 C :   -1.186111
   8 C :   -1.292496
   9 C :   -1.370489
  10 H :    0.301435
  11 H :    0.285018
  12 H :    0.239328
  13 H :    0.269136
  14 H :    0.272518
  15 H :    0.244670
  16 H :    0.296303
  17 H :    0.146913
  18 H :    0.423506
  19 H :    0.234064
  20 H :    0.282506
  21 H :    0.241120
  22 H :    0.329125
  23 H :    0.154323
  24 H :    0.354550
  25 H :    0.286271
  26 H :    0.313921
  27 H :    0.227692
Sum of atomic charges:    0.0000000

LOEWDIN ATOMIC CHARGES
----------------------
   0 C :    0.513199
   1 C :   -0.474786
   2 S :    0.984972
   3 O :   -0.126646
   4 C :    0.543622
   5 C :    0.535439
   6 C :   -0.464927
   7 C :    0.537607
   8 C :    0.539459
   9 C :    0.512138
  10 H :   -0.186341
  11 H :   -0.167573
  12 H :   -0.163172
  13 H :   -0.163374
  14 H :   -0.186487
  15 H :   -0.154572
  16 H :   -0.166403
  17 H :   -0.155679
  18 H :   -0.201289
  19 H :   -0.161894
  20 H :   -0.188729
  21 H :   -0.152748
  22 H :   -0.193079
  23 H :   -0.157649
  24 H :   -0.192766
  25 H :   -0.171894
  26 H :   -0.172789
  27 H :   -0.163641

  Mayer bond orders larger than 0.100000
B(  0-C ,  1-C ) :   0.1984 B(  0-C , 10-H ) :   1.0258 B(  0-C , 11-H ) :   1.0483
B(  0-C , 12-H ) :   1.0707 B(  1-C ,  2-S ) :   0.6463 B(  1-C ,  3-O ) :  -0.1857
B(  1-C ,  4-C ) :   0.5461 B(  1-C ,  5-C ) :   0.4040 B(  1-C , 12-H ) :  -0.1245
B(  1-C , 17-H ) :  -0.1311 B(  2-S ,  3-O ) :   1.1998 B(  2-S ,  6-C ) :   0.7347
B(  2-S ,  8-C ) :   0.1164 B(  3-O ,  6-C ) :  -0.1974 B(  4-C ,  5-C ) :   0.1039
B(  4-C , 13-H ) :   1.0460 B(  4-C , 14-H ) :   1.0320 B(  4-C , 15-H ) :   0.9795
B(  5-C , 16-H ) :   1.0456 B(  5-C , 17-H ) :   1.1804 B(  5-C , 18-H ) :   0.8499
B(  6-C ,  7-C ) :   0.4427 B(  6-C ,  8-C ) :   0.5683 B(  6-C ,  9-C ) :   0.2676
B(  6-C , 27-H ) :  -0.1409 B(  7-C ,  8-C ) :   0.1166 B(  7-C , 19-H ) :   1.0824
B(  7-C , 20-H ) :   1.0182 B(  7-C , 21-H ) :   1.0340 B(  8-C , 22-H ) :   1.0027
B(  8-C , 23-H ) :   1.1112 B(  8-C , 24-H ) :   0.9217 B(  9-C , 25-H ) :   1.0425
B(  9-C , 26-H ) :   0.9989 B(  9-C , 27-H ) :   1.0961

MP2 TOTAL ENERGY:     -787.815282121 Eh
FINAL SINGLE POINT ENERGY      -787.815282121486

DIPOLE MOMENT
-------------
                                X             Y             Z
Electronic contribution:     -0.02445      -6.97972      -3.19242
Nuclear contribution   :      0.04254       8.66273       3.16069
                        -----------------------------------------
Total Dipole Moment    :      0.01809       1.68302      -0.03173
                        -----------------------------------------
Magnitude (a.u.)       :      1.68341
Magnitude (Debye)      :      4.27889

Rotational constants in cm-1:     0.054765     0.029123     0.025974
Rotational constants in MHz :  1641.807633   873.088213   778.666820

                             ****ORCA TERMINATED NORMALLY****
TOTAL RUN TIME: 0 days 0 hours 28 minutes 14 seconds 644 msec
