                         Program Version 5.0.3 -  RELEASE  -
|  1> !ri-mp2 aug-cc-pvtz aug-cc-pvtz/c tightscf
|  2> %pal nprocs 16 end
|  3>
|  4> * xyz 0 1
|  5> S      1.785669    1.142219    0.000055
|  6> S      1.219674   -1.735364   -0.000051
|  7> N     -0.725832    0.098897   -0.000008
|  8> C      0.657309   -0.199787   -0.000005
|  9> C     -1.229803    1.357918   -0.000005
| 10> C     -1.636455   -0.913125   -0.000051
| 11> C     -1.716879    2.453129   -0.000088
| 12> C     -2.495073   -1.745684    0.000145
| 13> H      0.900322    2.162085    0.000064
| 14> H     -2.142646    3.424997   -0.000013
| 15> H     -3.236933   -2.503747   -0.000019
| 16> *
| 17>
| 18>                          ****END OF INPUT****

CARTESIAN COORDINATES (ANGSTROEM)
---------------------------------
  S      1.785669    1.142219    0.000055
  S      1.219674   -1.735364   -0.000051
  N     -0.725832    0.098897   -0.000008
  C      0.657309   -0.199787   -0.000005
  C     -1.229803    1.357918   -0.000005
  C     -1.636455   -0.913125   -0.000051
  C     -1.716879    2.453129   -0.000088
  C     -2.495073   -1.745684    0.000145
  H      0.900322    2.162085    0.000064
  H     -2.142646    3.424997   -0.000013
  H     -3.236933   -2.503747   -0.000019

 Total Charge           Charge          ....    0
 Multiplicity           Mult            ....    1
 Number of Electrons    NEL             ....   72
 Basis Dimension        Dim             ....  445

ORBITAL ENERGIES
----------------

  NO   OCC          E(Eh)            E(eV)
   0   2.0000     -92.006810     -2503.6326
   1   2.0000     -91.935397     -2501.6893
   2   2.0000     -15.696633      -427.1271
   3   2.0000     -11.408350      -310.4370
   4   2.0000     -11.309319      -307.7422
   5   2.0000     -11.291562      -307.2590
   6   2.0000     -11.265494      -306.5497
   7   2.0000     -11.249230      -306.1071
   8   2.0000      -9.007850      -245.1161
   9   2.0000      -8.938437      -243.2272
  10   2.0000      -6.688907      -182.0144
  11   2.0000      -6.687774      -181.9836
  12   2.0000      -6.686861      -181.9587
  13   2.0000      -6.619574      -180.1278
  14   2.0000      -6.618151      -180.0890
  15   2.0000      -6.617082      -180.0600
  16   2.0000      -1.360974       -37.0340
  17   2.0000      -1.116132       -30.3715
  18   2.0000      -1.072588       -29.1866
  19   2.0000      -1.028078       -27.9754
  20   2.0000      -0.984439       -26.7880
  21   2.0000      -0.857402       -23.3311
  22   2.0000      -0.850091       -23.1322
  23   2.0000      -0.736368       -20.0376
  24   2.0000      -0.720527       -19.6065
  25   2.0000      -0.683196       -18.5907
  26   2.0000      -0.654218       -17.8022
  27   2.0000      -0.542257       -14.7556
  28   2.0000      -0.527801       -14.3622
  29   2.0000      -0.476274       -12.9601
  30   2.0000      -0.453708       -12.3460
  31   2.0000      -0.442895       -12.0518
  32   2.0000      -0.421109       -11.4589
  33   2.0000      -0.377046       -10.2599
  34   2.0000      -0.350590        -9.5400
  35   2.0000      -0.343678        -9.3519
  36   0.0000       0.021897         0.5958
  37   0.0000       0.029512         0.8031
  38   0.0000       0.039526         1.0756
  39   0.0000       0.047748         1.2993
  40   0.0000       0.067025         1.8239

MULLIKEN ATOMIC CHARGES
-----------------------
   0 S :   -0.302650
   1 S :   -0.387669
   2 N :    1.291539
   3 C :    0.530147
   4 C :    1.058499
   5 C :    0.780943
   6 C :   -2.069949
   7 C :   -1.904590
   8 H :    0.256498
   9 H :    0.366332
  10 H :    0.380900
Sum of atomic charges:    0.0000000

LOEWDIN ATOMIC CHARGES
----------------------
   0 S :    1.290176
   1 S :    0.875989
   2 N :   -0.047487
   3 C :   -1.387410
   4 C :   -0.178778
   5 C :   -0.199915
   6 C :    0.418124
   7 C :    0.404111
   8 H :   -0.602773
   9 H :   -0.283200
  10 H :   -0.288837

  Mayer bond orders larger than 0.100000
B(  0-S ,  3-C ) :   0.9512 B(  0-S ,  8-H ) :   0.9162 B(  1-S ,  3-C ) :   1.6269
B(  1-S ,  5-C ) :   0.1973 B(  2-N ,  3-C ) :   1.2618 B(  2-N ,  4-C ) :   0.8054
B(  2-N ,  5-C ) :   0.6140 B(  2-N ,  6-C ) :  -0.8156 B(  2-N ,  7-C ) :  -0.8138
B(  3-C ,  4-C ) :  -0.1921 B(  3-C ,  5-C ) :  -0.1511 B(  4-C ,  5-C ) :  -0.1360
B(  4-C ,  6-C ) :   0.8521 B(  4-C ,  9-H ) :  -0.2980 B(  5-C ,  7-C ) :   1.3212
B(  5-C , 10-H ) :  -0.2744 B(  6-C ,  9-H ) :   1.3569 B(  7-C , 10-H ) :   1.3159

MP2 TOTAL ENERGY:    -1041.859216138 Eh
FINAL SINGLE POINT ENERGY     -1041.859216137668

DIPOLE MOMENT
-------------
                                X             Y             Z
Electronic contribution:      3.51708      -1.76106      -0.00004
Nuclear contribution   :     -4.38230       2.97074       0.00003
                        -----------------------------------------
Total Dipole Moment    :     -0.86521       1.20968      -0.00001
                        -----------------------------------------
Magnitude (a.u.)       :      1.48725
Magnitude (Debye)      :      3.78029

Rotational constants in cm-1:     0.055702     0.049721     0.026271
Rotational constants in MHz :  1669.908751  1490.605498   787.585492

                             ****ORCA TERMINATED NORMALLY****
TOTAL RUN TIME: 0 days 0 hours 3 minutes 51 seconds 71 msec
