                         Program Version 5.0.3 -  RELEASE  -
|  1> !ri-mp2 aug-cc-pvtz aug-cc-pvtz/c tightscf
|  2> %pal nprocs 16 end
|  3>
|  4> * xyz 0 1
|  5> C      0.000000    0.000000    0.591567
|  6> C      0.000000    0.000000   -0.591567
|  7> F      0.000000    0.000000    1.877004
|  8> F      0.000000    0.000000   -1.877004
|  9> *
| 10>
| 11>                          ****END OF INPUT****

CARTESIAN COORDINATES (ANGSTROEM)
---------------------------------
  C      0.000000    0.000000    0.591567
  C      0.000000    0.000000   -0.591567
  F      0.000000    0.000000    1.877004
  F      0.000000    0.000000   -1.877004

 Total Charge           Charge          ....    0
 Multiplicity           Mult            ....    1
 Number of Electrons    NEL             ....   30
 Basis Dimension        Dim             ....  184

ORBITAL ENERGIES
----------------

  NO   OCC          E(Eh)            E(eV)
   0   2.0000     -26.386936      -718.0250
   1   2.0000     -26.386935      -718.0250
   2   2.0000     -11.348563      -308.8101
   3   2.0000     -11.344415      -308.6972
   4   2.0000      -1.704790       -46.3897
   5   2.0000      -1.702881       -46.3377
   6   2.0000      -1.075706       -29.2714
   7   2.0000      -0.875272       -23.8174
   8   2.0000      -0.832965       -22.6661
   9   2.0000      -0.770466       -20.9654
  10   2.0000      -0.770466       -20.9654
  11   2.0000      -0.751484       -20.4489
  12   2.0000      -0.751484       -20.4489
  13   2.0000      -0.428015       -11.6469
  14   2.0000      -0.428015       -11.6469
  15   0.0000       0.052558         1.4302
  16   0.0000       0.052937         1.4405
  17   0.0000       0.085514         2.3270
  18   0.0000       0.085514         2.3270
  19   0.0000       0.107819         2.9339

MULLIKEN ATOMIC CHARGES
-----------------------
   0 C :    0.230939
   1 C :    0.230939
   2 F :   -0.230939
   3 F :   -0.230939
Sum of atomic charges:    0.0000000

LOEWDIN ATOMIC CHARGES
----------------------
   0 C :   -0.444384
   1 C :   -0.444384
   2 F :    0.444384
   3 F :    0.444384

  Mayer bond orders larger than 0.100000
B(  0-C ,  1-C ) :   2.1091 B(  0-C ,  2-F ) :   1.1549 B(  0-C ,  3-F ) :  -0.1459
B(  1-C ,  2-F ) :  -0.1459 B(  1-C ,  3-F ) :   1.1549

MP2 TOTAL ENERGY:     -275.377079630 Eh
FINAL SINGLE POINT ENERGY      -275.377079629868

DIPOLE MOMENT
-------------
                                X             Y             Z
Electronic contribution:      0.00000       0.00000      -0.00000
Nuclear contribution   :      0.00000       0.00000       0.00000
                        -----------------------------------------
Total Dipole Moment    :      0.00000       0.00000      -0.00000
                        -----------------------------------------
Magnitude (a.u.)       :      0.00000
Magnitude (Debye)      :      0.00000

Rotational constants in cm-1:     0.000000     0.118489     0.118489
Rotational constants in MHz :     0.000000  3552.208308  3552.208308

                             ****ORCA TERMINATED NORMALLY****
TOTAL RUN TIME: 0 days 0 hours 0 minutes 27 seconds 66 msec
