                         Program Version 5.0.3 -  RELEASE  -
|  1> !ri-mp2 aug-cc-pvtz aug-cc-pvtz/c tightscf
|  2> %pal nprocs 16 end
|  3>
|  4> * xyz 0 1
|  5> C     0.000000     1.175422   -0.194884
|  6> C     0.000000    -1.175422   -0.194884
|  7> O     0.000000     0.000000    0.586687
|  8> H     0.890246     1.231929   -0.833515
|  9> H     0.000000     2.021254    0.489588
| 10> H    -0.890246     1.231929   -0.833515
| 11> H     0.890246    -1.231929   -0.833515
| 12> H    -0.890246    -1.231929   -0.833515
| 13> H     0.000000    -2.021254    0.489588
| 14> *
| 15>
| 16>                          ****END OF INPUT****

CARTESIAN COORDINATES (ANGSTROEM)
---------------------------------
  C      0.000000    1.175422   -0.194884
  C      0.000000   -1.175422   -0.194884
  O      0.000000    0.000000    0.586687
  H      0.890246    1.231929   -0.833515
  H      0.000000    2.021254    0.489588
  H     -0.890246    1.231929   -0.833515
  H      0.890246   -1.231929   -0.833515
  H     -0.890246   -1.231929   -0.833515
  H      0.000000   -2.021254    0.489588

 Total Charge           Charge          ....    0
 Multiplicity           Mult            ....    1
 Number of Electrons    NEL             ....   26
 Basis Dimension        Dim             ....  276

ORBITAL ENERGIES
----------------

  NO   OCC          E(Eh)            E(eV)
   0   2.0000     -20.556361      -559.3670
   1   2.0000     -11.269263      -306.6522
   2   2.0000     -11.269243      -306.6517
   3   2.0000      -1.371409       -37.3179
   4   2.0000      -0.968918       -26.3656
   5   2.0000      -0.873571       -23.7711
   6   2.0000      -0.657886       -17.9020
   7   2.0000      -0.649350       -17.6697
   8   2.0000      -0.639423       -17.3996
   9   2.0000      -0.550513       -14.9802
  10   2.0000      -0.527518       -14.3545
  11   2.0000      -0.480179       -13.0663
  12   2.0000      -0.424257       -11.5446
  13   0.0000       0.030384         0.8268
  14   0.0000       0.040536         1.1030
  15   0.0000       0.045513         1.2385
  16   0.0000       0.047383         1.2894
  17   0.0000       0.062655         1.7049

MULLIKEN ATOMIC CHARGES
-----------------------
   0 C :   -0.741972
   1 C :   -0.741972
   2 O :   -0.515436
   3 H :    0.323802
   4 H :    0.352086
   5 H :    0.323802
   6 H :    0.323802
   7 H :    0.323802
   8 H :    0.352086
Sum of atomic charges:    0.0000000

LOEWDIN ATOMIC CHARGES
----------------------
   0 C :    0.298752
   1 C :    0.298752
   2 O :    0.515460
   3 H :   -0.182766
   4 H :   -0.190950
   5 H :   -0.182766
   6 H :   -0.182766
   7 H :   -0.182766
   8 H :   -0.190950

  Mayer bond orders larger than 0.100000
B(  0-C ,  2-O ) :   0.9094 B(  0-C ,  3-H ) :   0.8840 B(  0-C ,  4-H ) :   0.9143
B(  0-C ,  5-H ) :   0.8840 B(  1-C ,  2-O ) :   0.9094 B(  1-C ,  6-H ) :   0.8840
B(  1-C ,  7-H ) :   0.8840 B(  1-C ,  8-H ) :   0.9143

MP2 TOTAL ENERGY:     -154.737654131 Eh
FINAL SINGLE POINT ENERGY      -154.737654131173

DIPOLE MOMENT
-------------
                                X             Y             Z
Electronic contribution:      0.00000       0.00000       1.91587
Nuclear contribution   :      0.00000       0.00000      -2.48621
                        -----------------------------------------
Total Dipole Moment    :      0.00000       0.00000      -0.57034
                        -----------------------------------------
Magnitude (a.u.)       :      0.57034
Magnitude (Debye)      :      1.44968

Rotational constants in cm-1:     1.318937     0.332235     0.295073
Rotational constants in MHz : 39540.748801  9960.144086  8846.071889

                             ****ORCA TERMINATED NORMALLY****
TOTAL RUN TIME: 0 days 0 hours 1 minutes 13 seconds 69 msec
