                         Program Version 5.0.3 -  RELEASE  -
|  1> !ri-mp2 aug-cc-pvtz aug-cc-pvtz/c tightscf
|  2> %pal nprocs 16 end
|  3>
|  4> * xyz 0 1
|  5> C      0.340762    3.287075    0.629973
|  6> C     -0.340762   -3.287075    0.629973
|  7> C      0.695762    1.806304    0.586711
|  8> C     -0.695762   -1.806304    0.586711
|  9> S     -0.340762    0.974925   -0.694192
| 10> S      0.340762   -0.974925   -0.694192
| 11> H      0.525276    3.767942   -0.330968
| 12> H     -0.707346    3.438737    0.889650
| 13> H      0.949124    3.792561    1.381474
| 14> H     -0.525276   -3.767942   -0.330968
| 15> H      0.707346   -3.438737    0.889650
| 16> H     -0.949124   -3.792561    1.381474
| 17> H      0.508220    1.330131    1.547298
| 18> H      1.739469    1.654869    0.319514
| 19> H     -0.508220   -1.330131    1.547298
| 20> H     -1.739469   -1.654869    0.319514
| 21> *
| 22>
| 23>                          ****END OF INPUT****

CARTESIAN COORDINATES (ANGSTROEM)
---------------------------------
  C      0.340762    3.287075    0.629973
  C     -0.340762   -3.287075    0.629973
  C      0.695762    1.806304    0.586711
  C     -0.695762   -1.806304    0.586711
  S     -0.340762    0.974925   -0.694192
  S      0.340762   -0.974925   -0.694192
  H      0.525276    3.767942   -0.330968
  H     -0.707346    3.438737    0.889650
  H      0.949124    3.792561    1.381474
  H     -0.525276   -3.767942   -0.330968
  H      0.707346   -3.438737    0.889650
  H     -0.949124   -3.792561    1.381474
  H      0.508220    1.330131    1.547298
  H      1.739469    1.654869    0.319514
  H     -0.508220   -1.330131    1.547298
  H     -1.739469   -1.654869    0.319514

 Total Charge           Charge          ....    0
 Multiplicity           Mult            ....    1
 Number of Electrons    NEL             ....   66
 Basis Dimension        Dim             ....  514

ORBITAL ENERGIES
----------------

  NO   OCC          E(Eh)            E(eV)
   0   2.0000     -91.967710     -2502.5686
   1   2.0000     -91.967707     -2502.5685
   2   2.0000     -11.261613      -306.4441
   3   2.0000     -11.261613      -306.4441
   4   2.0000     -11.228953      -305.5554
   5   2.0000     -11.228953      -305.5554
   6   2.0000      -8.966084      -243.9795
   7   2.0000      -8.965899      -243.9745
   8   2.0000      -6.647187      -180.8792
   9   2.0000      -6.646847      -180.8699
  10   2.0000      -6.645867      -180.8432
  11   2.0000      -6.645812      -180.8417
  12   2.0000      -6.644987      -180.8193
  13   2.0000      -6.644986      -180.8193
  14   2.0000      -1.090493       -29.6738
  15   2.0000      -1.057207       -28.7681
  16   2.0000      -0.982739       -26.7417
  17   2.0000      -0.890296       -24.2262
  18   2.0000      -0.831290       -22.6206
  19   2.0000      -0.774929       -21.0869
  20   2.0000      -0.633543       -17.2396
  21   2.0000      -0.631362       -17.1802
  22   2.0000      -0.612711       -16.6727
  23   2.0000      -0.574020       -15.6199
  24   2.0000      -0.544425       -14.8145
  25   2.0000      -0.540485       -14.7073
  26   2.0000      -0.517975       -14.0948
  27   2.0000      -0.515365       -14.0238
  28   2.0000      -0.486539       -13.2394
  29   2.0000      -0.464280       -12.6337
  30   2.0000      -0.431792       -11.7497
  31   2.0000      -0.348841        -9.4924
  32   2.0000      -0.345553        -9.4030
  33   0.0000       0.029022         0.7897
  34   0.0000       0.032204         0.8763
  35   0.0000       0.038868         1.0577
  36   0.0000       0.042192         1.1481
  37   0.0000       0.050807         1.3825

MULLIKEN ATOMIC CHARGES
-----------------------
   0 C :   -0.932243
   1 C :   -0.932243
   2 C :   -0.308376
   3 C :   -0.308376
   4 S :   -0.208859
   5 S :   -0.208859
   6 H :    0.302068
   7 H :    0.304328
   8 H :    0.285919
   9 H :    0.302068
  10 H :    0.304328
  11 H :    0.285919
  12 H :    0.275888
  13 H :    0.281274
  14 H :    0.275888
  15 H :    0.281274
Sum of atomic charges:   -0.0000000

LOEWDIN ATOMIC CHARGES
----------------------
   0 C :    0.480633
   1 C :    0.480633
   2 C :   -0.147057
   3 C :   -0.147057
   4 S :    0.700053
   5 S :    0.700053
   6 H :   -0.188967
   7 H :   -0.188562
   8 H :   -0.178500
   9 H :   -0.188967
  10 H :   -0.188562
  11 H :   -0.178500
  12 H :   -0.237497
  13 H :   -0.240104
  14 H :   -0.237497
  15 H :   -0.240104

  Mayer bond orders larger than 0.100000
B(  0-C ,  2-C ) :   0.9198 B(  0-C ,  6-H ) :   0.9301 B(  0-C ,  7-H ) :   0.9205
B(  0-C ,  8-H ) :   0.9529 B(  1-C ,  3-C ) :   0.9198 B(  1-C ,  9-H ) :   0.9301
B(  1-C , 10-H ) :   0.9205 B(  1-C , 11-H ) :   0.9529 B(  2-C ,  4-S ) :   0.9156
B(  2-C , 12-H ) :   0.9096 B(  2-C , 13-H ) :   0.9351 B(  3-C ,  5-S ) :   0.9156
B(  3-C , 14-H ) :   0.9096 B(  3-C , 15-H ) :   0.9351 B(  4-S ,  5-S ) :   1.0255

MP2 TOTAL ENERGY:     -953.533779399 Eh
FINAL SINGLE POINT ENERGY      -953.533779399314

DIPOLE MOMENT
-------------
                                X             Y             Z
Electronic contribution:     -0.00000      -0.00000      -6.81260
Nuclear contribution   :      0.00000       0.00000       7.76381
                        -----------------------------------------
Total Dipole Moment    :     -0.00000      -0.00000       0.95121
                        -----------------------------------------
Magnitude (a.u.)       :      0.95121
Magnitude (Debye)      :      2.41779

Rotational constants in cm-1:     0.197079     0.032338     0.030451
Rotational constants in MHz :  5908.280506   969.482863   912.896750

                             ****ORCA TERMINATED NORMALLY****
TOTAL RUN TIME: 0 days 0 hours 3 minutes 54 seconds 17 msec
