                         Program Version 5.0.3 -  RELEASE  -
|  1> !ri-mp2 aug-cc-pvtz aug-cc-pvtz/c tightscf
|  2> %pal nprocs 16 end
|  3>
|  4> * xyz 0 1
|  5> C     -0.975094    1.648785    0.791622
|  6> C      0.975094   -1.648785    0.791622
|  7> S     -0.975094    0.343346   -0.490829
|  8> S      0.975094   -0.343346   -0.490829
|  9> H     -0.781660    1.231798    1.776638
| 10> H     -1.975350    2.081790    0.775132
| 11> H     -0.243016    2.415025    0.551763
| 12> H      0.781660   -1.231798    1.776638
| 13> H      1.975350   -2.081790    0.775132
| 14> H      0.243016   -2.415025    0.551763
| 15> *
| 16>
| 17>                          ****END OF INPUT****

CARTESIAN COORDINATES (ANGSTROEM)
---------------------------------
  C     -0.975094    1.648785    0.791622
  C      0.975094   -1.648785    0.791622
  S     -0.975094    0.343346   -0.490829
  S      0.975094   -0.343346   -0.490829
  H     -0.781660    1.231798    1.776638
  H     -1.975350    2.081790    0.775132
  H     -0.243016    2.415025    0.551763
  H      0.781660   -1.231798    1.776638
  H      1.975350   -2.081790    0.775132
  H      0.243016   -2.415025    0.551763

 Total Charge           Charge          ....    0
 Multiplicity           Mult            ....    1
 Number of Electrons    NEL             ....   50
 Basis Dimension        Dim             ....  330

ORBITAL ENERGIES
----------------

  NO   OCC          E(Eh)            E(eV)
   0   2.0000     -91.974361     -2502.7496
   1   2.0000     -91.974358     -2502.7495
   2   2.0000     -11.259068      -306.3748
   3   2.0000     -11.259067      -306.3748
   4   2.0000      -8.972528      -244.1549
   5   2.0000      -8.972344      -244.1499
   6   2.0000      -6.653655      -181.0552
   7   2.0000      -6.653332      -181.0464
   8   2.0000      -6.652353      -181.0197
   9   2.0000      -6.652284      -181.0179
  10   2.0000      -6.651426      -180.9945
  11   2.0000      -6.651425      -180.9945
  12   2.0000      -1.077148       -29.3107
  13   2.0000      -1.006352       -27.3842
  14   2.0000      -0.902518       -24.5588
  15   2.0000      -0.785559       -21.3762
  16   2.0000      -0.608104       -16.5474
  17   2.0000      -0.597699       -16.2642
  18   2.0000      -0.595982       -16.2175
  19   2.0000      -0.580623       -15.7996
  20   2.0000      -0.525581       -14.3018
  21   2.0000      -0.487230       -13.2582
  22   2.0000      -0.435459       -11.8494
  23   2.0000      -0.356024        -9.6879
  24   2.0000      -0.350490        -9.5373
  25   0.0000       0.029459         0.8016
  26   0.0000       0.035745         0.9727
  27   0.0000       0.044573         1.2129
  28   0.0000       0.046328         1.2606
  29   0.0000       0.055449         1.5088

MULLIKEN ATOMIC CHARGES
-----------------------
   0 C :   -0.742534
   1 C :   -0.742534
   2 S :   -0.142297
   3 S :   -0.142297
   4 H :    0.292162
   5 H :    0.295695
   6 H :    0.296973
   7 H :    0.292162
   8 H :    0.295695
   9 H :    0.296973
Sum of atomic charges:   -0.0000000

LOEWDIN ATOMIC CHARGES
----------------------
   0 C :    0.149054
   1 C :    0.149054
   2 S :    0.645339
   3 S :    0.645339
   4 H :   -0.262095
   5 H :   -0.267916
   6 H :   -0.264383
   7 H :   -0.262095
   8 H :   -0.267916
   9 H :   -0.264383

  Mayer bond orders larger than 0.100000
B(  0-C ,  2-S ) :   0.9337 B(  0-C ,  4-H ) :   0.9057 B(  0-C ,  5-H ) :   0.9169
B(  0-C ,  6-H ) :   0.9161 B(  1-C ,  3-S ) :   0.9337 B(  1-C ,  7-H ) :   0.9057
B(  1-C ,  8-H ) :   0.9169 B(  1-C ,  9-H ) :   0.9161 B(  2-S ,  3-S ) :   1.0710

MP2 TOTAL ENERGY:     -875.079956636 Eh
FINAL SINGLE POINT ENERGY      -875.079956636181

DIPOLE MOMENT
-------------
                                X             Y             Z
Electronic contribution:     -0.00000       0.00000      -5.33603
Nuclear contribution   :      0.00000      -0.00000       6.21839
                        -----------------------------------------
Total Dipole Moment    :     -0.00000       0.00000       0.88237
                        -----------------------------------------
Magnitude (a.u.)       :      0.88237
Magnitude (Debye)      :      2.24279

Rotational constants in cm-1:     0.274201     0.088987     0.082424
Rotational constants in MHz :  8220.347137  2667.756444  2471.004427

                             ****ORCA TERMINATED NORMALLY****
TOTAL RUN TIME: 0 days 0 hours 1 minutes 24 seconds 91 msec
