                         Program Version 5.0.3 -  RELEASE  -
|  1> !ri-mp2 aug-cc-pvtz aug-cc-pvtz/c tightscf
|  2> %pal nprocs 16 end
|  3>
|  4> * xyz 0 1
|  5> C     0.000000     0.000000    0.731328
|  6> H     0.926417     0.000000    1.301629
|  7> H    -0.926417     0.000000    1.301629
|  8> O     0.000000     0.749219   -0.436952
|  9> O     0.000000    -0.749219   -0.436952
| 10> *
| 11>
| 12>                          ****END OF INPUT****

CARTESIAN COORDINATES (ANGSTROEM)
---------------------------------
  C      0.000000    0.000000    0.731328
  H      0.926417    0.000000    1.301629
  H     -0.926417    0.000000    1.301629
  O      0.000000    0.749219   -0.436952
  O      0.000000   -0.749219   -0.436952

 Total Charge           Charge          ....    0
 Multiplicity           Mult            ....    1
 Number of Electrons    NEL             ....   24
 Basis Dimension        Dim             ....  184

ORBITAL ENERGIES
----------------

  NO   OCC          E(Eh)            E(eV)
   0   2.0000     -20.652904      -561.9941
   1   2.0000     -20.652656      -561.9874
   2   2.0000     -11.370413      -309.4047
   3   2.0000      -1.550086       -42.1800
   4   2.0000      -1.192770       -32.4569
   5   2.0000      -0.931480       -25.3469
   6   2.0000      -0.750270       -20.4159
   7   2.0000      -0.698460       -19.0061
   8   2.0000      -0.576599       -15.6901
   9   2.0000      -0.571804       -15.5596
  10   2.0000      -0.530242       -14.4286
  11   2.0000      -0.487333       -13.2610
  12   0.0000       0.026052         0.7089
  13   0.0000       0.040227         1.0946
  14   0.0000       0.058634         1.5955
  15   0.0000       0.076248         2.0748
  16   0.0000       0.132148         3.5959

MULLIKEN ATOMIC CHARGES
-----------------------
   0 C :   -0.085138
   1 H :    0.400571
   2 H :    0.400571
   3 O :   -0.358002
   4 O :   -0.358002
Sum of atomic charges:   -0.0000000

LOEWDIN ATOMIC CHARGES
----------------------
   0 C :   -0.298422
   1 H :   -0.191685
   2 H :   -0.191685
   3 O :    0.340896
   4 O :    0.340896

  Mayer bond orders larger than 0.100000
B(  0-C ,  1-H ) :   0.8376 B(  0-C ,  2-H ) :   0.8376 B(  0-C ,  3-O ) :   0.7666
B(  0-C ,  4-O ) :   0.7666 B(  3-O ,  4-O ) :   0.8589

MP2 TOTAL ENERGY:     -189.338395662 Eh
FINAL SINGLE POINT ENERGY      -189.338395662158

DIPOLE MOMENT
-------------
                                X             Y             Z
Electronic contribution:      0.00000       0.00000      -1.37941
Nuclear contribution   :      0.00000       0.00000       2.53596
                        -----------------------------------------
Total Dipole Moment    :      0.00000       0.00000       1.15655
                        -----------------------------------------
Magnitude (a.u.)       :      1.15655
Magnitude (Debye)      :      2.93972

Rotational constants in cm-1:     0.961362     0.856081     0.499244
Rotational constants in MHz : 28820.910951 25664.674826 14966.957597

                             ****ORCA TERMINATED NORMALLY****
TOTAL RUN TIME: 0 days 0 hours 0 minutes 31 seconds 732 msec
