                         Program Version 5.0.3 -  RELEASE  -
|  1> !ri-mp2 aug-cc-pvtz aug-cc-pvtz/c tightscf
|  2> %pal nprocs 16 end
|  3>
|  4> * xyz 0 1
|  5> C     0.000000    0.000000     0.342340
|  6> F     0.000000    1.079325     1.126414
|  7> F     0.000000   -1.079325     1.126414
|  8> Cl    1.472567    0.000000    -0.656750
|  9> Cl   -1.472567    0.000000    -0.656750
| 10> *
| 11>
| 12>                          ****END OF INPUT****

CARTESIAN COORDINATES (ANGSTROEM)
---------------------------------
  C      0.000000    0.000000    0.342340
  F      0.000000    1.079325    1.126414
  F      0.000000   -1.079325    1.126414
  Cl     1.472567    0.000000   -0.656750
  Cl    -1.472567    0.000000   -0.656750

 Total Charge           Charge          ....    0
 Multiplicity           Mult            ....    1
 Number of Electrons    NEL             ....   58
 Basis Dimension        Dim             ....  238

ORBITAL ENERGIES
----------------

  NO   OCC          E(Eh)            E(eV)
   0   2.0000    -104.883611     -2854.0282
   1   2.0000    -104.883611     -2854.0282
   2   2.0000     -26.370515      -717.5782
   3   2.0000     -26.370493      -717.5776
   4   2.0000     -11.560845      -314.5866
   5   2.0000     -10.607935      -288.6566
   6   2.0000     -10.607924      -288.6563
   7   2.0000      -8.074724      -219.7244
   8   2.0000      -8.074724      -219.7244
   9   2.0000      -8.072529      -219.6647
  10   2.0000      -8.072528      -219.6647
  11   2.0000      -8.072522      -219.6645
  12   2.0000      -8.072521      -219.6645
  13   2.0000      -1.734465       -47.1972
  14   2.0000      -1.664815       -45.3019
  15   2.0000      -1.206731       -32.8368
  16   2.0000      -1.138458       -30.9790
  17   2.0000      -0.943227       -25.6665
  18   2.0000      -0.830049       -22.5868
  19   2.0000      -0.799614       -21.7586
  20   2.0000      -0.798109       -21.7176
  21   2.0000      -0.722861       -19.6700
  22   2.0000      -0.687108       -18.6971
  23   2.0000      -0.658626       -17.9221
  24   2.0000      -0.566400       -15.4125
  25   2.0000      -0.524972       -14.2852
  26   2.0000      -0.513099       -13.9621
  27   2.0000      -0.494690       -13.4612
  28   2.0000      -0.477054       -12.9813
  29   0.0000       0.054196         1.4747
  30   0.0000       0.067143         1.8270
  31   0.0000       0.078767         2.1434
  32   0.0000       0.087811         2.3895
  33   0.0000       0.098264         2.6739

MULLIKEN ATOMIC CHARGES
-----------------------
   0 C :    0.949829
   1 F :   -0.336521
   2 F :   -0.336521
   3 Cl:   -0.138394
   4 Cl:   -0.138394
Sum of atomic charges:   -0.0000000

LOEWDIN ATOMIC CHARGES
----------------------
   0 C :   -2.378835
   1 F :    0.373104
   2 F :    0.373104
   3 Cl:    0.816313
   4 Cl:    0.816313

  Mayer bond orders larger than 0.100000
B(  0-C ,  1-F ) :   0.8321 B(  0-C ,  2-F ) :   0.8321 B(  0-C ,  3-Cl) :   1.0056
B(  0-C ,  4-Cl) :   1.0056

MP2 TOTAL ENERGY:    -1156.924152120 Eh
FINAL SINGLE POINT ENERGY     -1156.924152120069

DIPOLE MOMENT
-------------
                                X             Y             Z
Electronic contribution:      0.00000       0.00000       0.08479
Nuclear contribution   :      0.00000       0.00000      -0.31144
                        -----------------------------------------
Total Dipole Moment    :      0.00000       0.00000      -0.22665
                        -----------------------------------------
Magnitude (a.u.)       :      0.22665
Magnitude (Debye)      :      0.57609

Rotational constants in cm-1:     0.135443     0.085131     0.072055
Rotational constants in MHz :  4060.489765  2552.169977  2160.148421

                             ****ORCA TERMINATED NORMALLY****
TOTAL RUN TIME: 0 days 0 hours 0 minutes 48 seconds 552 msec
