                         Program Version 5.0.3 -  RELEASE  -
|  1> !ri-mp2 aug-cc-pvtz aug-cc-pvtz/c tightscf
|  2> %pal nprocs 16 end
|  3>
|  4> * xyz 0 1
|  5> C     0.000000    0.000000     0.036614
|  6> S     0.000000    0.000000     1.679557
|  7> S     0.000000    1.427910    -0.995436
|  8> S     0.000000   -1.427910    -0.995436
|  9> C     0.000000    2.795841     0.193673
| 10> C     0.000000   -2.795841     0.193673
| 11> H     0.889349    2.757958     0.816057
| 12> H     0.889349   -2.757958     0.816057
| 13> H     0.000000    3.699161    -0.413472
| 14> H    -0.889349    2.757958     0.816057
| 15> H    -0.889349   -2.757958     0.816057
| 16> H     0.000000   -3.699161    -0.413472
| 17> *
| 18>
| 19>                          ****END OF INPUT****

CARTESIAN COORDINATES (ANGSTROEM)
---------------------------------
  C      0.000000    0.000000    0.036614
  S      0.000000    0.000000    1.679557
  S      0.000000    1.427910   -0.995436
  S      0.000000   -1.427910   -0.995436
  C      0.000000    2.795841    0.193673
  C      0.000000   -2.795841    0.193673
  H      0.889349    2.757958    0.816057
  H      0.889349   -2.757958    0.816057
  H      0.000000    3.699161   -0.413472
  H     -0.889349    2.757958    0.816057
  H     -0.889349   -2.757958    0.816057
  H      0.000000   -3.699161   -0.413472

 Total Charge           Charge          ....    0
 Multiplicity           Mult            ....    1
 Number of Electrons    NEL             ....   72
 Basis Dimension        Dim             ....  426

ORBITAL ENERGIES
----------------

  NO   OCC          E(Eh)            E(eV)
   0   2.0000     -91.988954     -2503.1467
   1   2.0000     -91.988954     -2503.1467
   2   2.0000     -91.930394     -2501.5532
   3   2.0000     -11.374189      -309.5074
   4   2.0000     -11.266731      -306.5833
   5   2.0000     -11.266730      -306.5833
   6   2.0000      -8.989304      -244.6114
   7   2.0000      -8.989298      -244.6112
   8   2.0000      -8.933220      -243.0853
   9   2.0000      -6.670489      -181.5132
  10   2.0000      -6.670487      -181.5132
  11   2.0000      -6.669254      -181.4796
  12   2.0000      -6.669248      -181.4795
  13   2.0000      -6.668625      -181.4625
  14   2.0000      -6.668620      -181.4624
  15   2.0000      -6.614337      -179.9852
  16   2.0000      -6.613075      -179.9509
  17   2.0000      -6.611952      -179.9204
  18   2.0000      -1.142764       -31.0962
  19   2.0000      -1.056057       -28.7368
  20   2.0000      -0.997569       -27.1452
  21   2.0000      -0.923258       -25.1231
  22   2.0000      -0.869403       -23.6577
  23   2.0000      -0.693266       -18.8647
  24   2.0000      -0.631354       -17.1800
  25   2.0000      -0.608086       -16.5469
  26   2.0000      -0.601396       -16.3648
  27   2.0000      -0.593970       -16.1627
  28   2.0000      -0.571656       -15.5555
  29   2.0000      -0.520907       -14.1746
  30   2.0000      -0.485427       -13.2091
  31   2.0000      -0.479521       -13.0484
  32   2.0000      -0.456856       -12.4317
  33   2.0000      -0.361020        -9.8238
  34   2.0000      -0.345326        -9.3968
  35   2.0000      -0.339110        -9.2277
  36   0.0000       0.029760         0.8098
  37   0.0000       0.031485         0.8568
  38   0.0000       0.040192         1.0937
  39   0.0000       0.046713         1.2711
  40   0.0000       0.055932         1.5220

MULLIKEN ATOMIC CHARGES
-----------------------
   0 C :    0.469469
   1 S :   -0.493636
   2 S :   -0.110937
   3 S :   -0.110937
   4 C :   -0.825888
   5 C :   -0.825888
   6 H :    0.337544
   7 H :    0.337544
   8 H :    0.273820
   9 H :    0.337544
  10 H :    0.337544
  11 H :    0.273820
Sum of atomic charges:   -0.0000000

LOEWDIN ATOMIC CHARGES
----------------------
   0 C :   -1.689581
   1 S :    0.817522
   2 S :    1.031947
   3 S :    1.031947
   4 C :    0.187791
   5 C :    0.187791
   6 H :   -0.262665
   7 H :   -0.262665
   8 H :   -0.258378
   9 H :   -0.262665
  10 H :   -0.262665
  11 H :   -0.258378

  Mayer bond orders larger than 0.100000
B(  0-C ,  1-S ) :   1.5700 B(  0-C ,  2-S ) :   1.0214 B(  0-C ,  3-S ) :   1.0214
B(  2-S ,  4-C ) :   0.9826 B(  3-S ,  5-C ) :   0.9826 B(  4-C ,  6-H ) :   0.8824
B(  4-C ,  8-H ) :   0.9555 B(  4-C ,  9-H ) :   0.8824 B(  5-C ,  7-H ) :   0.8824
B(  5-C , 10-H ) :   0.8824 B(  5-C , 11-H ) :   0.9555

MP2 TOTAL ENERGY:    -1310.828080944 Eh
FINAL SINGLE POINT ENERGY     -1310.828080943991

DIPOLE MOMENT
-------------
                                X             Y             Z
Electronic contribution:      0.00000       0.00000      -2.54067
Nuclear contribution   :      0.00000      -0.00000       2.39309
                        -----------------------------------------
Total Dipole Moment    :      0.00000       0.00000      -0.14757
                        -----------------------------------------
Magnitude (a.u.)       :      0.14757
Magnitude (Debye)      :      0.37511

Rotational constants in cm-1:     0.104662     0.044368     0.031531
Rotational constants in MHz :  3137.683755  1330.107907   945.264808

                             ****ORCA TERMINATED NORMALLY****
TOTAL RUN TIME: 0 days 0 hours 2 minutes 58 seconds 837 msec
