                         Program Version 5.0.3 -  RELEASE  -
|  1> !ri-mp2 aug-cc-pvtz aug-cc-pvtz/c tightscf
|  2> %pal nprocs 16 end
|  3>
|  4> * xyz 0 1
|  5> C     -0.259600   -0.785887    1.366100
|  6> C     -0.259600   -0.785887   -1.366100
|  7> O      1.100868    1.072126    0.000000
|  8> S     -0.259600    0.429008    0.000000
|  9> H     -0.208786   -0.213648    2.289139
| 10> H      0.618458   -1.422179    1.270379
| 11> H     -1.178748   -1.369415    1.337781
| 12> H     -1.178748   -1.369415   -1.337781
| 13> H      0.618458   -1.422179   -1.270379
| 14> H     -0.208786   -0.213648   -2.289139
| 15> *
| 16>
| 17>                          ****END OF INPUT****

CARTESIAN COORDINATES (ANGSTROEM)
---------------------------------
  C     -0.259600   -0.785887    1.366100
  C     -0.259600   -0.785887   -1.366100
  O      1.100868    1.072126    0.000000
  S     -0.259600    0.429008    0.000000
  H     -0.208786   -0.213648    2.289139
  H      0.618458   -1.422179    1.270379
  H     -1.178748   -1.369415    1.337781
  H     -1.178748   -1.369415   -1.337781
  H      0.618458   -1.422179   -1.270379
  H     -0.208786   -0.213648   -2.289139

 Total Charge           Charge          ....    0
 Multiplicity           Mult            ....    1
 Number of Electrons    NEL             ....   42
 Basis Dimension        Dim             ....  326

ORBITAL ENERGIES
----------------

  NO   OCC          E(Eh)            E(eV)
   0   2.0000     -92.071578     -2505.3950
   1   2.0000     -20.503659      -557.9329
   2   2.0000     -11.264837      -306.5318
   3   2.0000     -11.264826      -306.5315
   4   2.0000      -9.057703      -246.4726
   5   2.0000      -6.739344      -183.3869
   6   2.0000      -6.739184      -183.3825
   7   2.0000      -6.737802      -183.3449
   8   2.0000      -1.329234       -36.1703
   9   2.0000      -1.059040       -28.8179
  10   2.0000      -0.975611       -26.5477
  11   2.0000      -0.818476       -22.2719
  12   2.0000      -0.640402       -17.4262
  13   2.0000      -0.626407       -17.0454
  14   2.0000      -0.620168       -16.8756
  15   2.0000      -0.588566       -16.0157
  16   2.0000      -0.560773       -15.2594
  17   2.0000      -0.545627       -14.8473
  18   2.0000      -0.513913       -13.9843
  19   2.0000      -0.416470       -11.3327
  20   2.0000      -0.367865       -10.0101
  21   0.0000       0.024317         0.6617
  22   0.0000       0.035545         0.9672
  23   0.0000       0.041981         1.1424
  24   0.0000       0.046788         1.2732
  25   0.0000       0.058695         1.5972

MULLIKEN ATOMIC CHARGES
-----------------------
   0 C :   -0.826492
   1 C :   -0.826492
   2 O :   -0.939832
   3 S :    0.769996
   4 H :    0.300193
   5 H :    0.278786
   6 H :    0.332431
   7 H :    0.332431
   8 H :    0.278786
   9 H :    0.300193
Sum of atomic charges:   -0.0000000

LOEWDIN ATOMIC CHARGES
----------------------
   0 C :    0.395256
   1 C :    0.395256
   2 O :   -0.200355
   3 S :    0.802540
   4 H :   -0.237135
   5 H :   -0.226966
   6 H :   -0.232247
   7 H :   -0.232247
   8 H :   -0.226966
   9 H :   -0.237135

  Mayer bond orders larger than 0.100000
B(  0-C ,  3-S ) :   0.9208 B(  0-C ,  4-H ) :   0.9302 B(  0-C ,  5-H ) :   0.8985
B(  0-C ,  6-H ) :   0.8741 B(  1-C ,  3-S ) :   0.9208 B(  1-C ,  7-H ) :   0.8741
B(  1-C ,  8-H ) :   0.8985 B(  1-C ,  9-H ) :   0.9302 B(  2-O ,  3-S ) :   1.2953

MP2 TOTAL ENERGY:     -552.451730901 Eh
FINAL SINGLE POINT ENERGY      -552.451730900772

DIPOLE MOMENT
-------------
                                X             Y             Z
Electronic contribution:      0.37053       4.63929       0.00000
Nuclear contribution   :     -1.52731      -6.06449      -0.00000
                        -----------------------------------------
Total Dipole Moment    :     -1.15678      -1.42520       0.00000
                        -----------------------------------------
Magnitude (a.u.)       :      1.83557
Magnitude (Debye)      :      4.66565

Rotational constants in cm-1:     0.229602     0.224354     0.137283
Rotational constants in MHz :  6883.295052  6725.974372  4115.632158

                             ****ORCA TERMINATED NORMALLY****
TOTAL RUN TIME: 0 days 0 hours 1 minutes 32 seconds 182 msec
