                         Program Version 5.0.3 -  RELEASE  -
|  1> !ri-mp2 aug-cc-pvtz aug-cc-pvtz/c tightscf
|  2> %pal nprocs 16 end
|  3>
|  4> * xyz 0 1
|  5> O      0.000000    1.471034    0.000000
|  6> O     -1.045393    0.632131    0.498632
|  7> O      1.045393    0.632130   -0.498632
|  8> C     -1.857587    0.241250   -0.631137
|  9> C      1.857587    0.241251    0.631137
| 10> C     -2.930054   -0.597279   -0.127689
| 11> C      2.930054   -0.597279    0.127689
| 12> C     -3.820304   -1.289211    0.276887
| 13> C      3.820303   -1.289212   -0.276887
| 14> H     -2.252972    1.138284   -1.112154
| 15> H     -1.237646   -0.305795   -1.343916
| 16> H      2.252972    1.138285    1.112154
| 17> H      1.237646   -0.305794    1.343917
| 18> H     -4.609105   -1.902231    0.635967
| 19> H      4.609104   -1.902232   -0.635966
| 20> *
| 21>
| 22>                          ****END OF INPUT****

CARTESIAN COORDINATES (ANGSTROEM)
---------------------------------
  O      0.000000    1.471034    0.000000
  O     -1.045393    0.632131    0.498632
  O      1.045393    0.632130   -0.498632
  C     -1.857587    0.241250   -0.631137
  C      1.857587    0.241251    0.631137
  C     -2.930054   -0.597279   -0.127689
  C      2.930054   -0.597279    0.127689
  C     -3.820304   -1.289211    0.276887
  C      3.820303   -1.289212   -0.276887
  H     -2.252972    1.138284   -1.112154
  H     -1.237646   -0.305795   -1.343916
  H      2.252972    1.138285    1.112154
  H      1.237646   -0.305794    1.343917
  H     -4.609105   -1.902231    0.635967
  H      4.609104   -1.902232   -0.635966

 Total Charge           Charge          ....    0
 Multiplicity           Mult            ....    1
 Number of Electrons    NEL             ....   66
 Basis Dimension        Dim             ....  552

ORBITAL ENERGIES
----------------

  NO   OCC          E(Eh)            E(eV)
   0   2.0000     -20.700457      -563.2881
   1   2.0000     -20.650087      -561.9174
   2   2.0000     -20.650065      -561.9168
   3   2.0000     -11.322697      -308.1063
   4   2.0000     -11.322697      -308.1062
   5   2.0000     -11.248687      -306.0923
   6   2.0000     -11.248687      -306.0923
   7   2.0000     -11.242063      -305.9121
   8   2.0000     -11.242063      -305.9121
   9   2.0000      -1.551107       -42.2078
  10   2.0000      -1.384159       -37.6649
  11   2.0000      -1.186196       -32.2780
  12   2.0000      -1.066670       -29.0256
  13   2.0000      -1.048287       -28.5253
  14   2.0000      -0.965881       -26.2830
  15   2.0000      -0.937242       -25.5036
  16   2.0000      -0.760573       -20.6962
  17   2.0000      -0.741518       -20.1777
  18   2.0000      -0.724381       -19.7114
  19   2.0000      -0.724239       -19.7075
  20   2.0000      -0.707622       -19.2554
  21   2.0000      -0.666676       -18.1412
  22   2.0000      -0.657322       -17.8866
  23   2.0000      -0.627190       -17.0667
  24   2.0000      -0.597547       -16.2601
  25   2.0000      -0.588482       -16.0134
  26   2.0000      -0.499839       -13.6013
  27   2.0000      -0.490881       -13.3575
  28   2.0000      -0.489136       -13.3101
  29   2.0000      -0.413976       -11.2649
  30   2.0000      -0.412383       -11.2215
  31   2.0000      -0.404301       -11.0016
  32   2.0000      -0.402610       -10.9556
  33   0.0000       0.028008         0.7621
  34   0.0000       0.030344         0.8257
  35   0.0000       0.038015         1.0344
  36   0.0000       0.041138         1.1194
  37   0.0000       0.050256         1.3675

MULLIKEN ATOMIC CHARGES
-----------------------
   0 O :   -0.267685
   1 O :   -0.330817
   2 O :   -0.330818
   3 C :   -0.034381
   4 C :   -0.034382
   5 C :    0.942072
   6 C :    0.942074
   7 C :   -1.651598
   8 C :   -1.651599
   9 H :    0.333572
  10 H :    0.368991
  11 H :    0.333572
  12 H :    0.368990
  13 H :    0.506004
  14 H :    0.506004
Sum of atomic charges:   -0.0000000

LOEWDIN ATOMIC CHARGES
----------------------
   0 O :    0.106073
   1 O :    0.290234
   2 O :    0.290234
   3 C :   -0.083540
   4 C :   -0.083540
   5 C :    0.005524
   6 C :    0.005524
   7 C :    0.398851
   8 C :    0.398851
   9 H :   -0.179630
  10 H :   -0.189377
  11 H :   -0.179630
  12 H :   -0.189376
  13 H :   -0.295100
  14 H :   -0.295100

  Mayer bond orders larger than 0.100000
B(  0-O ,  1-O ) :   0.8637 B(  0-O ,  2-O ) :   0.8637 B(  1-O ,  3-C ) :   0.8747
B(  2-O ,  4-C ) :   0.8747 B(  3-C ,  5-C ) :   1.0117 B(  3-C ,  7-C ) :  -0.1403
B(  3-C ,  9-H ) :   0.8978 B(  3-C , 10-H ) :   0.8927 B(  4-C ,  6-C ) :   1.0117
B(  4-C ,  8-C ) :  -0.1403 B(  4-C , 11-H ) :   0.8978 B(  4-C , 12-H ) :   0.8927
B(  5-C ,  7-C ) :   0.6628 B(  5-C , 13-H ) :  -0.1008 B(  6-C ,  8-C ) :   0.6628
B(  6-C , 14-H ) :  -0.1008 B(  7-C , 13-H ) :   0.9064 B(  8-C , 14-H ) :   0.9064

MP2 TOTAL ENERGY:     -456.783695668 Eh
FINAL SINGLE POINT ENERGY      -456.783695667586

DIPOLE MOMENT
-------------
                                X             Y             Z
Electronic contribution:     -0.00000       1.58841      -0.00000
Nuclear contribution   :     -0.00000      -2.06049       0.00000
                        -----------------------------------------
Total Dipole Moment    :     -0.00000      -0.47207       0.00000
                        -----------------------------------------
Magnitude (a.u.)       :      0.47207
Magnitude (Debye)      :      1.19992

Rotational constants in cm-1:     0.125746     0.022253     0.020112
Rotational constants in MHz :  3769.759934   667.128073   602.928929

                             ****ORCA TERMINATED NORMALLY****
TOTAL RUN TIME: 0 days 0 hours 5 minutes 3 seconds 838 msec
