                         Program Version 5.0.3 -  RELEASE  -
|  1> !ri-mp2 aug-cc-pvtz aug-cc-pvtz/c tightscf
|  2> %pal nprocs 16 end
|  3>
|  4> * xyz 0 1
|  5> S      1.236970    0.049907   -0.108638
|  6> O      0.170344   -1.178406    0.365430
|  7> O     -1.065349   -0.869992   -0.353876
|  8> C     -0.081416    1.306104    0.072269
|  9> C     -1.371008    0.445059    0.086653
| 10> H     -0.029247    1.976188   -0.782424
| 11> H      0.016390    1.873792    0.994257
| 12> H     -2.117419    0.815604   -0.614952
| 13> H     -1.786663    0.416113    1.095372
| 14> *
| 15>
| 16>                          ****END OF INPUT****

CARTESIAN COORDINATES (ANGSTROEM)
---------------------------------
  S      1.236970    0.049907   -0.108638
  O      0.170344   -1.178406    0.365430
  O     -1.065349   -0.869992   -0.353876
  C     -0.081416    1.306104    0.072269
  C     -1.371008    0.445059    0.086653
  H     -0.029247    1.976188   -0.782424
  H      0.016390    1.873792    0.994257
  H     -2.117419    0.815604   -0.614952
  H     -1.786663    0.416113    1.095372

 Total Charge           Charge          ....    0
 Multiplicity           Mult            ....    1
 Number of Electrons    NEL             ....   48
 Basis Dimension        Dim             ....  326

ORBITAL ENERGIES
----------------

  NO   OCC          E(Eh)            E(eV)
   0   2.0000     -92.011367     -2503.7566
   1   2.0000     -20.650245      -561.9217
   2   2.0000     -20.641654      -561.6880
   3   2.0000     -11.309891      -307.7578
   4   2.0000     -11.282630      -307.0160
   5   2.0000      -9.006763      -245.0865
   6   2.0000      -6.687805      -181.9844
   7   2.0000      -6.686405      -181.9463
   8   2.0000      -6.684982      -181.9076
   9   2.0000      -1.491042       -40.5733
  10   2.0000      -1.243998       -33.8509
  11   2.0000      -1.076243       -29.2860
  12   2.0000      -0.897955       -24.4346
  13   2.0000      -0.846474       -23.0337
  14   2.0000      -0.706179       -19.2161
  15   2.0000      -0.687396       -18.7050
  16   2.0000      -0.647467       -17.6185
  17   2.0000      -0.622397       -16.9363
  18   2.0000      -0.560372       -15.2485
  19   2.0000      -0.535078       -14.5602
  20   2.0000      -0.525788       -14.3074
  21   2.0000      -0.479613       -13.0509
  22   2.0000      -0.460365       -12.5272
  23   2.0000      -0.360668        -9.8143
  24   0.0000       0.026209         0.7132
  25   0.0000       0.037502         1.0205
  26   0.0000       0.039120         1.0645
  27   0.0000       0.056528         1.5382
  28   0.0000       0.062808         1.7091

MULLIKEN ATOMIC CHARGES
-----------------------
   0 S :    0.218144
   1 O :   -0.487005
   2 O :   -0.369135
   3 C :   -0.456360
   4 C :   -0.155920
   5 H :    0.296205
   6 H :    0.272332
   7 H :    0.383083
   8 H :    0.298656
Sum of atomic charges:    0.0000000

LOEWDIN ATOMIC CHARGES
----------------------
   0 S :    0.882446
   1 O :   -0.150517
   2 O :    0.250757
   3 C :   -0.064868
   4 C :   -0.086821
   5 H :   -0.241390
   6 H :   -0.235922
   7 H :   -0.176808
   8 H :   -0.176877

  Mayer bond orders larger than 0.100000
B(  0-S ,  1-O ) :   0.7959 B(  0-S ,  3-C ) :   0.9761 B(  1-O ,  2-O ) :   0.8190
B(  2-O ,  4-C ) :   0.6957 B(  3-C ,  4-C ) :   1.0002 B(  3-C ,  5-H ) :   0.9172
B(  3-C ,  6-H ) :   0.9028 B(  4-C ,  7-H ) :   0.8384 B(  4-C ,  8-H ) :   0.9530

MP2 TOTAL ENERGY:     -626.287296298 Eh
FINAL SINGLE POINT ENERGY      -626.287296298053

DIPOLE MOMENT
-------------
                                X             Y             Z
Electronic contribution:      3.46388      -3.57294      -0.57458
Nuclear contribution   :     -3.88456       4.94021       0.68095
                        -----------------------------------------
Total Dipole Moment    :     -0.42068       1.36727       0.10636
                        -----------------------------------------
Magnitude (a.u.)       :      1.43447
Magnitude (Debye)      :      3.64614

Rotational constants in cm-1:     0.231026     0.159048     0.103274
Rotational constants in MHz :  6925.990476  4768.126714  3096.087445

                             ****ORCA TERMINATED NORMALLY****
TOTAL RUN TIME: 0 days 0 hours 1 minutes 31 seconds 773 msec
