                         Program Version 5.0.3 -  RELEASE  -
|  1> !ri-mp2 aug-cc-pvtz aug-cc-pvtz/c tightscf
|  2> %pal nprocs 16 end
|  3>
|  4> * xyz 0 1
|  5> C      0.595129    1.129270    1.179795
|  6> C      0.595129    1.129270   -1.179795
|  7> C     -0.195354    0.681761    2.384225
|  8> C     -0.195354    0.681761   -2.384225
|  9> O     -0.097253    0.782414    0.000000
| 10> Cl    -0.195354   -1.116216    2.587045
| 11> Cl    -0.195354   -1.116216   -2.587045
| 12> H      0.715987    2.221674    1.242336
| 13> H      1.594518    0.679296    1.190046
| 14> H      1.594518    0.679296   -1.190046
| 15> H      0.715987    2.221674   -1.242336
| 16> H      0.235929    1.094093    3.292028
| 17> H     -1.235057    0.984758    2.300171
| 18> H     -1.235057    0.984758   -2.300171
| 19> H      0.235929    1.094093   -3.292028
| 20> *
| 21>
| 22>                          ****END OF INPUT****

CARTESIAN COORDINATES (ANGSTROEM)
---------------------------------
  C      0.595129    1.129270    1.179795
  C      0.595129    1.129270   -1.179795
  C     -0.195354    0.681761    2.384225
  C     -0.195354    0.681761   -2.384225
  O     -0.097253    0.782414    0.000000
  Cl    -0.195354   -1.116216    2.587045
  Cl    -0.195354   -1.116216   -2.587045
  H      0.715987    2.221674    1.242336
  H      1.594518    0.679296    1.190046
  H      1.594518    0.679296   -1.190046
  H      0.715987    2.221674   -1.242336
  H      0.235929    1.094093    3.292028
  H     -1.235057    0.984758    2.300171
  H     -1.235057    0.984758   -2.300171
  H      0.235929    1.094093   -3.292028

 Total Charge           Charge          ....    0
 Multiplicity           Mult            ....    1
 Number of Electrons    NEL             ....   74
 Basis Dimension        Dim             ....  514

ORBITAL ENERGIES
----------------

  NO   OCC          E(Eh)            E(eV)
   0   2.0000    -104.820758     -2852.3178
   1   2.0000    -104.820758     -2852.3178
   2   2.0000     -20.576582      -559.9173
   3   2.0000     -11.301636      -307.5331
   4   2.0000     -11.301618      -307.5327
   5   2.0000     -11.299047      -307.4627
   6   2.0000     -11.299045      -307.4626
   7   2.0000     -10.544711      -286.9362
   8   2.0000     -10.544710      -286.9362
   9   2.0000      -8.011517      -218.0045
  10   2.0000      -8.011516      -218.0044
  11   2.0000      -8.009760      -217.9566
  12   2.0000      -8.009759      -217.9566
  13   2.0000      -8.009711      -217.9553
  14   2.0000      -8.009711      -217.9553
  15   2.0000      -1.400128       -38.0994
  16   2.0000      -1.139770       -31.0147
  17   2.0000      -1.124406       -30.5967
  18   2.0000      -1.023049       -27.8386
  19   2.0000      -0.969201       -26.3733
  20   2.0000      -0.848138       -23.0790
  21   2.0000      -0.840421       -22.8690
  22   2.0000      -0.702289       -19.1102
  23   2.0000      -0.698795       -19.0152
  24   2.0000      -0.646659       -17.5965
  25   2.0000      -0.623662       -16.9707
  26   2.0000      -0.615209       -16.7407
  27   2.0000      -0.577229       -15.7072
  28   2.0000      -0.552545       -15.0355
  29   2.0000      -0.539662       -14.6849
  30   2.0000      -0.507979       -13.8228
  31   2.0000      -0.504039       -13.7156
  32   2.0000      -0.447121       -12.1668
  33   2.0000      -0.435993       -11.8640
  34   2.0000      -0.432120       -11.7586
  35   2.0000      -0.428863       -11.6699
  36   2.0000      -0.428674       -11.6648
  37   0.0000       0.023371         0.6359
  38   0.0000       0.031125         0.8469
  39   0.0000       0.036367         0.9896
  40   0.0000       0.044828         1.2198
  41   0.0000       0.051465         1.4004

MULLIKEN ATOMIC CHARGES
-----------------------
   0 C :   -0.243566
   1 C :   -0.243566
   2 C :   -0.353579
   3 C :   -0.353579
   4 O :   -0.466379
   5 Cl:   -0.331516
   6 Cl:   -0.331516
   7 H :    0.333272
   8 H :    0.335880
   9 H :    0.335880
  10 H :    0.333272
  11 H :    0.257948
  12 H :    0.234751
  13 H :    0.234751
  14 H :    0.257948
Sum of atomic charges:    0.0000000

LOEWDIN ATOMIC CHARGES
----------------------
   0 C :   -0.086502
   1 C :   -0.086502
   2 C :   -0.260726
   3 C :   -0.260726
   4 O :    0.550836
   5 Cl:    0.874904
   6 Cl:    0.874904
   7 H :   -0.153368
   8 H :   -0.169442
   9 H :   -0.169442
  10 H :   -0.153368
  11 H :   -0.241622
  12 H :   -0.238662
  13 H :   -0.238662
  14 H :   -0.241622

  Mayer bond orders larger than 0.100000
B(  0-C ,  2-C ) :   0.9777 B(  0-C ,  4-O ) :   0.9345 B(  0-C ,  7-H ) :   0.8615
B(  0-C ,  8-H ) :   0.8647 B(  1-C ,  3-C ) :   0.9777 B(  1-C ,  4-O ) :   0.9345
B(  1-C ,  9-H ) :   0.8647 B(  1-C , 10-H ) :   0.8615 B(  2-C ,  5-Cl) :   0.8169
B(  2-C , 11-H ) :   0.9715 B(  2-C , 12-H ) :   0.9647 B(  3-C ,  6-Cl) :   0.8169
B(  3-C , 13-H ) :   0.9647 B(  3-C , 14-H ) :   0.9715

MP2 TOTAL ENERGY:    -1151.434908389 Eh
FINAL SINGLE POINT ENERGY     -1151.434908389080

DIPOLE MOMENT
-------------
                                X             Y             Z
Electronic contribution:     -2.58507     -10.88494       0.00000
Nuclear contribution   :      3.09045      12.79430      -0.00000
                        -----------------------------------------
Total Dipole Moment    :      0.50538       1.90936       0.00000
                        -----------------------------------------
Magnitude (a.u.)       :      1.97511
Magnitude (Debye)      :      5.02033

Rotational constants in cm-1:     0.096028     0.024153     0.019982
Rotational constants in MHz :  2878.853496   724.078541   599.039868

                             ****ORCA TERMINATED NORMALLY****
TOTAL RUN TIME: 0 days 0 hours 4 minutes 18 seconds 453 msec
