                         Program Version 5.0.3 -  RELEASE  -
|  1> !ri-mp2 aug-cc-pvtz aug-cc-pvtz/c tightscf
|  2> %pal nprocs 16 end
|  3>
|  4> * xyz 0 1
|  5> F      2.734032   -0.044650    0.294765
|  6> F      1.181883    0.979329   -0.865319
|  7> O     -0.624931   -0.986352    0.049400
|  8> O     -2.650125   -0.501223   -0.660014
|  9> N      1.562213   -0.308934   -0.435957
| 10> C      0.589833   -0.642433    0.639320
| 11> C     -1.709038   -0.127949   -0.029755
| 12> C     -1.645992    1.182508    0.711998
| 13> H      0.536070    0.185170    1.344177
| 14> H      1.001583   -1.530166    1.114473
| 15> H     -0.840166    1.812068    0.338768
| 16> H     -2.596239    1.685000    0.564689
| 17> H     -1.488346    1.026194    1.780109
| 18> *
| 19>
| 20>                          ****END OF INPUT****

CARTESIAN COORDINATES (ANGSTROEM)
---------------------------------
  F      2.734032   -0.044650    0.294765
  F      1.181883    0.979329   -0.865319
  O     -0.624931   -0.986352    0.049400
  O     -2.650125   -0.501223   -0.660014
  N      1.562213   -0.308934   -0.435957
  C      0.589833   -0.642433    0.639320
  C     -1.709038   -0.127949   -0.029755
  C     -1.645992    1.182508    0.711998
  H      0.536070    0.185170    1.344177
  H      1.001583   -1.530166    1.114473
  H     -0.840166    1.812068    0.338768
  H     -2.596239    1.685000    0.564689
  H     -1.488346    1.026194    1.780109

 Total Charge           Charge          ....    0
 Multiplicity           Mult            ....    1
 Number of Electrons    NEL             ....   64
 Basis Dimension        Dim             ....  483

ORBITAL ENERGIES
----------------

  NO   OCC          E(Eh)            E(eV)
   0   2.0000     -26.358261      -717.2448
   1   2.0000     -26.355459      -717.1685
   2   2.0000     -20.633931      -561.4778
   3   2.0000     -20.564062      -559.5766
   4   2.0000     -15.792894      -429.7465
   5   2.0000     -11.406372      -310.3832
   6   2.0000     -11.374352      -309.5118
   7   2.0000     -11.265497      -306.5498
   8   2.0000      -1.701290       -46.2944
   9   2.0000      -1.617070       -44.0027
  10   2.0000      -1.485731       -40.4288
  11   2.0000      -1.395046       -37.9611
  12   2.0000      -1.175914       -31.9983
  13   2.0000      -1.042699       -28.3733
  14   2.0000      -0.967667       -26.3315
  15   2.0000      -0.834823       -22.7167
  16   2.0000      -0.789651       -21.4875
  17   2.0000      -0.786684       -21.4068
  18   2.0000      -0.757900       -20.6235
  19   2.0000      -0.719368       -19.5750
  20   2.0000      -0.715604       -19.4726
  21   2.0000      -0.687993       -18.7213
  22   2.0000      -0.673409       -18.3244
  23   2.0000      -0.654212       -17.8020
  24   2.0000      -0.643220       -17.5029
  25   2.0000      -0.627309       -17.0699
  26   2.0000      -0.598018       -16.2729
  27   2.0000      -0.572253       -15.5718
  28   2.0000      -0.554197       -15.0805
  29   2.0000      -0.510053       -13.8792
  30   2.0000      -0.487713       -13.2714
  31   2.0000      -0.467731       -12.7276
  32   0.0000       0.021695         0.5904
  33   0.0000       0.032683         0.8893
  34   0.0000       0.043183         1.1751
  35   0.0000       0.044922         1.2224
  36   0.0000       0.064420         1.7530

MULLIKEN ATOMIC CHARGES
-----------------------
   0 F :   -0.336455
   1 F :   -0.339535
   2 O :   -0.382561
   3 O :   -0.745356
   4 N :    0.147321
   5 C :   -0.070975
   6 C :    0.456598
   7 C :   -0.597873
   8 H :    0.409027
   9 H :    0.512332
  10 H :    0.347151
  11 H :    0.302100
  12 H :    0.298225
Sum of atomic charges:   -0.0000000

LOEWDIN ATOMIC CHARGES
----------------------
   0 F :    0.313085
   1 F :    0.313014
   2 O :    0.569587
   3 O :    0.453333
   4 N :   -0.368875
   5 C :   -0.158283
   6 C :   -0.775989
   7 C :    0.575446
   8 H :   -0.203476
   9 H :   -0.171249
  10 H :   -0.195022
  11 H :   -0.178599
  12 H :   -0.172974

  Mayer bond orders larger than 0.100000
B(  0-F ,  4-N ) :   0.8082 B(  1-F ,  4-N ) :   0.7749 B(  2-O ,  5-C ) :   0.8474
B(  2-O ,  6-C ) :   1.0059 B(  3-O ,  6-C ) :   1.5042 B(  4-N ,  5-C ) :   0.6811
B(  5-C ,  8-H ) :   0.8563 B(  5-C ,  9-H ) :   0.7592 B(  6-C ,  7-C ) :   0.7143
B(  7-C , 10-H ) :   0.8793 B(  7-C , 11-H ) :   0.9284 B(  7-C , 12-H ) :   0.9245

MP2 TOTAL ENERGY:     -521.321817715 Eh
FINAL SINGLE POINT ENERGY      -521.321817715108

DIPOLE MOMENT
-------------
                                X             Y             Z
Electronic contribution:      7.34452      -1.58185      -3.95418
Nuclear contribution   :     -7.01233       2.14297       5.47148
                        -----------------------------------------
Total Dipole Moment    :      0.33219       0.56111       1.51731
                        -----------------------------------------
Magnitude (a.u.)       :      1.65149
Magnitude (Debye)      :      4.19775

Rotational constants in cm-1:     0.148645     0.037734     0.035504
Rotational constants in MHz :  4456.278176  1131.239781  1064.376303

                             ****ORCA TERMINATED NORMALLY****
TOTAL RUN TIME: 0 days 0 hours 3 minutes 33 seconds 744 msec
