                         Program Version 5.0.3 -  RELEASE  -
|  1> !ri-mp2 aug-cc-pvtz aug-cc-pvtz/c tightscf
|  2> %pal nprocs 16 end
|  3> %maxcore 3800
|  4>
|  5> * xyz 0 1
|  6> C     -1.420834    0.793414   -0.007311
|  7> S      0.000000   -0.346947   -0.000010
|  8> C     -2.762715    0.095086    0.252798
|  9> C      1.420834    0.793414    0.007287
| 10> O     -0.034424   -1.089441    1.260830
| 11> O      0.034424   -1.089442   -1.260849
| 12> C     -3.806859    1.145917    0.648578
| 13> C     -3.239642   -0.730464   -0.945570
| 14> C      2.762718    0.095073   -0.252778
| 15> C      3.806866    1.145882   -0.648603
| 16> C      3.239634   -0.730417    0.945635
| 17> H     -1.201428    1.513412    0.781999
| 18> H     -1.403435    1.302515   -0.971723
| 19> H     -2.618202   -0.575090    1.103169
| 20> H      1.201441    1.513390   -0.782045
| 21> H      1.403420    1.302541    0.971685
| 22> H     -4.763693    0.667778    0.861289
| 23> H     -3.504390    1.699334    1.539005
| 24> H     -3.969663    1.865389   -0.157619
| 25> H     -3.398705   -0.091329   -1.817765
| 26> H     -2.520753   -1.498674   -1.222382
| 27> H     -4.188123   -1.215944   -0.712598
| 28> H      2.618210   -0.575147   -1.103115
| 29> H      4.763704    0.667732   -0.861274
| 30> H      3.504408    1.699247   -1.539066
| 31> H      3.969659    1.865400    0.157555
| 32> H      3.398692   -0.091241    1.817801
| 33> H      2.520742   -1.498613    1.222481
| 34> H      4.188116   -1.215910    0.712694
| 35> *
| 36>
| 37>                          ****END OF INPUT****

CARTESIAN COORDINATES (ANGSTROEM)
---------------------------------
  C     -1.420834    0.793414   -0.007311
  S      0.000000   -0.346947   -0.000010
  C     -2.762715    0.095086    0.252798
  C      1.420834    0.793414    0.007287
  O     -0.034424   -1.089441    1.260830
  O      0.034424   -1.089442   -1.260849
  C     -3.806859    1.145917    0.648578
  C     -3.239642   -0.730464   -0.945570
  C      2.762718    0.095073   -0.252778
  C      3.806866    1.145882   -0.648603
  C      3.239634   -0.730417    0.945635
  H     -1.201428    1.513412    0.781999
  H     -1.403435    1.302515   -0.971723
  H     -2.618202   -0.575090    1.103169
  H      1.201441    1.513390   -0.782045
  H      1.403420    1.302541    0.971685
  H     -4.763693    0.667778    0.861289
  H     -3.504390    1.699334    1.539005
  H     -3.969663    1.865389   -0.157619
  H     -3.398705   -0.091329   -1.817765
  H     -2.520753   -1.498674   -1.222382
  H     -4.188123   -1.215944   -0.712598
  H      2.618210   -0.575147   -1.103115
  H      4.763704    0.667732   -0.861274
  H      3.504408    1.699247   -1.539066
  H      3.969659    1.865400    0.157555
  H      3.398692   -0.091241    1.817801
  H      2.520742   -1.498613    1.222481
  H      4.188116   -1.215910    0.712694

 Total Charge           Charge          ....    0
 Multiplicity           Mult            ....    1
 Number of Electrons    NEL             ....   98
 Basis Dimension        Dim             ....  924

ORBITAL ENERGIES
----------------

  NO   OCC          E(Eh)            E(eV)
   0   2.0000     -92.168760     -2508.0395
   1   2.0000     -20.533836      -558.7541
   2   2.0000     -20.533815      -558.7535
   3   2.0000     -11.273741      -306.7741
   4   2.0000     -11.273725      -306.7737
   5   2.0000     -11.247527      -306.0608
   6   2.0000     -11.247526      -306.0608
   7   2.0000     -11.225911      -305.4726
   8   2.0000     -11.225911      -305.4726
   9   2.0000     -11.213054      -305.1227
  10   2.0000     -11.213054      -305.1227
  11   2.0000      -9.139000      -248.6848
  12   2.0000      -6.823271      -185.6706
  13   2.0000      -6.822999      -185.6632
  14   2.0000      -6.822968      -185.6624
  15   2.0000      -1.431477       -38.9525
  16   2.0000      -1.320370       -35.9291
  17   2.0000      -1.115487       -30.3540
  18   2.0000      -1.106487       -30.1090
  19   2.0000      -1.018125       -27.7046
  20   2.0000      -0.960950       -26.1488
  21   2.0000      -0.939010       -25.5518
  22   2.0000      -0.938938       -25.5498
  23   2.0000      -0.833132       -22.6707
  24   2.0000      -0.785694       -21.3798
  25   2.0000      -0.778096       -21.1731
  26   2.0000      -0.688738       -18.7415
  27   2.0000      -0.666915       -18.1477
  28   2.0000      -0.666444       -18.1349
  29   2.0000      -0.634008       -17.2522
  30   2.0000      -0.621000       -16.8983
  31   2.0000      -0.609236       -16.5781
  32   2.0000      -0.602919       -16.4062
  33   2.0000      -0.590616       -16.0715
  34   2.0000      -0.580004       -15.7827
  35   2.0000      -0.553887       -15.0720
  36   2.0000      -0.549659       -14.9570
  37   2.0000      -0.539021       -14.6675
  38   2.0000      -0.537986       -14.6394
  39   2.0000      -0.512048       -13.9335
  40   2.0000      -0.498485       -13.5645
  41   2.0000      -0.496338       -13.5060
  42   2.0000      -0.483695       -13.1620
  43   2.0000      -0.480967       -13.0878
  44   2.0000      -0.480920       -13.0865
  45   2.0000      -0.478678       -13.0255
  46   2.0000      -0.464281       -12.6337
  47   2.0000      -0.457110       -12.4386
  48   2.0000      -0.412557       -11.2263
  49   0.0000       0.022803         0.6205
  50   0.0000       0.028473         0.7748
  51   0.0000       0.034404         0.9362
  52   0.0000       0.035402         0.9633
  53   0.0000       0.043795         1.1917

MULLIKEN ATOMIC CHARGES
-----------------------
   0 C :   -0.611447
   1 S :    2.408255
   2 C :    0.152325
   3 C :   -0.611454
   4 O :   -1.129675
   5 O :   -1.129679
   6 C :   -1.152466
   7 C :   -1.095886
   8 C :    0.152329
   9 C :   -1.152467
  10 C :   -1.095890
  11 H :    0.378703
  12 H :    0.289452
  13 H :    0.326216
  14 H :    0.378697
  15 H :    0.289444
  16 H :    0.277145
  17 H :    0.241720
  18 H :    0.256510
  19 H :    0.253887
  20 H :    0.342816
  21 H :    0.266582
  22 H :    0.326210
  23 H :    0.277147
  24 H :    0.241721
  25 H :    0.256511
  26 H :    0.253881
  27 H :    0.342831
  28 H :    0.266580
Sum of atomic charges:    0.0000000

LOEWDIN ATOMIC CHARGES
----------------------
   0 C :    0.214555
   1 S :    0.331428
   2 C :   -0.084706
   3 C :    0.214556
   4 O :    0.048767
   5 O :    0.048766
   6 C :    0.587354
   7 C :    0.584810
   8 C :   -0.084705
   9 C :    0.587354
  10 C :    0.584809
  11 H :   -0.185642
  12 H :   -0.174654
  13 H :   -0.154986
  14 H :   -0.185643
  15 H :   -0.174654
  16 H :   -0.162156
  17 H :   -0.165725
  18 H :   -0.159379
  19 H :   -0.160228
  20 H :   -0.190579
  21 H :   -0.163144
  22 H :   -0.154987
  23 H :   -0.162155
  24 H :   -0.165725
  25 H :   -0.159379
  26 H :   -0.160228
  27 H :   -0.190580
  28 H :   -0.163144

  Mayer bond orders larger than 0.100000
B(  0-C ,  1-S ) :   0.9408 B(  0-C ,  2-C ) :   0.9462 B(  0-C ,  4-O ) :   0.1000
B(  0-C , 11-H ) :   0.7968 B(  0-C , 12-H ) :   0.8928 B(  1-S ,  2-C ) :   0.1105
B(  1-S ,  3-C ) :   0.9408 B(  1-S ,  4-O ) :   0.8872 B(  1-S ,  5-O ) :   0.8872
B(  1-S ,  8-C ) :   0.1105 B(  2-C ,  6-C ) :   0.6983 B(  2-C ,  7-C ) :   0.7183
B(  2-C , 13-H ) :   0.8562 B(  3-C ,  5-O ) :   0.1000 B(  3-C ,  8-C ) :   0.9462
B(  3-C , 14-H ) :   0.7968 B(  3-C , 15-H ) :   0.8928 B(  6-C ,  7-C ) :   0.1819
B(  6-C , 16-H ) :   0.9996 B(  6-C , 17-H ) :   1.0107 B(  6-C , 18-H ) :   1.0021
B(  7-C , 19-H ) :   0.9867 B(  7-C , 20-H ) :   0.9007 B(  7-C , 21-H ) :   0.9990
B(  8-C ,  9-C ) :   0.6983 B(  8-C , 10-C ) :   0.7183 B(  8-C , 22-H ) :   0.8562
B(  9-C , 10-C ) :   0.1819 B(  9-C , 23-H ) :   0.9996 B(  9-C , 24-H ) :   1.0107
B(  9-C , 25-H ) :   1.0021 B( 10-C , 26-H ) :   0.9867 B( 10-C , 27-H ) :   0.9007
B( 10-C , 28-H ) :   0.9990

MP2 TOTAL ENERGY:     -862.950672708 Eh
FINAL SINGLE POINT ENERGY      -862.950672707716

DIPOLE MOMENT
-------------
                                X             Y             Z
Electronic contribution:      0.00000      -5.73005      -0.00009
Nuclear contribution   :     -0.00000       7.54739       0.00009
                        -----------------------------------------
Total Dipole Moment    :     -0.00000       1.81735       0.00000
                        -----------------------------------------
Magnitude (a.u.)       :      1.81735
Magnitude (Debye)      :      4.61933

Rotational constants in cm-1:     0.070890     0.014877     0.014560
Rotational constants in MHz :  2125.240204   445.989888   436.509414

                             ****ORCA TERMINATED NORMALLY****
TOTAL RUN TIME: 0 days 0 hours 24 minutes 37 seconds 249 msec
