                         Program Version 5.0.3 -  RELEASE  -
|  1> !ri-mp2 aug-cc-pvtz aug-cc-pvtz/c tightscf
|  2> %pal nprocs 16 end
|  3>
|  4> * xyz 0 1
|  5> C     -0.008620   -0.371616    2.458950
|  6> C     -0.008620   -0.371616   -2.458950
|  7> C     -0.008620    0.517598    1.223905
|  8> C     -0.008620    0.517598   -1.223905
|  9> N     -0.059012   -0.273364    0.000000
| 10> H     -0.896650   -1.003443    2.479604
| 11> H      0.868669   -1.022627    2.474208
| 12> H      0.011382    0.229192    3.368838
| 13> H      0.868669   -1.022627   -2.474208
| 14> H     -0.896650   -1.003443   -2.479604
| 15> H      0.011382    0.229192   -3.368838
| 16> H      0.867606    1.187009    1.250354
| 17> H     -0.889411    1.165441    1.236824
| 18> H     -0.889411    1.165441   -1.236824
| 19> H      0.867606    1.187009   -1.250354
| 20> H      0.696784   -0.949384    0.000000
| 21> *
| 22>
| 23>                          ****END OF INPUT****

CARTESIAN COORDINATES (ANGSTROEM)
---------------------------------
  C     -0.008620   -0.371616    2.458950
  C     -0.008620   -0.371616   -2.458950
  C     -0.008620    0.517598    1.223905
  C     -0.008620    0.517598   -1.223905
  N     -0.059012   -0.273364    0.000000
  H     -0.896650   -1.003443    2.479604
  H      0.868669   -1.022627    2.474208
  H      0.011382    0.229192    3.368838
  H      0.868669   -1.022627   -2.474208
  H     -0.896650   -1.003443   -2.479604
  H      0.011382    0.229192   -3.368838
  H      0.867606    1.187009    1.250354
  H     -0.889411    1.165441    1.236824
  H     -0.889411    1.165441   -1.236824
  H      0.867606    1.187009   -1.250354
  H      0.696784   -0.949384    0.000000

 Total Charge           Charge          ....    0
 Multiplicity           Mult            ....    1
 Number of Electrons    NEL             ....   42
 Basis Dimension        Dim             ....  483

ORBITAL ENERGIES
----------------

  NO   OCC          E(Eh)            E(eV)
   0   2.0000     -15.535658      -422.7467
   1   2.0000     -11.243736      -305.9576
   2   2.0000     -11.243720      -305.9572
   3   2.0000     -11.210576      -305.0553
   4   2.0000     -11.210575      -305.0553
   5   2.0000      -1.202167       -32.7126
   6   2.0000      -1.027009       -27.9463
   7   2.0000      -0.962260       -26.1844
   8   2.0000      -0.830120       -22.5887
   9   2.0000      -0.819261       -22.2932
  10   2.0000      -0.658652       -17.9228
  11   2.0000      -0.626773       -17.0553
  12   2.0000      -0.597324       -16.2540
  13   2.0000      -0.588918       -16.0253
  14   2.0000      -0.552549       -15.0356
  15   2.0000      -0.520107       -14.1528
  16   2.0000      -0.507431       -13.8079
  17   2.0000      -0.488677       -13.2976
  18   2.0000      -0.481847       -13.1117
  19   2.0000      -0.474785       -12.9196
  20   2.0000      -0.364033        -9.9058
  21   0.0000       0.030431         0.8281
  22   0.0000       0.036064         0.9813
  23   0.0000       0.038190         1.0392
  24   0.0000       0.040998         1.1156
  25   0.0000       0.053336         1.4513

MULLIKEN ATOMIC CHARGES
-----------------------
   0 C :   -0.975706
   1 C :   -0.975706
   2 C :   -0.338640
   3 C :   -0.338640
   4 N :   -0.311454
   5 H :    0.277844
   6 H :    0.256158
   7 H :    0.320815
   8 H :    0.256158
   9 H :    0.277844
  10 H :    0.320815
  11 H :    0.281761
  12 H :    0.305826
  13 H :    0.305826
  14 H :    0.281761
  15 H :    0.055338
Sum of atomic charges:   -0.0000000

LOEWDIN ATOMIC CHARGES
----------------------
   0 C :    0.579884
   1 C :    0.579884
   2 C :    0.121697
   3 C :    0.121697
   4 N :    0.549730
   5 H :   -0.171570
   6 H :   -0.174058
   7 H :   -0.175434
   8 H :   -0.174058
   9 H :   -0.171570
  10 H :   -0.175434
  11 H :   -0.144240
  12 H :   -0.153595
  13 H :   -0.153595
  14 H :   -0.144240
  15 H :   -0.315097

  Mayer bond orders larger than 0.100000
B(  0-C ,  2-C ) :   0.8633 B(  0-C ,  5-H ) :   0.9534 B(  0-C ,  6-H ) :   0.9661
B(  0-C ,  7-H ) :   0.9325 B(  1-C ,  3-C ) :   0.8633 B(  1-C ,  8-H ) :   0.9661
B(  1-C ,  9-H ) :   0.9534 B(  1-C , 10-H ) :   0.9325 B(  2-C ,  4-N ) :   0.9047
B(  2-C , 11-H ) :   0.9208 B(  2-C , 12-H ) :   0.9141 B(  3-C ,  4-N ) :   0.9047
B(  3-C , 13-H ) :   0.9141 B(  3-C , 14-H ) :   0.9208 B(  4-N , 15-H ) :   0.9451

MP2 TOTAL ENERGY:     -213.336593476 Eh
FINAL SINGLE POINT ENERGY      -213.336593476454

DIPOLE MOMENT
-------------
                                X             Y             Z
Electronic contribution:     -0.32778      -0.00340       0.00000
Nuclear contribution   :      0.66826       0.17273      -0.00000
                        -----------------------------------------
Total Dipole Moment    :      0.34048       0.16932       0.00000
                        -----------------------------------------
Magnitude (a.u.)       :      0.38025
Magnitude (Debye)      :      0.96653

Rotational constants in cm-1:     0.595214     0.069700     0.065689
Rotational constants in MHz : 17844.066328  2089.552977  1969.306622

                             ****ORCA TERMINATED NORMALLY****
TOTAL RUN TIME: 0 days 0 hours 3 minutes 4 seconds 990 msec
