                         Program Version 5.0.3 -  RELEASE  -
|  1> !ri-mp2 aug-cc-pvtz aug-cc-pvtz/c tightscf
|  2> %pal nprocs 16 end
|  3>
|  4> * xyz 0 1
|  5> S      2.159288    0.225879   -0.000022
|  6> S     -2.159288   -0.225879   -0.000022
|  7> N      0.380905   -1.736090    0.000033
|  8> N     -0.380905    1.736090    0.000033
|  9> C      0.630428   -0.433440    0.000013
| 10> C     -0.630428    0.433440    0.000008
| 11> H      1.142640   -2.391307    0.000019
| 12> H     -0.586716   -2.040345    0.000035
| 13> H      0.586717    2.040345    0.000036
| 14> H     -1.142640    2.391307    0.000026
| 15> *
| 16>
| 17>                          ****END OF INPUT****

CARTESIAN COORDINATES (ANGSTROEM)
---------------------------------
  S      2.159288    0.225879   -0.000022
  S     -2.159288   -0.225879   -0.000022
  N      0.380905   -1.736090    0.000033
  N     -0.380905    1.736090    0.000033
  C      0.630428   -0.433440    0.000013
  C     -0.630428    0.433440    0.000008
  H      1.142640   -2.391307    0.000019
  H     -0.586716   -2.040345    0.000035
  H      0.586717    2.040345    0.000036
  H     -1.142640    2.391307    0.000026

 Total Charge           Charge          ....    0
 Multiplicity           Mult            ....    1
 Number of Electrons    NEL             ....   62
 Basis Dimension        Dim             ....  376

ORBITAL ENERGIES
----------------

  NO   OCC          E(Eh)            E(eV)
   0   2.0000     -91.928211     -2501.4938
   1   2.0000     -91.928211     -2501.4938
   2   2.0000     -15.626586      -425.2210
   3   2.0000     -15.626586      -425.2210
   4   2.0000     -11.382524      -309.7342
   5   2.0000     -11.381907      -309.7174
   6   2.0000      -8.931265      -243.0321
   7   2.0000      -8.931264      -243.0321
   8   2.0000      -6.612580      -179.9375
   9   2.0000      -6.612580      -179.9375
  10   2.0000      -6.611047      -179.8957
  11   2.0000      -6.611045      -179.8957
  12   2.0000      -6.610216      -179.8731
  13   2.0000      -6.610215      -179.8731
  14   2.0000      -1.312300       -35.7095
  15   2.0000      -1.274930       -34.6926
  16   2.0000      -1.039483       -28.2858
  17   2.0000      -1.012614       -27.5546
  18   2.0000      -0.869954       -23.6727
  19   2.0000      -0.809976       -22.0406
  20   2.0000      -0.776665       -21.1341
  21   2.0000      -0.734996       -20.0002
  22   2.0000      -0.660489       -17.9728
  23   2.0000      -0.590688       -16.0734
  24   2.0000      -0.574799       -15.6411
  25   2.0000      -0.523250       -14.2384
  26   2.0000      -0.506388       -13.7795
  27   2.0000      -0.378943       -10.3116
  28   2.0000      -0.361088        -9.8257
  29   2.0000      -0.353909        -9.6303
  30   2.0000      -0.340993        -9.2789
  31   0.0000       0.017112         0.4656
  32   0.0000       0.025907         0.7050
  33   0.0000       0.030375         0.8265
  34   0.0000       0.048375         1.3163
  35   0.0000       0.058300         1.5864

MULLIKEN ATOMIC CHARGES
-----------------------
   0 S :   -0.532305
   1 S :   -0.532305
   2 N :   -0.365166
   3 N :   -0.365166
   4 C :    0.541760
   5 C :    0.541760
   6 H :    0.135480
   7 H :    0.220231
   8 H :    0.220232
   9 H :    0.135480
Sum of atomic charges:   -0.0000000

LOEWDIN ATOMIC CHARGES
----------------------
   0 S :    0.932042
   1 S :    0.932042
   2 N :    0.737100
   3 N :    0.737100
   4 C :   -0.952546
   5 C :   -0.952546
   6 H :   -0.294609
   7 H :   -0.421987
   8 H :   -0.421986
   9 H :   -0.294610

  Mayer bond orders larger than 0.100000
B(  0-S ,  4-C ) :   1.4173 B(  1-S ,  5-C ) :   1.4173 B(  2-N ,  4-C ) :   1.1298
B(  2-N ,  6-H ) :   1.0503 B(  2-N ,  7-H ) :   0.9926 B(  3-N ,  5-C ) :   1.1298
B(  3-N ,  8-H ) :   0.9926 B(  3-N ,  9-H ) :   1.0503 B(  4-C ,  5-C ) :   0.7817

MP2 TOTAL ENERGY:     -983.235096879 Eh
FINAL SINGLE POINT ENERGY      -983.235096878660

DIPOLE MOMENT
-------------
                                X             Y             Z
Electronic contribution:     -0.00000      -0.00000      -0.00007
Nuclear contribution   :      0.00000       0.00000       0.00011
                        -----------------------------------------
Total Dipole Moment    :      0.00000      -0.00000       0.00004
                        -----------------------------------------
Magnitude (a.u.)       :      0.00004
Magnitude (Debye)      :      0.00011

Rotational constants in cm-1:     0.150390     0.053356     0.039383
Rotational constants in MHz :  4508.575923  1599.576335  1180.686245

                             ****ORCA TERMINATED NORMALLY****
TOTAL RUN TIME: 0 days 0 hours 2 minutes 19 seconds 982 msec
