                         Program Version 5.0.3 -  RELEASE  -
|  1> !ri-mp2 aug-cc-pvtz aug-cc-pvtz/c tightscf
|  2> %pal nprocs 16 end
|  3>
|  4> * xyz 0 1
|  5> C      0.000000    1.856169   -0.553318
|  6> C      0.000000   -1.856169   -0.553318
|  7> C      0.000000    0.000000    0.918263
|  8> O     -0.768127    0.891716    0.154870
|  9> O      0.768127   -0.891716    0.154870
| 10> H      0.611878    2.448681    0.135651
| 11> H     -0.705463    2.511536   -1.058607
| 12> H      0.653146    1.386863   -1.291849
| 13> H     -0.653146   -1.386863   -1.291849
| 14> H     -0.611878   -2.448681    0.135651
| 15> H      0.705463   -2.511536   -1.058607
| 16> H      0.718837    0.541142    1.540958
| 17> H     -0.718837   -0.541142    1.540958
| 18> *
| 19>
| 20>                          ****END OF INPUT****

CARTESIAN COORDINATES (ANGSTROEM)
---------------------------------
  C      0.000000    1.856169   -0.553318
  C      0.000000   -1.856169   -0.553318
  C      0.000000    0.000000    0.918263
  O     -0.768127    0.891716    0.154870
  O      0.768127   -0.891716    0.154870
  H      0.611878    2.448681    0.135651
  H     -0.705463    2.511536   -1.058607
  H      0.653146    1.386863   -1.291849
  H     -0.653146   -1.386863   -1.291849
  H     -0.611878   -2.448681    0.135651
  H      0.705463   -2.511536   -1.058607
  H      0.718837    0.541142    1.540958
  H     -0.718837   -0.541142    1.540958

 Total Charge           Charge          ....    0
 Multiplicity           Mult            ....    1
 Number of Electrons    NEL             ....   42
 Basis Dimension        Dim             ....  414

ORBITAL ENERGIES
----------------

  NO   OCC          E(Eh)            E(eV)
   0   2.0000     -20.562222      -559.5265
   1   2.0000     -20.562203      -559.5260
   2   2.0000     -11.325983      -308.1957
   3   2.0000     -11.270084      -306.6746
   4   2.0000     -11.270084      -306.6746
   5   2.0000      -1.412535       -38.4370
   6   2.0000      -1.344775       -36.5932
   7   2.0000      -0.980844       -26.6901
   8   2.0000      -0.932320       -25.3697
   9   2.0000      -0.840044       -22.8588
  10   2.0000      -0.691800       -18.8248
  11   2.0000      -0.688890       -18.7456
  12   2.0000      -0.673950       -18.3391
  13   2.0000      -0.610109       -16.6019
  14   2.0000      -0.602082       -16.3835
  15   2.0000      -0.574747       -15.6397
  16   2.0000      -0.530266       -14.4293
  17   2.0000      -0.521908       -14.2019
  18   2.0000      -0.464466       -12.6388
  19   2.0000      -0.442892       -12.0517
  20   2.0000      -0.441990       -12.0272
  21   0.0000       0.031037         0.8446
  22   0.0000       0.038320         1.0427
  23   0.0000       0.040906         1.1131
  24   0.0000       0.043952         1.1960
  25   0.0000       0.058052         1.5797

MULLIKEN ATOMIC CHARGES
-----------------------
   0 C :   -0.826260
   1 C :   -0.826260
   2 C :   -0.102225
   3 O :   -0.601605
   4 O :   -0.601605
   5 H :    0.322151
   6 H :    0.357210
   7 H :    0.360462
   8 H :    0.360462
   9 H :    0.322151
  10 H :    0.357210
  11 H :    0.439154
  12 H :    0.439154
Sum of atomic charges:   -0.0000000

LOEWDIN ATOMIC CHARGES
----------------------
   0 C :    0.323663
   1 C :    0.323663
   2 C :   -0.263670
   3 O :    0.535657
   4 O :    0.535657
   5 H :   -0.181971
   6 H :   -0.189279
   7 H :   -0.182477
   8 H :   -0.182477
   9 H :   -0.181971
  10 H :   -0.189279
  11 H :   -0.173759
  12 H :   -0.173759

  Mayer bond orders larger than 0.100000
B(  0-C ,  3-O ) :   0.9394 B(  0-C ,  5-H ) :   0.8971 B(  0-C ,  6-H ) :   0.9165
B(  0-C ,  7-H ) :   0.8599 B(  1-C ,  4-O ) :   0.9394 B(  1-C ,  8-H ) :   0.8599
B(  1-C ,  9-H ) :   0.8971 B(  1-C , 10-H ) :   0.9165 B(  2-C ,  3-O ) :   0.8054
B(  2-C ,  4-O ) :   0.8054 B(  2-C , 11-H ) :   0.8372 B(  2-C , 12-H ) :   0.8372

MP2 TOTAL ENERGY:     -269.082742249 Eh
FINAL SINGLE POINT ENERGY      -269.082742248906

DIPOLE MOMENT
-------------
                                X             Y             Z
Electronic contribution:     -0.00000       0.00000       1.32988
Nuclear contribution   :      0.00000      -0.00000      -1.39194
                        -----------------------------------------
Total Dipole Moment    :     -0.00000       0.00000      -0.06206
                        -----------------------------------------
Magnitude (a.u.)       :      0.06206
Magnitude (Debye)      :      0.15774

Rotational constants in cm-1:     0.352085     0.105347     0.099462
Rotational constants in MHz : 10555.250706  3158.232633  2981.786166

                             ****ORCA TERMINATED NORMALLY****
TOTAL RUN TIME: 0 days 0 hours 2 minutes 1 seconds 135 msec
