                         Program Version 5.0.3 -  RELEASE  -
|  1> !ri-mp2 aug-cc-pvtz aug-cc-pvtz/c tightscf
|  2> %pal nprocs 16 end
|  3>
|  4> * xyz 0 1
|  5> O     -0.023151    1.622923   -0.280281
|  6> N     -2.199831   -0.919309   -0.166719
|  7> N      2.157942   -0.992833   -0.172002
|  8> C     -0.002614    0.387114    0.400860
|  9> C     -1.233688   -0.342601    0.060384
| 10> C      1.190268   -0.419958    0.063748
| 11> H      0.756685    2.130316   -0.026335
| 12> H     -0.002056    0.523963    1.489685
| 13> *
| 14>
| 15>                          ****END OF INPUT****

CARTESIAN COORDINATES (ANGSTROEM)
---------------------------------
  O     -0.023151    1.622923   -0.280281
  N     -2.199831   -0.919309   -0.166719
  N      2.157942   -0.992833   -0.172002
  C     -0.002614    0.387114    0.400860
  C     -1.233688   -0.342601    0.060384
  C      1.190268   -0.419958    0.063748
  H      0.756685    2.130316   -0.026335
  H     -0.002056    0.523963    1.489685

 Total Charge           Charge          ....    0
 Multiplicity           Mult            ....    1
 Number of Electrons    NEL             ....   42
 Basis Dimension        Dim             ....  322

ORBITAL ENERGIES
----------------

  NO   OCC          E(Eh)            E(eV)
   0   2.0000     -20.639888      -561.6399
   1   2.0000     -15.617092      -424.9627
   2   2.0000     -15.611487      -424.8102
   3   2.0000     -11.421981      -310.8079
   4   2.0000     -11.313703      -307.8615
   5   2.0000     -11.309717      -307.7530
   6   2.0000      -1.450907       -39.4812
   7   2.0000      -1.265516       -34.4364
   8   2.0000      -1.255894       -34.1746
   9   2.0000      -1.085988       -29.5512
  10   2.0000      -0.837858       -22.7993
  11   2.0000      -0.770377       -20.9630
  12   2.0000      -0.753659       -20.5081
  13   2.0000      -0.633755       -17.2453
  14   2.0000      -0.603428       -16.4201
  15   2.0000      -0.589606       -16.0440
  16   2.0000      -0.559113       -15.2142
  17   2.0000      -0.519195       -14.1280
  18   2.0000      -0.512428       -13.9439
  19   2.0000      -0.499692       -13.5973
  20   2.0000      -0.498379       -13.5616
  21   0.0000       0.013413         0.3650
  22   0.0000       0.032881         0.8948
  23   0.0000       0.057007         1.5513
  24   0.0000       0.058210         1.5840
  25   0.0000       0.079206         2.1553

MULLIKEN ATOMIC CHARGES
-----------------------
   0 O :   -0.536217
   1 N :   -0.430935
   2 N :   -0.452093
   3 C :    0.830555
   4 C :    0.024908
   5 C :    0.048037
   6 H :    0.197967
   7 H :    0.317779
Sum of atomic charges:    0.0000000

LOEWDIN ATOMIC CHARGES
----------------------
   0 O :    0.830110
   1 N :    0.288814
   2 N :    0.282941
   3 C :   -0.363328
   4 C :   -0.211170
   5 C :   -0.203397
   6 H :   -0.462664
   7 H :   -0.161306

  Mayer bond orders larger than 0.100000
B(  0-O ,  3-C ) :   0.7850 B(  0-O ,  6-H ) :   0.9798 B(  1-N ,  4-C ) :   2.4391
B(  2-N ,  5-C ) :   2.3898 B(  3-C ,  4-C ) :   0.6839 B(  3-C ,  5-C ) :   0.7016
B(  3-C ,  7-H ) :   0.8781 B(  4-C ,  5-C ) :   0.4211

MP2 TOTAL ENERGY:     -299.679296526 Eh
FINAL SINGLE POINT ENERGY      -299.679296525771

DIPOLE MOMENT
-------------
                                X             Y             Z
Electronic contribution:     -0.20700      -1.25927      -0.40913
Nuclear contribution   :      0.72477       2.56513       1.40043
                        -----------------------------------------
Total Dipole Moment    :      0.51777       1.30586       0.99130
                        -----------------------------------------
Magnitude (a.u.)       :      1.71931
Magnitude (Debye)      :      4.37014

Rotational constants in cm-1:     0.200343     0.096218     0.068313
Rotational constants in MHz :  6006.125600  2884.550313  2047.962414

                             ****ORCA TERMINATED NORMALLY****
TOTAL RUN TIME: 0 days 0 hours 1 minutes 16 seconds 184 msec
