                         Program Version 5.0.3 -  RELEASE  -
|  1> !ri-mp2 aug-cc-pvtz aug-cc-pvtz/c tightscf
|  2> %pal nprocs 16 end
|  3>
|  4> * xyz 0 1
|  5> O      0.424779    2.021733    0.000000
|  6> S      0.358890    0.561255    0.000000
|  7> C     -0.613205    0.101793    1.471297
|  8> C     -0.613205   -1.376626    1.826915
|  9> C     -0.613205    0.101793   -1.471297
| 10> C     -0.613205   -1.376626   -1.826915
| 11> O      1.592893   -0.223650    0.000000
| 12> H     -1.610423    0.511825    1.314449
| 13> H     -0.127133    0.701508    2.241547
| 14> H      0.402605   -1.766402    1.849066
| 15> H     -1.195297   -1.970903    1.125329
| 16> H     -1.053100   -1.509402    2.815892
| 17> H     -0.127133    0.701508   -2.241547
| 18> H     -1.610423    0.511825   -1.314449
| 19> H      0.402605   -1.766402   -1.849066
| 20> H     -1.053100   -1.509402   -2.815892
| 21> H     -1.195297   -1.970903   -1.125329
| 22> *
| 23>
| 24>                          ****END OF INPUT****

CARTESIAN COORDINATES (ANGSTROEM)
---------------------------------
  O      0.424779    2.021733    0.000000
  S      0.358890    0.561255    0.000000
  C     -0.613205    0.101793    1.471297
  C     -0.613205   -1.376626    1.826915
  C     -0.613205    0.101793   -1.471297
  C     -0.613205   -1.376626   -1.826915
  O      1.592893   -0.223650    0.000000
  H     -1.610423    0.511825    1.314449
  H     -0.127133    0.701508    2.241547
  H      0.402605   -1.766402    1.849066
  H     -1.195297   -1.970903    1.125329
  H     -1.053100   -1.509402    2.815892
  H     -0.127133    0.701508   -2.241547
  H     -1.610423    0.511825   -1.314449
  H      0.402605   -1.766402   -1.849066
  H     -1.053100   -1.509402   -2.815892
  H     -1.195297   -1.970903   -1.125329

 Total Charge           Charge          ....    0
 Multiplicity           Mult            ....    1
 Number of Electrons    NEL             ....   66
 Basis Dimension        Dim             ....  556

ORBITAL ENERGIES
----------------

  NO   OCC          E(Eh)            E(eV)
   0   2.0000     -92.170627     -2508.0903
   1   2.0000     -20.537527      -558.8545
   2   2.0000     -20.535179      -558.7906
   3   2.0000     -11.280525      -306.9587
   4   2.0000     -11.280511      -306.9583
   5   2.0000     -11.244781      -305.9860
   6   2.0000     -11.244779      -305.9860
   7   2.0000      -9.140883      -248.7361
   8   2.0000      -6.825256      -185.7247
   9   2.0000      -6.824900      -185.7150
  10   2.0000      -6.824806      -185.7124
  11   2.0000      -1.433840       -39.0168
  12   2.0000      -1.323276       -36.0082
  13   2.0000      -1.093097       -29.7447
  14   2.0000      -1.065336       -28.9893
  15   2.0000      -0.940803       -25.6006
  16   2.0000      -0.892105       -24.2754
  17   2.0000      -0.791288       -21.5320
  18   2.0000      -0.684488       -18.6259
  19   2.0000      -0.680837       -18.5265
  20   2.0000      -0.652336       -17.7510
  21   2.0000      -0.628120       -17.0920
  22   2.0000      -0.619443       -16.8559
  23   2.0000      -0.589611       -16.0441
  24   2.0000      -0.578092       -15.7307
  25   2.0000      -0.556922       -15.1546
  26   2.0000      -0.546623       -14.8744
  27   2.0000      -0.536999       -14.6125
  28   2.0000      -0.517911       -14.0931
  29   2.0000      -0.484933       -13.1957
  30   2.0000      -0.480197       -13.0668
  31   2.0000      -0.460560       -12.5325
  32   2.0000      -0.421624       -11.4730
  33   0.0000       0.021633         0.5887
  34   0.0000       0.029822         0.8115
  35   0.0000       0.035563         0.9677
  36   0.0000       0.042155         1.1471
  37   0.0000       0.050101         1.3633

MULLIKEN ATOMIC CHARGES
-----------------------
   0 O :   -1.077894
   1 S :    2.321184
   2 C :   -0.645933
   3 C :   -0.930898
   4 C :   -0.645933
   5 C :   -0.930898
   6 O :   -1.078692
   7 H :    0.265258
   8 H :    0.292410
   9 H :    0.305742
  10 H :    0.384826
  11 H :    0.246295
  12 H :    0.292410
  13 H :    0.265258
  14 H :    0.305742
  15 H :    0.246295
  16 H :    0.384826
Sum of atomic charges:   -0.0000000

LOEWDIN ATOMIC CHARGES
----------------------
   0 O :    0.022846
   1 S :    0.297126
   2 C :    0.195932
   3 C :    0.556371
   4 C :    0.195932
   5 C :    0.556371
   6 O :    0.030211
   7 H :   -0.189590
   8 H :   -0.195051
   9 H :   -0.180424
  10 H :   -0.193938
  11 H :   -0.168393
  12 H :   -0.195051
  13 H :   -0.189590
  14 H :   -0.180424
  15 H :   -0.168393
  16 H :   -0.193938

  Mayer bond orders larger than 0.100000
B(  0-O ,  1-S ) :   1.0209 B(  1-S ,  2-C ) :   0.9427 B(  1-S ,  4-C ) :   0.9427
B(  1-S ,  6-O ) :   1.0623 B(  2-C ,  3-C ) :   0.8967 B(  2-C ,  6-O ) :   0.1440
B(  2-C ,  7-H ) :   0.9072 B(  2-C ,  8-H ) :   0.9352 B(  3-C ,  9-H ) :   0.9180
B(  3-C , 10-H ) :   0.8416 B(  3-C , 11-H ) :   1.0309 B(  4-C ,  5-C ) :   0.8967
B(  4-C ,  6-O ) :   0.1440 B(  4-C , 12-H ) :   0.9352 B(  4-C , 13-H ) :   0.9072
B(  5-C , 14-H ) :   0.9180 B(  5-C , 15-H ) :   1.0309 B(  5-C , 16-H ) :   0.8416

MP2 TOTAL ENERGY:     -706.043112447 Eh
FINAL SINGLE POINT ENERGY      -706.043112446589

DIPOLE MOMENT
-------------
                                X             Y             Z
Electronic contribution:      5.45428       7.02380       0.00000
Nuclear contribution   :     -7.24953      -8.17247       0.00000
                        -----------------------------------------
Total Dipole Moment    :     -1.79525      -1.14868       0.00000
                        -----------------------------------------
Magnitude (a.u.)       :      2.13129
Magnitude (Debye)      :      5.41730

Rotational constants in cm-1:     0.077420     0.073227     0.051088
Rotational constants in MHz :  2320.980327  2195.290983  1531.569073

                             ****ORCA TERMINATED NORMALLY****
TOTAL RUN TIME: 0 days 0 hours 5 minutes 40 seconds 303 msec
