                         Program Version 5.0.3 -  RELEASE  -
|  1> !ri-mp2 aug-cc-pvtz aug-cc-pvtz/c tightscf
|  2> %pal nprocs 16 end
|  3>
|  4> * xyz 0 1
|  5> C     -1.974833    0.997968    0.019134
|  6> N     -1.035538   -0.121579   -0.049562
|  7> C     -1.596834   -1.468210    0.005922
|  8> C      0.285310    0.130885   -0.019832
|  9> S      1.322882   -1.336523    0.009919
| 10> S      0.951587    1.656130    0.001950
| 11> H     -1.857982    1.544153    0.955692
| 12> H     -1.791240    1.695551   -0.795852
| 13> H     -2.985427    0.605274   -0.050728
| 14> H     -0.950304   -2.175190   -0.507850
| 15> H     -1.737185   -1.803323    1.037130
| 16> H     -2.560576   -1.471415   -0.497443
| 17> H      2.458114   -0.621579   -0.015256
| 18> *
| 19>
| 20>                          ****END OF INPUT****

CARTESIAN COORDINATES (ANGSTROEM)
---------------------------------
  C     -1.974833    0.997968    0.019134
  N     -1.035538   -0.121579   -0.049562
  C     -1.596834   -1.468210    0.005922
  C      0.285310    0.130885   -0.019832
  S      1.322882   -1.336523    0.009919
  S      0.951587    1.656130    0.001950
  H     -1.857982    1.544153    0.955692
  H     -1.791240    1.695551   -0.795852
  H     -2.985427    0.605274   -0.050728
  H     -0.950304   -2.175190   -0.507850
  H     -1.737185   -1.803323    1.037130
  H     -2.560576   -1.471415   -0.497443
  H      2.458114   -0.621579   -0.015256

 Total Charge           Charge          ....    0
 Multiplicity           Mult            ....    1
 Number of Electrons    NEL             ....   64
 Basis Dimension        Dim             ....  445

ORBITAL ENERGIES
----------------

  NO   OCC          E(Eh)            E(eV)
   0   2.0000     -91.986760     -2503.0870
   1   2.0000     -91.900500     -2500.7397
   2   2.0000     -15.627049      -425.2336
   3   2.0000     -11.375611      -309.5461
   4   2.0000     -11.286480      -307.1207
   5   2.0000     -11.270950      -306.6981
   6   2.0000      -8.988193      -244.5812
   7   2.0000      -8.903741      -242.2831
   8   2.0000      -6.669319      -181.4814
   9   2.0000      -6.668395      -181.4562
  10   2.0000      -6.667473      -181.4312
  11   2.0000      -6.585166      -179.1915
  12   2.0000      -6.583422      -179.1440
  13   2.0000      -6.582692      -179.1241
  14   2.0000      -1.305364       -35.5208
  15   2.0000      -1.072997       -29.1977
  16   2.0000      -1.009015       -27.4567
  17   2.0000      -0.950633       -25.8680
  18   2.0000      -0.916899       -24.9501
  19   2.0000      -0.750428       -20.4202
  20   2.0000      -0.670007       -18.2318
  21   2.0000      -0.668027       -18.1779
  22   2.0000      -0.634823       -17.2744
  23   2.0000      -0.584523       -15.9057
  24   2.0000      -0.572671       -15.5832
  25   2.0000      -0.559262       -15.2183
  26   2.0000      -0.544614       -14.8197
  27   2.0000      -0.495371       -13.4797
  28   2.0000      -0.479477       -13.0472
  29   2.0000      -0.388787       -10.5794
  30   2.0000      -0.327854        -8.9214
  31   2.0000      -0.323596        -8.8055
  32   0.0000       0.023044         0.6271
  33   0.0000       0.036210         0.9853
  34   0.0000       0.038403         1.0450
  35   0.0000       0.042975         1.1694
  36   0.0000       0.053294         1.4502

MULLIKEN ATOMIC CHARGES
-----------------------
   0 C :   -0.939754
   1 N :    0.227526
   2 C :   -0.923300
   3 C :    0.098498
   4 S :   -0.136951
   5 S :   -0.532893
   6 H :    0.344929
   7 H :    0.378938
   8 H :    0.359033
   9 H :    0.340300
  10 H :    0.345154
  11 H :    0.369354
  12 H :    0.069167
Sum of atomic charges:    0.0000000

LOEWDIN ATOMIC CHARGES
----------------------
   0 C :    0.430274
   1 N :    0.068296
   2 C :    0.441761
   3 C :   -1.327820
   4 S :    1.283789
   5 S :    0.817167
   6 H :   -0.174979
   7 H :   -0.190817
   8 H :   -0.178762
   9 H :   -0.248532
  10 H :   -0.148499
  11 H :   -0.170190
  12 H :   -0.601686

  Mayer bond orders larger than 0.100000
B(  0-C ,  1-N ) :   0.8275 B(  0-C ,  6-H ) :   0.9151 B(  0-C ,  7-H ) :   0.8902
B(  0-C ,  8-H ) :   0.8779 B(  1-N ,  2-C ) :   0.8183 B(  1-N ,  3-C ) :   1.3891
B(  2-C ,  9-H ) :   0.8987 B(  2-C , 10-H ) :   0.8968 B(  2-C , 11-H ) :   0.9025
B(  3-C ,  4-S ) :   0.9308 B(  3-C ,  5-S ) :   1.5515 B(  4-S , 12-H ) :   1.0898

MP2 TOTAL ENERGY:     -968.363139340 Eh
FINAL SINGLE POINT ENERGY      -968.363139339720

DIPOLE MOMENT
-------------
                                X             Y             Z
Electronic contribution:      8.13915       1.06845      -0.12302
Nuclear contribution   :     -9.42097      -2.21829       0.12398
                        -----------------------------------------
Total Dipole Moment    :     -1.28181      -1.14984       0.00097
                        -----------------------------------------
Magnitude (a.u.)       :      1.72197
Magnitude (Debye)      :      4.37689

Rotational constants in cm-1:     0.083076     0.078988     0.041123
Rotational constants in MHz :  2490.552895  2367.989346  1232.826987

                             ****ORCA TERMINATED NORMALLY****
TOTAL RUN TIME: 0 days 0 hours 3 minutes 31 seconds 942 msec
