                         Program Version 5.0.3 -  RELEASE  -
|  1> !ri-mp2 aug-cc-pvtz aug-cc-pvtz/c tightscf
|  2> %pal nprocs 16 end
|  3>
|  4> * xyz 0 1
|  5> N     -0.135879   -0.159469    0.000000
|  6> O      1.161592   -0.759998    0.000000
|  7> H      1.809832   -0.031424    0.000000
|  8> C     -0.288759   -0.230429    2.472841
|  9> C     -0.288759   -0.230429   -2.472841
| 10> C     -0.288759    0.629302    1.218177
| 11> C     -0.288759    0.629302   -1.218177
| 12> H      0.647697   -0.775732    2.573295
| 13> H      0.647697   -0.775732   -2.573295
| 14> H      0.502431    1.398690   -1.280754
| 15> H      0.502431    1.398690    1.280754
| 16> H     -1.239354    1.157946   -1.127847
| 17> H     -1.239354    1.157946    1.127847
| 18> H     -1.101796   -0.955280    2.437155
| 19> H     -1.101796   -0.955280   -2.437155
| 20> H     -0.419577    0.394984    3.356866
| 21> H     -0.419577    0.394984   -3.356866
| 22> *
| 23>
| 24>                          ****END OF INPUT****

CARTESIAN COORDINATES (ANGSTROEM)
---------------------------------
  N     -0.135879   -0.159469    0.000000
  O      1.161592   -0.759998    0.000000
  H      1.809832   -0.031424    0.000000
  C     -0.288759   -0.230429    2.472841
  C     -0.288759   -0.230429   -2.472841
  C     -0.288759    0.629302    1.218177
  C     -0.288759    0.629302   -1.218177
  H      0.647697   -0.775732    2.573295
  H      0.647697   -0.775732   -2.573295
  H      0.502431    1.398690   -1.280754
  H      0.502431    1.398690    1.280754
  H     -1.239354    1.157946   -1.127847
  H     -1.239354    1.157946    1.127847
  H     -1.101796   -0.955280    2.437155
  H     -1.101796   -0.955280   -2.437155
  H     -0.419577    0.394984    3.356866
  H     -0.419577    0.394984   -3.356866

 Total Charge           Charge          ....    0
 Multiplicity           Mult            ....    1
 Number of Electrons    NEL             ....   50
 Basis Dimension        Dim             ....  529

ORBITAL ENERGIES
----------------

  NO   OCC          E(Eh)            E(eV)
   0   2.0000     -20.583297      -560.1000
   1   2.0000     -15.605332      -424.6427
   2   2.0000     -11.255723      -306.2838
   3   2.0000     -11.255704      -306.2833
   4   2.0000     -11.210309      -305.0480
   5   2.0000     -11.210308      -305.0480
   6   2.0000      -1.401852       -38.1463
   7   2.0000      -1.150091       -31.2956
   8   2.0000      -1.036897       -28.2154
   9   2.0000      -0.960704       -26.1421
  10   2.0000      -0.841236       -22.8912
  11   2.0000      -0.819328       -22.2951
  12   2.0000      -0.672228       -18.2922
  13   2.0000      -0.663983       -18.0679
  14   2.0000      -0.663088       -18.0435
  15   2.0000      -0.607952       -16.5432
  16   2.0000      -0.565481       -15.3875
  17   2.0000      -0.560524       -15.2526
  18   2.0000      -0.528918       -14.3926
  19   2.0000      -0.521034       -14.1781
  20   2.0000      -0.502264       -13.6673
  21   2.0000      -0.488269       -13.2865
  22   2.0000      -0.487556       -13.2671
  23   2.0000      -0.463454       -12.6112
  24   2.0000      -0.382836       -10.4175
  25   0.0000       0.028542         0.7767
  26   0.0000       0.035189         0.9575
  27   0.0000       0.037110         1.0098
  28   0.0000       0.041616         1.1324
  29   0.0000       0.052697         1.4340

MULLIKEN ATOMIC CHARGES
-----------------------
   0 N :   -0.136695
   1 O :   -0.525876
   2 H :    0.200229
   3 C :   -0.987158
   4 C :   -0.987158
   5 C :   -0.264633
   6 C :   -0.264633
   7 H :    0.296498
   8 H :    0.296498
   9 H :    0.256101
  10 H :    0.256101
  11 H :    0.351955
  12 H :    0.351955
  13 H :    0.267187
  14 H :    0.267187
  15 H :    0.311221
  16 H :    0.311221
Sum of atomic charges:    0.0000000

LOEWDIN ATOMIC CHARGES
----------------------
   0 N :    0.056920
   1 O :    0.712563
   2 H :   -0.494133
   3 C :    0.582450
   4 C :    0.582450
   5 C :    0.108631
   6 C :    0.108631
   7 H :   -0.182337
   8 H :   -0.182337
   9 H :   -0.142366
  10 H :   -0.142366
  11 H :   -0.158625
  12 H :   -0.158625
  13 H :   -0.169853
  14 H :   -0.169853
  15 H :   -0.175574
  16 H :   -0.175574

  Mayer bond orders larger than 0.100000
B(  0-N ,  1-O ) :   0.6714 B(  0-N ,  5-C ) :   0.8847 B(  0-N ,  6-C ) :   0.8847
B(  1-O ,  2-H ) :   0.9782 B(  3-C ,  5-C ) :   0.8572 B(  3-C ,  7-H ) :   0.9423
B(  3-C , 13-H ) :   0.9726 B(  3-C , 15-H ) :   0.9487 B(  4-C ,  6-C ) :   0.8572
B(  4-C ,  8-H ) :   0.9423 B(  4-C , 14-H ) :   0.9726 B(  4-C , 16-H ) :   0.9487
B(  5-C , 10-H ) :   0.9418 B(  5-C , 12-H ) :   0.8618 B(  6-C ,  9-H ) :   0.9418
B(  6-C , 11-H ) :   0.8618

MP2 TOTAL ENERGY:     -288.413045582 Eh
FINAL SINGLE POINT ENERGY      -288.413045581989

DIPOLE MOMENT
-------------
                                X             Y             Z
Electronic contribution:      1.49416      -1.54404      -0.00000
Nuclear contribution   :     -1.46837       2.52502       0.00000
                        -----------------------------------------
Total Dipole Moment    :      0.02579       0.98098      -0.00000
                        -----------------------------------------
Magnitude (a.u.)       :      0.98132
Magnitude (Debye)      :      2.49431

Rotational constants in cm-1:     0.252650     0.066831     0.058658
Rotational constants in MHz :  7574.252325  2003.535125  1758.535084

                             ****ORCA TERMINATED NORMALLY****
TOTAL RUN TIME: 0 days 0 hours 4 minutes 48 seconds 686 msec
