                         Program Version 5.0.3 -  RELEASE  -
|  1> !ri-mp2 aug-cc-pvtz aug-cc-pvtz/c tightscf
|  2> %pal nprocs 16 end
|  3>
|  4> * xyz 0 1
|  5> C     0.000000     2.726159    0.135205
|  6> C     0.000000    -2.726159    0.135205
|  7> C     0.000000     1.403492   -0.620064
|  8> C     0.000000    -1.403492   -0.620064
|  9> S     0.000000     0.000000    0.556153
| 10> H    -0.882330     2.818735    0.768807
| 11> H     0.882330     2.818735    0.768807
| 12> H     0.000000     3.560604   -0.567621
| 13> H     0.882330    -2.818735    0.768807
| 14> H    -0.882330    -2.818735    0.768807
| 15> H     0.000000    -3.560604   -0.567621
| 16> H     0.883227     1.323432   -1.255033
| 17> H    -0.883227     1.323432   -1.255033
| 18> H    -0.883227    -1.323432   -1.255033
| 19> H     0.883227    -1.323432   -1.255033
| 20> *
| 21>
| 22>                          ****END OF INPUT****

CARTESIAN COORDINATES (ANGSTROEM)
---------------------------------
  C      0.000000    2.726159    0.135205
  C      0.000000   -2.726159    0.135205
  C      0.000000    1.403492   -0.620064
  C      0.000000   -1.403492   -0.620064
  S      0.000000    0.000000    0.556153
  H     -0.882330    2.818735    0.768807
  H      0.882330    2.818735    0.768807
  H      0.000000    3.560604   -0.567621
  H      0.882330   -2.818735    0.768807
  H     -0.882330   -2.818735    0.768807
  H      0.000000   -3.560604   -0.567621
  H      0.883227    1.323432   -1.255033
  H     -0.883227    1.323432   -1.255033
  H     -0.883227   -1.323432   -1.255033
  H      0.883227   -1.323432   -1.255033

 Total Charge           Charge          ....    0
 Multiplicity           Mult            ....    1
 Number of Electrons    NEL             ....   50
 Basis Dimension        Dim             ....  464

ORBITAL ENERGIES
----------------

  NO   OCC          E(Eh)            E(eV)
   0   2.0000     -91.936450     -2501.7180
   1   2.0000     -11.254124      -306.2403
   2   2.0000     -11.254114      -306.2400
   3   2.0000     -11.221621      -305.3558
   4   2.0000     -11.221620      -305.3558
   5   2.0000      -8.936828      -243.1835
   6   2.0000      -6.618042      -180.0861
   7   2.0000      -6.617190      -180.0629
   8   2.0000      -6.616215      -180.0364
   9   2.0000      -1.081252       -29.4224
  10   2.0000      -1.031956       -28.0809
  11   2.0000      -0.927287       -25.2328
  12   2.0000      -0.836778       -22.7699
  13   2.0000      -0.783603       -21.3229
  14   2.0000      -0.634648       -17.2697
  15   2.0000      -0.613400       -16.6915
  16   2.0000      -0.608591       -16.5606
  17   2.0000      -0.563762       -15.3407
  18   2.0000      -0.543736       -14.7958
  19   2.0000      -0.516482       -14.0542
  20   2.0000      -0.515880       -14.0378
  21   2.0000      -0.497954       -13.5500
  22   2.0000      -0.454457       -12.3664
  23   2.0000      -0.420367       -11.4388
  24   2.0000      -0.331791        -9.0285
  25   0.0000       0.030409         0.8275
  26   0.0000       0.033105         0.9008
  27   0.0000       0.040465         1.1011
  28   0.0000       0.040786         1.1098
  29   0.0000       0.053221         1.4482

MULLIKEN ATOMIC CHARGES
-----------------------
   0 C :   -0.940586
   1 C :   -0.940586
   2 C :   -0.358409
   3 C :   -0.358409
   4 S :   -0.180373
   5 H :    0.295166
   6 H :    0.295166
   7 H :    0.290391
   8 H :    0.295166
   9 H :    0.295166
  10 H :    0.290391
  11 H :    0.254229
  12 H :    0.254229
  13 H :    0.254229
  14 H :    0.254229
Sum of atomic charges:   -0.0000000

LOEWDIN ATOMIC CHARGES
----------------------
   0 C :    0.489064
   1 C :    0.489064
   2 C :   -0.091480
   3 C :   -0.091480
   4 S :    1.201259
   5 H :   -0.187419
   6 H :   -0.187419
   7 H :   -0.179147
   8 H :   -0.187419
   9 H :   -0.187419
  10 H :   -0.179147
  11 H :   -0.222114
  12 H :   -0.222114
  13 H :   -0.222114
  14 H :   -0.222114

  Mayer bond orders larger than 0.100000
B(  0-C ,  2-C ) :   0.9107 B(  0-C ,  5-H ) :   0.9404 B(  0-C ,  6-H ) :   0.9404
B(  0-C ,  7-H ) :   0.9566 B(  1-C ,  3-C ) :   0.9107 B(  1-C ,  8-H ) :   0.9404
B(  1-C ,  9-H ) :   0.9404 B(  1-C , 10-H ) :   0.9566 B(  2-C ,  4-S ) :   0.9556
B(  2-C , 11-H ) :   0.9248 B(  2-C , 12-H ) :   0.9248 B(  3-C ,  4-S ) :   0.9556
B(  3-C , 13-H ) :   0.9248 B(  3-C , 14-H ) :   0.9248

MP2 TOTAL ENERGY:     -555.804324673 Eh
FINAL SINGLE POINT ENERGY      -555.804324673029

DIPOLE MOMENT
-------------
                                X             Y             Z
Electronic contribution:      0.00000      -0.00000       2.51710
Nuclear contribution   :      0.00000      -0.00000      -3.22505
                        -----------------------------------------
Total Dipole Moment    :      0.00000      -0.00000      -0.70795
                        -----------------------------------------
Magnitude (a.u.)       :      0.70795
Magnitude (Debye)      :      1.79947

Rotational constants in cm-1:     0.479534     0.056800     0.052783
Rotational constants in MHz : 14376.080150  1702.826552  1582.405191

                             ****ORCA TERMINATED NORMALLY****
TOTAL RUN TIME: 0 days 0 hours 2 minutes 42 seconds 108 msec
