                         Program Version 5.0.3 -  RELEASE  -
|  1> !ri-mp2 aug-cc-pvtz aug-cc-pvtz/c tightscf
|  2> %pal nprocs 16 end
|  3>
|  4> * xyz 0 1
|  5> C     0.000000     0.000000    0.828233
|  6> C     0.000000     1.221205    0.021726
|  7> C     0.000000    -1.221205    0.021726
|  8> H     0.879349     0.000000    1.476388
|  9> H    -0.879349     0.000000    1.476388
| 10> N     0.000000     2.195867   -0.584492
| 11> N     0.000000    -2.195867   -0.584492
| 12> *
| 13>
| 14>                          ****END OF INPUT****

CARTESIAN COORDINATES (ANGSTROEM)
---------------------------------
  C      0.000000    0.000000    0.828233
  C      0.000000    1.221205    0.021726
  C      0.000000   -1.221205    0.021726
  H      0.879349    0.000000    1.476388
  H     -0.879349    0.000000    1.476388
  N      0.000000    2.195867   -0.584492
  N      0.000000   -2.195867   -0.584492

 Total Charge           Charge          ....    0
 Multiplicity           Mult            ....    1
 Number of Electrons    NEL             ....   34
 Basis Dimension        Dim             ....  276

ORBITAL ENERGIES
----------------

  NO   OCC          E(Eh)            E(eV)
   0   2.0000     -15.605420      -424.6451
   1   2.0000     -15.605419      -424.6450
   2   2.0000     -11.359809      -309.1161
   3   2.0000     -11.309837      -307.7563
   4   2.0000     -11.309826      -307.7560
   5   2.0000      -1.264632       -34.4124
   6   2.0000      -1.250946       -34.0400
   7   2.0000      -1.114974       -30.3400
   8   2.0000      -0.794681       -21.6244
   9   2.0000      -0.733669       -19.9641
  10   2.0000      -0.698871       -19.0173
  11   2.0000      -0.593261       -16.1435
  12   2.0000      -0.587989       -16.0000
  13   2.0000      -0.512111       -13.9353
  14   2.0000      -0.508179       -13.8283
  15   2.0000      -0.496960       -13.5230
  16   2.0000      -0.486207       -13.2304
  17   0.0000       0.016091         0.4379
  18   0.0000       0.033672         0.9163
  19   0.0000       0.055952         1.5225
  20   0.0000       0.058336         1.5874
  21   0.0000       0.090452         2.4613

MULLIKEN ATOMIC CHARGES
-----------------------
   0 C :    0.140424
   1 C :    0.021263
   2 C :    0.021263
   3 H :    0.323940
   4 H :    0.323940
   5 N :   -0.415414
   6 N :   -0.415414
Sum of atomic charges:   -0.0000000

LOEWDIN ATOMIC CHARGES
----------------------
   0 C :    0.195920
   1 C :   -0.208703
   2 C :   -0.208703
   3 H :   -0.164216
   4 H :   -0.164216
   5 N :    0.274959
   6 N :    0.274959

  Mayer bond orders larger than 0.100000
B(  0-C ,  1-C ) :   0.7725 B(  0-C ,  2-C ) :   0.7725 B(  0-C ,  3-H ) :   0.8719
B(  0-C ,  4-H ) :   0.8719 B(  1-C ,  2-C ) :   0.3320 B(  1-C ,  5-N ) :   2.4240
B(  2-C ,  6-N ) :   2.4240

MP2 TOTAL ENERGY:     -224.567419762 Eh
FINAL SINGLE POINT ENERGY      -224.567419762433

DIPOLE MOMENT
-------------
                                X             Y             Z
Electronic contribution:     -0.00000       0.00000      -1.24816
Nuclear contribution   :      0.00000       0.00000       2.84743
                        -----------------------------------------
Total Dipole Moment    :     -0.00000       0.00000       1.59927
                        -----------------------------------------
Magnitude (a.u.)       :      1.59927
Magnitude (Debye)      :      4.06502

Rotational constants in cm-1:     0.712965     0.097747     0.087350
Rotational constants in MHz : 21374.153835  2930.369942  2618.691077

                             ****ORCA TERMINATED NORMALLY****
TOTAL RUN TIME: 0 days 0 hours 0 minutes 50 seconds 724 msec
