                         Program Version 5.0.3 -  RELEASE  -
|  1> !ri-mp2 aug-cc-pvtz aug-cc-pvtz/c tightscf
|  2> %pal nprocs 16 end
|  3> %maxcore 3800
|  4>
|  5> * xyz 0 1
|  6> C      0.188348    1.924575   -0.056731
|  7> C     -0.188348   -1.924575   -0.056731
|  8> C     -1.353289    5.221305    0.159863
|  9> C      1.353289   -5.221305    0.159863
| 10> C     -0.494217    0.577874   -0.004149
| 11> C      0.494217   -0.577874   -0.004149
| 12> C     -0.188348    4.271183    0.002037
| 13> C      0.188348   -4.271183    0.002037
| 14> O      1.374196    2.105516   -0.191402
| 15> O     -1.374196   -2.105516   -0.191402
| 16> O     -0.708999    2.921630    0.057961
| 17> O      0.708999   -2.921630    0.057961
| 18> H     -0.993955    6.250306    0.122700
| 19> H     -2.082017    5.084576   -0.638821
| 20> H     -1.856365    5.069159    1.114540
| 21> H      0.993955   -6.250306    0.122700
| 22> H      2.082017   -5.084576   -0.638821
| 23> H      1.856365   -5.069159    1.114540
| 24> H     -1.172064    0.507988   -0.856621
| 25> H     -1.139461    0.549023    0.874561
| 26> H      1.139461   -0.549023    0.874561
| 27> H      1.172064   -0.507988   -0.856621
| 28> H      0.548903    4.392492    0.795533
| 29> H      0.323949    4.406624   -0.950483
| 30> H     -0.548903   -4.392492    0.795533
| 31> H     -0.323949   -4.406624   -0.950483
| 32> *
| 33>
| 34>                          ****END OF INPUT****

CARTESIAN COORDINATES (ANGSTROEM)
---------------------------------
  C      0.188348    1.924575   -0.056731
  C     -0.188348   -1.924575   -0.056731
  C     -1.353289    5.221305    0.159863
  C      1.353289   -5.221305    0.159863
  C     -0.494217    0.577874   -0.004149
  C      0.494217   -0.577874   -0.004149
  C     -0.188348    4.271183    0.002037
  C      0.188348   -4.271183    0.002037
  O      1.374196    2.105516   -0.191402
  O     -1.374196   -2.105516   -0.191402
  O     -0.708999    2.921630    0.057961
  O      0.708999   -2.921630    0.057961
  H     -0.993955    6.250306    0.122700
  H     -2.082017    5.084576   -0.638821
  H     -1.856365    5.069159    1.114540
  H      0.993955   -6.250306    0.122700
  H      2.082017   -5.084576   -0.638821
  H      1.856365   -5.069159    1.114540
  H     -1.172064    0.507988   -0.856621
  H     -1.139461    0.549023    0.874561
  H      1.139461   -0.549023    0.874561
  H      1.172064   -0.507988   -0.856621
  H      0.548903    4.392492    0.795533
  H      0.323949    4.406624   -0.950483
  H     -0.548903   -4.392492    0.795533
  H     -0.323949   -4.406624   -0.950483

 Total Charge           Charge          ....    0
 Multiplicity           Mult            ....    1
 Number of Electrons    NEL             ....   94
 Basis Dimension        Dim             ....  874

ORBITAL ENERGIES
----------------

  NO   OCC          E(Eh)            E(eV)
   0   2.0000     -20.601233      -560.5881
   1   2.0000     -20.601233      -560.5881
   2   2.0000     -20.546063      -559.0868
   3   2.0000     -20.546063      -559.0868
   4   2.0000     -11.380426      -309.6771
   5   2.0000     -11.380424      -309.6771
   6   2.0000     -11.290469      -307.2293
   7   2.0000     -11.290469      -307.2293
   8   2.0000     -11.248025      -306.0743
   9   2.0000     -11.247392      -306.0571
  10   2.0000     -11.225913      -305.4726
  11   2.0000     -11.225913      -305.4726
  12   2.0000      -1.459713       -39.7208
  13   2.0000      -1.458928       -39.6995
  14   2.0000      -1.360267       -37.0148
  15   2.0000      -1.359889       -37.0045
  16   2.0000      -1.091690       -29.7064
  17   2.0000      -1.050010       -28.5722
  18   2.0000      -1.033960       -28.1355
  19   2.0000      -0.949211       -25.8294
  20   2.0000      -0.874048       -23.7840
  21   2.0000      -0.846957       -23.0469
  22   2.0000      -0.784611       -21.3503
  23   2.0000      -0.767697       -20.8901
  24   2.0000      -0.719361       -19.5748
  25   2.0000      -0.693645       -18.8750
  26   2.0000      -0.684543       -18.6274
  27   2.0000      -0.683612       -18.6020
  28   2.0000      -0.666819       -18.1451
  29   2.0000      -0.656149       -17.8547
  30   2.0000      -0.642496       -17.4832
  31   2.0000      -0.594726       -16.1833
  32   2.0000      -0.577019       -15.7015
  33   2.0000      -0.567312       -15.4374
  34   2.0000      -0.563786       -15.3414
  35   2.0000      -0.553038       -15.0489
  36   2.0000      -0.551326       -15.0023
  37   2.0000      -0.527166       -14.3449
  38   2.0000      -0.524316       -14.2674
  39   2.0000      -0.513837       -13.9822
  40   2.0000      -0.511384       -13.9155
  41   2.0000      -0.506071       -13.7709
  42   2.0000      -0.497407       -13.5351
  43   2.0000      -0.461000       -12.5444
  44   2.0000      -0.460541       -12.5319
  45   2.0000      -0.450646       -12.2627
  46   2.0000      -0.448145       -12.1947
  47   0.0000       0.028381         0.7723
  48   0.0000       0.029497         0.8027
  49   0.0000       0.036995         1.0067
  50   0.0000       0.038989         1.0609
  51   0.0000       0.039794         1.0828

MULLIKEN ATOMIC CHARGES
-----------------------
   0 C :    0.289715
   1 C :    0.289715
   2 C :   -0.959990
   3 C :   -0.959990
   4 C :    0.075076
   5 C :    0.075076
   6 C :   -0.177336
   7 C :   -0.177336
   8 O :   -0.842445
   9 O :   -0.842445
  10 O :   -0.299622
  11 O :   -0.299622
  12 H :    0.322681
  13 H :    0.258525
  14 H :    0.255816
  15 H :    0.322681
  16 H :    0.258525
  17 H :    0.255816
  18 H :    0.221596
  19 H :    0.213639
  20 H :    0.213639
  21 H :    0.221596
  22 H :    0.321658
  23 H :    0.320687
  24 H :    0.321658
  25 H :    0.320687
Sum of atomic charges:    0.0000000

LOEWDIN ATOMIC CHARGES
----------------------
   0 C :   -0.802661
   1 C :   -0.802661
   2 C :    0.582102
   3 C :    0.582102
   4 C :    0.263127
   5 C :    0.263127
   6 C :    0.037820
   7 C :    0.037820
   8 O :    0.470623
   9 O :    0.470623
  10 O :    0.585118
  11 O :    0.585118
  12 H :   -0.173508
  13 H :   -0.172626
  14 H :   -0.172730
  15 H :   -0.173508
  16 H :   -0.172626
  17 H :   -0.172730
  18 H :   -0.150104
  19 H :   -0.147839
  20 H :   -0.147839
  21 H :   -0.150104
  22 H :   -0.160236
  23 H :   -0.159086
  24 H :   -0.160236
  25 H :   -0.159086

  Mayer bond orders larger than 0.100000
B(  0-C ,  4-C ) :   0.6081 B(  0-C ,  8-O ) :   1.3920 B(  0-C , 10-O ) :   1.1549
B(  1-C ,  5-C ) :   0.6081 B(  1-C ,  9-O ) :   1.3920 B(  1-C , 11-O ) :   1.1549
B(  2-C ,  6-C ) :   0.8865 B(  2-C , 12-H ) :   0.9275 B(  2-C , 13-H ) :   0.9747
B(  2-C , 14-H ) :   0.9786 B(  3-C ,  7-C ) :   0.8865 B(  3-C , 15-H ) :   0.9275
B(  3-C , 16-H ) :   0.9747 B(  3-C , 17-H ) :   0.9786 B(  4-C ,  5-C ) :   1.0867
B(  4-C , 10-O ) :  -0.1213 B(  4-C , 18-H ) :   0.9309 B(  4-C , 19-H ) :   0.9522
B(  5-C , 11-O ) :  -0.1213 B(  5-C , 20-H ) :   0.9522 B(  5-C , 21-H ) :   0.9309
B(  6-C , 10-O ) :   0.7365 B(  6-C , 22-H ) :   0.9019 B(  6-C , 23-H ) :   0.9000
B(  7-C , 11-O ) :   0.7365 B(  7-C , 24-H ) :   0.9019 B(  7-C , 25-H ) :   0.9000

MP2 TOTAL ENERGY:     -613.133208028 Eh
FINAL SINGLE POINT ENERGY      -613.133208027535

DIPOLE MOMENT
-------------
                                X             Y             Z
Electronic contribution:     -0.00000      -0.00000      -0.76260
Nuclear contribution   :      0.00000       0.00000       0.93097
                        -----------------------------------------
Total Dipole Moment    :     -0.00000      -0.00000       0.16837
                        -----------------------------------------
Magnitude (a.u.)       :      0.16837
Magnitude (Debye)      :      0.42796

Rotational constants in cm-1:     0.121783     0.008857     0.008350
Rotational constants in MHz :  3650.959655   265.516775   250.321773

                             ****ORCA TERMINATED NORMALLY****
TOTAL RUN TIME: 0 days 0 hours 18 minutes 10 seconds 990 msec
