                         Program Version 5.0.3 -  RELEASE  -
|  1> !ri-mp2 aug-cc-pvtz aug-cc-pvtz/c tightscf
|  2> %pal nprocs 16 end
|  3>
|  4> * xyz 0 1
|  5> S     -0.802200    0.738403    0.006465
|  6> S     -2.555014   -0.375391   -0.096171
|  7> O      2.866754   -0.880415   -0.028233
|  8> O      2.068290    1.188928    0.002883
|  9> C      0.458292   -0.598704    0.045623
| 10> C      1.844967    0.013992    0.003269
| 11> H      0.311493   -1.260107   -0.808448
| 12> H      0.346394   -1.185656    0.958254
| 13> H      2.539718   -1.788027   -0.031196
| 14> H     -2.782096   -0.534219    1.226126
| 15> *
| 16>
| 17>                          ****END OF INPUT****

CARTESIAN COORDINATES (ANGSTROEM)
---------------------------------
  S     -0.802200    0.738403    0.006465
  S     -2.555014   -0.375391   -0.096171
  O      2.866754   -0.880415   -0.028233
  O      2.068290    1.188928    0.002883
  C      0.458292   -0.598704    0.045623
  C      1.844967    0.013992    0.003269
  H      0.311493   -1.260107   -0.808448
  H      0.346394   -1.185656    0.958254
  H      2.539718   -1.788027   -0.031196
  H     -2.782096   -0.534219    1.226126

 Total Charge           Charge          ....    0
 Multiplicity           Mult            ....    1
 Number of Electrons    NEL             ....   64
 Basis Dimension        Dim             ....  376

ORBITAL ENERGIES
----------------

  NO   OCC          E(Eh)            E(eV)
   0   2.0000     -92.001143     -2503.4784
   1   2.0000     -91.997424     -2503.3772
   2   2.0000     -20.630496      -561.3843
   3   2.0000     -20.564320      -559.5836
   4   2.0000     -11.407398      -310.4111
   5   2.0000     -11.304805      -307.6194
   6   2.0000      -8.998494      -244.8615
   7   2.0000      -8.996393      -244.8043
   8   2.0000      -6.679239      -181.7513
   9   2.0000      -6.678124      -181.7210
  10   2.0000      -6.677367      -181.7004
  11   2.0000      -6.676942      -181.6888
  12   2.0000      -6.676406      -181.6743
  13   2.0000      -6.675355      -181.6457
  14   2.0000      -1.478019       -40.2189
  15   2.0000      -1.384715       -37.6800
  16   2.0000      -1.102195       -29.9923
  17   2.0000      -1.010525       -27.4978
  18   2.0000      -0.874598       -23.7990
  19   2.0000      -0.832246       -22.6466
  20   2.0000      -0.738481       -20.0951
  21   2.0000      -0.680522       -18.5180
  22   2.0000      -0.675142       -18.3716
  23   2.0000      -0.621070       -16.9002
  24   2.0000      -0.602886       -16.4053
  25   2.0000      -0.572340       -15.5742
  26   2.0000      -0.527618       -14.3572
  27   2.0000      -0.498100       -13.5540
  28   2.0000      -0.475845       -12.9484
  29   2.0000      -0.468693       -12.7538
  30   2.0000      -0.389305       -10.5935
  31   2.0000      -0.378224       -10.2920
  32   0.0000       0.017388         0.4731
  33   0.0000       0.030993         0.8434
  34   0.0000       0.039387         1.0718
  35   0.0000       0.054707         1.4887
  36   0.0000       0.059855         1.6287

MULLIKEN ATOMIC CHARGES
-----------------------
   0 S :   -0.031493
   1 S :   -0.310323
   2 O :   -0.392876
   3 O :   -0.612371
   4 C :   -0.144164
   5 C :    0.470112
   6 H :    0.337974
   7 H :    0.316345
   8 H :    0.219201
   9 H :    0.147596
Sum of atomic charges:    0.0000000

LOEWDIN ATOMIC CHARGES
----------------------
   0 S :    0.674377
   1 S :    0.759900
   2 O :    0.827121
   3 O :    0.424126
   4 C :   -0.163569
   5 C :   -0.882845
   6 H :   -0.246264
   7 H :   -0.237422
   8 H :   -0.484987
   9 H :   -0.670438

  Mayer bond orders larger than 0.100000
B(  0-S ,  1-S ) :   1.0470 B(  0-S ,  4-C ) :   0.9772 B(  1-S ,  9-H ) :   1.0261
B(  2-O ,  5-C ) :   0.9667 B(  2-O ,  8-H ) :   0.9586 B(  3-O ,  5-C ) :   1.5929
B(  4-C ,  5-C ) :   0.7658 B(  4-C ,  6-H ) :   0.8897 B(  4-C ,  7-H ) :   0.8881

MP2 TOTAL ENERGY:    -1024.152065856 Eh
FINAL SINGLE POINT ENERGY     -1024.152065855581

DIPOLE MOMENT
-------------
                                X             Y             Z
Electronic contribution:     -1.13471       2.75895      -0.94058
Nuclear contribution   :      0.57779      -4.62150       1.30398
                        -----------------------------------------
Total Dipole Moment    :     -0.55692      -1.86255       0.36340
                        -----------------------------------------
Magnitude (a.u.)       :      1.97771
Magnitude (Debye)      :      5.02693

Rotational constants in cm-1:     0.237325     0.034318     0.030348
Rotational constants in MHz :  7114.824296  1028.817863   909.814518

                             ****ORCA TERMINATED NORMALLY****
TOTAL RUN TIME: 0 days 0 hours 1 minutes 59 seconds 475 msec
