                         Program Version 5.0.3 -  RELEASE  -
|  1> !ri-mp2 aug-cc-pvtz aug-cc-pvtz/c tightscf
|  2> %pal nprocs 16 end
|  3>
|  4> * xyz 0 1
|  5> C     0.000000     1.391186   -0.512622
|  6> C     0.000000    -1.391186   -0.512622
|  7> S     0.000000     0.000000    0.659277
|  8> H     0.891412     1.376095   -1.138641
|  9> H     0.000000     2.304501    0.078799
| 10> H    -0.891412     1.376095   -1.138641
| 11> H     0.891412    -1.376095   -1.138641
| 12> H    -0.891412    -1.376095   -1.138641
| 13> H     0.000000    -2.304501    0.078799
| 14> *
| 15>
| 16>                          ****END OF INPUT****

CARTESIAN COORDINATES (ANGSTROEM)
---------------------------------
  C      0.000000    1.391186   -0.512622
  C      0.000000   -1.391186   -0.512622
  S      0.000000    0.000000    0.659277
  H      0.891412    1.376095   -1.138641
  H      0.000000    2.304501    0.078799
  H     -0.891412    1.376095   -1.138641
  H      0.891412   -1.376095   -1.138641
  H     -0.891412   -1.376095   -1.138641
  H      0.000000   -2.304501    0.078799

 Total Charge           Charge          ....    0
 Multiplicity           Mult            ....    1
 Number of Electrons    NEL             ....   34
 Basis Dimension        Dim             ....  280

ORBITAL ENERGIES
----------------

  NO   OCC          E(Eh)            E(eV)
   0   2.0000     -91.945157     -2501.9549
   1   2.0000     -11.250807      -306.1500
   2   2.0000     -11.250797      -306.1497
   3   2.0000      -8.945054      -243.4073
   4   2.0000      -6.626384      -180.3131
   5   2.0000      -6.625419      -180.2868
   6   2.0000      -6.624440      -180.2602
   7   2.0000      -1.056595       -28.7514
   8   2.0000      -0.951077       -25.8801
   9   2.0000      -0.807171       -21.9643
  10   2.0000      -0.602556       -16.3964
  11   2.0000      -0.600267       -16.3341
  12   2.0000      -0.577588       -15.7170
  13   2.0000      -0.565354       -15.3841
  14   2.0000      -0.491526       -13.3751
  15   2.0000      -0.432818       -11.7776
  16   2.0000      -0.336075        -9.1451
  17   0.0000       0.030349         0.8258
  18   0.0000       0.037631         1.0240
  19   0.0000       0.044216         1.2032
  20   0.0000       0.047289         1.2868
  21   0.0000       0.062380         1.6974

MULLIKEN ATOMIC CHARGES
-----------------------
   0 C :   -0.779176
   1 C :   -0.779176
   2 S :   -0.146385
   3 H :    0.276128
   4 H :    0.300112
   5 H :    0.276128
   6 H :    0.276128
   7 H :    0.276128
   8 H :    0.300112
Sum of atomic charges:   -0.0000000

LOEWDIN ATOMIC CHARGES
----------------------
   0 C :    0.204985
   1 C :    0.204985
   2 S :    1.108186
   3 H :   -0.248226
   4 H :   -0.262626
   5 H :   -0.248226
   6 H :   -0.248226
   7 H :   -0.248226
   8 H :   -0.262626

  Mayer bond orders larger than 0.100000
B(  0-C ,  2-S ) :   0.9891 B(  0-C ,  3-H ) :   0.9173 B(  0-C ,  4-H ) :   0.9256
B(  0-C ,  5-H ) :   0.9173 B(  1-C ,  2-S ) :   0.9891 B(  1-C ,  6-H ) :   0.9173
B(  1-C ,  7-H ) :   0.9173 B(  1-C ,  8-H ) :   0.9256

MP2 TOTAL ENERGY:     -477.352032218 Eh
FINAL SINGLE POINT ENERGY      -477.352032218376

DIPOLE MOMENT
-------------
                                X             Y             Z
Electronic contribution:      0.00000       0.00000       3.84452
Nuclear contribution   :      0.00000      -0.00000      -4.53992
                        -----------------------------------------
Total Dipole Moment    :      0.00000       0.00000      -0.69539
                        -----------------------------------------
Magnitude (a.u.)       :      0.69539
Magnitude (Debye)      :      1.76755

Rotational constants in cm-1:     0.593976     0.247770     0.187285
Rotational constants in MHz : 17806.967165  7427.944058  5614.652687

                             ****ORCA TERMINATED NORMALLY****
TOTAL RUN TIME: 0 days 0 hours 0 minutes 55 seconds 135 msec
