                         Program Version 5.0.3 -  RELEASE  -
|  1> !ri-mp2 aug-cc-pvtz aug-cc-pvtz/c tightscf
|  2> %pal nprocs 16 end
|  3>
|  4> * xyz 0 1
|  5> C     -0.123642    1.418300    0.182281
|  6> H     -0.576061    2.246214   -0.360785
|  7> H     -0.140157    1.675948    1.245871
|  8> C      1.285993    1.069039   -0.279367
|  9> H      2.029750    1.761665    0.115463
| 10> H      1.337092    1.113708   -1.368217
| 11> C      1.580762   -0.362867    0.182655
| 12> H      1.863237   -0.398574    1.234120
| 13> H      2.363223   -0.838008   -0.403468
| 14> C     -1.005756    0.186332    0.018862
| 15> O     -2.202205    0.172101   -0.051174
| 16> S      0.019776   -1.300161   -0.042511
| 17> *
| 18>
| 19>                          ****END OF INPUT****

CARTESIAN COORDINATES (ANGSTROEM)
---------------------------------
  C     -0.123642    1.418300    0.182281
  H     -0.576061    2.246214   -0.360785
  H     -0.140157    1.675948    1.245871
  C      1.285993    1.069039   -0.279367
  H      2.029750    1.761665    0.115463
  H      1.337092    1.113708   -1.368217
  C      1.580762   -0.362867    0.182655
  H      1.863237   -0.398574    1.234120
  H      2.363223   -0.838008   -0.403468
  C     -1.005756    0.186332    0.018862
  O     -2.202205    0.172101   -0.051174
  S      0.019776   -1.300161   -0.042511

 Total Charge           Charge          ....    0
 Multiplicity           Mult            ....    1
 Number of Electrons    NEL             ....   54
 Basis Dimension        Dim             ....  418

ORBITAL ENERGIES
----------------

  NO   OCC          E(Eh)            E(eV)
   0   2.0000     -91.970084     -2502.6332
   1   2.0000     -20.558108      -559.4146
   2   2.0000     -11.364727      -309.2499
   3   2.0000     -11.278093      -306.8925
   4   2.0000     -11.256694      -306.3102
   5   2.0000     -11.256060      -306.2930
   6   2.0000      -8.971178      -244.1182
   7   2.0000      -6.652020      -181.0107
   8   2.0000      -6.651345      -180.9923
   9   2.0000      -6.650453      -180.9680
  10   2.0000      -1.406287       -38.2670
  11   2.0000      -1.139850       -31.0169
  12   2.0000      -1.004241       -27.3268
  13   2.0000      -0.963201       -26.2100
  14   2.0000      -0.825652       -22.4671
  15   2.0000      -0.734301       -19.9814
  16   2.0000      -0.679726       -18.4963
  17   2.0000      -0.666076       -18.1248
  18   2.0000      -0.606508       -16.5039
  19   2.0000      -0.602019       -16.3818
  20   2.0000      -0.580574       -15.7982
  21   2.0000      -0.553202       -15.0534
  22   2.0000      -0.522870       -14.2280
  23   2.0000      -0.500478       -13.6187
  24   2.0000      -0.463338       -12.6081
  25   2.0000      -0.402827       -10.9615
  26   2.0000      -0.370352       -10.0778
  27   0.0000       0.023023         0.6265
  28   0.0000       0.034630         0.9423
  29   0.0000       0.035189         0.9575
  30   0.0000       0.045037         1.2255
  31   0.0000       0.055936         1.5221

MULLIKEN ATOMIC CHARGES
-----------------------
   0 C :   -0.374936
   1 H :    0.305979
   2 H :    0.256243
   3 C :   -0.472304
   4 H :    0.298047
   5 H :    0.273030
   6 C :   -0.390813
   7 H :    0.246424
   8 H :    0.294088
   9 C :    0.579311
  10 O :   -0.753110
  11 S :   -0.261961
Sum of atomic charges:    0.0000000

LOEWDIN ATOMIC CHARGES
----------------------
   0 C :    0.215617
   1 H :   -0.155291
   2 H :   -0.150752
   3 C :    0.205800
   4 H :   -0.146032
   5 H :   -0.155136
   6 C :   -0.047852
   7 H :   -0.219010
   8 H :   -0.221467
   9 C :   -0.896976
  10 O :    0.369955
  11 S :    1.201143

  Mayer bond orders larger than 0.100000
B(  0-C ,  1-H ) :   0.9030 B(  0-C ,  2-H ) :   0.9371 B(  0-C ,  3-C ) :   0.9790
B(  0-C ,  9-C ) :   0.7940 B(  3-C ,  4-H ) :   0.9215 B(  3-C ,  5-H ) :   0.9381
B(  3-C ,  6-C ) :   0.9611 B(  6-C ,  7-H ) :   0.9538 B(  6-C ,  8-H ) :   0.9298
B(  6-C , 11-S ) :   0.9326 B(  9-C , 10-O ) :   1.4056 B(  9-C , 11-S ) :   1.0739

MP2 TOTAL ENERGY:     -628.554568459 Eh
FINAL SINGLE POINT ENERGY      -628.554568459262

DIPOLE MOMENT
-------------
                                X             Y             Z
Electronic contribution:     -5.08973      -4.83154      -0.30652
Nuclear contribution   :      6.79253       5.56346       0.46015
                        -----------------------------------------
Total Dipole Moment    :      1.70280       0.73192       0.15363
                        -----------------------------------------
Magnitude (a.u.)       :      1.85980
Magnitude (Debye)      :      4.72722

Rotational constants in cm-1:     0.147202     0.104084     0.064290
Rotational constants in MHz :  4413.001839  3120.355607  1927.354198

                             ****ORCA TERMINATED NORMALLY****
TOTAL RUN TIME: 0 days 0 hours 2 minutes 56 seconds 43 msec
