                         Program Version 5.0.3 -  RELEASE  -
|  1> !ri-mp2 aug-cc-pvtz aug-cc-pvtz/c tightscf
|  2> %pal nprocs 16 end
|  3>
|  4> * xyz 0 1
|  5> C      0.150438   -1.090521    3.446524
|  6> C      0.085296    0.101402    2.517436
|  7> O      0.150438   -0.404858    1.160874
|  8> S      0.167579    0.766272    0.000000
|  9> O     -1.132613    1.441502    0.000000
| 10> O      0.150438   -0.404858   -1.160874
| 11> C      0.085296    0.101402   -2.517436
| 12> C      0.150438   -1.090521   -3.446524
| 13> H     -0.680200   -1.769479    3.258074
| 14> H      1.082937   -1.637650    3.313150
| 15> H      0.092076   -0.751674    4.481673
| 16> H      0.923392    0.782173    2.691692
| 17> H     -0.846294    0.654026    2.644175
| 18> H     -0.846294    0.654026   -2.644175
| 19> H      0.923392    0.782173   -2.691692
| 20> H      1.082937   -1.637650   -3.313150
| 21> H     -0.680200   -1.769479   -3.258074
| 22> H      0.092076   -0.751674   -4.481673
| 23> *
| 24>
| 25>                          ****END OF INPUT****

CARTESIAN COORDINATES (ANGSTROEM)
---------------------------------
  C      0.150438   -1.090521    3.446524
  C      0.085296    0.101402    2.517436
  O      0.150438   -0.404858    1.160874
  S      0.167579    0.766272    0.000000
  O     -1.132613    1.441502    0.000000
  O      0.150438   -0.404858   -1.160874
  C      0.085296    0.101402   -2.517436
  C      0.150438   -1.090521   -3.446524
  H     -0.680200   -1.769479    3.258074
  H      1.082937   -1.637650    3.313150
  H      0.092076   -0.751674    4.481673
  H      0.923392    0.782173    2.691692
  H     -0.846294    0.654026    2.644175
  H     -0.846294    0.654026   -2.644175
  H      0.923392    0.782173   -2.691692
  H      1.082937   -1.637650   -3.313150
  H     -0.680200   -1.769479   -3.258074
  H      0.092076   -0.751674   -4.481673

 Total Charge           Charge          ....    0
 Multiplicity           Mult            ....    1
 Number of Electrons    NEL             ....   74
 Basis Dimension        Dim             ....  602

ORBITAL ENERGIES
----------------

  NO   OCC          E(Eh)            E(eV)
   0   2.0000     -92.158982     -2507.7734
   1   2.0000     -20.599136      -560.5310
   2   2.0000     -20.599123      -560.5306
   3   2.0000     -20.543704      -559.0226
   4   2.0000     -11.297576      -307.4227
   5   2.0000     -11.297575      -307.4226
   6   2.0000     -11.227612      -305.5189
   7   2.0000     -11.227612      -305.5189
   8   2.0000      -9.132462      -248.5069
   9   2.0000      -6.814147      -185.4224
  10   2.0000      -6.813845      -185.4141
  11   2.0000      -6.811450      -185.3490
  12   2.0000      -1.461138       -39.7596
  13   2.0000      -1.373179       -37.3661
  14   2.0000      -1.344449       -36.5843
  15   2.0000      -1.053716       -28.6731
  16   2.0000      -1.026280       -27.9265
  17   2.0000      -0.905185       -24.6313
  18   2.0000      -0.847985       -23.0748
  19   2.0000      -0.838385       -22.8136
  20   2.0000      -0.713242       -19.4083
  21   2.0000      -0.697299       -18.9745
  22   2.0000      -0.681566       -18.5464
  23   2.0000      -0.669136       -18.2081
  24   2.0000      -0.608949       -16.5704
  25   2.0000      -0.598844       -16.2954
  26   2.0000      -0.595739       -16.2109
  27   2.0000      -0.559464       -15.2238
  28   2.0000      -0.549478       -14.9521
  29   2.0000      -0.539227       -14.6731
  30   2.0000      -0.528997       -14.3947
  31   2.0000      -0.522809       -14.2263
  32   2.0000      -0.520781       -14.1712
  33   2.0000      -0.477895       -13.0042
  34   2.0000      -0.473494       -12.8844
  35   2.0000      -0.463443       -12.6109
  36   2.0000      -0.407073       -11.0770
  37   0.0000       0.029571         0.8047
  38   0.0000       0.031851         0.8667
  39   0.0000       0.037938         1.0323
  40   0.0000       0.040936         1.1139
  41   0.0000       0.048419         1.3175

MULLIKEN ATOMIC CHARGES
-----------------------
   0 C :   -0.972711
   1 C :   -0.209609
   2 O :   -0.492937
   3 S :    1.203633
   4 O :   -0.889293
   5 O :   -0.492937
   6 C :   -0.209609
   7 C :   -0.972711
   8 H :    0.274745
   9 H :    0.259859
  10 H :    0.319255
  11 H :    0.329247
  12 H :    0.334981
  13 H :    0.334981
  14 H :    0.329247
  15 H :    0.259859
  16 H :    0.274745
  17 H :    0.319255
Sum of atomic charges:    0.0000000

LOEWDIN ATOMIC CHARGES
----------------------
   0 C :    0.569740
   1 C :   -0.077492
   2 O :    0.238000
   3 S :    0.439377
   4 O :   -0.131502
   5 O :    0.238000
   6 C :   -0.077492
   7 C :    0.569740
   8 H :   -0.173579
   9 H :   -0.175115
  10 H :   -0.174437
  11 H :   -0.178622
  12 H :   -0.182432
  13 H :   -0.182432
  14 H :   -0.178622
  15 H :   -0.175115
  16 H :   -0.173579
  17 H :   -0.174437

  Mayer bond orders larger than 0.100000
B(  0-C ,  1-C ) :   0.9216 B(  0-C ,  8-H ) :   0.9523 B(  0-C ,  9-H ) :   0.9586
B(  0-C , 10-H ) :   0.9283 B(  1-C ,  2-O ) :   0.6794 B(  1-C , 11-H ) :   0.9078
B(  1-C , 12-H ) :   0.8963 B(  2-O ,  3-S ) :   0.9428 B(  2-O ,  4-O ) :   0.1065
B(  3-S ,  4-O ) :   1.3795 B(  3-S ,  5-O ) :   0.9428 B(  4-O ,  5-O ) :   0.1065
B(  5-O ,  6-C ) :   0.6794 B(  6-C ,  7-C ) :   0.9216 B(  6-C , 13-H ) :   0.8963
B(  6-C , 14-H ) :   0.9078 B(  7-C , 15-H ) :   0.9586 B(  7-C , 16-H ) :   0.9523
B(  7-C , 17-H ) :   0.9283

MP2 TOTAL ENERGY:     -781.157476708 Eh
FINAL SINGLE POINT ENERGY      -781.157476708048

DIPOLE MOMENT
-------------
                                X             Y             Z
Electronic contribution:     -0.31983       5.35227      -0.00000
Nuclear contribution   :      1.13203      -5.49036      -0.00000
                        -----------------------------------------
Total Dipole Moment    :      0.81219      -0.13809      -0.00000
                        -----------------------------------------
Magnitude (a.u.)       :      0.82385
Magnitude (Debye)      :      2.09406

Rotational constants in cm-1:     0.129471     0.027512     0.023935
Rotational constants in MHz :  3881.432390   824.783971   717.540418

                             ****ORCA TERMINATED NORMALLY****
TOTAL RUN TIME: 0 days 0 hours 6 minutes 24 seconds 975 msec
