                         Program Version 5.0.3 -  RELEASE  -
|  1> !ri-mp2 aug-cc-pvtz aug-cc-pvtz/c tightscf
|  2> %pal nprocs 16 end
|  3>
|  4> * xyz 0 1
|  5> S    -1.085714    0.117394    0.777209
|  6> S     1.616055   -1.007193    0.004656
|  7> C    -0.092200   -0.704472   -0.547441
|  8> C    -2.551811    0.291449   -0.041856
|  9> C     2.295903    0.534104   -0.121587
| 10> C    -3.614199    0.432090   -0.592782
| 11> C     2.852247    1.598818   -0.193854
| 12> H    -0.096062   -0.091324   -1.442322
| 13> H    -0.512041   -1.685333   -0.754731
| 14> H    -4.551006    0.558816   -1.074999
| 15> H     3.334006    2.542688   -0.252663
| 16> *
| 17>
| 18>                          ****END OF INPUT****

CARTESIAN COORDINATES (ANGSTROEM)
---------------------------------
  S     -1.085714    0.117394    0.777209
  S      1.616055   -1.007193    0.004656
  C     -0.092200   -0.704472   -0.547441
  C     -2.551811    0.291449   -0.041856
  C      2.295903    0.534104   -0.121587
  C     -3.614199    0.432090   -0.592782
  C      2.852247    1.598818   -0.193854
  H     -0.096062   -0.091324   -1.442322
  H     -0.512041   -1.685333   -0.754731
  H     -4.551006    0.558816   -1.074999
  H      3.334006    2.542688   -0.252663

 Total Charge           Charge          ....    0
 Multiplicity           Mult            ....    1
 Number of Electrons    NEL             ....   66
 Basis Dimension        Dim             ....  422

ORBITAL ENERGIES
----------------

  NO   OCC          E(Eh)            E(eV)
   0   2.0000     -92.006035     -2503.6115
   1   2.0000     -91.997320     -2503.3744
   2   2.0000     -11.318448      -307.9906
   3   2.0000     -11.266095      -306.5660
   4   2.0000     -11.264784      -306.5304
   5   2.0000     -11.246972      -306.0457
   6   2.0000     -11.244579      -305.9805
   7   2.0000      -9.005116      -245.0417
   8   2.0000      -8.996388      -244.8042
   9   2.0000      -6.686591      -181.9514
  10   2.0000      -6.685275      -181.9156
  11   2.0000      -6.684367      -181.8909
  12   2.0000      -6.677765      -181.7112
  13   2.0000      -6.676423      -181.6747
  14   2.0000      -6.675408      -181.6471
  15   2.0000      -1.129073       -30.7236
  16   2.0000      -1.079745       -29.3813
  17   2.0000      -1.027712       -27.9655
  18   2.0000      -0.971810       -26.4443
  19   2.0000      -0.881505       -23.9870
  20   2.0000      -0.734583       -19.9890
  21   2.0000      -0.732332       -19.9278
  22   2.0000      -0.663375       -18.0514
  23   2.0000      -0.641823       -17.4649
  24   2.0000      -0.603595       -16.4246
  25   2.0000      -0.523985       -14.2584
  26   2.0000      -0.514303       -13.9949
  27   2.0000      -0.478280       -13.0147
  28   2.0000      -0.469629       -12.7792
  29   2.0000      -0.414217       -11.2714
  30   2.0000      -0.397279       -10.8105
  31   2.0000      -0.349307        -9.5051
  32   2.0000      -0.343439        -9.3454
  33   0.0000       0.028179         0.7668
  34   0.0000       0.031232         0.8499
  35   0.0000       0.037854         1.0301
  36   0.0000       0.049272         1.3408
  37   0.0000       0.065851         1.7919

MULLIKEN ATOMIC CHARGES
-----------------------
   0 S :   -0.164905
   1 S :   -0.287850
   2 C :   -0.349782
   3 C :    1.096582
   4 C :    1.118852
   5 C :   -1.589818
   6 C :   -1.546926
   7 H :    0.272983
   8 H :    0.285976
   9 H :    0.589087
  10 H :    0.575802
Sum of atomic charges:    0.0000000

LOEWDIN ATOMIC CHARGES
----------------------
   0 S :    1.073308
   1 S :    1.080958
   2 C :   -0.409859
   3 C :   -0.544194
   4 C :   -0.542051
   5 C :    0.275450
   6 C :    0.278086
   7 H :   -0.290276
   8 H :   -0.301495
   9 H :   -0.311880
  10 H :   -0.308048

  Mayer bond orders larger than 0.100000
B(  0-S ,  2-C ) :   0.9895 B(  0-S ,  3-C ) :   0.9660 B(  1-S ,  2-C ) :   1.0296
B(  1-S ,  4-C ) :   0.9864 B(  2-C ,  7-H ) :   0.9232 B(  2-C ,  8-H ) :   0.9238
B(  3-C ,  5-C ) :   0.5766 B(  4-C ,  6-C ) :   0.6049 B(  5-C ,  9-H ) :   0.5487
B(  6-C , 10-H ) :   0.6390

MP2 TOTAL ENERGY:     -987.810971866 Eh
FINAL SINGLE POINT ENERGY      -987.810971866270

DIPOLE MOMENT
-------------
                                X             Y             Z
Electronic contribution:      1.58388      -1.24149       2.77578
Nuclear contribution   :     -1.78036       1.30743      -3.43108
                        -----------------------------------------
Total Dipole Moment    :     -0.19649       0.06594      -0.65530
                        -----------------------------------------
Magnitude (a.u.)       :      0.68730
Magnitude (Debye)      :      1.74697

Rotational constants in cm-1:     0.143462     0.028974     0.026500
Rotational constants in MHz :  4300.888737   868.615847   794.458291

                             ****ORCA TERMINATED NORMALLY****
TOTAL RUN TIME: 0 days 0 hours 2 minutes 43 seconds 153 msec
