                         Program Version 5.0.3 -  RELEASE  -
|  1> !ri-mp2 aug-cc-pvtz aug-cc-pvtz/c tightscf
|  2> %pal nprocs 16 end
|  3>
|  4> * xyz 0 1
|  5> Cl   -3.711306   -0.250025   -0.222443
|  6> Cl    3.245768   -0.766998   -0.070147
|  7> O     1.080001    0.724444   -0.457102
|  8> N     2.390823    0.873305   -0.035920
|  9> C     0.233303    0.411497    0.671316
| 10> C    -1.182193    0.586458    0.237594
| 11> C    -2.040512   -0.420694    0.228155
| 12> H     0.492240    1.094323    1.483319
| 13> H     0.434639   -0.612867    0.990518
| 14> H    -1.495582    1.578817   -0.060378
| 15> H    -1.781946   -1.432223    0.504925
| 16> H     2.825450    1.289086   -0.858485
| 17> *
| 18>
| 19>                          ****END OF INPUT****

CARTESIAN COORDINATES (ANGSTROEM)
---------------------------------
  Cl    -3.711306   -0.250025   -0.222443
  Cl     3.245768   -0.766998   -0.070147
  O      1.080001    0.724444   -0.457102
  N      2.390823    0.873305   -0.035920
  C      0.233303    0.411497    0.671316
  C     -1.182193    0.586458    0.237594
  C     -2.040512   -0.420694    0.228155
  H      0.492240    1.094323    1.483319
  H      0.434639   -0.612867    0.990518
  H     -1.495582    1.578817   -0.060378
  H     -1.781946   -1.432223    0.504925
  H      2.825450    1.289086   -0.858485

 Total Charge           Charge          ....    0
 Multiplicity           Mult            ....    1
 Number of Electrons    NEL             ....   72
 Basis Dimension        Dim             ....  445

ORBITAL ENERGIES
----------------

  NO   OCC          E(Eh)            E(eV)
   0   2.0000    -104.853073     -2853.1972
   1   2.0000    -104.850335     -2853.1227
   2   2.0000     -20.632940      -561.4508
   3   2.0000     -15.706157      -427.3863
   4   2.0000     -11.312200      -307.8206
   5   2.0000     -11.310605      -307.7772
   6   2.0000     -11.262075      -306.4567
   7   2.0000     -10.574881      -287.7572
   8   2.0000     -10.574159      -287.7375
   9   2.0000      -8.041578      -218.8225
  10   2.0000      -8.041064      -218.8085
  11   2.0000      -8.039489      -218.7656
  12   2.0000      -8.039328      -218.7612
  13   2.0000      -8.039160      -218.7567
  14   2.0000      -8.039125      -218.7557
  15   2.0000      -1.468644       -39.9638
  16   2.0000      -1.182336       -32.1730
  17   2.0000      -1.162178       -31.6245
  18   2.0000      -1.069732       -29.1089
  19   2.0000      -1.007770       -27.4228
  20   2.0000      -0.907758       -24.7014
  21   2.0000      -0.800551       -21.7841
  22   2.0000      -0.730260       -19.8714
  23   2.0000      -0.696431       -18.9509
  24   2.0000      -0.678674       -18.4676
  25   2.0000      -0.633116       -17.2280
  26   2.0000      -0.622629       -16.9426
  27   2.0000      -0.561077       -15.2677
  28   2.0000      -0.538430       -14.6514
  29   2.0000      -0.525469       -14.2987
  30   2.0000      -0.516553       -14.0561
  31   2.0000      -0.464601       -12.6424
  32   2.0000      -0.462249       -12.5784
  33   2.0000      -0.457237       -12.4421
  34   2.0000      -0.421824       -11.4784
  35   2.0000      -0.379637       -10.3304
  36   0.0000       0.029380         0.7995
  37   0.0000       0.035312         0.9609
  38   0.0000       0.041857         1.1390
  39   0.0000       0.044266         1.2045
  40   0.0000       0.058149         1.5823

MULLIKEN ATOMIC CHARGES
-----------------------
   0 Cl:   -0.297231
   1 Cl:   -0.105542
   2 O :   -0.467801
   3 N :   -0.174147
   4 C :    0.129011
   5 C :   -0.348417
   6 C :   -0.415606
   7 H :    0.345921
   8 H :    0.278341
   9 H :    0.399165
  10 H :    0.456447
  11 H :    0.199859
Sum of atomic charges:   -0.0000000

LOEWDIN ATOMIC CHARGES
----------------------
   0 Cl:    0.910773
   1 Cl:    0.594873
   2 O :    0.371676
   3 N :   -0.128553
   4 C :   -0.042604
   5 C :    0.086533
   6 C :   -0.440345
   7 H :   -0.173307
   8 H :   -0.192755
   9 H :   -0.205959
  10 H :   -0.283527
  11 H :   -0.496805

  Mayer bond orders larger than 0.100000
B(  0-Cl,  6-C ) :   0.8134 B(  1-Cl,  3-N ) :   0.9531 B(  2-O ,  3-N ) :   0.9137
B(  2-O ,  4-C ) :   0.7975 B(  3-N ,  4-C ) :  -0.1438 B(  3-N , 11-H ) :   0.9184
B(  4-C ,  5-C ) :   0.7868 B(  4-C ,  7-H ) :   0.9093 B(  4-C ,  8-H ) :   0.9767
B(  5-C ,  6-C ) :   1.5723 B(  5-C ,  9-H ) :   0.8836 B(  6-C , 10-H ) :   0.7381

MP2 TOTAL ENERGY:    -1166.164515084 Eh
FINAL SINGLE POINT ENERGY     -1166.164515083942

DIPOLE MOMENT
-------------
                                X             Y             Z
Electronic contribution:     -0.99880      -2.86752      -2.15514
Nuclear contribution   :      1.11606       3.22726       2.35336
                        -----------------------------------------
Total Dipole Moment    :      0.11726       0.35975       0.19823
                        -----------------------------------------
Magnitude (a.u.)       :      0.42716
Magnitude (Debye)      :      1.08574

Rotational constants in cm-1:     0.226800     0.015932     0.015323
Rotational constants in MHz :  6799.296843   477.623269   459.368975

                             ****ORCA TERMINATED NORMALLY****
TOTAL RUN TIME: 0 days 0 hours 3 minutes 23 seconds 189 msec
