                         Program Version 5.0.3 -  RELEASE  -
|  1> !ri-mp2 aug-cc-pvtz aug-cc-pvtz/c tightscf
|  2> %pal nprocs 16 end
|  3>
|  4> * xyz 0 1
|  5> S    -1.676534   -0.926064    0.051194
|  6> O     3.331516   -0.631562   -0.252865
|  7> N     2.397628    1.405048    0.103813
|  8> N    -3.577023    1.191000   -0.109127
|  9> C     1.020168   -0.608219    0.179875
| 10> C     2.350109    0.042718    0.002223
| 11> C    -0.149655   -0.019457   -0.048702
| 12> C    -2.785853    0.351530   -0.044843
| 13> H     1.086429   -1.657050    0.439278
| 14> H    -0.254458    1.009404   -0.361619
| 15> H     1.678256    1.917370    0.581658
| 16> H     3.309355    1.828033    0.050389
| 17> *
| 18>
| 19>                          ****END OF INPUT****

CARTESIAN COORDINATES (ANGSTROEM)
---------------------------------
  S     -1.676534   -0.926064    0.051194
  O      3.331516   -0.631562   -0.252865
  N      2.397628    1.405048    0.103813
  N     -3.577023    1.191000   -0.109127
  C      1.020168   -0.608219    0.179875
  C      2.350109    0.042718    0.002223
  C     -0.149655   -0.019457   -0.048702
  C     -2.785853    0.351530   -0.044843
  H      1.086429   -1.657050    0.439278
  H     -0.254458    1.009404   -0.361619
  H      1.678256    1.917370    0.581658
  H      3.309355    1.828033    0.050389

 Total Charge           Charge          ....    0
 Multiplicity           Mult            ....    1
 Number of Electrons    NEL             ....   66
 Basis Dimension        Dim             ....  464

ORBITAL ENERGIES
----------------

  NO   OCC          E(Eh)            E(eV)
   0   2.0000     -92.048662     -2504.7714
   1   2.0000     -20.543409      -559.0146
   2   2.0000     -15.604336      -424.6156
   3   2.0000     -15.602525      -424.5663
   4   2.0000     -11.380482      -309.6787
   5   2.0000     -11.328302      -308.2588
   6   2.0000     -11.315787      -307.9182
   7   2.0000     -11.285015      -307.0809
   8   2.0000      -9.047881      -246.2054
   9   2.0000      -6.729329      -183.1144
  10   2.0000      -6.727874      -183.0747
  11   2.0000      -6.726926      -183.0490
  12   2.0000      -1.405049       -38.2333
  13   2.0000      -1.250574       -34.0298
  14   2.0000      -1.234129       -33.5824
  15   2.0000      -1.149311       -31.2743
  16   2.0000      -1.049669       -28.5629
  17   2.0000      -0.887189       -24.1416
  18   2.0000      -0.807296       -21.9676
  19   2.0000      -0.763515       -20.7763
  20   2.0000      -0.711745       -19.3676
  21   2.0000      -0.697249       -18.9731
  22   2.0000      -0.631117       -17.1736
  23   2.0000      -0.623622       -16.9696
  24   2.0000      -0.593826       -16.1588
  25   2.0000      -0.580264       -15.7898
  26   2.0000      -0.559778       -15.2323
  27   2.0000      -0.550046       -14.9675
  28   2.0000      -0.487198       -13.2573
  29   2.0000      -0.474899       -12.9227
  30   2.0000      -0.454078       -12.3561
  31   2.0000      -0.435766       -11.8578
  32   2.0000      -0.375561       -10.2195
  33   0.0000       0.019670         0.5353
  34   0.0000       0.032727         0.8905
  35   0.0000       0.042503         1.1566
  36   0.0000       0.045511         1.2384
  37   0.0000       0.055942         1.5222

MULLIKEN ATOMIC CHARGES
-----------------------
   0 S :    0.004997
   1 O :   -0.735683
   2 N :   -0.311949
   3 N :   -0.457444
   4 C :   -0.123660
   5 C :    0.516485
   6 C :   -0.281773
   7 C :    0.186720
   8 H :    0.497094
   9 H :    0.401059
  10 H :    0.160122
  11 H :    0.144034
Sum of atomic charges:    0.0000000

LOEWDIN ATOMIC CHARGES
----------------------
   0 S :    1.169336
   1 O :    0.430789
   2 N :    0.844403
   3 N :    0.150135
   4 C :    0.115600
   5 C :   -0.714148
   6 C :   -0.174786
   7 C :   -0.750111
   8 H :   -0.209289
   9 H :   -0.257814
  10 H :   -0.313671
  11 H :   -0.290444

  Mayer bond orders larger than 0.100000
B(  0-S ,  6-C ) :   0.9189 B(  0-S ,  7-C ) :   1.1365 B(  1-O ,  5-C ) :   1.4749
B(  2-N ,  5-C ) :   1.0851 B(  2-N , 10-H ) :   1.0221 B(  2-N , 11-H ) :   1.0156
B(  3-N ,  7-C ) :   2.4056 B(  4-C ,  5-C ) :   0.6704 B(  4-C ,  6-C ) :   1.4292
B(  4-C ,  8-H ) :   0.7532 B(  6-C ,  9-H ) :   0.8385

MP2 TOTAL ENERGY:     -736.648456273 Eh
FINAL SINGLE POINT ENERGY      -736.648456273365

DIPOLE MOMENT
-------------
                                X             Y             Z
Electronic contribution:     -5.46770      -2.63742      -0.15966
Nuclear contribution   :      5.72316       3.02907       0.68105
                        -----------------------------------------
Total Dipole Moment    :      0.25546       0.39165       0.52140
                        -----------------------------------------
Magnitude (a.u.)       :      0.70036
Magnitude (Debye)      :      1.78018

Rotational constants in cm-1:     0.167592     0.023504     0.020741
Rotational constants in MHz :  5024.279412   704.625347   621.803912

                             ****ORCA TERMINATED NORMALLY****
TOTAL RUN TIME: 0 days 0 hours 3 minutes 37 seconds 456 msec
