                         Program Version 5.0.3 -  RELEASE  -
|  1> !ri-mp2 aug-cc-pvtz aug-cc-pvtz/c tightscf
|  2> %pal nprocs 16 end
|  3>
|  4> * xyz 0 1
|  5> C     -2.410690    0.780868    0.000000
|  6> C     -1.408259   -0.101026    0.000000
|  7> C      0.000000    0.249530    0.000000
|  8> C      0.998002   -0.639690    0.000000
|  9> C      2.453681   -0.304012    0.000000
| 10> H     -2.224937    1.847997    0.000000
| 11> H     -3.443962    0.464039    0.000000
| 12> H     -1.639093   -1.162269    0.000000
| 13> H      0.236275    1.310487    0.000000
| 14> H      0.747222   -1.697270    0.000000
| 15> H      2.617556    0.773488    0.000000
| 16> H      2.955266   -0.725245    0.875717
| 17> H      2.955266   -0.725245   -0.875717
| 18> *
| 19>
| 20>                          ****END OF INPUT****

CARTESIAN COORDINATES (ANGSTROEM)
---------------------------------
  C     -2.410690    0.780868    0.000000
  C     -1.408259   -0.101026    0.000000
  C      0.000000    0.249530    0.000000
  C      0.998002   -0.639690    0.000000
  C      2.453681   -0.304012    0.000000
  H     -2.224937    1.847997    0.000000
  H     -3.443962    0.464039    0.000000
  H     -1.639093   -1.162269    0.000000
  H      0.236275    1.310487    0.000000
  H      0.747222   -1.697270    0.000000
  H      2.617556    0.773488    0.000000
  H      2.955266   -0.725245    0.875717
  H      2.955266   -0.725245   -0.875717

 Total Charge           Charge          ....    0
 Multiplicity           Mult            ....    1
 Number of Electrons    NEL             ....   38
 Basis Dimension        Dim             ....  414

ORBITAL ENERGIES
----------------

  NO   OCC          E(Eh)            E(eV)
   0   2.0000     -11.235709      -305.7392
   1   2.0000     -11.234848      -305.7158
   2   2.0000     -11.227391      -305.5128
   3   2.0000     -11.224161      -305.4250
   4   2.0000     -11.221691      -305.3577
   5   2.0000      -1.098580       -29.8939
   6   2.0000      -1.030280       -28.0353
   7   2.0000      -0.932971       -25.3874
   8   2.0000      -0.793627       -21.5957
   9   2.0000      -0.752457       -20.4754
  10   2.0000      -0.647838       -17.6286
  11   2.0000      -0.618587       -16.8326
  12   2.0000      -0.569748       -15.5036
  13   2.0000      -0.568797       -15.4778
  14   2.0000      -0.538020       -14.6403
  15   2.0000      -0.513693       -13.9783
  16   2.0000      -0.487288       -13.2598
  17   2.0000      -0.435302       -11.8452
  18   2.0000      -0.312199        -8.4954
  19   0.0000       0.030377         0.8266
  20   0.0000       0.033719         0.9175
  21   0.0000       0.035861         0.9758
  22   0.0000       0.048132         1.3097
  23   0.0000       0.052078         1.4171

MULLIKEN ATOMIC CHARGES
-----------------------
   0 C :   -1.187540
   1 C :   -0.110517
   2 C :    0.081908
   3 C :   -0.501481
   4 C :   -0.782616
   5 H :    0.272528
   6 H :    0.458087
   7 H :    0.279405
   8 H :    0.288353
   9 H :    0.368208
  10 H :    0.291606
  11 H :    0.271029
  12 H :    0.271029
Sum of atomic charges:   -0.0000000

LOEWDIN ATOMIC CHARGES
----------------------
   0 C :    0.518089
   1 C :    0.132143
   2 C :    0.164940
   3 C :    0.202706
   4 C :    0.551349
   5 H :   -0.225981
   6 H :   -0.231712
   7 H :   -0.197388
   8 H :   -0.191130
   9 H :   -0.185918
  10 H :   -0.183384
  11 H :   -0.176856
  12 H :   -0.176856

  Mayer bond orders larger than 0.100000
B(  0-C ,  1-C ) :   1.3777 B(  0-C ,  2-C ) :  -0.2541 B(  0-C ,  3-C ) :   0.1278
B(  0-C ,  5-H ) :   1.1420 B(  0-C ,  6-H ) :   0.7272 B(  1-C ,  2-C ) :   0.4939
B(  1-C ,  7-H ) :   1.1144 B(  2-C ,  3-C ) :   1.0197 B(  2-C ,  8-H ) :   1.0537
B(  3-C ,  4-C ) :   0.7624 B(  3-C ,  9-H ) :   0.9443 B(  4-C , 10-H ) :   0.9536
B(  4-C , 11-H ) :   0.9775 B(  4-C , 12-H ) :   0.9775

MP2 TOTAL ENERGY:     -194.867917407 Eh
FINAL SINGLE POINT ENERGY      -194.867917406567

DIPOLE MOMENT
-------------
                                X             Y             Z
Electronic contribution:     -2.05766      -0.17797      -0.00000
Nuclear contribution   :      2.30866       0.09008       0.00000
                        -----------------------------------------
Total Dipole Moment    :      0.25099      -0.08789      -0.00000
                        -----------------------------------------
Magnitude (a.u.)       :      0.26594
Magnitude (Debye)      :      0.67596

Rotational constants in cm-1:     0.965731     0.072107     0.067933
Rotational constants in MHz : 28951.879797  2161.702151  2036.576110

                             ****ORCA TERMINATED NORMALLY****
TOTAL RUN TIME: 0 days 0 hours 2 minutes 25 seconds 255 msec
