                         Program Version 5.0.3 -  RELEASE  -
|  1> !ri-mp2 aug-cc-pvtz aug-cc-pvtz/c tightscf
|  2> %pal nprocs 16 end
|  3>
|  4> * xyz 0 1
|  5> C     0.000000     0.000000       0.763540
|  6> C     0.000000     0.000000      -0.763540
|  7> H     0.000000     1.016074       1.160929
|  8> H     0.000000    -1.016074      -1.160929
|  9> H    -0.879946    -0.508037       1.160929
| 10> H     0.879946     0.508037      -1.160929
| 11> H     0.879946    -0.508037       1.160929
| 12> H    -0.879946     0.508037      -1.160929
| 13> *
| 14>
| 15>                          ****END OF INPUT****

CARTESIAN COORDINATES (ANGSTROEM)
---------------------------------
  C      0.000000    0.000000    0.763540
  C      0.000000    0.000000   -0.763540
  H      0.000000    1.016074    1.160929
  H      0.000000   -1.016074   -1.160929
  H     -0.879946   -0.508037    1.160929
  H      0.879946    0.508037   -1.160929
  H      0.879946   -0.508037    1.160929
  H     -0.879946    0.508037   -1.160929

 Total Charge           Charge          ....    0
 Multiplicity           Mult            ....    1
 Number of Electrons    NEL             ....   18
 Basis Dimension        Dim             ....  230

ORBITAL ENERGIES
----------------

  NO   OCC          E(Eh)            E(eV)
   0   2.0000     -11.211562      -305.0821
   1   2.0000     -11.210959      -305.0657
   2   2.0000      -1.017241       -27.6805
   3   2.0000      -0.841773       -22.9058
   4   2.0000      -0.595903       -16.2154
   5   2.0000      -0.595903       -16.2154
   6   2.0000      -0.510122       -13.8811
   7   2.0000      -0.486335       -13.2339
   8   2.0000      -0.486335       -13.2338
   9   0.0000       0.032241         0.8773
  10   0.0000       0.042313         1.1514
  11   0.0000       0.043493         1.1835
  12   0.0000       0.043493         1.1835
  13   0.0000       0.067727         1.8429

MULLIKEN ATOMIC CHARGES
-----------------------
   0 C :   -0.846104
   1 C :   -0.846104
   2 H :    0.282035
   3 H :    0.282035
   4 H :    0.282035
   5 H :    0.282035
   6 H :    0.282035
   7 H :    0.282035
Sum of atomic charges:    0.0000000

LOEWDIN ATOMIC CHARGES
----------------------
   0 C :    0.550419
   1 C :    0.550419
   2 H :   -0.183473
   3 H :   -0.183473
   4 H :   -0.183473
   5 H :   -0.183473
   6 H :   -0.183473
   7 H :   -0.183473

  Mayer bond orders larger than 0.100000
B(  0-C ,  1-C ) :   0.8962 B(  0-C ,  2-H ) :   0.9270 B(  0-C ,  4-H ) :   0.9270
B(  0-C ,  6-H ) :   0.9270 B(  1-C ,  3-H ) :   0.9270 B(  1-C ,  5-H ) :   0.9270
B(  1-C ,  7-H ) :   0.9270

MP2 TOTAL ENERGY:      -79.635292761 Eh
FINAL SINGLE POINT ENERGY       -79.635292761449

DIPOLE MOMENT
-------------
                                X             Y             Z
Electronic contribution:      0.00000      -0.00000      -0.00000
Nuclear contribution   :      0.00000       0.00000       0.00000
                        -----------------------------------------
Total Dipole Moment    :      0.00000      -0.00000      -0.00000
                        -----------------------------------------
Magnitude (a.u.)       :      0.00000
Magnitude (Debye)      :      0.00000

Rotational constants in cm-1:     2.699817     0.666893     0.666893
Rotational constants in MHz : 80938.489135 19992.944148 19992.943565

                             ****ORCA TERMINATED NORMALLY****
TOTAL RUN TIME: 0 days 0 hours 0 minutes 29 seconds 302 msec
