                         Program Version 5.0.3 -  RELEASE  -
|  1> !ri-mp2 aug-cc-pvtz aug-cc-pvtz/c tightscf
|  2> %pal nprocs 16 end
|  3>
|  4> * xyz 0 1
|  5> C      2.782896    0.485045    0.000000
|  6> C      2.194136   -0.770352    0.000000
|  7> C      1.968374    1.616338    0.000000
|  8> C      0.807719   -0.912627    0.000000
|  9> C      0.589648    1.491986    0.000000
| 10> C      0.000000    0.224518    0.000000
| 11> C     -3.525326   -0.782670    0.000000
| 12> C     -2.036225   -1.053818    0.000000
| 13> O     -1.362668    0.203627    0.000000
| 14> H      3.859197    0.585368    0.000000
| 15> H      2.812468   -1.658314    0.000000
| 16> H      2.412071    2.603099    0.000000
| 17> H      0.376293   -1.901643    0.000000
| 18> H     -0.052598    2.361690    0.000000
| 19> H     -4.074153   -1.725007    0.000000
| 20> H     -3.814766   -0.215005    0.883932
| 21> H     -3.814766   -0.215005   -0.883932
| 22> H     -1.744865   -1.627360   -0.885629
| 23> H     -1.744865   -1.627360    0.885629
| 24> *
| 25>
| 26>                          ****END OF INPUT****

CARTESIAN COORDINATES (ANGSTROEM)
---------------------------------
  C      2.782896    0.485045    0.000000
  C      2.194136   -0.770352    0.000000
  C      1.968374    1.616338    0.000000
  C      0.807719   -0.912627    0.000000
  C      0.589648    1.491986    0.000000
  C      0.000000    0.224518    0.000000
  C     -3.525326   -0.782670    0.000000
  C     -2.036225   -1.053818    0.000000
  O     -1.362668    0.203627    0.000000
  H      3.859197    0.585368    0.000000
  H      2.812468   -1.658314    0.000000
  H      2.412071    2.603099    0.000000
  H      0.376293   -1.901643    0.000000
  H     -0.052598    2.361690    0.000000
  H     -4.074153   -1.725007    0.000000
  H     -3.814766   -0.215005    0.883932
  H     -3.814766   -0.215005   -0.883932
  H     -1.744865   -1.627360   -0.885629
  H     -1.744865   -1.627360    0.885629

 Total Charge           Charge          ....    0
 Multiplicity           Mult            ....    1
 Number of Electrons    NEL             ....   66
 Basis Dimension        Dim             ....  644

ORBITAL ENERGIES
----------------

  NO   OCC          E(Eh)            E(eV)
   0   2.0000     -20.580453      -560.0226
   1   2.0000     -11.298190      -307.4394
   2   2.0000     -11.287539      -307.1495
   3   2.0000     -11.236629      -305.7642
   4   2.0000     -11.235246      -305.7266
   5   2.0000     -11.227817      -305.5244
   6   2.0000     -11.223630      -305.4105
   7   2.0000     -11.222655      -305.3840
   8   2.0000     -11.221584      -305.3548
   9   2.0000      -1.406183       -38.2642
  10   2.0000      -1.147069       -31.2133
  11   2.0000      -1.045841       -28.4588
  12   2.0000      -1.016392       -27.6574
  13   2.0000      -0.987049       -26.8590
  14   2.0000      -0.871816       -23.7233
  15   2.0000      -0.825628       -22.4665
  16   2.0000      -0.801215       -21.8022
  17   2.0000      -0.723955       -19.6998
  18   2.0000      -0.669862       -18.2279
  19   2.0000      -0.666968       -18.1491
  20   2.0000      -0.650412       -17.6986
  21   2.0000      -0.614858       -16.7311
  22   2.0000      -0.587072       -15.9750
  23   2.0000      -0.562902       -15.3173
  24   2.0000      -0.561605       -15.2821
  25   2.0000      -0.547282       -14.8923
  26   2.0000      -0.514934       -14.0121
  27   2.0000      -0.506839       -13.7918
  28   2.0000      -0.503096       -13.6899
  29   2.0000      -0.476934       -12.9780
  30   2.0000      -0.462604       -12.5881
  31   2.0000      -0.339149        -9.2287
  32   2.0000      -0.310364        -8.4454
  33   0.0000       0.028119         0.7652
  34   0.0000       0.031125         0.8470
  35   0.0000       0.034148         0.9292
  36   0.0000       0.042717         1.1624
  37   0.0000       0.044751         1.2177

MULLIKEN ATOMIC CHARGES
-----------------------
   0 C :   -0.594959
   1 C :   -0.555693
   2 C :   -0.336468
   3 C :   -0.456989
   4 C :   -0.892630
   5 C :    1.060450
   6 C :   -1.025259
   7 C :   -0.267883
   8 O :   -0.717165
   9 H :    0.466064
  10 H :    0.360996
  11 H :    0.392072
  12 H :    0.540314
  13 H :    0.563919
  14 H :    0.314576
  15 H :    0.272420
  16 H :    0.272420
  17 H :    0.301907
  18 H :    0.301907
Sum of atomic charges:   -0.0000000

LOEWDIN ATOMIC CHARGES
----------------------
   0 C :    0.184954
   1 C :    0.185221
   2 C :    0.183036
   3 C :    0.206404
   4 C :    0.207706
   5 C :   -0.380607
   6 C :    0.586841
   7 C :    0.013274
   8 O :    0.591588
   9 H :   -0.193678
  10 H :   -0.183298
  11 H :   -0.183319
  12 H :   -0.209064
  13 H :   -0.184362
  14 H :   -0.173837
  15 H :   -0.171479
  16 H :   -0.171479
  17 H :   -0.153951
  18 H :   -0.153951

  Mayer bond orders larger than 0.100000
B(  0-C ,  1-C ) :   1.1770 B(  0-C ,  2-C ) :   1.1028 B(  0-C ,  3-C ) :   0.2016
B(  0-C ,  4-C ) :   0.3245 B(  0-C ,  9-H ) :   0.7808 B(  0-C , 11-H ) :  -0.1039
B(  1-C ,  2-C ) :  -0.1381 B(  1-C ,  3-C ) :   1.0248 B(  1-C ,  5-C ) :  -0.1909
B(  1-C , 10-H ) :   0.9614 B(  2-C ,  4-C ) :   1.1629 B(  2-C ,  5-C ) :  -0.2276
B(  2-C , 11-H ) :   0.9163 B(  3-C ,  4-C ) :   0.4708 B(  3-C ,  5-C ) :   0.8801
B(  3-C ,  8-O ) :  -0.3593 B(  3-C , 12-H ) :   0.6473 B(  4-C ,  5-C ) :   0.6603
B(  4-C , 12-H ) :  -0.1259 B(  4-C , 13-H ) :   0.5592 B(  5-C ,  8-O ) :   0.6732
B(  6-C ,  7-C ) :   0.8509 B(  6-C , 14-H ) :   0.9350 B(  6-C , 15-H ) :   0.9780
B(  6-C , 16-H ) :   0.9780 B(  7-C ,  8-O ) :   0.9752 B(  7-C , 17-H ) :   0.9096
B(  7-C , 18-H ) :   0.9096 B(  8-O , 13-H ) :  -0.1155

MP2 TOTAL ENERGY:     -385.314201353 Eh
FINAL SINGLE POINT ENERGY      -385.314201353471

DIPOLE MOMENT
-------------
                                X             Y             Z
Electronic contribution:      5.69198       2.95590      -0.00000
Nuclear contribution   :     -5.89236      -3.46627       0.00000
                        -----------------------------------------
Total Dipole Moment    :     -0.20038      -0.51036      -0.00000
                        -----------------------------------------
Magnitude (a.u.)       :      0.54829
Magnitude (Debye)      :      1.39364

Rotational constants in cm-1:     0.163524     0.030655     0.026067
Rotational constants in MHz :  4902.334029   919.011793   781.482870

                             ****ORCA TERMINATED NORMALLY****
TOTAL RUN TIME: 0 days 0 hours 9 minutes 47 seconds 803 msec
