                         Program Version 5.0.3 -  RELEASE  -
|  1> !ri-mp2 aug-cc-pvtz aug-cc-pvtz/c tightscf
|  2> %pal nprocs 16 end
|  3>
|  4> * xyz 0 1
|  5> C      0.459938    0.519040    0.021772
|  6> O     -0.510152   -0.525067   -0.027869
|  7> O     -1.815721    0.108175   -0.095134
|  8> C      1.818413   -0.154922    0.004015
|  9> H      0.327982    1.173442   -0.843321
| 10> H      0.318113    1.110577    0.931373
| 11> H     -2.200256   -0.182756    0.742877
| 12> H      1.942232   -0.811711    0.864757
| 13> H      2.600069    0.604443    0.037023
| 14> H      1.948740   -0.743562   -0.903410
| 15> *
| 16>
| 17>                          ****END OF INPUT****

CARTESIAN COORDINATES (ANGSTROEM)
---------------------------------
  C      0.459938    0.519040    0.021772
  O     -0.510152   -0.525067   -0.027869
  O     -1.815721    0.108175   -0.095134
  C      1.818413   -0.154922    0.004015
  H      0.327982    1.173442   -0.843321
  H      0.318113    1.110577    0.931373
  H     -2.200256   -0.182756    0.742877
  H      1.942232   -0.811711    0.864757
  H      2.600069    0.604443    0.037023
  H      1.948740   -0.743562   -0.903410

 Total Charge           Charge          ....    0
 Multiplicity           Mult            ....    1
 Number of Electrons    NEL             ....   34
 Basis Dimension        Dim             ....  322

ORBITAL ENERGIES
----------------

  NO   OCC          E(Eh)            E(eV)
   0   2.0000     -20.621181      -561.1309
   1   2.0000     -20.620894      -561.1230
   2   2.0000     -11.282265      -307.0060
   3   2.0000     -11.223780      -305.4146
   4   2.0000      -1.468143       -39.9502
   5   2.0000      -1.227279       -33.3959
   6   2.0000      -1.008074       -27.4311
   7   2.0000      -0.844415       -22.9777
   8   2.0000      -0.719617       -19.5818
   9   2.0000      -0.663498       -18.0547
  10   2.0000      -0.646367       -17.5885
  11   2.0000      -0.605720       -16.4825
  12   2.0000      -0.544594       -14.8192
  13   2.0000      -0.529584       -14.4107
  14   2.0000      -0.507018       -13.7967
  15   2.0000      -0.488632       -13.2963
  16   2.0000      -0.446843       -12.1592
  17   0.0000       0.029622         0.8060
  18   0.0000       0.037201         1.0123
  19   0.0000       0.042394         1.1536
  20   0.0000       0.044701         1.2164
  21   0.0000       0.060617         1.6495

MULLIKEN ATOMIC CHARGES
-----------------------
   0 C :   -0.077578
   1 O :   -0.406587
   2 O :   -0.336454
   3 C :   -0.930062
   4 H :    0.310526
   5 H :    0.288070
   6 H :    0.241578
   7 H :    0.295172
   8 H :    0.317089
   9 H :    0.298245
Sum of atomic charges:   -0.0000000

LOEWDIN ATOMIC CHARGES
----------------------
   0 C :   -0.044867
   1 O :    0.338904
   2 O :    0.573076
   3 C :    0.562470
   4 H :   -0.172105
   5 H :   -0.170859
   6 H :   -0.554507
   7 H :   -0.177730
   8 H :   -0.177396
   9 H :   -0.176986

  Mayer bond orders larger than 0.100000
B(  0-C ,  1-O ) :   0.7504 B(  0-C ,  3-C ) :   0.9026 B(  0-C ,  4-H ) :   0.9137
B(  0-C ,  5-H ) :   0.9202 B(  1-O ,  2-O ) :   0.8409 B(  2-O ,  6-H ) :   0.9690
B(  3-C ,  7-H ) :   0.9209 B(  3-C ,  8-H ) :   0.9215 B(  3-C ,  9-H ) :   0.9188

MP2 TOTAL ENERGY:     -229.789873488 Eh
FINAL SINGLE POINT ENERGY      -229.789873488367

DIPOLE MOMENT
-------------
                                X             Y             Z
Electronic contribution:     -4.69417      -0.89254      -0.27209
Nuclear contribution   :      5.04126       1.17678       0.85117
                        -----------------------------------------
Total Dipole Moment    :      0.34708       0.28425       0.57908
                        -----------------------------------------
Magnitude (a.u.)       :      0.73253
Magnitude (Debye)      :      1.86194

Rotational constants in cm-1:     1.039771     0.137955     0.128983
Rotational constants in MHz : 31171.537272  4135.772965  3866.811100

                             ****ORCA TERMINATED NORMALLY****
TOTAL RUN TIME: 0 days 0 hours 1 minutes 0 seconds 568 msec
