                         Program Version 5.0.3 -  RELEASE  -
|  1> !ri-mp2 aug-cc-pvtz aug-cc-pvtz/c tightscf
|  2> %pal nprocs 16 end
|  3>
|  4> * xyz 0 1
|  5> C      0.000000    0.452712    0.000000
|  6> C      0.928558   -0.489343    0.000000
|  7> C      2.397943   -0.202796    0.000000
|  8> Cl    -1.714743    0.109952    0.000000
|  9> H      0.209814    1.512034    0.000000
| 10> H      0.622206   -1.529082    0.000000
| 11> H      2.601687    0.867563    0.000000
| 12> H      2.878957   -0.641565    0.877384
| 13> H      2.878957   -0.641565   -0.877384
| 14> *
| 15>
| 16>                          ****END OF INPUT****

CARTESIAN COORDINATES (ANGSTROEM)
---------------------------------
  C      0.000000    0.452712    0.000000
  C      0.928558   -0.489343    0.000000
  C      2.397943   -0.202796    0.000000
  Cl    -1.714743    0.109952    0.000000
  H      0.209814    1.512034    0.000000
  H      0.622206   -1.529082    0.000000
  H      2.601687    0.867563    0.000000
  H      2.878957   -0.641565    0.877384
  H      2.878957   -0.641565   -0.877384

 Total Charge           Charge          ....    0
 Multiplicity           Mult            ....    1
 Number of Electrons    NEL             ....   40
 Basis Dimension        Dim             ....  303

ORBITAL ENERGIES
----------------

  NO   OCC          E(Eh)            E(eV)
   0   2.0000    -104.835490     -2852.7187
   1   2.0000     -11.290168      -307.2211
   2   2.0000     -11.251384      -306.1657
   3   2.0000     -11.237335      -305.7834
   4   2.0000     -10.559288      -287.3328
   5   2.0000      -8.026184      -218.4036
   6   2.0000      -8.024332      -218.3532
   7   2.0000      -8.024327      -218.3530
   8   2.0000      -1.150782       -31.3144
   9   2.0000      -1.056128       -28.7387
  10   2.0000      -0.926541       -25.2125
  11   2.0000      -0.776293       -21.1240
  12   2.0000      -0.635738       -17.2993
  13   2.0000      -0.622134       -16.9291
  14   2.0000      -0.584078       -15.8936
  15   2.0000      -0.539038       -14.6680
  16   2.0000      -0.513413       -13.9707
  17   2.0000      -0.498842       -13.5742
  18   2.0000      -0.448213       -12.1965
  19   2.0000      -0.358046        -9.7429
  20   0.0000       0.028736         0.7819
  21   0.0000       0.038012         1.0343
  22   0.0000       0.043758         1.1907
  23   0.0000       0.045045         1.2257
  24   0.0000       0.061129         1.6634

MULLIKEN ATOMIC CHARGES
-----------------------
   0 C :   -0.468294
   1 C :   -0.270821
   2 C :   -0.739473
   3 Cl:   -0.297831
   4 H :    0.439844
   5 H :    0.482793
   6 H :    0.278441
   7 H :    0.287670
   8 H :    0.287670
Sum of atomic charges:    0.0000000

LOEWDIN ATOMIC CHARGES
----------------------
   0 C :   -0.444131
   1 C :    0.074230
   2 C :    0.538497
   3 Cl:    0.874704
   4 H :   -0.292775
   5 H :   -0.211498
   6 H :   -0.185111
   7 H :   -0.176959
   8 H :   -0.176959

  Mayer bond orders larger than 0.100000
B(  0-C ,  1-C ) :   1.6131 B(  0-C ,  3-Cl) :   0.8718 B(  0-C ,  4-H ) :   0.7492
B(  1-C ,  2-C ) :   0.8347 B(  1-C ,  5-H ) :   0.7595 B(  2-C ,  6-H ) :   0.9463
B(  2-C ,  7-H ) :   0.9572 B(  2-C ,  8-H ) :   0.9572

MP2 TOTAL ENERGY:     -576.756465183 Eh
FINAL SINGLE POINT ENERGY      -576.756465183380

DIPOLE MOMENT
-------------
                                X             Y             Z
Electronic contribution:    -10.53688       0.58867       0.00000
Nuclear contribution   :     11.43132      -0.57910       0.00000
                        -----------------------------------------
Total Dipole Moment    :      0.89444       0.00956       0.00000
                        -----------------------------------------
Magnitude (a.u.)       :      0.89449
Magnitude (Debye)      :      2.27361

Rotational constants in cm-1:     1.403118     0.080475     0.077191
Rotational constants in MHz : 42064.424391  2412.580115  2314.142782

                             ****ORCA TERMINATED NORMALLY****
TOTAL RUN TIME: 0 days 0 hours 1 minutes 12 seconds 261 msec
