                         Program Version 5.0.3 -  RELEASE  -
|  1> !ri-mp2 aug-cc-pvtz aug-cc-pvtz/c tightscf
|  2> %pal nprocs 16 end
|  3> %maxcore 3800
|  4>
|  5> * xyz 0 1
|  6> C     -0.035271    2.693968    0.165692
|  7> C      0.035271   -2.693968    0.165692
|  8> C     -0.708324    3.282365    1.375353
|  9> C      0.708324   -3.282365    1.375353
| 10> C      0.235431    0.714142   -1.108083
| 11> C     -0.235431   -0.714142   -1.108083
| 12> O      0.708324    3.280261   -0.579645
| 13> O     -0.708324   -3.280261   -0.579645
| 14> O     -0.367648    1.393029    0.009128
| 15> O      0.367648   -1.393029    0.009128
| 16> H     -0.362315    2.770947    2.273853
| 17> H     -1.786580    3.138698    1.314018
| 18> H     -0.474667    4.340124    1.441134
| 19> H      0.362315   -2.770947    2.273853
| 20> H      1.786580   -3.138698    1.314018
| 21> H      0.474667   -4.340124    1.441134
| 22> H     -0.066747    1.203955   -2.034470
| 23> H      1.320178    0.776496   -1.028180
| 24> H      0.066747   -1.203955   -2.034470
| 25> H     -1.320178   -0.776496   -1.028180
| 26> *
| 27>
| 28>                          ****END OF INPUT****

CARTESIAN COORDINATES (ANGSTROEM)
---------------------------------
  C     -0.035271    2.693968    0.165692
  C      0.035271   -2.693968    0.165692
  C     -0.708324    3.282365    1.375353
  C      0.708324   -3.282365    1.375353
  C      0.235431    0.714142   -1.108083
  C     -0.235431   -0.714142   -1.108083
  O      0.708324    3.280261   -0.579645
  O     -0.708324   -3.280261   -0.579645
  O     -0.367648    1.393029    0.009128
  O      0.367648   -1.393029    0.009128
  H     -0.362315    2.770947    2.273853
  H     -1.786580    3.138698    1.314018
  H     -0.474667    4.340124    1.441134
  H      0.362315   -2.770947    2.273853
  H      1.786580   -3.138698    1.314018
  H      0.474667   -4.340124    1.441134
  H     -0.066747    1.203955   -2.034470
  H      1.320178    0.776496   -1.028180
  H      0.066747   -1.203955   -2.034470
  H     -1.320178   -0.776496   -1.028180

 Total Charge           Charge          ....    0
 Multiplicity           Mult            ....    1
 Number of Electrons    NEL             ....   78
 Basis Dimension        Dim             ....  690

ORBITAL ENERGIES
----------------

  NO   OCC          E(Eh)            E(eV)
   0   2.0000     -20.607901      -560.7695
   1   2.0000     -20.607899      -560.7694
   2   2.0000     -20.549121      -559.1700
   3   2.0000     -20.549121      -559.1700
   4   2.0000     -11.385309      -309.8100
   5   2.0000     -11.385309      -309.8100
   6   2.0000     -11.300443      -307.5007
   7   2.0000     -11.299751      -307.4819
   8   2.0000     -11.244229      -305.9710
   9   2.0000     -11.244229      -305.9710
  10   2.0000      -1.468603       -39.9627
  11   2.0000      -1.461189       -39.7610
  12   2.0000      -1.368367       -37.2352
  13   2.0000      -1.360700       -37.0265
  14   2.0000      -1.074811       -29.2471
  15   2.0000      -1.028890       -27.9975
  16   2.0000      -0.997788       -27.1512
  17   2.0000      -0.882106       -24.0033
  18   2.0000      -0.799504       -21.7556
  19   2.0000      -0.784882       -21.3577
  20   2.0000      -0.705580       -19.1998
  21   2.0000      -0.702208       -19.1081
  22   2.0000      -0.689538       -18.7633
  23   2.0000      -0.678738       -18.4694
  24   2.0000      -0.671203       -18.2644
  25   2.0000      -0.656611       -17.8673
  26   2.0000      -0.605634       -16.4801
  27   2.0000      -0.595480       -16.2038
  28   2.0000      -0.590878       -16.0786
  29   2.0000      -0.577307       -15.7093
  30   2.0000      -0.561070       -15.2675
  31   2.0000      -0.544766       -14.8238
  32   2.0000      -0.531029       -14.4500
  33   2.0000      -0.526941       -14.3388
  34   2.0000      -0.515701       -14.0329
  35   2.0000      -0.472059       -12.8454
  36   2.0000      -0.466858       -12.7038
  37   2.0000      -0.453729       -12.3466
  38   2.0000      -0.453156       -12.3310
  39   0.0000       0.025321         0.6890
  40   0.0000       0.032413         0.8820
  41   0.0000       0.034884         0.9492
  42   0.0000       0.038550         1.0490
  43   0.0000       0.046083         1.2540

MULLIKEN ATOMIC CHARGES
-----------------------
   0 C :    0.303272
   1 C :    0.303272
   2 C :   -0.621207
   3 C :   -0.621207
   4 C :   -0.251786
   5 C :   -0.251786
   6 O :   -0.724432
   7 O :   -0.724432
   8 O :   -0.221909
   9 O :   -0.221909
  10 H :    0.270432
  11 H :    0.266426
  12 H :    0.359404
  13 H :    0.270432
  14 H :    0.266426
  15 H :    0.359404
  16 H :    0.301741
  17 H :    0.318060
  18 H :    0.301741
  19 H :    0.318060
Sum of atomic charges:   -0.0000000

LOEWDIN ATOMIC CHARGES
----------------------
   0 C :   -0.824960
   1 C :   -0.824960
   2 C :    0.585491
   3 C :    0.585491
   4 C :    0.049007
   5 C :    0.049007
   6 O :    0.453708
   7 O :    0.453708
   8 O :    0.580313
   9 O :    0.580313
  10 H :   -0.174440
  11 H :   -0.176562
  12 H :   -0.185101
  13 H :   -0.174440
  14 H :   -0.176562
  15 H :   -0.185101
  16 H :   -0.152355
  17 H :   -0.155102
  18 H :   -0.152355
  19 H :   -0.155102

  Mayer bond orders larger than 0.100000
B(  0-C ,  2-C ) :   0.6724 B(  0-C ,  6-O ) :   1.5721 B(  0-C ,  8-O ) :   1.0018
B(  1-C ,  3-C ) :   0.6724 B(  1-C ,  7-O ) :   1.5721 B(  1-C ,  9-O ) :   1.0018
B(  2-C , 10-H ) :   0.9588 B(  2-C , 11-H ) :   0.9704 B(  2-C , 12-H ) :   0.8942
B(  3-C , 13-H ) :   0.9588 B(  3-C , 14-H ) :   0.9704 B(  3-C , 15-H ) :   0.8942
B(  4-C ,  5-C ) :   0.8947 B(  4-C ,  8-O ) :   0.8178 B(  4-C , 16-H ) :   0.9265
B(  4-C , 17-H ) :   0.9299 B(  5-C ,  9-O ) :   0.8178 B(  5-C , 18-H ) :   0.9265
B(  5-C , 19-H ) :   0.9299

MP2 TOTAL ENERGY:     -534.679949062 Eh
FINAL SINGLE POINT ENERGY      -534.679949062101

DIPOLE MOMENT
-------------
                                X             Y             Z
Electronic contribution:      0.00000       0.00000      -3.10461
Nuclear contribution   :     -0.00000      -0.00000       3.92404
                        -----------------------------------------
Total Dipole Moment    :      0.00000       0.00000       0.81943
                        -----------------------------------------
Magnitude (a.u.)       :      0.81943
Magnitude (Debye)      :      2.08283

Rotational constants in cm-1:     0.105939     0.017313     0.016144
Rotational constants in MHz :  3175.970776   519.020633   483.980212

                             ****ORCA TERMINATED NORMALLY****
TOTAL RUN TIME: 0 days 0 hours 8 minutes 55 seconds 302 msec
