                         Program Version 5.0.3 -  RELEASE  -
|  1> !ri-mp2 aug-cc-pvtz aug-cc-pvtz/c tightscf
|  2> %pal nprocs 16 end
|  3>
|  4> * xyz 0 1
|  5> N     -1.111550   -0.313232    0.000000
|  6> O      0.000000    0.559326    0.000000
|  7> O     -2.159770    0.267328    0.000000
|  8> O     -0.888584   -1.499078    0.000000
|  9> C      2.325207    0.990121    0.000000
| 10> C      1.286493   -0.110502    0.000000
| 11> H      3.318360    0.540496    0.000000
| 12> H      2.232623    1.618133    0.884918
| 13> H      2.232623    1.618133   -0.884918
| 14> H      1.356935   -0.741228    0.885089
| 15> H      1.356935   -0.741228   -0.885089
| 16> *
| 17>
| 18>                          ****END OF INPUT****

CARTESIAN COORDINATES (ANGSTROEM)
---------------------------------
  N     -1.111550   -0.313232    0.000000
  O      0.000000    0.559326    0.000000
  O     -2.159770    0.267328    0.000000
  O     -0.888584   -1.499078    0.000000
  C      2.325207    0.990121    0.000000
  C      1.286493   -0.110502    0.000000
  H      3.318360    0.540496    0.000000
  H      2.232623    1.618133    0.884918
  H      2.232623    1.618133   -0.884918
  H      1.356935   -0.741228    0.885089
  H      1.356935   -0.741228   -0.885089

 Total Charge           Charge          ....    0
 Multiplicity           Mult            ....    1
 Number of Electrons    NEL             ....   48
 Basis Dimension        Dim             ....  391

ORBITAL ENERGIES
----------------

  NO   OCC          E(Eh)            E(eV)
   0   2.0000     -20.666495      -562.3639
   1   2.0000     -20.629339      -561.3529
   2   2.0000     -20.627896      -561.3136
   3   2.0000     -15.921284      -433.2402
   4   2.0000     -11.316140      -307.9278
   5   2.0000     -11.245440      -306.0040
   6   2.0000      -1.669647       -45.4334
   7   2.0000      -1.448970       -39.4285
   8   2.0000      -1.425584       -38.7921
   9   2.0000      -1.070539       -29.1309
  10   2.0000      -0.932551       -25.3760
  11   2.0000      -0.860205       -23.4074
  12   2.0000      -0.808052       -21.9882
  13   2.0000      -0.783004       -21.3066
  14   2.0000      -0.762528       -20.7494
  15   2.0000      -0.673936       -18.3387
  16   2.0000      -0.633913       -17.2497
  17   2.0000      -0.591066       -16.0837
  18   2.0000      -0.564529       -15.3616
  19   2.0000      -0.551259       -15.0005
  20   2.0000      -0.519959       -14.1488
  21   2.0000      -0.512881       -13.9562
  22   2.0000      -0.507014       -13.7965
  23   2.0000      -0.480702       -13.0806
  24   0.0000       0.024592         0.6692
  25   0.0000       0.037518         1.0209
  26   0.0000       0.037886         1.0309
  27   0.0000       0.046500         1.2653
  28   0.0000       0.061963         1.6861

MULLIKEN ATOMIC CHARGES
-----------------------
   0 N :    1.005161
   1 O :   -0.377889
   2 O :   -0.604283
   3 O :   -0.530378
   4 C :   -0.948909
   5 C :   -0.092801
   6 H :    0.322321
   7 H :    0.292107
   8 H :    0.292107
   9 H :    0.321282
  10 H :    0.321282
Sum of atomic charges:   -0.0000000

LOEWDIN ATOMIC CHARGES
----------------------
   0 N :   -0.974488
   1 O :    0.502871
   2 O :    0.366852
   3 O :    0.380729
   4 C :    0.580892
   5 C :    0.002137
   6 H :   -0.170299
   7 H :   -0.171736
   8 H :   -0.171736
   9 H :   -0.172611
  10 H :   -0.172611

  Mayer bond orders larger than 0.100000
B(  0-N ,  1-O ) :   0.9619 B(  0-N ,  2-O ) :   1.2798 B(  0-N ,  3-O ) :   1.2662
B(  1-O ,  5-C ) :   0.6772 B(  2-O ,  3-O ) :   0.1070 B(  4-C ,  5-C ) :   0.8716
B(  4-C ,  6-H ) :   0.9230 B(  4-C ,  7-H ) :   0.9299 B(  4-C ,  8-H ) :   0.9299
B(  5-C ,  9-H ) :   0.8964 B(  5-C , 10-H ) :   0.8964

MP2 TOTAL ENERGY:     -358.954796955 Eh
FINAL SINGLE POINT ENERGY      -358.954796955461

DIPOLE MOMENT
-------------
                                X             Y             Z
Electronic contribution:     -8.81165      -2.13423       0.00000
Nuclear contribution   :     10.33757       2.25885       0.00000
                        -----------------------------------------
Total Dipole Moment    :      1.52592       0.12462       0.00000
                        -----------------------------------------
Magnitude (a.u.)       :      1.53100
Magnitude (Debye)      :      3.89149

Rotational constants in cm-1:     0.335188     0.072943     0.061282
Rotational constants in MHz : 10048.676514  2186.767211  1837.174372

                             ****ORCA TERMINATED NORMALLY****
TOTAL RUN TIME: 0 days 0 hours 2 minutes 9 seconds 707 msec
