                         Program Version 5.0.3 -  RELEASE  -
|  1> !ri-mp2 aug-cc-pvtz aug-cc-pvtz/c tightscf
|  2> %pal nprocs 16 end
|  3>
|  4> * xyz 0 1
|  5> C      1.335737    0.637655    0.000000
|  6> C     -2.183624   -0.287568    0.000000
|  7> C     -0.700940   -0.578325    0.000000
|  8> O      2.002533   -0.361066    0.000000
|  9> O      0.000000    0.693290    0.000000
| 10> H      1.739533    1.657904    0.000000
| 11> H     -2.739422   -1.225778    0.000000
| 12> H     -2.471547    0.280474    0.884202
| 13> H     -2.471547    0.280474   -0.884202
| 14> H     -0.392160   -1.140715   -0.880841
| 15> H     -0.392160   -1.140715    0.880841
| 16> *
| 17>
| 18>                          ****END OF INPUT****

CARTESIAN COORDINATES (ANGSTROEM)
---------------------------------
  C      1.335737    0.637655    0.000000
  C     -2.183624   -0.287568    0.000000
  C     -0.700940   -0.578325    0.000000
  O      2.002533   -0.361066    0.000000
  O      0.000000    0.693290    0.000000
  H      1.739533    1.657904    0.000000
  H     -2.739422   -1.225778    0.000000
  H     -2.471547    0.280474    0.884202
  H     -2.471547    0.280474   -0.884202
  H     -0.392160   -1.140715   -0.880841
  H     -0.392160   -1.140715    0.880841

 Total Charge           Charge          ....    0
 Multiplicity           Mult            ....    1
 Number of Electrons    NEL             ....   40
 Basis Dimension        Dim             ....  368

ORBITAL ENERGIES
----------------

  NO   OCC          E(Eh)            E(eV)
   0   2.0000     -20.610338      -560.8358
   1   2.0000     -20.554822      -559.3251
   2   2.0000     -11.381970      -309.7191
   3   2.0000     -11.295869      -307.3762
   4   2.0000     -11.229850      -305.5798
   5   2.0000      -1.464291       -39.8454
   6   2.0000      -1.368160       -37.2295
   7   2.0000      -1.049962       -28.5709
   8   2.0000      -0.898230       -24.4421
   9   2.0000      -0.807495       -21.9731
  10   2.0000      -0.730487       -19.8776
  11   2.0000      -0.685644       -18.6573
  12   2.0000      -0.679631       -18.4937
  13   2.0000      -0.589695       -16.0464
  14   2.0000      -0.577826       -15.7234
  15   2.0000      -0.555988       -15.1292
  16   2.0000      -0.519191       -14.1279
  17   2.0000      -0.517224       -14.0744
  18   2.0000      -0.465157       -12.6576
  19   2.0000      -0.460888       -12.5414
  20   0.0000       0.028471         0.7747
  21   0.0000       0.035956         0.9784
  22   0.0000       0.041004         1.1158
  23   0.0000       0.042499         1.1565
  24   0.0000       0.057070         1.5530

MULLIKEN ATOMIC CHARGES
-----------------------
   0 C :   -0.138385
   1 C :   -0.929854
   2 C :   -0.091054
   3 O :   -0.616535
   4 O :   -0.352011
   5 H :    0.625030
   6 H :    0.312489
   7 H :    0.286821
   8 H :    0.286821
   9 H :    0.308339
  10 H :    0.308339
Sum of atomic charges:    0.0000000

LOEWDIN ATOMIC CHARGES
----------------------
   0 C :   -0.523390
   1 C :    0.579515
   2 C :    0.031114
   3 O :    0.412653
   4 O :    0.546429
   5 H :   -0.203365
   6 H :   -0.173331
   7 H :   -0.173208
   8 H :   -0.173208
   9 H :   -0.161604
  10 H :   -0.161604

  Mayer bond orders larger than 0.100000
B(  0-C ,  3-O ) :   1.8448 B(  0-C ,  4-O ) :   1.2500 B(  0-C ,  5-H ) :   0.5441
B(  1-C ,  2-C ) :   0.8641 B(  1-C ,  6-H ) :   0.9392 B(  1-C ,  7-H ) :   0.9340
B(  1-C ,  8-H ) :   0.9340 B(  2-C ,  4-O ) :   0.7098 B(  2-C ,  9-H ) :   0.9088
B(  2-C , 10-H ) :   0.9088

MP2 TOTAL ENERGY:     -267.923886241 Eh
FINAL SINGLE POINT ENERGY      -267.923886240740

DIPOLE MOMENT
-------------
                                X             Y             Z
Electronic contribution:      5.92732       1.60280       0.00000
Nuclear contribution   :     -6.79009      -1.30120       0.00000
                        -----------------------------------------
Total Dipole Moment    :     -0.86277       0.30160       0.00000
                        -----------------------------------------
Magnitude (a.u.)       :      0.91397
Magnitude (Debye)      :      2.32312

Rotational constants in cm-1:     0.603343     0.095534     0.085089
Rotational constants in MHz : 18087.774761  2864.032061  2550.912870

                             ****ORCA TERMINATED NORMALLY****
TOTAL RUN TIME: 0 days 0 hours 1 minutes 39 seconds 271 msec
