                         Program Version 5.0.3 -  RELEASE  -
|  1> !ri-mp2 aug-cc-pvtz aug-cc-pvtz/c tightscf
|  2> %pal nprocs 16 end
|  3>
|  4> * xyz 0 1
|  5> O      0.000001    0.762059   -0.000003
|  6> C      1.132678    0.087612   -0.000010
|  7> C     -1.132682    0.087622    0.000031
|  8> C      2.202434   -0.441297    0.000011
|  9> C     -2.202430   -0.441306   -0.000042
| 10> H      3.145026   -0.926136   -0.000026
| 11> H     -3.145031   -0.926124    0.000107
| 12> *
| 13>
| 14>                          ****END OF INPUT****

CARTESIAN COORDINATES (ANGSTROEM)
---------------------------------
  O      0.000001    0.762059   -0.000003
  C      1.132678    0.087612   -0.000010
  C     -1.132682    0.087622    0.000031
  C      2.202434   -0.441297    0.000011
  C     -2.202430   -0.441306   -0.000042
  H      3.145026   -0.926136   -0.000026
  H     -3.145031   -0.926124    0.000107

 Total Charge           Charge          ....    0
 Multiplicity           Mult            ....    1
 Number of Electrons    NEL             ....   34
 Basis Dimension        Dim             ....  276

ORBITAL ENERGIES
----------------

  NO   OCC          E(Eh)            E(eV)
   0   2.0000     -20.692916      -563.0829
   1   2.0000     -11.319141      -308.0095
   2   2.0000     -11.319125      -308.0090
   3   2.0000     -11.246437      -306.0311
   4   2.0000     -11.246437      -306.0311
   5   2.0000      -1.518026       -41.3076
   6   2.0000      -1.072321       -29.1793
   7   2.0000      -1.032749       -28.1025
   8   2.0000      -0.893977       -24.3263
   9   2.0000      -0.744495       -20.2587
  10   2.0000      -0.719815       -19.5872
  11   2.0000      -0.712502       -19.3882
  12   2.0000      -0.696928       -18.9644
  13   2.0000      -0.439269       -11.9531
  14   2.0000      -0.423146       -11.5144
  15   2.0000      -0.419097       -11.4042
  16   2.0000      -0.381131       -10.3711
  17   0.0000       0.027590         0.7508
  18   0.0000       0.029539         0.8038
  19   0.0000       0.063200         1.7198
  20   0.0000       0.079484         2.1629
  21   0.0000       0.084041         2.2869

MULLIKEN ATOMIC CHARGES
-----------------------
   0 O :   -0.169653
   1 C :    0.834486
   2 C :    0.834431
   3 C :   -1.310460
   4 C :   -1.310407
   5 H :    0.560798
   6 H :    0.560805
Sum of atomic charges:    0.0000000

LOEWDIN ATOMIC CHARGES
----------------------
   0 O :    0.450980
   1 C :   -0.256384
   2 C :   -0.256383
   3 C :    0.339202
   4 C :    0.339203
   5 H :   -0.308308
   6 H :   -0.308310

  Mayer bond orders larger than 0.100000
B(  0-O ,  1-C ) :   0.9564 B(  0-O ,  2-C ) :   0.9564 B(  0-O ,  3-C ) :  -0.1224
B(  0-O ,  4-C ) :  -0.1224 B(  1-C ,  3-C ) :   1.5328 B(  2-C ,  4-C ) :   1.5328
B(  3-C ,  5-H ) :   0.6216 B(  4-C ,  6-H ) :   0.6216

MP2 TOTAL ENERGY:     -228.224108982 Eh
FINAL SINGLE POINT ENERGY      -228.224108982310

DIPOLE MOMENT
-------------
                                X             Y             Z
Electronic contribution:      0.00000       1.43189      -0.00002
Nuclear contribution   :     -0.00000      -1.77883       0.00008
                        -----------------------------------------
Total Dipole Moment    :     -0.00000      -0.34695       0.00006
                        -----------------------------------------
Magnitude (a.u.)       :      0.34695
Magnitude (Debye)      :      0.88187

Rotational constants in cm-1:     1.064762     0.100773     0.092060
Rotational constants in MHz : 31920.770987  3021.092094  2759.886864

                             ****ORCA TERMINATED NORMALLY****
TOTAL RUN TIME: 0 days 0 hours 0 minutes 49 seconds 640 msec
