                         Program Version 5.0.3 -  RELEASE  -
|  1> !ri-mp2 aug-cc-pvtz aug-cc-pvtz/c tightscf
|  2> %pal nprocs 16 end
|  3>
|  4> * xyz 0 1
|  5> H     -0.081998    3.962781    0.000000
|  6> H      1.401922    2.867737    0.000000
|  7> C      0.322716    2.960628    0.000000
|  8> H     -1.546765    2.025344    0.000000
|  9> C     -0.469613    1.886059    0.000000
| 10> H      1.076131    0.373269    0.000000
| 11> C      0.000000    0.512043    0.000000
| 12> H     -1.883157   -0.373116    0.000000
| 13> C     -0.810602   -0.551298    0.000000
| 14> H     -0.872163   -2.479687    0.867089
| 15> H     -0.872163   -2.479687   -0.867089
| 16> C     -0.407996   -1.995454    0.000000
| 17> H      1.273015   -3.356046    0.000000
| 18> H      1.577427   -1.862279   -0.881724
| 19> H      1.577427   -1.862279    0.881724
| 20> C      1.090549   -2.281317    0.000000
| 21> *
| 22>
| 23>                          ****END OF INPUT****

CARTESIAN COORDINATES (ANGSTROEM)
---------------------------------
  H     -0.081998    3.962781    0.000000
  H      1.401922    2.867737    0.000000
  C      0.322716    2.960628    0.000000
  H     -1.546765    2.025344    0.000000
  C     -0.469613    1.886059    0.000000
  H      1.076131    0.373269    0.000000
  C      0.000000    0.512043    0.000000
  H     -1.883157   -0.373116    0.000000
  C     -0.810602   -0.551298    0.000000
  H     -0.872163   -2.479687    0.867089
  H     -0.872163   -2.479687   -0.867089
  C     -0.407996   -1.995454    0.000000
  H      1.273015   -3.356046    0.000000
  H      1.577427   -1.862279   -0.881724
  H      1.577427   -1.862279    0.881724
  C      1.090549   -2.281317    0.000000

 Total Charge           Charge          ....    0
 Multiplicity           Mult            ....    1
 Number of Electrons    NEL             ....   46
 Basis Dimension        Dim             ....  506

ORBITAL ENERGIES
----------------

  NO   OCC          E(Eh)            E(eV)
   0   2.0000     -11.233950      -305.6913
   1   2.0000     -11.233373      -305.6756
   2   2.0000     -11.230050      -305.5852
   3   2.0000     -11.225422      -305.4593
   4   2.0000     -11.220373      -305.3219
   5   2.0000     -11.215873      -305.1994
   6   2.0000      -1.102757       -30.0075
   7   2.0000      -1.048589       -28.5336
   8   2.0000      -0.973502       -26.4903
   9   2.0000      -0.877453       -23.8767
  10   2.0000      -0.783370       -21.3166
  11   2.0000      -0.741584       -20.1795
  12   2.0000      -0.642457       -17.4821
  13   2.0000      -0.627036       -17.0625
  14   2.0000      -0.613576       -16.6962
  15   2.0000      -0.567225       -15.4350
  16   2.0000      -0.561928       -15.2909
  17   2.0000      -0.507626       -13.8132
  18   2.0000      -0.501903       -13.6575
  19   2.0000      -0.493495       -13.4287
  20   2.0000      -0.478673       -13.0254
  21   2.0000      -0.433727       -11.8023
  22   2.0000      -0.311058        -8.4643
  23   0.0000       0.029481         0.8022
  24   0.0000       0.032613         0.8874
  25   0.0000       0.034493         0.9386
  26   0.0000       0.043868         1.1937
  27   0.0000       0.048612         1.3228

MULLIKEN ATOMIC CHARGES
-----------------------
   0 H :    0.437218
   1 H :    0.257975
   2 C :   -1.145431
   3 H :    0.264868
   4 C :   -0.150495
   5 H :    0.177029
   6 C :    0.327773
   7 H :    0.215188
   8 C :   -0.670735
   9 H :    0.274324
  10 H :    0.274324
  11 C :   -0.195652
  12 H :    0.255196
  13 H :    0.274813
  14 H :    0.274813
  15 C :   -0.871211
Sum of atomic charges:    0.0000000

LOEWDIN ATOMIC CHARGES
----------------------
   0 H :   -0.232020
   1 H :   -0.225753
   2 C :    0.520027
   3 H :   -0.196964
   4 C :    0.137329
   5 H :   -0.201499
   6 C :    0.171023
   7 H :   -0.181556
   8 C :    0.229500
   9 H :   -0.155493
  10 H :   -0.155493
  11 C :    0.239472
  12 H :   -0.171491
  13 H :   -0.170632
  14 H :   -0.170632
  15 C :    0.564181

  Mayer bond orders larger than 0.100000
B(  0-H ,  2-C ) :   0.7521 B(  1-H ,  2-C ) :   1.1684 B(  2-C ,  4-C ) :   1.2269
B(  2-C ,  6-C ) :  -0.1947 B(  2-C ,  8-C ) :   0.1710 B(  3-H ,  4-C ) :   1.1426
B(  4-C ,  6-C ) :   0.3410 B(  5-H ,  6-C ) :   1.2928 B(  6-C ,  8-C ) :   0.8439
B(  7-H ,  8-C ) :   1.1813 B(  8-C ,  9-H ) :  -0.1021 B(  8-C , 10-H ) :  -0.1021
B(  8-C , 11-C ) :   0.6259 B(  8-C , 15-C ) :   0.1187 B(  9-H , 11-C ) :   0.9691
B( 10-H , 11-C ) :   0.9691 B( 11-C , 15-C ) :   0.8587 B( 12-H , 15-C ) :   0.9994
B( 13-H , 15-C ) :   0.9443 B( 14-H , 15-C ) :   0.9443

MP2 TOTAL ENERGY:     -234.092646591 Eh
FINAL SINGLE POINT ENERGY      -234.092646590565

DIPOLE MOMENT
-------------
                                X             Y             Z
Electronic contribution:     -1.79739       3.04079      -0.00000
Nuclear contribution   :      1.73493      -3.34851       0.00000
                        -----------------------------------------
Total Dipole Moment    :     -0.06246      -0.30773      -0.00000
                        -----------------------------------------
Magnitude (a.u.)       :      0.31400
Magnitude (Debye)      :      0.79813

Rotational constants in cm-1:     0.356464     0.051311     0.045603
Rotational constants in MHz : 10686.529924  1538.267844  1367.134846

                             ****ORCA TERMINATED NORMALLY****
TOTAL RUN TIME: 0 days 0 hours 3 minutes 57 seconds 416 msec
