                         Program Version 5.0.3 -  RELEASE  -
|  1> !ri-mp2 aug-cc-pvtz aug-cc-pvtz/c tightscf
|  2> %pal nprocs 16 end
|  3>
|  4> * xyz 0 1
|  5> C    -0.332378     0.570025       0.000000
|  6> C     0.332378    -0.570025       0.000000
|  7> F     0.332378     1.740937       0.000000
|  8> F    -0.332378    -1.740937       0.000000
|  9> H    -1.407427     0.668528       0.000000
| 10> H     1.407427    -0.668528       0.000000
| 11> *
| 12>
| 13>                          ****END OF INPUT****

CARTESIAN COORDINATES (ANGSTROEM)
---------------------------------
  C     -0.332378    0.570025    0.000000
  C      0.332378   -0.570025    0.000000
  F      0.332378    1.740937    0.000000
  F     -0.332378   -1.740937    0.000000
  H     -1.407427    0.668528    0.000000
  H      1.407427   -0.668528    0.000000

 Total Charge           Charge          ....    0
 Multiplicity           Mult            ....    1
 Number of Electrons    NEL             ....   32
 Basis Dimension        Dim             ....  230

ORBITAL ENERGIES
----------------

  NO   OCC          E(Eh)            E(eV)
   0   2.0000     -26.324593      -716.3286
   1   2.0000     -26.324590      -716.3285
   2   2.0000     -11.336848      -308.4913
   3   2.0000     -11.335002      -308.4411
   4   2.0000      -1.640941       -44.6523
   5   2.0000      -1.636170       -44.5224
   6   2.0000      -1.067005       -29.0347
   7   2.0000      -0.863807       -23.5054
   8   2.0000      -0.769092       -20.9281
   9   2.0000      -0.763342       -20.7716
  10   2.0000      -0.714472       -19.4418
  11   2.0000      -0.694227       -18.8909
  12   2.0000      -0.691434       -18.8149
  13   2.0000      -0.638089       -17.3633
  14   2.0000      -0.573973       -15.6186
  15   2.0000      -0.392571       -10.6824
  16   0.0000       0.032284         0.8785
  17   0.0000       0.036982         1.0063
  18   0.0000       0.064912         1.7663
  19   0.0000       0.086184         2.3452
  20   0.0000       0.094200         2.5633

MULLIKEN ATOMIC CHARGES
-----------------------
   0 C :   -0.241901
   1 C :   -0.241901
   2 F :   -0.426765
   3 F :   -0.426765
   4 H :    0.668666
   5 H :    0.668666
Sum of atomic charges:    0.0000000

LOEWDIN ATOMIC CHARGES
----------------------
   0 C :   -0.213489
   1 C :   -0.213489
   2 F :    0.441103
   3 F :    0.441103
   4 H :   -0.227614
   5 H :   -0.227614

  Mayer bond orders larger than 0.100000
B(  0-C ,  1-C ) :   1.8994 B(  0-C ,  2-F ) :   0.9166 B(  0-C ,  4-H ) :   0.4840
B(  1-C ,  3-F ) :   0.9166 B(  1-C ,  5-H ) :   0.4840

MP2 TOTAL ENERGY:     -276.668597569 Eh
FINAL SINGLE POINT ENERGY      -276.668597569205

DIPOLE MOMENT
-------------
                                X             Y             Z
Electronic contribution:     -0.00000       0.00000      -0.00000
Nuclear contribution   :      0.00000       0.00000       0.00000
                        -----------------------------------------
Total Dipole Moment    :     -0.00000       0.00000      -0.00000
                        -----------------------------------------
Magnitude (a.u.)       :      0.00000
Magnitude (Debye)      :      0.00000

Rotational constants in cm-1:     1.927120     0.133829     0.125138
Rotational constants in MHz : 57773.615184  4012.084347  3751.557705

                             ****ORCA TERMINATED NORMALLY****
TOTAL RUN TIME: 0 days 0 hours 0 minutes 54 seconds 371 msec
