                         Program Version 5.0.3 -  RELEASE  -
|  1> !ri-mp2 aug-cc-pvtz aug-cc-pvtz/c tightscf
|  2> %pal nprocs 16 end
|  3>
|  4> * xyz 0 1
|  5> O      0.000000    0.357505    0.000000
|  6> H      0.720823   -1.378199    0.885457
|  7> H      0.720823   -1.378199   -0.885457
|  8> C      0.166852   -1.039701    0.000000
|  9> H      1.824588    0.770257    0.885970
| 10> H      1.824588    0.770257   -0.885970
| 11> C      1.244020    1.056932    0.000000
| 12> H      0.387071    2.824218   -0.883974
| 13> H      1.894071    3.101369    0.000000
| 14> H      0.387071    2.824218    0.883974
| 15> C      0.957977    2.542132    0.000000
| 16> N     -2.157411   -2.231286    0.000000
| 17> C     -1.145041   -1.688522    0.000000
| 18> *
| 19>
| 20>                          ****END OF INPUT****

CARTESIAN COORDINATES (ANGSTROEM)
---------------------------------
  O      0.000000    0.357505    0.000000
  H      0.720823   -1.378199    0.885457
  H      0.720823   -1.378199   -0.885457
  C      0.166852   -1.039701    0.000000
  H      1.824588    0.770257    0.885970
  H      1.824588    0.770257   -0.885970
  C      1.244020    1.056932    0.000000
  H      0.387071    2.824218   -0.883974
  H      1.894071    3.101369    0.000000
  H      0.387071    2.824218    0.883974
  C      0.957977    2.542132    0.000000
  N     -2.157411   -2.231286    0.000000
  C     -1.145041   -1.688522    0.000000

 Total Charge           Charge          ....    0
 Multiplicity           Mult            ....    1
 Number of Electrons    NEL             ....   46
 Basis Dimension        Dim             ....  437

ORBITAL ENERGIES
----------------

  NO   OCC          E(Eh)            E(eV)
   0   2.0000     -20.590941      -560.3080
   1   2.0000     -15.575386      -423.8278
   2   2.0000     -11.341261      -308.6114
   3   2.0000     -11.300045      -307.4899
   4   2.0000     -11.275807      -306.8303
   5   2.0000     -11.230439      -305.5958
   6   2.0000      -1.410828       -38.3906
   7   2.0000      -1.225292       -33.3419
   8   2.0000      -1.062328       -28.9074
   9   2.0000      -0.985738       -26.8233
  10   2.0000      -0.859721       -23.3942
  11   2.0000      -0.726722       -19.7751
  12   2.0000      -0.711069       -19.3492
  13   2.0000      -0.696920       -18.9642
  14   2.0000      -0.628627       -17.1058
  15   2.0000      -0.582128       -15.8405
  16   2.0000      -0.559050       -15.2125
  17   2.0000      -0.546250       -14.8642
  18   2.0000      -0.534628       -14.5480
  19   2.0000      -0.511134       -13.9087
  20   2.0000      -0.475611       -12.9420
  21   2.0000      -0.474345       -12.9076
  22   2.0000      -0.450065       -12.2469
  23   0.0000       0.022443         0.6107
  24   0.0000       0.033219         0.9039
  25   0.0000       0.034634         0.9424
  26   0.0000       0.041070         1.1176
  27   0.0000       0.055442         1.5087

MULLIKEN ATOMIC CHARGES
-----------------------
   0 O :   -0.564012
   1 H :    0.355459
   2 H :    0.355459
   3 C :    0.053974
   4 H :    0.307137
   5 H :    0.307137
   6 C :   -0.160214
   7 H :    0.284370
   8 H :    0.318760
   9 H :    0.284370
  10 C :   -1.001718
  11 N :   -0.539428
  12 C :   -0.001292
Sum of atomic charges:    0.0000000

LOEWDIN ATOMIC CHARGES
----------------------
   0 O :    0.558425
   1 H :   -0.163813
   2 H :   -0.163813
   3 C :   -0.047095
   4 H :   -0.153581
   5 H :   -0.153581
   6 C :    0.005509
   7 H :   -0.171011
   8 H :   -0.173696
   9 H :   -0.171011
  10 C :    0.584533
  11 N :    0.254857
  12 C :   -0.205723

  Mayer bond orders larger than 0.100000
B(  0-O ,  3-C ) :   1.0821 B(  0-O ,  6-C ) :   0.8159 B(  1-H ,  3-C ) :   0.8715
B(  2-H ,  3-C ) :   0.8715 B(  3-C , 12-C ) :   0.9054 B(  4-H ,  6-C ) :   0.8812
B(  5-H ,  6-C ) :   0.8812 B(  6-C , 10-C ) :   0.8801 B(  7-H , 10-C ) :   0.9466
B(  8-H , 10-C ) :   0.9334 B(  9-H , 10-C ) :   0.9466 B( 11-N , 12-C ) :   2.2093

MP2 TOTAL ENERGY:     -286.048060658 Eh
FINAL SINGLE POINT ENERGY      -286.048060657857

DIPOLE MOMENT
-------------
                                X             Y             Z
Electronic contribution:     -5.91216      -6.94221       0.00000
Nuclear contribution   :      7.86336       7.64013       0.00000
                        -----------------------------------------
Total Dipole Moment    :      1.95121       0.69792       0.00000
                        -----------------------------------------
Magnitude (a.u.)       :      2.07227
Magnitude (Debye)      :      5.26729

Rotational constants in cm-1:     0.526140     0.049655     0.046561
Rotational constants in MHz : 15773.286452  1488.621240  1395.850485

                             ****ORCA TERMINATED NORMALLY****
TOTAL RUN TIME: 0 days 0 hours 2 minutes 30 seconds 182 msec
