                         Program Version 5.0.3 -  RELEASE  -
|  1> !ri-mp2 aug-cc-pvtz aug-cc-pvtz/c tightscf
|  2> %pal nprocs 16 end
|  3>
|  4> * xyz 0 1
|  5> C      0.075104    0.359100    0.000098
|  6> C     -3.701789   -0.602670   -0.000001
|  7> C      3.556061   -0.733886   -0.000152
|  8> C     -1.168900   -0.499935    0.000212
|  9> C     -2.468473    0.298186   -0.000293
| 10> C      2.452426    0.299222    0.000029
| 11> O      0.097456    1.565027    0.000074
| 12> O      1.188412   -0.404077    0.000059
| 13> H     -4.618593   -0.012460   -0.000388
| 14> H     -3.723582   -1.248219   -0.880573
| 15> H     -3.723777   -1.247370    0.881188
| 16> H      4.525714   -0.234679   -0.000156
| 17> H      3.498825   -1.368972    0.883727
| 18> H      3.498716   -1.368774   -0.884166
| 19> H     -1.114011   -1.161253   -0.869006
| 20> H     -1.114289   -1.160543    0.869994
| 21> H     -2.485329    0.956406    0.869828
| 22> H     -2.485160    0.955591   -0.871038
| 23> H      2.493919    0.941368   -0.879840
| 24> H      2.494054    0.941198    0.880017
| 25> *
| 26>
| 27>                          ****END OF INPUT****

CARTESIAN COORDINATES (ANGSTROEM)
---------------------------------
  C      0.075104    0.359100    0.000098
  C     -3.701789   -0.602670   -0.000001
  C      3.556061   -0.733886   -0.000152
  C     -1.168900   -0.499935    0.000212
  C     -2.468473    0.298186   -0.000293
  C      2.452426    0.299222    0.000029
  O      0.097456    1.565027    0.000074
  O      1.188412   -0.404077    0.000059
  H     -4.618593   -0.012460   -0.000388
  H     -3.723582   -1.248219   -0.880573
  H     -3.723777   -1.247370    0.881188
  H      4.525714   -0.234679   -0.000156
  H      3.498825   -1.368972    0.883727
  H      3.498716   -1.368774   -0.884166
  H     -1.114011   -1.161253   -0.869006
  H     -1.114289   -1.160543    0.869994
  H     -2.485329    0.956406    0.869828
  H     -2.485160    0.955591   -0.871038
  H      2.493919    0.941368   -0.879840
  H      2.494054    0.941198    0.880017

 Total Charge           Charge          ....    0
 Multiplicity           Mult            ....    1
 Number of Electrons    NEL             ....   64
 Basis Dimension        Dim             ....  644

ORBITAL ENERGIES
----------------

  NO   OCC          E(Eh)            E(eV)
   0   2.0000     -20.596212      -560.4514
   1   2.0000     -20.539931      -558.9199
   2   2.0000     -11.373525      -309.4893
   3   2.0000     -11.287014      -307.1353
   4   2.0000     -11.239514      -305.8427
   5   2.0000     -11.224055      -305.4221
   6   2.0000     -11.223464      -305.4060
   7   2.0000     -11.216414      -305.2141
   8   2.0000      -1.453280       -39.5458
   9   2.0000      -1.354097       -36.8469
  10   2.0000      -1.081306       -29.4238
  11   2.0000      -1.039321       -28.2814
  12   2.0000      -0.966236       -26.2926
  13   2.0000      -0.870352       -23.6835
  14   2.0000      -0.819088       -22.2885
  15   2.0000      -0.767821       -20.8935
  16   2.0000      -0.693044       -18.8587
  17   2.0000      -0.684164       -18.6170
  18   2.0000      -0.664371       -18.0785
  19   2.0000      -0.640918       -17.4403
  20   2.0000      -0.585511       -15.9326
  21   2.0000      -0.579687       -15.7741
  22   2.0000      -0.568639       -15.4735
  23   2.0000      -0.552164       -15.0252
  24   2.0000      -0.540757       -14.7147
  25   2.0000      -0.512642       -13.9497
  26   2.0000      -0.502199       -13.6655
  27   2.0000      -0.499681       -13.5970
  28   2.0000      -0.486736       -13.2448
  29   2.0000      -0.477725       -12.9996
  30   2.0000      -0.455392       -12.3918
  31   2.0000      -0.440963       -11.9992
  32   0.0000       0.028465         0.7746
  33   0.0000       0.031429         0.8552
  34   0.0000       0.037715         1.0263
  35   0.0000       0.038950         1.0599
  36   0.0000       0.047579         1.2947

MULLIKEN ATOMIC CHARGES
-----------------------
   0 C :    0.282158
   1 C :   -0.933700
   2 C :   -0.954890
   3 C :   -0.023719
   4 C :   -0.354751
   5 C :   -0.172364
   6 O :   -0.818072
   7 O :   -0.275748
   8 H :    0.292118
   9 H :    0.263828
  10 H :    0.263831
  11 H :    0.320781
  12 H :    0.257344
  13 H :    0.257327
  14 H :    0.240150
  15 H :    0.240166
  16 H :    0.235852
  17 H :    0.235848
  18 H :    0.321937
  19 H :    0.321904
Sum of atomic charges:   -0.0000000

LOEWDIN ATOMIC CHARGES
----------------------
   0 C :   -0.803165
   1 C :    0.579622
   2 C :    0.580537
   3 C :    0.265511
   4 C :    0.245665
   5 C :    0.033691
   6 O :    0.470420
   7 O :    0.581451
   8 H :   -0.171924
   9 H :   -0.171070
  10 H :   -0.171071
  11 H :   -0.173984
  12 H :   -0.173348
  13 H :   -0.173347
  14 H :   -0.149321
  15 H :   -0.149305
  16 H :   -0.149940
  17 H :   -0.149923
  18 H :   -0.160255
  19 H :   -0.160244

  Mayer bond orders larger than 0.100000
B(  0-C ,  3-C ) :   0.5931 B(  0-C ,  6-O ) :   1.4535 B(  0-C ,  7-O ) :   1.0996
B(  1-C ,  4-C ) :   0.9165 B(  1-C ,  8-H ) :   0.9617 B(  1-C ,  9-H ) :   0.9575
B(  1-C , 10-H ) :   0.9575 B(  2-C ,  5-C ) :   0.8856 B(  2-C , 11-H ) :   0.9311
B(  2-C , 12-H ) :   0.9749 B(  2-C , 13-H ) :   0.9749 B(  3-C ,  4-C ) :   0.9341
B(  3-C , 14-H ) :   0.9439 B(  3-C , 15-H ) :   0.9438 B(  4-C , 16-H ) :   0.9495
B(  4-C , 17-H ) :   0.9495 B(  5-C ,  7-O ) :   0.7471 B(  5-C , 18-H ) :   0.9037
B(  5-C , 19-H ) :   0.9037

MP2 TOTAL ENERGY:     -385.609082428 Eh
FINAL SINGLE POINT ENERGY      -385.609082428111

DIPOLE MOMENT
-------------
                                X             Y             Z
Electronic contribution:      3.03150       3.38281       0.00045
Nuclear contribution   :     -2.82823      -4.12804      -0.00043
                        -----------------------------------------
Total Dipole Moment    :      0.20327      -0.74523       0.00002
                        -----------------------------------------
Magnitude (a.u.)       :      0.77246
Magnitude (Debye)      :      1.96343

Rotational constants in cm-1:     0.210049     0.026712     0.024226
Rotational constants in MHz :  6297.104177   800.799472   726.281277

                             ****ORCA TERMINATED NORMALLY****
TOTAL RUN TIME: 0 days 0 hours 8 minutes 22 seconds 652 msec
