                         Program Version 5.0.3 -  RELEASE  -
|  1> !ri-mp2 aug-cc-pvtz aug-cc-pvtz/c tightscf
|  2> %pal nprocs 16 end
|  3>
|  4> * xyz 0 1
|  5> S     -2.081317   -0.343098    0.000000
|  6> N      0.542113   -0.729566    0.000018
|  7> N     -0.127051    1.471695   -0.000093
|  8> C     -0.501303    0.182134   -0.000006
|  9> C      1.846197   -0.419257   -0.000003
| 10> C      3.006498   -0.108367    0.000000
| 11> H      0.254221   -1.695995    0.000037
| 12> H      0.842627    1.744288    0.000376
| 13> H     -0.845401    2.171629    0.000218
| 14> H      4.035849    0.147679   -0.000061
| 15> *
| 16>
| 17>                          ****END OF INPUT****

CARTESIAN COORDINATES (ANGSTROEM)
---------------------------------
  S     -2.081317   -0.343098    0.000000
  N      0.542113   -0.729566    0.000018
  N     -0.127051    1.471695   -0.000093
  C     -0.501303    0.182134   -0.000006
  C      1.846197   -0.419257   -0.000003
  C      3.006498   -0.108367    0.000000
  H      0.254221   -1.695995    0.000037
  H      0.842627    1.744288    0.000376
  H     -0.845401    2.171629    0.000218
  H      4.035849    0.147679   -0.000061

 Total Charge           Charge          ....    0
 Multiplicity           Mult            ....    1
 Number of Electrons    NEL             ....   52
 Basis Dimension        Dim             ....  372

ORBITAL ENERGIES
----------------

  NO   OCC          E(Eh)            E(eV)
   0   2.0000     -91.901709     -2500.7726
   1   2.0000     -15.646539      -425.7640
   2   2.0000     -15.616603      -424.9494
   3   2.0000     -11.398906      -310.1800
   4   2.0000     -11.299369      -307.4715
   5   2.0000     -11.253969      -306.2361
   6   2.0000      -8.905071      -242.3193
   7   2.0000      -6.586671      -179.2324
   8   2.0000      -6.584658      -179.1777
   9   2.0000      -6.584062      -179.1614
  10   2.0000      -1.344662       -36.5901
  11   2.0000      -1.237004       -33.6606
  12   2.0000      -1.059108       -28.8198
  13   2.0000      -0.990956       -26.9653
  14   2.0000      -0.855943       -23.2914
  15   2.0000      -0.816259       -22.2115
  16   2.0000      -0.758843       -20.6492
  17   2.0000      -0.723343       -19.6832
  18   2.0000      -0.687339       -18.7034
  19   2.0000      -0.623660       -16.9707
  20   2.0000      -0.527869       -14.3641
  21   2.0000      -0.504978       -13.7411
  22   2.0000      -0.434967       -11.8361
  23   2.0000      -0.392034       -10.6678
  24   2.0000      -0.337126        -9.1737
  25   2.0000      -0.330746        -9.0000
  26   0.0000       0.019800         0.5388
  27   0.0000       0.031931         0.8689
  28   0.0000       0.039032         1.0621
  29   0.0000       0.056132         1.5274
  30   0.0000       0.074449         2.0259

MULLIKEN ATOMIC CHARGES
-----------------------
   0 S :   -0.507911
   1 N :    0.183613
   2 N :   -0.279365
   3 C :    0.293236
   4 C :    1.078774
   5 C :   -1.732917
   6 H :    0.159483
   7 H :    0.205759
   8 H :    0.144367
   9 H :    0.454962
Sum of atomic charges:    0.0000000

LOEWDIN ATOMIC CHARGES
----------------------
   0 S :    0.836031
   1 N :    0.392037
   2 N :    0.785648
   3 C :   -1.056991
   4 C :   -0.108158
   5 C :    0.399669
   6 H :   -0.320055
   7 H :   -0.320325
   8 H :   -0.307357
   9 H :   -0.300499

  Mayer bond orders larger than 0.100000
B(  0-S ,  3-C ) :   1.3992 B(  1-N ,  2-N ) :  -0.1131 B(  1-N ,  3-C ) :   1.1133
B(  1-N ,  4-C ) :   0.6954 B(  1-N ,  5-C ) :  -0.3153 B(  1-N ,  6-H ) :   1.0471
B(  2-N ,  3-C ) :   1.1587 B(  2-N ,  7-H ) :   0.9741 B(  2-N ,  8-H ) :   1.0354
B(  3-C ,  4-C ) :  -0.1848 B(  4-C ,  5-C ) :   1.1367 B(  4-C ,  9-H ) :  -0.1371
B(  5-C ,  9-H ) :   0.9761

MP2 TOTAL ENERGY:     -623.458922299 Eh
FINAL SINGLE POINT ENERGY      -623.458922299085

DIPOLE MOMENT
-------------
                                X             Y             Z
Electronic contribution:     -2.58943      -1.59059      -0.00015
Nuclear contribution   :      4.24616       2.32356       0.00056
                        -----------------------------------------
Total Dipole Moment    :      1.65674       0.73297       0.00040
                        -----------------------------------------
Magnitude (a.u.)       :      1.81163
Magnitude (Debye)      :      4.60481

Rotational constants in cm-1:     0.307040     0.053776     0.045761
Rotational constants in MHz :  9204.838998  1612.156487  1371.881956

                             ****ORCA TERMINATED NORMALLY****
TOTAL RUN TIME: 0 days 0 hours 2 minutes 0 seconds 7 msec
