                         Program Version 5.0.3 -  RELEASE  -
|  1> !ri-mp2 aug-cc-pvtz aug-cc-pvtz/c tightscf
|  2> %pal nprocs 16 end
|  3>
|  4> * xyz 0 1
|  5> C      3.184312    0.214662   -0.156388
|  6> C      1.804466   -0.364204   -0.216238
|  7> C      0.743151    0.105154    0.431736
|  8> C     -0.640500   -0.468565    0.368176
|  9> C     -1.685118    0.519417   -0.171606
| 10> C     -3.099443   -0.056883   -0.186480
| 11> H      3.223229    1.089985    0.492451
| 12> H      3.904316   -0.517661    0.218689
| 13> H      3.531684    0.512657   -1.149293
| 14> H      1.681810   -1.243047   -0.845147
| 15> H      0.864249    0.985574    1.060220
| 16> H     -0.950299   -0.782190    1.372044
| 17> H     -0.636597   -1.370501   -0.250054
| 18> H     -1.397617    0.823029   -1.181416
| 19> H     -1.666289    1.428500    0.436494
| 20> H     -3.819163    0.665084   -0.574592
| 21> H     -3.155216   -0.949735   -0.812711
| 22> H     -3.421316   -0.339183    0.818118
| 23> *
| 24>
| 25>                          ****END OF INPUT****

CARTESIAN COORDINATES (ANGSTROEM)
---------------------------------
  C      3.184312    0.214662   -0.156388
  C      1.804466   -0.364204   -0.216238
  C      0.743151    0.105154    0.431736
  C     -0.640500   -0.468565    0.368176
  C     -1.685118    0.519417   -0.171606
  C     -3.099443   -0.056883   -0.186480
  H      3.223229    1.089985    0.492451
  H      3.904316   -0.517661    0.218689
  H      3.531684    0.512657   -1.149293
  H      1.681810   -1.243047   -0.845147
  H      0.864249    0.985574    1.060220
  H     -0.950299   -0.782190    1.372044
  H     -0.636597   -1.370501   -0.250054
  H     -1.397617    0.823029   -1.181416
  H     -1.666289    1.428500    0.436494
  H     -3.819163    0.665084   -0.574592
  H     -3.155216   -0.949735   -0.812711
  H     -3.421316   -0.339183    0.818118

 Total Charge           Charge          ....    0
 Multiplicity           Mult            ....    1
 Number of Electrons    NEL             ....   48
 Basis Dimension        Dim             ....  552

ORBITAL ENERGIES
----------------

  NO   OCC          E(Eh)            E(eV)
   0   2.0000     -11.221805      -305.3608
   1   2.0000     -11.219224      -305.2906
   2   2.0000     -11.218062      -305.2590
   3   2.0000     -11.217324      -305.2389
   4   2.0000     -11.216740      -305.2230
   5   2.0000     -11.210301      -305.0478
   6   2.0000      -1.090220       -29.6664
   7   2.0000      -1.040157       -28.3041
   8   2.0000      -0.963139       -26.2083
   9   2.0000      -0.883908       -24.0524
  10   2.0000      -0.800811       -21.7912
  11   2.0000      -0.745003       -20.2726
  12   2.0000      -0.634004       -17.2521
  13   2.0000      -0.619232       -16.8502
  14   2.0000      -0.586422       -15.9573
  15   2.0000      -0.566265       -15.4088
  16   2.0000      -0.559076       -15.2132
  17   2.0000      -0.535185       -14.5631
  18   2.0000      -0.521356       -14.1868
  19   2.0000      -0.497293       -13.5320
  20   2.0000      -0.478783       -13.0284
  21   2.0000      -0.467663       -12.7257
  22   2.0000      -0.463863       -12.6223
  23   2.0000      -0.342038        -9.3073
  24   0.0000       0.031435         0.8554
  25   0.0000       0.034008         0.9254
  26   0.0000       0.036414         0.9909
  27   0.0000       0.039445         1.0734
  28   0.0000       0.049176         1.3381

MULLIKEN ATOMIC CHARGES
-----------------------
   0 C :   -0.783631
   1 C :   -0.435219
   2 C :   -0.375878
   3 C :   -0.116943
   4 C :   -0.417176
   5 C :   -0.983704
   6 H :    0.283432
   7 H :    0.278635
   8 H :    0.274845
   9 H :    0.274550
  10 H :    0.165286
  11 H :    0.282884
  12 H :    0.210449
  13 H :    0.278339
  14 H :    0.246975
  15 H :    0.274027
  16 H :    0.276299
  17 H :    0.266831
Sum of atomic charges:    0.0000000

LOEWDIN ATOMIC CHARGES
----------------------
   0 C :    0.547132
   1 C :    0.205831
   2 C :    0.212645
   3 C :    0.240140
   4 C :    0.253170
   5 C :    0.575989
   6 H :   -0.185280
   7 H :   -0.179356
   8 H :   -0.179339
   9 H :   -0.185619
  10 H :   -0.178731
  11 H :   -0.149397
  12 H :   -0.158617
  13 H :   -0.149160
  14 H :   -0.151343
  15 H :   -0.174348
  16 H :   -0.171364
  17 H :   -0.172353

  Mayer bond orders larger than 0.100000
B(  0-C ,  1-C ) :   0.7733 B(  0-C ,  6-H ) :   0.9418 B(  0-C ,  7-H ) :   0.9818
B(  0-C ,  8-H ) :   0.9776 B(  1-C ,  2-C ) :   1.2594 B(  1-C ,  9-H ) :   1.0052
B(  2-C ,  3-C ) :   0.7777 B(  2-C , 10-H ) :   1.1650 B(  3-C ,  4-C ) :   0.9078
B(  3-C , 11-H ) :   0.9634 B(  3-C , 12-H ) :   0.9604 B(  4-C ,  5-C ) :   0.8992
B(  4-C , 13-H ) :   0.9478 B(  4-C , 14-H ) :   0.9562 B(  5-C , 15-H ) :   0.9642
B(  5-C , 16-H ) :   0.9530 B(  5-C , 17-H ) :   0.9579

MP2 TOTAL ENERGY:     -235.312607367 Eh
FINAL SINGLE POINT ENERGY      -235.312607366912

DIPOLE MOMENT
-------------
                                X             Y             Z
Electronic contribution:      1.97299      -0.30917       0.42553
Nuclear contribution   :     -1.97215       0.32403      -0.44473
                        -----------------------------------------
Total Dipole Moment    :      0.00083       0.01486      -0.01920
                        -----------------------------------------
Magnitude (a.u.)       :      0.02429
Magnitude (Debye)      :      0.06174

Rotational constants in cm-1:     0.505049     0.040082     0.039580
Rotational constants in MHz : 15140.987069  1201.621236  1186.587239

                             ****ORCA TERMINATED NORMALLY****
TOTAL RUN TIME: 0 days 0 hours 4 minutes 43 seconds 436 msec
