                         Program Version 5.0.3 -  RELEASE  -
|  1> !ri-mp2 aug-cc-pvtz aug-cc-pvtz/c tightscf
|  2> %pal nprocs 16 end
|  3>
|  4> * xyz 0 1
|  5> O     -0.000024    0.000054    1.941721
|  6> N      0.000008   -0.000047    0.729470
|  7> C     -0.000025    0.000042   -1.881444
|  8> C      0.000075   -0.000109   -0.425458
|  9> H     -0.063200    1.018651   -2.266021
| 10> H      0.913597   -0.454486   -2.266367
| 11> H     -0.850557   -0.563861   -2.266253
| 12> *
| 13>
| 14>                          ****END OF INPUT****

CARTESIAN COORDINATES (ANGSTROEM)
---------------------------------
  O     -0.000024    0.000054    1.941721
  N      0.000008   -0.000047    0.729470
  C     -0.000025    0.000042   -1.881444
  C      0.000075   -0.000109   -0.425458
  H     -0.063200    1.018651   -2.266021
  H      0.913597   -0.454486   -2.266367
  H     -0.850557   -0.563861   -2.266253

 Total Charge           Charge          ....    0
 Multiplicity           Mult            ....    1
 Number of Electrons    NEL             ....   30
 Basis Dimension        Dim             ....  253

ORBITAL ENERGIES
----------------

  NO   OCC          E(Eh)            E(eV)
   0   2.0000     -20.559371      -559.4489
   1   2.0000     -15.730875      -428.0589
   2   2.0000     -11.308670      -307.7245
   3   2.0000     -11.296949      -307.4056
   4   2.0000      -1.481030       -40.3009
   5   2.0000      -1.217865       -33.1398
   6   2.0000      -1.047192       -28.4955
   7   2.0000      -0.730877       -19.8882
   8   2.0000      -0.685108       -18.6427
   9   2.0000      -0.673519       -18.3274
  10   2.0000      -0.673516       -18.3273
  11   2.0000      -0.612240       -16.6599
  12   2.0000      -0.612235       -16.6598
  13   2.0000      -0.384425       -10.4607
  14   2.0000      -0.384425       -10.4607
  15   0.0000       0.018079         0.4920
  16   0.0000       0.038768         1.0549
  17   0.0000       0.038768         1.0549
  18   0.0000       0.056224         1.5299
  19   0.0000       0.091888         2.5004

MULLIKEN ATOMIC CHARGES
-----------------------
   0 O :   -0.753381
   1 N :    0.675765
   2 C :   -0.618429
   3 C :   -0.287863
   4 H :    0.327957
   5 H :    0.327978
   6 H :    0.327973
Sum of atomic charges:   -0.0000000

LOEWDIN ATOMIC CHARGES
----------------------
   0 O :    0.182563
   1 N :   -0.226408
   2 C :    0.559138
   3 C :    0.024907
   4 H :   -0.180075
   5 H :   -0.180065
   6 H :   -0.180061

  Mayer bond orders larger than 0.100000
B(  0-O ,  1-N ) :   1.0279 B(  0-O ,  3-C ) :   0.3709 B(  1-N ,  2-C ) :  -0.1444
B(  1-N ,  3-C ) :   2.1407 B(  2-C ,  3-C ) :   0.7092 B(  2-C ,  4-H ) :   0.9203
B(  2-C ,  5-H ) :   0.9203 B(  2-C ,  6-H ) :   0.9203

MP2 TOTAL ENERGY:     -207.544836820 Eh
FINAL SINGLE POINT ENERGY      -207.544836819933

DIPOLE MOMENT
-------------
                                X             Y             Z
Electronic contribution:      0.00015      -0.00030       4.47791
Nuclear contribution   :     -0.00016       0.00030      -6.67960
                        -----------------------------------------
Total Dipole Moment    :     -0.00001      -0.00000      -2.20169
                        -----------------------------------------
Magnitude (a.u.)       :      2.20169
Magnitude (Debye)      :      5.59625

Rotational constants in cm-1:     5.352922     0.130904     0.130904
Rotational constants in MHz : 160476.554324  3924.414632  3924.413224

                             ****ORCA TERMINATED NORMALLY****
TOTAL RUN TIME: 0 days 0 hours 0 minutes 39 seconds 24 msec
