                         Program Version 5.0.3 -  RELEASE  -
|  1> !ri-mp2 aug-cc-pvtz aug-cc-pvtz/c tightscf
|  2> %pal nprocs 16 end
|  3>
|  4> * xyz 0 1
|  5> C    -0.324304     0.589828       0.000000
|  6> C     0.324304    -0.589828       0.000000
|  7> C     0.324304     1.845570       0.000000
|  8> C    -0.324304    -1.845570       0.000000
|  9> H    -1.408272     0.599713       0.000000
| 10> H     1.408272    -0.599713       0.000000
| 11> C     0.841122     2.932151       0.000000
| 12> C    -0.841122    -2.932151       0.000000
| 13> H     1.305614     3.886246       0.000000
| 14> H    -1.305614    -3.886246       0.000000
| 15> *
| 16>
| 17>                          ****END OF INPUT****

CARTESIAN COORDINATES (ANGSTROEM)
---------------------------------
  C     -0.324304    0.589828    0.000000
  C      0.324304   -0.589828    0.000000
  C      0.324304    1.845570    0.000000
  C     -0.324304   -1.845570    0.000000
  H     -1.408272    0.599713    0.000000
  H      1.408272   -0.599713    0.000000
  C      0.841122    2.932151    0.000000
  C     -0.841122   -2.932151    0.000000
  H      1.305614    3.886246    0.000000
  H     -1.305614   -3.886246    0.000000

 Total Charge           Charge          ....    0
 Multiplicity           Mult            ....    1
 Number of Electrons    NEL             ....   40
 Basis Dimension        Dim             ....  368

ORBITAL ENERGIES
----------------

  NO   OCC          E(Eh)            E(eV)
   0   2.0000     -11.277672      -306.8811
   1   2.0000     -11.276077      -306.8376
   2   2.0000     -11.248082      -306.0759
   3   2.0000     -11.248081      -306.0759
   4   2.0000     -11.240429      -305.8676
   5   2.0000     -11.240428      -305.8676
   6   2.0000      -1.125140       -30.6166
   7   2.0000      -1.053075       -28.6556
   8   2.0000      -1.002976       -27.2924
   9   2.0000      -0.883009       -24.0279
  10   2.0000      -0.740596       -20.1526
  11   2.0000      -0.735264       -20.0075
  12   2.0000      -0.693300       -18.8657
  13   2.0000      -0.663065       -18.0429
  14   2.0000      -0.578994       -15.7552
  15   2.0000      -0.499548       -13.5934
  16   2.0000      -0.431613       -11.7448
  17   2.0000      -0.409928       -11.1547
  18   2.0000      -0.403103       -10.9690
  19   2.0000      -0.329006        -8.9527
  20   0.0000       0.028476         0.7749
  21   0.0000       0.029183         0.7941
  22   0.0000       0.039509         1.0751
  23   0.0000       0.044029         1.1981
  24   0.0000       0.055947         1.5224

MULLIKEN ATOMIC CHARGES
-----------------------
   0 C :   -0.674840
   1 C :   -0.674840
   2 C :    1.442966
   3 C :    1.442966
   4 H :    0.023398
   5 H :    0.023398
   6 C :   -1.272669
   7 C :   -1.272669
   8 H :    0.481145
   9 H :    0.481145
Sum of atomic charges:   -0.0000000

LOEWDIN ATOMIC CHARGES
----------------------
   0 C :    0.110801
   1 C :    0.110801
   2 C :   -0.023682
   3 C :   -0.023682
   4 H :   -0.194972
   5 H :   -0.194972
   6 C :    0.405463
   7 C :    0.405463
   8 H :   -0.297610
   9 H :   -0.297610

  Mayer bond orders larger than 0.100000
B(  0-C ,  1-C ) :   1.6533 B(  0-C ,  2-C ) :   0.3693 B(  0-C ,  3-C ) :   0.1613
B(  0-C ,  4-H ) :   1.5029 B(  0-C ,  5-H ) :   0.1559 B(  0-C ,  7-C ) :  -0.2145
B(  1-C ,  2-C ) :   0.1613 B(  1-C ,  3-C ) :   0.3693 B(  1-C ,  4-H ) :   0.1559
B(  1-C ,  5-H ) :   1.5029 B(  1-C ,  6-C ) :  -0.2145 B(  2-C ,  3-C ) :   0.1917
B(  2-C ,  4-H ) :  -0.1698 B(  2-C ,  6-C ) :   1.2985 B(  2-C ,  7-C ) :  -0.2143
B(  2-C ,  8-H ) :  -0.1694 B(  3-C ,  5-H ) :  -0.1698 B(  3-C ,  6-C ) :  -0.2143
B(  3-C ,  7-C ) :   1.2985 B(  3-C ,  9-H ) :  -0.1694 B(  4-H ,  5-H ) :   0.2078
B(  4-H ,  7-C ) :  -0.1261 B(  5-H ,  6-C ) :  -0.1261 B(  6-C ,  7-C ) :   0.6386
B(  6-C ,  8-H ) :   1.0083 B(  7-C ,  9-H ) :   1.0083

MP2 TOTAL ENERGY:     -230.391090617 Eh
FINAL SINGLE POINT ENERGY      -230.391090616816

DIPOLE MOMENT
-------------
                                X             Y             Z
Electronic contribution:     -0.00000      -0.00000       0.00000
Nuclear contribution   :      0.00000       0.00000       0.00000
                        -----------------------------------------
Total Dipole Moment    :     -0.00000      -0.00000       0.00000
                        -----------------------------------------
Magnitude (a.u.)       :      0.00000
Magnitude (Debye)      :      0.00000

Rotational constants in cm-1:     1.600912     0.048604     0.047172
Rotational constants in MHz : 47994.136245  1457.122198  1414.186888

                             ****ORCA TERMINATED NORMALLY****
TOTAL RUN TIME: 0 days 0 hours 1 minutes 38 seconds 823 msec
