                         Program Version 5.0.3 -  RELEASE  -
|  1> !ri-mp2 aug-cc-pvtz aug-cc-pvtz/c tightscf
|  2> %pal nprocs 16 end
|  3>
|  4> * xyz 0 1
|  5> C    -0.327410     0.688228       0.000000
|  6> C     0.327410    -0.688228       0.000000
|  7> H    -1.432549     0.678671       0.000000
|  8> H     1.432549    -0.678671       0.000000
|  9> O     0.327410     1.696141       0.000000
| 10> O    -0.327410    -1.696141       0.000000
| 11> *
| 12>
| 13>                          ****END OF INPUT****

CARTESIAN COORDINATES (ANGSTROEM)
---------------------------------
  C     -0.327410    0.688228    0.000000
  C      0.327410   -0.688228    0.000000
  H     -1.432549    0.678671    0.000000
  H      1.432549   -0.678671    0.000000
  O      0.327410    1.696141    0.000000
  O     -0.327410   -1.696141    0.000000

 Total Charge           Charge          ....    0
 Multiplicity           Mult            ....    1
 Number of Electrons    NEL             ....   30
 Basis Dimension        Dim             ....  230

ORBITAL ENERGIES
----------------

  NO   OCC          E(Eh)            E(eV)
   0   2.0000     -20.608253      -560.7791
   1   2.0000     -20.608252      -560.7791
   2   2.0000     -11.366551      -309.2996
   3   2.0000     -11.365938      -309.2829
   4   2.0000      -1.448400       -39.4130
   5   2.0000      -1.431973       -38.9660
   6   2.0000      -0.966622       -26.3031
   7   2.0000      -0.827290       -22.5117
   8   2.0000      -0.711113       -19.3504
   9   2.0000      -0.710010       -19.3204
  10   2.0000      -0.662999       -18.0411
  11   2.0000      -0.598883       -16.2964
  12   2.0000      -0.537136       -14.6162
  13   2.0000      -0.527567       -14.3558
  14   2.0000      -0.440217       -11.9789
  15   0.0000       0.031117         0.8467
  16   0.0000       0.034463         0.9378
  17   0.0000       0.036329         0.9886
  18   0.0000       0.069351         1.8871
  19   0.0000       0.084088         2.2882

MULLIKEN ATOMIC CHARGES
-----------------------
   0 C :    0.013038
   1 C :    0.013038
   2 H :    0.570537
   3 H :    0.570537
   4 O :   -0.583575
   5 O :   -0.583575
Sum of atomic charges:    0.0000000

LOEWDIN ATOMIC CHARGES
----------------------
   0 C :   -0.230556
   1 C :   -0.230556
   2 H :   -0.200885
   3 H :   -0.200885
   4 O :    0.431441
   5 O :    0.431441

  Mayer bond orders larger than 0.100000
B(  0-C ,  1-C ) :   0.9144 B(  0-C ,  2-H ) :   0.5874 B(  0-C ,  4-O ) :   1.7561
B(  1-C ,  3-H ) :   0.5874 B(  1-C ,  5-O ) :   1.7561

MP2 TOTAL ENERGY:     -227.460447531 Eh
FINAL SINGLE POINT ENERGY      -227.460447531464

DIPOLE MOMENT
-------------
                                X             Y             Z
Electronic contribution:     -0.00000       0.00000       0.00000
Nuclear contribution   :      0.00000       0.00000       0.00000
                        -----------------------------------------
Total Dipole Moment    :     -0.00000       0.00000       0.00000
                        -----------------------------------------
Magnitude (a.u.)       :      0.00000
Magnitude (Debye)      :      0.00000

Rotational constants in cm-1:     1.871232     0.159795     0.147223
Rotational constants in MHz : 56098.124331  4790.544669  4413.638447

                             ****ORCA TERMINATED NORMALLY****
TOTAL RUN TIME: 0 days 0 hours 0 minutes 33 seconds 983 msec
