                         Program Version 5.0.3 -  RELEASE  -
|  1> !ri-mp2 aug-cc-pvtz aug-cc-pvtz/c tightscf
|  2> %pal nprocs 16 end
|  3> %maxcore 3800
|  4>
|  5> * xyz 0 1
|  6> C      0.000000    0.729498    0.000000
|  7> C     -2.141505   -3.891402    0.000000
|  8> C      2.549320    3.339800    0.000000
|  9> C      0.207382   -0.768043    0.000000
| 10> C     -0.847268   -3.079942    0.000000
| 11> C     -1.088975   -1.570401    0.000000
| 12> C      1.128138    2.824006    0.000000
| 13> O     -1.066056    1.293479    0.000000
| 14> O      1.183521    1.378692    0.000000
| 15> H     -2.746700   -3.667220    0.880566
| 16> H     -2.746700   -3.667220   -0.880566
| 17> H     -1.939443   -4.963233    0.000000
| 18> H      2.543948    4.430393    0.000000
| 19> H      3.089196    3.000657    0.883914
| 20> H      3.089196    3.000657   -0.883914
| 21> H      0.822926   -1.014904   -0.869453
| 22> H      0.822926   -1.014904    0.869453
| 23> H     -0.247536   -3.351756    0.874139
| 24> H     -0.247536   -3.351756   -0.874139
| 25> H     -1.685980   -1.291579    0.871119
| 26> H     -1.685980   -1.291579   -0.871119
| 27> H      0.574702    3.151987   -0.879985
| 28> H      0.574702    3.151987    0.879985
| 29> *
| 30>
| 31>                          ****END OF INPUT****

CARTESIAN COORDINATES (ANGSTROEM)
---------------------------------
  C      0.000000    0.729498    0.000000
  C     -2.141505   -3.891402    0.000000
  C      2.549320    3.339800    0.000000
  C      0.207382   -0.768043    0.000000
  C     -0.847268   -3.079942    0.000000
  C     -1.088975   -1.570401    0.000000
  C      1.128138    2.824006    0.000000
  O     -1.066056    1.293479    0.000000
  O      1.183521    1.378692    0.000000
  H     -2.746700   -3.667220    0.880566
  H     -2.746700   -3.667220   -0.880566
  H     -1.939443   -4.963233    0.000000
  H      2.543948    4.430393    0.000000
  H      3.089196    3.000657    0.883914
  H      3.089196    3.000657   -0.883914
  H      0.822926   -1.014904   -0.869453
  H      0.822926   -1.014904    0.869453
  H     -0.247536   -3.351756    0.874139
  H     -0.247536   -3.351756   -0.874139
  H     -1.685980   -1.291579    0.871119
  H     -1.685980   -1.291579   -0.871119
  H      0.574702    3.151987   -0.879985
  H      0.574702    3.151987    0.879985

 Total Charge           Charge          ....    0
 Multiplicity           Mult            ....    1
 Number of Electrons    NEL             ....   72
 Basis Dimension        Dim             ....  736

ORBITAL ENERGIES
----------------

  NO   OCC          E(Eh)            E(eV)
   0   2.0000     -20.595891      -560.4427
   1   2.0000     -20.539638      -558.9120
   2   2.0000     -11.373271      -309.4824
   3   2.0000     -11.286866      -307.1312
   4   2.0000     -11.239181      -305.8337
   5   2.0000     -11.223916      -305.4183
   6   2.0000     -11.221817      -305.3612
   7   2.0000     -11.220703      -305.3309
   8   2.0000     -11.212325      -305.1029
   9   2.0000      -1.452968       -39.5373
  10   2.0000      -1.353838       -36.8398
  11   2.0000      -1.088748       -29.6264
  12   2.0000      -1.045166       -28.4404
  13   2.0000      -1.004079       -27.3224
  14   2.0000      -0.907037       -24.6817
  15   2.0000      -0.851855       -23.1802
  16   2.0000      -0.801161       -21.8007
  17   2.0000      -0.768089       -20.9008
  18   2.0000      -0.690289       -18.7837
  19   2.0000      -0.684240       -18.6191
  20   2.0000      -0.662080       -18.0161
  21   2.0000      -0.648416       -17.6443
  22   2.0000      -0.600721       -16.3465
  23   2.0000      -0.589606       -16.0440
  24   2.0000      -0.569424       -15.4948
  25   2.0000      -0.560544       -15.2532
  26   2.0000      -0.549346       -14.9485
  27   2.0000      -0.534373       -14.5410
  28   2.0000      -0.513344       -13.9688
  29   2.0000      -0.510165       -13.8823
  30   2.0000      -0.494500       -13.4560
  31   2.0000      -0.479113       -13.0373
  32   2.0000      -0.474647       -12.9158
  33   2.0000      -0.469596       -12.7783
  34   2.0000      -0.454879       -12.3779
  35   2.0000      -0.439644       -11.9633
  36   0.0000       0.028437         0.7738
  37   0.0000       0.030432         0.8281
  38   0.0000       0.037220         1.0128
  39   0.0000       0.037770         1.0278
  40   0.0000       0.044826         1.2198

MULLIKEN ATOMIC CHARGES
-----------------------
   0 C :    0.261707
   1 C :   -0.975907
   2 C :   -0.956132
   3 C :   -0.072954
   4 C :   -0.465867
   5 C :   -0.156159
   6 C :   -0.185085
   7 O :   -0.832334
   8 O :   -0.283920
   9 H :    0.272307
  10 H :    0.272307
  11 H :    0.279055
  12 H :    0.320108
  13 H :    0.255071
  14 H :    0.255071
  15 H :    0.208891
  16 H :    0.208891
  17 H :    0.237181
  18 H :    0.237181
  19 H :    0.238659
  20 H :    0.238659
  21 H :    0.321634
  22 H :    0.321634
Sum of atomic charges:    0.0000000

LOEWDIN ATOMIC CHARGES
----------------------
   0 C :   -0.801162
   1 C :    0.580923
   2 C :    0.580487
   3 C :    0.273442
   4 C :    0.256088
   5 C :    0.257569
   6 C :    0.033891
   7 O :    0.470794
   8 O :    0.581663
   9 H :   -0.170234
  10 H :   -0.170234
  11 H :   -0.173559
  12 H :   -0.174006
  13 H :   -0.173413
  14 H :   -0.173413
  15 H :   -0.147840
  16 H :   -0.147840
  17 H :   -0.147985
  18 H :   -0.147985
  19 H :   -0.143426
  20 H :   -0.143426
  21 H :   -0.160166
  22 H :   -0.160166

  Mayer bond orders larger than 0.100000
B(  0-C ,  3-C ) :   0.6060 B(  0-C ,  7-O ) :   1.4241 B(  0-C ,  8-O ) :   1.1218
B(  1-C ,  4-C ) :   0.9276 B(  1-C ,  9-H ) :   0.9586 B(  1-C , 10-H ) :   0.9586
B(  1-C , 11-H ) :   0.9818 B(  2-C ,  6-C ) :   0.8866 B(  2-C , 12-H ) :   0.9314
B(  2-C , 13-H ) :   0.9775 B(  2-C , 14-H ) :   0.9775 B(  3-C ,  5-C ) :   1.0050
B(  3-C ,  8-O ) :  -0.1302 B(  3-C , 15-H ) :   0.9558 B(  3-C , 16-H ) :   0.9558
B(  4-C ,  5-C ) :   0.8767 B(  4-C , 17-H ) :   0.9583 B(  4-C , 18-H ) :   0.9583
B(  5-C , 19-H ) :   0.9410 B(  5-C , 20-H ) :   0.9410 B(  6-C ,  8-O ) :   0.7565
B(  6-C , 21-H ) :   0.9014 B(  6-C , 22-H ) :   0.9014

MP2 TOTAL ENERGY:     -424.834120553 Eh
FINAL SINGLE POINT ENERGY      -424.834120553086

DIPOLE MOMENT
-------------
                                X             Y             Z
Electronic contribution:      0.54378       6.92555       0.00000
Nuclear contribution   :      0.22806      -7.10070       0.00000
                        -----------------------------------------
Total Dipole Moment    :      0.77185      -0.17516       0.00000
                        -----------------------------------------
Magnitude (a.u.)       :      0.79147
Magnitude (Debye)      :      2.01176

Rotational constants in cm-1:     0.201970     0.017493     0.016390
Rotational constants in MHz :  6054.897327   524.429981   491.350133

                             ****ORCA TERMINATED NORMALLY****
TOTAL RUN TIME: 0 days 0 hours 11 minutes 18 seconds 483 msec
