                         Program Version 5.0.3 -  RELEASE  -
|  1> !ri-mp2 aug-cc-pvtz aug-cc-pvtz/c tightscf
|  2> %pal nprocs 16 end
|  3>
|  4> * xyz 0 1
|  5> C     0.000000     2.382161    0.411002
|  6> C     0.000000    -2.382161    0.411002
|  7> C     0.000000     1.185118   -0.517097
|  8> C     0.000000    -1.185118   -0.517097
|  9> O     0.000000     0.000000    0.260427
| 10> H     0.000000     3.307756   -0.166158
| 11> H    -0.883458     2.373885    1.049360
| 12> H     0.883458     2.373885    1.049360
| 13> H     0.000000    -3.307756   -0.166158
| 14> H     0.883458    -2.373885    1.049360
| 15> H    -0.883458    -2.373885    1.049360
| 16> H     0.884361     1.201870   -1.168850
| 17> H    -0.884361     1.201870   -1.168850
| 18> H    -0.884361    -1.201870   -1.168850
| 19> H     0.884361    -1.201870   -1.168850
| 20> *
| 21>
| 22>                          ****END OF INPUT****

CARTESIAN COORDINATES (ANGSTROEM)
---------------------------------
  C      0.000000    2.382161    0.411002
  C      0.000000   -2.382161    0.411002
  C      0.000000    1.185118   -0.517097
  C      0.000000   -1.185118   -0.517097
  O      0.000000    0.000000    0.260427
  H      0.000000    3.307756   -0.166158
  H     -0.883458    2.373885    1.049360
  H      0.883458    2.373885    1.049360
  H      0.000000   -3.307756   -0.166158
  H      0.883458   -2.373885    1.049360
  H     -0.883458   -2.373885    1.049360
  H      0.884361    1.201870   -1.168850
  H     -0.884361    1.201870   -1.168850
  H     -0.884361   -1.201870   -1.168850
  H      0.884361   -1.201870   -1.168850

 Total Charge           Charge          ....    0
 Multiplicity           Mult            ....    1
 Number of Electrons    NEL             ....   42
 Basis Dimension        Dim             ....  460

ORBITAL ENERGIES
----------------

  NO   OCC          E(Eh)            E(eV)
   0   2.0000     -20.549390      -559.1773
   1   2.0000     -11.271282      -306.7072
   2   2.0000     -11.271262      -306.7066
   3   2.0000     -11.211243      -305.0734
   4   2.0000     -11.211242      -305.0734
   5   2.0000      -1.367982       -37.2247
   6   2.0000      -1.040506       -28.3136
   7   2.0000      -0.982727       -26.7414
   8   2.0000      -0.841351       -22.8943
   9   2.0000      -0.825258       -22.4564
  10   2.0000      -0.673363       -18.3231
  11   2.0000      -0.661337       -17.9959
  12   2.0000      -0.603878       -16.4324
  13   2.0000      -0.595522       -16.2050
  14   2.0000      -0.549080       -14.9412
  15   2.0000      -0.529189       -14.4000
  16   2.0000      -0.520557       -14.1651
  17   2.0000      -0.493003       -13.4153
  18   2.0000      -0.486167       -13.2293
  19   2.0000      -0.469285       -12.7699
  20   2.0000      -0.416940       -11.3455
  21   0.0000       0.031344         0.8529
  22   0.0000       0.036009         0.9799
  23   0.0000       0.040260         1.0955
  24   0.0000       0.040530         1.1029
  25   0.0000       0.054463         1.4820

MULLIKEN ATOMIC CHARGES
-----------------------
   0 C :   -0.990072
   1 C :   -0.990072
   2 C :   -0.199442
   3 C :   -0.199442
   4 O :   -0.508973
   5 H :    0.324357
   6 H :    0.262784
   7 H :    0.262784
   8 H :    0.324357
   9 H :    0.262784
  10 H :    0.262784
  11 H :    0.297037
  12 H :    0.297037
  13 H :    0.297037
  14 H :    0.297037
Sum of atomic charges:    0.0000000

LOEWDIN ATOMIC CHARGES
----------------------
   0 C :    0.575302
   1 C :    0.575302
   2 C :   -0.016036
   3 C :   -0.016036
   4 O :    0.564559
   5 H :   -0.177699
   6 H :   -0.174875
   7 H :   -0.174875
   8 H :   -0.177699
   9 H :   -0.174875
  10 H :   -0.174875
  11 H :   -0.157048
  12 H :   -0.157048
  13 H :   -0.157048
  14 H :   -0.157048

  Mayer bond orders larger than 0.100000
B(  0-C ,  2-C ) :   0.8902 B(  0-C ,  5-H ) :   0.9235 B(  0-C ,  6-H ) :   0.9659
B(  0-C ,  7-H ) :   0.9659 B(  1-C ,  3-C ) :   0.8902 B(  1-C ,  8-H ) :   0.9235
B(  1-C ,  9-H ) :   0.9659 B(  1-C , 10-H ) :   0.9659 B(  2-C ,  4-O ) :   0.9070
B(  2-C , 11-H ) :   0.8919 B(  2-C , 12-H ) :   0.8919 B(  3-C ,  4-O ) :   0.9070
B(  3-C , 13-H ) :   0.8919 B(  3-C , 14-H ) :   0.8919

MP2 TOTAL ENERGY:     -233.196981773 Eh
FINAL SINGLE POINT ENERGY      -233.196981773058

DIPOLE MOMENT
-------------
                                X             Y             Z
Electronic contribution:     -0.00000      -0.00000       0.35540
Nuclear contribution   :      0.00000       0.00000      -0.85790
                        -----------------------------------------
Total Dipole Moment    :     -0.00000      -0.00000      -0.50249
                        -----------------------------------------
Magnitude (a.u.)       :      0.50249
Magnitude (Debye)      :      1.27724

Rotational constants in cm-1:     0.605041     0.074276     0.069596
Rotational constants in MHz : 18138.686183  2226.731620  2086.435838

                             ****ORCA TERMINATED NORMALLY****
TOTAL RUN TIME: 0 days 0 hours 2 minutes 39 seconds 706 msec
