                         Program Version 5.0.3 -  RELEASE  -
|  1> !ri-mp2 aug-cc-pvtz aug-cc-pvtz/c tightscf
|  2> %pal nprocs 16 end
|  3>
|  4> * xyz 0 1
|  5> H      2.655683    0.401193    0.000000
|  6> H      2.622682   -1.138527    0.875361
|  7> H      2.622682   -1.138527   -0.875361
|  8> C      2.242257   -0.606309    0.000000
|  9> H      0.256482   -1.562903    0.000000
| 10> C      0.752473   -0.598413    0.000000
| 11> H      0.451575    1.489847    0.000000
| 12> C      0.000000    0.504802    0.000000
| 13> N     -2.576635    0.473241    0.000000
| 14> C     -1.423506    0.472625    0.000000
| 15> *
| 16>
| 17>                          ****END OF INPUT****

CARTESIAN COORDINATES (ANGSTROEM)
---------------------------------
  H      2.655683    0.401193    0.000000
  H      2.622682   -1.138527    0.875361
  H      2.622682   -1.138527   -0.875361
  C      2.242257   -0.606309    0.000000
  H      0.256482   -1.562903    0.000000
  C      0.752473   -0.598413    0.000000
  H      0.451575    1.489847    0.000000
  C      0.000000    0.504802    0.000000
  N     -2.576635    0.473241    0.000000
  C     -1.423506    0.472625    0.000000

 Total Charge           Charge          ....    0
 Multiplicity           Mult            ....    1
 Number of Electrons    NEL             ....   36
 Basis Dimension        Dim             ....  345

ORBITAL ENERGIES
----------------

  NO   OCC          E(Eh)            E(eV)
   0   2.0000     -15.567435      -423.6114
   1   2.0000     -11.286251      -307.1145
   2   2.0000     -11.277284      -306.8705
   3   2.0000     -11.272695      -306.7456
   4   2.0000     -11.253093      -306.2122
   5   2.0000      -1.219567       -33.1861
   6   2.0000      -1.118739       -30.4424
   7   2.0000      -0.994666       -27.0662
   8   2.0000      -0.834420       -22.7057
   9   2.0000      -0.733780       -19.9672
  10   2.0000      -0.641566       -17.4579
  11   2.0000      -0.600476       -16.3398
  12   2.0000      -0.584188       -15.8966
  13   2.0000      -0.553396       -15.0587
  14   2.0000      -0.541108       -14.7243
  15   2.0000      -0.510668       -13.8960
  16   2.0000      -0.464384       -12.6365
  17   2.0000      -0.381326       -10.3764
  18   0.0000       0.021600         0.5878
  19   0.0000       0.032637         0.8881
  20   0.0000       0.039755         1.0818
  21   0.0000       0.041021         1.1162
  22   0.0000       0.057592         1.5672

MULLIKEN ATOMIC CHARGES
-----------------------
   0 H :    0.284717
   1 H :    0.303789
   2 H :    0.303789
   3 C :   -0.740949
   4 H :    0.273584
   5 C :   -0.428655
   6 H :    0.316635
   7 C :   -0.038950
   8 N :   -0.659085
   9 C :    0.385126
Sum of atomic charges:   -0.0000000

LOEWDIN ATOMIC CHARGES
----------------------
   0 H :   -0.177003
   1 H :   -0.169030
   2 H :   -0.169030
   3 C :    0.572401
   4 H :   -0.170336
   5 C :    0.203805
   6 H :   -0.205224
   7 C :    0.137733
   8 N :    0.246411
   9 C :   -0.269727

  Mayer bond orders larger than 0.100000
B(  0-H ,  3-C ) :   0.9521 B(  1-H ,  3-C ) :   0.9512 B(  2-H ,  3-C ) :   0.9512
B(  3-C ,  5-C ) :   0.7202 B(  4-H ,  5-C ) :   1.0341 B(  5-C ,  7-C ) :   1.2983
B(  6-H ,  7-C ) :   0.9248 B(  7-C ,  9-C ) :   1.0007 B(  8-N ,  9-C ) :   2.1909

MP2 TOTAL ENERGY:     -209.724621147 Eh
FINAL SINGLE POINT ENERGY      -209.724621147195

DIPOLE MOMENT
-------------
                                X             Y             Z
Electronic contribution:     -6.65299       1.64213       0.00000
Nuclear contribution   :      8.66054      -1.96121       0.00000
                        -----------------------------------------
Total Dipole Moment    :      2.00755      -0.31909       0.00000
                        -----------------------------------------
Magnitude (a.u.)       :      2.03275
Magnitude (Debye)      :      5.16685

Rotational constants in cm-1:     1.303389     0.076677     0.073391
Rotational constants in MHz : 39074.619986  2298.710543  2200.194675

                             ****ORCA TERMINATED NORMALLY****
TOTAL RUN TIME: 0 days 0 hours 1 minutes 29 seconds 427 msec
