                         Program Version 5.0.3 -  RELEASE  -
|  1> !ri-mp2 aug-cc-pvtz aug-cc-pvtz/c tightscf
|  2> %pal nprocs 16 end
|  3>
|  4> * xyz 0 1
|  5> C     -0.679556    0.246701    0.000059
|  6> C     -1.868935    0.053330   -0.000014
|  7> C      0.712990    0.524010    0.000070
|  8> C      1.678405   -0.401807    0.000097
|  9> C     -3.302324   -0.193398   -0.000060
| 10> C      3.141388   -0.102342   -0.000083
| 11> H      0.991810    1.574332    0.000000
| 12> H      1.392525   -1.448439    0.000167
| 13> H     -3.608764   -0.738322    0.895198
| 14> H     -3.862184    0.743039   -0.028117
| 15> H     -3.600383   -0.786260   -0.867207
| 16> H      3.630920   -0.536953   -0.875960
| 17> H      3.631186   -0.536992    0.875622
| 18> H      3.333073    0.970625   -0.000115
| 19> *
| 20>
| 21>                          ****END OF INPUT****

CARTESIAN COORDINATES (ANGSTROEM)
---------------------------------
  C     -0.679556    0.246701    0.000059
  C     -1.868935    0.053330   -0.000014
  C      0.712990    0.524010    0.000070
  C      1.678405   -0.401807    0.000097
  C     -3.302324   -0.193398   -0.000060
  C      3.141388   -0.102342   -0.000083
  H      0.991810    1.574332    0.000000
  H      1.392525   -1.448439    0.000167
  H     -3.608764   -0.738322    0.895198
  H     -3.862184    0.743039   -0.028117
  H     -3.600383   -0.786260   -0.867207
  H      3.630920   -0.536953   -0.875960
  H      3.631186   -0.536992    0.875622
  H      3.333073    0.970625   -0.000115

 Total Charge           Charge          ....    0
 Multiplicity           Mult            ....    1
 Number of Electrons    NEL             ....   44
 Basis Dimension        Dim             ....  460

ORBITAL ENERGIES
----------------

  NO   OCC          E(Eh)            E(eV)
   0   2.0000     -11.243528      -305.9519
   1   2.0000     -11.243073      -305.9396
   2   2.0000     -11.241276      -305.8907
   3   2.0000     -11.226785      -305.4964
   4   2.0000     -11.221984      -305.3657
   5   2.0000     -11.215317      -305.1843
   6   2.0000      -1.095405       -29.8075
   7   2.0000      -1.046282       -28.4708
   8   2.0000      -0.979134       -26.6436
   9   2.0000      -0.919442       -25.0193
  10   2.0000      -0.786999       -21.4153
  11   2.0000      -0.689383       -18.7591
  12   2.0000      -0.622183       -16.9305
  13   2.0000      -0.604262       -16.4428
  14   2.0000      -0.585036       -15.9196
  15   2.0000      -0.582498       -15.8506
  16   2.0000      -0.572383       -15.5753
  17   2.0000      -0.541601       -14.7377
  18   2.0000      -0.509611       -13.8672
  19   2.0000      -0.439093       -11.9483
  20   2.0000      -0.369258       -10.0480
  21   2.0000      -0.316625        -8.6158
  22   0.0000       0.029790         0.8106
  23   0.0000       0.031425         0.8551
  24   0.0000       0.037670         1.0251
  25   0.0000       0.044897         1.2217
  26   0.0000       0.050087         1.3629

MULLIKEN ATOMIC CHARGES
-----------------------
   0 C :    0.879585
   1 C :   -0.098722
   2 C :   -0.450195
   3 C :   -0.666442
   4 C :   -0.985310
   5 C :   -0.761590
   6 H :    0.132747
   7 H :    0.238533
   8 H :    0.292011
   9 H :    0.273509
  10 H :    0.291498
  11 H :    0.286059
  12 H :    0.286192
  13 H :    0.282124
Sum of atomic charges:    0.0000000

LOEWDIN ATOMIC CHARGES
----------------------
   0 C :    0.034347
   1 C :    0.080922
   2 C :    0.113291
   3 C :    0.194773
   4 C :    0.505988
   5 C :    0.552905
   6 H :   -0.206056
   7 H :   -0.181166
   8 H :   -0.186678
   9 H :   -0.187302
  10 H :   -0.186689
  11 H :   -0.175602
  12 H :   -0.175605
  13 H :   -0.183129

  Mayer bond orders larger than 0.100000
B(  0-C ,  1-C ) :   2.1747 B(  0-C ,  2-C ) :   0.6463 B(  0-C ,  4-C ) :  -0.3033
B(  0-C ,  6-H ) :  -0.1626 B(  1-C ,  3-C ) :   0.1450 B(  1-C ,  4-C ) :   1.1456
B(  2-C ,  3-C ) :   1.2958 B(  2-C ,  4-C ) :   0.1448 B(  2-C ,  6-H ) :   1.2285
B(  3-C ,  5-C ) :   0.7353 B(  3-C ,  7-H ) :   1.1233 B(  4-C ,  8-H ) :   0.9401
B(  4-C ,  9-H ) :   0.9654 B(  4-C , 10-H ) :   0.9412 B(  5-C , 11-H ) :   0.9694
B(  5-C , 12-H ) :   0.9694 B(  5-C , 13-H ) :   0.9382

MP2 TOTAL ENERGY:     -232.860745190 Eh
FINAL SINGLE POINT ENERGY      -232.860745189824

DIPOLE MOMENT
-------------
                                X             Y             Z
Electronic contribution:     -1.90031       0.66107       0.00033
Nuclear contribution   :      1.96784      -0.78270      -0.00043
                        -----------------------------------------
Total Dipole Moment    :      0.06753      -0.12163      -0.00009
                        -----------------------------------------
Magnitude (a.u.)       :      0.13912
Magnitude (Debye)      :      0.35361

Rotational constants in cm-1:     0.960491     0.039949     0.038905
Rotational constants in MHz : 28794.782458  1197.634304  1166.332140

                             ****ORCA TERMINATED NORMALLY****
TOTAL RUN TIME: 0 days 0 hours 2 minutes 35 seconds 33 msec
