                         Program Version 5.0.3 -  RELEASE  -
|  1> !ri-mp2 aug-cc-pvtz aug-cc-pvtz/c tightscf
|  2> %pal nprocs 16 end
|  3>
|  4> * xyz 0 1
|  5> C     -1.215127   -0.241882   -0.021159
|  6> C      0.077656    0.555024    0.046899
|  7> O      1.241995   -0.256233   -0.108913
|  8> H     -2.078754    0.421353    0.059053
|  9> H     -1.283191   -0.786082   -0.963270
| 10> H     -1.275073   -0.964301    0.796308
| 11> H      0.129488    1.119523    0.984758
| 12> H      0.123133    1.276394   -0.768848
| 13> H      1.273257   -0.895870    0.608864
| 14> *
| 15>
| 16>                          ****END OF INPUT****

CARTESIAN COORDINATES (ANGSTROEM)
---------------------------------
  C     -1.215127   -0.241882   -0.021159
  C      0.077656    0.555024    0.046899
  O      1.241995   -0.256233   -0.108913
  H     -2.078754    0.421353    0.059053
  H     -1.283191   -0.786082   -0.963270
  H     -1.275073   -0.964301    0.796308
  H      0.129488    1.119523    0.984758
  H      0.123133    1.276394   -0.768848
  H      1.273257   -0.895870    0.608864

 Total Charge           Charge          ....    0
 Multiplicity           Mult            ....    1
 Number of Electrons    NEL             ....   26
 Basis Dimension        Dim             ....  276

ORBITAL ENERGIES
----------------

  NO   OCC          E(Eh)            E(eV)
   0   2.0000     -20.554962      -559.3289
   1   2.0000     -11.275333      -306.8174
   2   2.0000     -11.219003      -305.2846
   3   2.0000      -1.354499       -36.8578
   4   2.0000      -1.012841       -27.5608
   5   2.0000      -0.848331       -23.0842
   6   2.0000      -0.685499       -18.6534
   7   2.0000      -0.621883       -16.9223
   8   2.0000      -0.606079       -16.4923
   9   2.0000      -0.545249       -14.8370
  10   2.0000      -0.525433       -14.2978
  11   2.0000      -0.481958       -13.1147
  12   2.0000      -0.444005       -12.0820
  13   0.0000       0.029311         0.7976
  14   0.0000       0.039117         1.0644
  15   0.0000       0.041540         1.1304
  16   0.0000       0.045424         1.2360
  17   0.0000       0.064620         1.7584

MULLIKEN ATOMIC CHARGES
-----------------------
   0 C :   -0.931475
   1 C :   -0.141767
   2 O :   -0.580645
   3 H :    0.304769
   4 H :    0.294494
   5 H :    0.273890
   6 H :    0.273485
   7 H :    0.332727
   8 H :    0.174520
Sum of atomic charges:    0.0000000

LOEWDIN ATOMIC CHARGES
----------------------
   0 C :    0.570398
   1 C :    0.012707
   2 O :    0.794421
   3 H :   -0.178237
   4 H :   -0.176954
   5 H :   -0.180257
   6 H :   -0.164315
   7 H :   -0.173462
   8 H :   -0.504301

  Mayer bond orders larger than 0.100000
B(  0-C ,  1-C ) :   0.9112 B(  0-C ,  3-H ) :   0.9178 B(  0-C ,  4-H ) :   0.9118
B(  0-C ,  5-H ) :   0.9304 B(  1-C ,  2-O ) :   0.7384 B(  1-C ,  6-H ) :   0.9435
B(  1-C ,  7-H ) :   0.8911 B(  2-O ,  8-H ) :   0.9951

MP2 TOTAL ENERGY:     -154.757927735 Eh
FINAL SINGLE POINT ENERGY      -154.757927735095

DIPOLE MOMENT
-------------
                                X             Y             Z
Electronic contribution:      2.74406      -0.21904      -0.27193
Nuclear contribution   :     -3.27684       0.17698       0.75801
                        -----------------------------------------
Total Dipole Moment    :     -0.53278      -0.04206       0.48607
                        -----------------------------------------
Magnitude (a.u.)       :      0.72242
Magnitude (Debye)      :      1.83624

Rotational constants in cm-1:     1.153023     0.304716     0.269527
Rotational constants in MHz : 34566.765893  9135.152043  8080.219190

                             ****ORCA TERMINATED NORMALLY****
TOTAL RUN TIME: 0 days 0 hours 0 minutes 48 seconds 818 msec
