                         Program Version 5.0.3 -  RELEASE  -
|  1> !ri-mp2 aug-cc-pvtz aug-cc-pvtz/c tightscf
|  2> %pal nprocs 16 end
|  3>
|  4> * xyz 0 1
|  5> C    -0.364902     0.550673       0.000000
|  6> C     0.364902    -0.550673       0.000000
|  7> Cl    0.364902     2.127712       0.000000
|  8> Cl   -0.364902    -2.127712       0.000000
|  9> H    -1.443008     0.559873       0.000000
| 10> H     1.443008    -0.559873       0.000000
| 11> *
| 12>
| 13>                          ****END OF INPUT****

CARTESIAN COORDINATES (ANGSTROEM)
---------------------------------
  C     -0.364902    0.550673    0.000000
  C      0.364902   -0.550673    0.000000
  Cl     0.364902    2.127712    0.000000
  Cl    -0.364902   -2.127712    0.000000
  H     -1.443008    0.559873    0.000000
  H      1.443008   -0.559873    0.000000

 Total Charge           Charge          ....    0
 Multiplicity           Mult            ....    1
 Number of Electrons    NEL             ....   48
 Basis Dimension        Dim             ....  238

ORBITAL ENERGIES
----------------

  NO   OCC          E(Eh)            E(eV)
   0   2.0000    -104.858414     -2853.3425
   1   2.0000    -104.858414     -2853.3425
   2   2.0000     -11.319378      -308.0159
   3   2.0000     -11.317551      -307.9662
   4   2.0000     -10.582132      -287.9544
   5   2.0000     -10.582130      -287.9544
   6   2.0000      -8.049066      -219.0262
   7   2.0000      -8.049065      -219.0262
   8   2.0000      -8.047066      -218.9718
   9   2.0000      -8.047066      -218.9718
  10   2.0000      -8.047064      -218.9718
  11   2.0000      -8.047064      -218.9718
  12   2.0000      -1.192984       -32.4627
  13   2.0000      -1.141411       -31.0594
  14   2.0000      -0.995219       -27.0813
  15   2.0000      -0.807366       -21.9695
  16   2.0000      -0.661471       -17.9995
  17   2.0000      -0.647643       -17.6233
  18   2.0000      -0.547523       -14.8989
  19   2.0000      -0.546839       -14.8802
  20   2.0000      -0.496836       -13.5196
  21   2.0000      -0.472188       -12.8489
  22   2.0000      -0.467583       -12.7236
  23   2.0000      -0.370790       -10.0897
  24   0.0000       0.033885         0.9221
  25   0.0000       0.038195         1.0393
  26   0.0000       0.061552         1.6749
  27   0.0000       0.081761         2.2248
  28   0.0000       0.085734         2.3329

MULLIKEN ATOMIC CHARGES
-----------------------
   0 C :   -0.286213
   1 C :   -0.286213
   2 Cl:   -0.248894
   3 Cl:   -0.248894
   4 H :    0.535107
   5 H :    0.535107
Sum of atomic charges:   -0.0000000

LOEWDIN ATOMIC CHARGES
----------------------
   0 C :   -0.582239
   1 C :   -0.582239
   2 Cl:    0.896754
   3 Cl:    0.896754
   4 H :   -0.314515
   5 H :   -0.314515

  Mayer bond orders larger than 0.100000
B(  0-C ,  1-C ) :   1.7373 B(  0-C ,  2-Cl) :   0.9226 B(  0-C ,  4-H ) :   0.6746
B(  1-C ,  3-Cl) :   0.9226 B(  1-C ,  5-H ) :   0.6746

MP2 TOTAL ENERGY:     -996.645802831 Eh
FINAL SINGLE POINT ENERGY      -996.645802830651

DIPOLE MOMENT
-------------
                                X             Y             Z
Electronic contribution:     -0.00000      -0.00000      -0.00000
Nuclear contribution   :      0.00000       0.00000       0.00000
                        -----------------------------------------
Total Dipole Moment    :     -0.00000      -0.00000      -0.00000
                        -----------------------------------------
Magnitude (a.u.)       :      0.00000
Magnitude (Debye)      :      0.00000

Rotational constants in cm-1:     1.784682     0.050125     0.048756
Rotational constants in MHz : 53503.426764  1502.713870  1461.661199

                             ****ORCA TERMINATED NORMALLY****
TOTAL RUN TIME: 0 days 0 hours 0 minutes 56 seconds 666 msec
