                         Program Version 5.0.3 -  RELEASE  -
|  1> !ri-mp2 aug-cc-pvtz aug-cc-pvtz/c tightscf
|  2> %pal nprocs 16 end
|  3>
|  4> * xyz 0 1
|  5> C      2.445855   -0.294356   -0.000008
|  6> H      2.499430   -1.373583    0.000358
|  7> H      3.364930    0.269880   -0.000226
|  8> C      1.282938    0.346338   -0.000141
|  9> H      1.226582    1.430931   -0.000503
| 10> O      0.088531   -0.298764    0.000118
| 11> C     -1.073605    0.536374    0.000222
| 12> H     -1.057562    1.179175   -0.885919
| 13> H     -1.057825    1.178653    0.886755
| 14> C     -2.298114   -0.351311   -0.000172
| 15> H     -2.312414   -0.988238   -0.884210
| 16> H     -2.312552   -0.988828    0.883437
| 17> H     -3.201281    0.259848   -0.000035
| 18> *
| 19>
| 20>                          ****END OF INPUT****

CARTESIAN COORDINATES (ANGSTROEM)
---------------------------------
  C      2.445855   -0.294356   -0.000008
  H      2.499430   -1.373583    0.000358
  H      3.364930    0.269880   -0.000226
  C      1.282938    0.346338   -0.000141
  H      1.226582    1.430931   -0.000503
  O      0.088531   -0.298764    0.000118
  C     -1.073605    0.536374    0.000222
  H     -1.057562    1.179175   -0.885919
  H     -1.057825    1.178653    0.886755
  C     -2.298114   -0.351311   -0.000172
  H     -2.312414   -0.988238   -0.884210
  H     -2.312552   -0.988828    0.883437
  H     -3.201281    0.259848   -0.000035

 Total Charge           Charge          ....    0
 Multiplicity           Mult            ....    1
 Number of Electrons    NEL             ....   40
 Basis Dimension        Dim             ....  414

ORBITAL ENERGIES
----------------

  NO   OCC          E(Eh)            E(eV)
   0   2.0000     -20.577583      -559.9445
   1   2.0000     -11.288602      -307.1785
   2   2.0000     -11.288494      -307.1755
   3   2.0000     -11.222001      -305.3662
   4   2.0000     -11.206334      -304.9398
   5   2.0000      -1.402367       -38.1603
   6   2.0000      -1.055939       -28.7336
   7   2.0000      -0.993687       -27.0396
   8   2.0000      -0.852980       -23.2108
   9   2.0000      -0.793381       -21.5890
  10   2.0000      -0.689886       -18.7727
  11   2.0000      -0.667425       -18.1616
  12   2.0000      -0.634125       -17.2554
  13   2.0000      -0.566805       -15.4235
  14   2.0000      -0.555249       -15.1091
  15   2.0000      -0.535527       -14.5724
  16   2.0000      -0.530473       -14.4349
  17   2.0000      -0.491693       -13.3796
  18   2.0000      -0.484633       -13.1875
  19   2.0000      -0.337291        -9.1782
  20   0.0000       0.029042         0.7903
  21   0.0000       0.036007         0.9798
  22   0.0000       0.038887         1.0582
  23   0.0000       0.042237         1.1493
  24   0.0000       0.052867         1.4386

MULLIKEN ATOMIC CHARGES
-----------------------
   0 C :   -0.940624
   1 H :    0.376579
   2 H :    0.440347
   3 C :   -0.269608
   4 H :    0.518684
   5 O :   -0.436173
   6 C :   -0.199090
   7 H :    0.290766
   8 H :    0.290756
   9 C :   -0.939063
  10 H :    0.278740
  11 H :    0.278728
  12 H :    0.309959
Sum of atomic charges:    0.0000000

LOEWDIN ATOMIC CHARGES
----------------------
   0 C :    0.497908
   1 H :   -0.236037
   2 H :   -0.254912
   3 C :   -0.113030
   4 H :   -0.200362
   5 O :    0.549423
   6 C :    0.009161
   7 H :   -0.155915
   8 H :   -0.155881
   9 C :    0.579730
  10 H :   -0.172498
  11 H :   -0.172498
  12 H :   -0.175088

  Mayer bond orders larger than 0.100000
B(  0-C ,  1-H ) :   0.9503 B(  0-C ,  2-H ) :   0.7892 B(  0-C ,  3-C ) :   1.5019
B(  3-C ,  4-H ) :   0.7719 B(  3-C ,  5-O ) :   1.0024 B(  5-O ,  6-C ) :   0.8420
B(  6-C ,  7-H ) :   0.9191 B(  6-C ,  8-H ) :   0.9192 B(  6-C ,  9-C ) :   0.8786
B(  9-C , 10-H ) :   0.9481 B(  9-C , 11-H ) :   0.9481 B(  9-C , 12-H ) :   0.9387

MP2 TOTAL ENERGY:     -231.972906684 Eh
FINAL SINGLE POINT ENERGY      -231.972906683703

DIPOLE MOMENT
-------------
                                X             Y             Z
Electronic contribution:      2.49310      -0.44140       0.00031
Nuclear contribution   :     -2.96847       1.00341      -0.00036
                        -----------------------------------------
Total Dipole Moment    :     -0.47537       0.56201      -0.00005
                        -----------------------------------------
Magnitude (a.u.)       :      0.73610
Magnitude (Debye)      :      1.87101

Rotational constants in cm-1:     0.807689     0.078529     0.073543
Rotational constants in MHz : 24213.902303  2354.251437  2204.768494

                             ****ORCA TERMINATED NORMALLY****
TOTAL RUN TIME: 0 days 0 hours 2 minutes 23 seconds 620 msec
