                         Program Version 5.0.3 -  RELEASE  -
|  1> !ri-mp2 aug-cc-pvtz aug-cc-pvtz/c tightscf
|  2> %pal nprocs 16 end
|  3>
|  4> * xyz 0 1
|  5> C     1.188032     2.829092       0.000000
|  6> C    -1.188032    -2.829092       0.000000
|  7> C     1.188032     1.492100       0.000000
|  8> C    -1.188032    -1.492100       0.000000
|  9> C    -0.002470     0.672860       0.000000
| 10> C     0.002470    -0.672860       0.000000
| 11> H     2.108575     3.395117       0.000000
| 12> H     0.264255     3.394397       0.000000
| 13> H    -2.108575    -3.395117       0.000000
| 14> H    -0.264255    -3.394397       0.000000
| 15> H     2.137085     0.964589       0.000000
| 16> H    -2.137085    -0.964589       0.000000
| 17> H    -0.955353     1.194813       0.000000
| 18> H     0.955353    -1.194813       0.000000
| 19> *
| 20>
| 21>                          ****END OF INPUT****

CARTESIAN COORDINATES (ANGSTROEM)
---------------------------------
  C      1.188032    2.829092    0.000000
  C     -1.188032   -2.829092    0.000000
  C      1.188032    1.492100    0.000000
  C     -1.188032   -1.492100    0.000000
  C     -0.002470    0.672860    0.000000
  C      0.002470   -0.672860    0.000000
  H      2.108575    3.395117    0.000000
  H      0.264255    3.394397    0.000000
  H     -2.108575   -3.395117    0.000000
  H     -0.264255   -3.394397    0.000000
  H      2.137085    0.964589    0.000000
  H     -2.137085   -0.964589    0.000000
  H     -0.955353    1.194813    0.000000
  H      0.955353   -1.194813    0.000000

 Total Charge           Charge          ....    0
 Multiplicity           Mult            ....    1
 Number of Electrons    NEL             ....   44
 Basis Dimension        Dim             ....  460

ORBITAL ENERGIES
----------------

  NO   OCC          E(Eh)            E(eV)
   0   2.0000     -11.240683      -305.8745
   1   2.0000     -11.240404      -305.8670
   2   2.0000     -11.239803      -305.8506
   3   2.0000     -11.238471      -305.8143
   4   2.0000     -11.229578      -305.5724
   5   2.0000     -11.229578      -305.5724
   6   2.0000      -1.113323       -30.2951
   7   2.0000      -1.060961       -28.8702
   8   2.0000      -0.985942       -26.8289
   9   2.0000      -0.850866       -23.1533
  10   2.0000      -0.763503       -20.7760
  11   2.0000      -0.762416       -20.7464
  12   2.0000      -0.667517       -18.1641
  13   2.0000      -0.636720       -17.3260
  14   2.0000      -0.602623       -16.3982
  15   2.0000      -0.570772       -15.5315
  16   2.0000      -0.543641       -14.7932
  17   2.0000      -0.515405       -14.0249
  18   2.0000      -0.494570       -13.4579
  19   2.0000      -0.469825       -12.7846
  20   2.0000      -0.398613       -10.8468
  21   2.0000      -0.295724        -8.0471
  22   0.0000       0.030457         0.8288
  23   0.0000       0.031751         0.8640
  24   0.0000       0.032909         0.8955
  25   0.0000       0.047384         1.2894
  26   0.0000       0.048467         1.3188

MULLIKEN ATOMIC CHARGES
-----------------------
   0 C :   -1.210454
   1 C :   -1.210454
   2 C :   -0.068939
   3 C :   -0.068939
   4 C :   -0.013638
   5 C :   -0.013638
   6 H :    0.445613
   7 H :    0.294828
   8 H :    0.445613
   9 H :    0.294828
  10 H :    0.307667
  11 H :    0.307667
  12 H :    0.244922
  13 H :    0.244922
Sum of atomic charges:   -0.0000000

LOEWDIN ATOMIC CHARGES
----------------------
   0 C :    0.525641
   1 C :    0.525641
   2 C :    0.138139
   3 C :    0.138139
   4 C :    0.171945
   5 C :    0.171945
   6 H :   -0.228785
   7 H :   -0.223482
   8 H :   -0.228785
   9 H :   -0.223482
  10 H :   -0.195516
  11 H :   -0.195516
  12 H :   -0.187942
  13 H :   -0.187942

  Mayer bond orders larger than 0.100000
B(  0-C ,  2-C ) :   1.2762 B(  0-C ,  4-C ) :  -0.2259 B(  0-C ,  6-H ) :   0.7413
B(  0-C ,  7-H ) :   1.1024 B(  1-C ,  3-C ) :   1.2762 B(  1-C ,  5-C ) :  -0.2259
B(  1-C ,  8-H ) :   0.7413 B(  1-C ,  9-H ) :   1.1024 B(  2-C ,  4-C ) :   0.3637
B(  2-C ,  5-C ) :  -0.1727 B(  2-C , 10-H ) :   1.0991 B(  3-C ,  4-C ) :  -0.1727
B(  3-C ,  5-C ) :   0.3637 B(  3-C , 11-H ) :   1.0991 B(  4-C ,  5-C ) :   0.9523
B(  4-C , 11-H ) :  -0.1279 B(  4-C , 12-H ) :   1.2377 B(  5-C , 10-H ) :  -0.1279
B(  5-C , 13-H ) :   1.2377

MP2 TOTAL ENERGY:     -232.874166054 Eh
FINAL SINGLE POINT ENERGY      -232.874166053681

DIPOLE MOMENT
-------------
                                X             Y             Z
Electronic contribution:     -0.00000       0.00000       0.00000
Nuclear contribution   :      0.00000       0.00000       0.00000
                        -----------------------------------------
Total Dipole Moment    :     -0.00000       0.00000       0.00000
                        -----------------------------------------
Magnitude (a.u.)       :      0.00000
Magnitude (Debye)      :      0.00000

Rotational constants in cm-1:     0.896251     0.044716     0.042591
Rotational constants in MHz : 26868.927144  1340.541294  1276.837472

                             ****ORCA TERMINATED NORMALLY****
TOTAL RUN TIME: 0 days 0 hours 2 minutes 53 seconds 872 msec
