                         Program Version 5.0.3 -  RELEASE  -
|  1> !ri-mp2 aug-cc-pvtz aug-cc-pvtz/c tightscf
|  2> %pal nprocs 16 end
|  3>
|  4> * xyz 0 1
|  5> H      3.609044    0.273076    0.113372
|  6> H      3.098636   -1.103376   -0.844452
|  7> H      2.741762   -1.060175    0.886842
|  8> C      2.803885   -0.454173   -0.016457
|  9> H      1.487319    0.854078   -1.202776
| 10> C      1.507467    0.229794   -0.313018
| 11> H      0.395283   -0.497491    1.305299
| 12> C      0.405132    0.126989    0.418299
| 13> C     -0.883366    0.846575    0.103693
| 14> N     -2.901787   -0.791599   -0.168867
| 15> C     -2.016649   -0.066647   -0.054156
| 16> H     -0.780939    1.432476   -0.811185
| 17> H     -1.137406    1.547375    0.904805
| 18> *
| 19>
| 20>                          ****END OF INPUT****

CARTESIAN COORDINATES (ANGSTROEM)
---------------------------------
  H      3.609044    0.273076    0.113372
  H      3.098636   -1.103376   -0.844452
  H      2.741762   -1.060175    0.886842
  C      2.803885   -0.454173   -0.016457
  H      1.487319    0.854078   -1.202776
  C      1.507467    0.229794   -0.313018
  H      0.395283   -0.497491    1.305299
  C      0.405132    0.126989    0.418299
  C     -0.883366    0.846575    0.103693
  N     -2.901787   -0.791599   -0.168867
  C     -2.016649   -0.066647   -0.054156
  H     -0.780939    1.432476   -0.811185
  H     -1.137406    1.547375    0.904805

 Total Charge           Charge          ....    0
 Multiplicity           Mult            ....    1
 Number of Electrons    NEL             ....   44
 Basis Dimension        Dim             ....  437

ORBITAL ENERGIES
----------------

  NO   OCC          E(Eh)            E(eV)
   0   2.0000     -15.565880      -423.5691
   1   2.0000     -11.288445      -307.1742
   2   2.0000     -11.271263      -306.7066
   3   2.0000     -11.253484      -306.2229
   4   2.0000     -11.251426      -306.1669
   5   2.0000     -11.235995      -305.7470
   6   2.0000      -1.220489       -33.2112
   7   2.0000      -1.116734       -30.3879
   8   2.0000      -1.036106       -28.1939
   9   2.0000      -0.926812       -25.2198
  10   2.0000      -0.779541       -21.2124
  11   2.0000      -0.701308       -19.0836
  12   2.0000      -0.649182       -17.6651
  13   2.0000      -0.647242       -17.6124
  14   2.0000      -0.582492       -15.8504
  15   2.0000      -0.577664       -15.7190
  16   2.0000      -0.555152       -15.1065
  17   2.0000      -0.543738       -14.7959
  18   2.0000      -0.517503       -14.0820
  19   2.0000      -0.460375       -12.5274
  20   2.0000      -0.458122       -12.4661
  21   2.0000      -0.377008       -10.2589
  22   0.0000       0.024314         0.6616
  23   0.0000       0.031591         0.8596
  24   0.0000       0.034194         0.9305
  25   0.0000       0.042290         1.1508
  26   0.0000       0.051815         1.4100

MULLIKEN ATOMIC CHARGES
-----------------------
   0 H :    0.286315
   1 H :    0.288823
   2 H :    0.280555
   3 C :   -0.768233
   4 H :    0.301526
   5 C :   -0.358282
   6 H :    0.273461
   7 C :   -0.546324
   8 C :    0.064348
   9 N :   -0.566879
  10 C :    0.162228
  11 H :    0.268581
  12 H :    0.313881
Sum of atomic charges:    0.0000000

LOEWDIN ATOMIC CHARGES
----------------------
   0 H :   -0.175166
   1 H :   -0.174138
   2 H :   -0.180650
   3 C :    0.560885
   4 H :   -0.179431
   5 C :    0.211375
   6 H :   -0.179776
   7 C :    0.207850
   8 C :    0.204298
   9 N :    0.251787
  10 C :   -0.213070
  11 H :   -0.172831
  12 H :   -0.161132

  Mayer bond orders larger than 0.100000
B(  0-H ,  3-C ) :   0.9623 B(  1-H ,  3-C ) :   0.9652 B(  2-H ,  3-C ) :   0.9457
B(  3-C ,  5-C ) :   0.8209 B(  4-H ,  5-C ) :   0.9587 B(  5-C ,  7-C ) :   1.3202
B(  6-H ,  7-C ) :   0.9978 B(  7-C ,  8-C ) :   0.7989 B(  7-C , 10-C ) :   0.2421
B(  8-C , 10-C ) :   0.8173 B(  8-C , 11-H ) :   0.8985 B(  8-C , 12-H ) :   0.9372
B(  9-N , 10-C ) :   2.2472

MP2 TOTAL ENERGY:     -248.947035806 Eh
FINAL SINGLE POINT ENERGY      -248.947035805592

DIPOLE MOMENT
-------------
                                X             Y             Z
Electronic contribution:     -8.01800      -0.51200      -0.23009
Nuclear contribution   :      9.57242       1.46827       0.35748
                        -----------------------------------------
Total Dipole Moment    :      1.55442       0.95628       0.12739
                        -----------------------------------------
Magnitude (a.u.)       :      1.82945
Magnitude (Debye)      :      4.65010

Rotational constants in cm-1:     0.437972     0.049067     0.046542
Rotational constants in MHz : 13130.075473  1470.997223  1395.298052

                             ****ORCA TERMINATED NORMALLY****
TOTAL RUN TIME: 0 days 0 hours 2 minutes 38 seconds 469 msec
