                         Program Version 5.0.3 -  RELEASE  -
|  1> !ri-mp2 aug-cc-pvtz aug-cc-pvtz/c tightscf
|  2> %pal nprocs 16 end
|  3>
|  4> * xyz 0 1
|  5> C      3.202611   -0.606388   -0.196480
|  6> C      2.057940    0.309114    0.175790
|  7> O      0.826178   -0.417197   -0.065662
|  8> S     -0.533353    0.384629    0.403904
|  9> O     -0.730154    1.533535   -0.482721
| 10> O     -1.448610   -0.871512   -0.158233
| 11> C     -2.865846   -0.639006   -0.072695
| 12> H      3.194710   -1.508286    0.414470
| 13> H      3.137485   -0.896520   -1.244359
| 14> H      4.150175   -0.089481   -0.039400
| 15> H      2.057795    1.214467   -0.432283
| 16> H      2.110019    0.595329    1.230062
| 17> H     -3.159148    0.196081   -0.707639
| 18> H     -3.330310   -1.554113   -0.428240
| 19> H     -3.174611   -0.452460    0.958160
| 20> *
| 21>
| 22>                          ****END OF INPUT****

CARTESIAN COORDINATES (ANGSTROEM)
---------------------------------
  C      3.202611   -0.606388   -0.196480
  C      2.057940    0.309114    0.175790
  O      0.826178   -0.417197   -0.065662
  S     -0.533353    0.384629    0.403904
  O     -0.730154    1.533535   -0.482721
  O     -1.448610   -0.871512   -0.158233
  C     -2.865846   -0.639006   -0.072695
  H      3.194710   -1.508286    0.414470
  H      3.137485   -0.896520   -1.244359
  H      4.150175   -0.089481   -0.039400
  H      2.057795    1.214467   -0.432283
  H      2.110019    0.595329    1.230062
  H     -3.159148    0.196081   -0.707639
  H     -3.330310   -1.554113   -0.428240
  H     -3.174611   -0.452460    0.958160

 Total Charge           Charge          ....    0
 Multiplicity           Mult            ....    1
 Number of Electrons    NEL             ....   66
 Basis Dimension        Dim             ....  510

ORBITAL ENERGIES
----------------

  NO   OCC          E(Eh)            E(eV)
   0   2.0000     -92.161428     -2507.8400
   1   2.0000     -20.603828      -560.6587
   2   2.0000     -20.601609      -560.5983
   3   2.0000     -20.546419      -559.0965
   4   2.0000     -11.299661      -307.4794
   5   2.0000     -11.294332      -307.3344
   6   2.0000     -11.229000      -305.5566
   7   2.0000      -9.135007      -248.5762
   8   2.0000      -6.816679      -185.4913
   9   2.0000      -6.816367      -185.4828
  10   2.0000      -6.813974      -185.4177
  11   2.0000      -1.464088       -39.8399
  12   2.0000      -1.376030       -37.4437
  13   2.0000      -1.347210       -36.6595
  14   2.0000      -1.046170       -28.4677
  15   2.0000      -0.971018       -26.4227
  16   2.0000      -0.877059       -23.8660
  17   2.0000      -0.842309       -22.9204
  18   2.0000      -0.718321       -19.5465
  19   2.0000      -0.695814       -18.9341
  20   2.0000      -0.681310       -18.5394
  21   2.0000      -0.660089       -17.9619
  22   2.0000      -0.624244       -16.9865
  23   2.0000      -0.595999       -16.2180
  24   2.0000      -0.592498       -16.1227
  25   2.0000      -0.549760       -14.9597
  26   2.0000      -0.547155       -14.8888
  27   2.0000      -0.536808       -14.6073
  28   2.0000      -0.525534       -14.3005
  29   2.0000      -0.486180       -13.2296
  30   2.0000      -0.477642       -12.9973
  31   2.0000      -0.466468       -12.6932
  32   2.0000      -0.409899       -11.1539
  33   0.0000       0.029268         0.7964
  34   0.0000       0.032531         0.8852
  35   0.0000       0.039401         1.0722
  36   0.0000       0.043509         1.1839
  37   0.0000       0.051008         1.3880

MULLIKEN ATOMIC CHARGES
-----------------------
   0 C :   -0.970520
   1 C :   -0.208433
   2 O :   -0.559185
   3 S :    1.248658
   4 O :   -0.877866
   5 O :   -0.491228
   6 C :   -0.714265
   7 H :    0.267177
   8 H :    0.280766
   9 H :    0.316398
  10 H :    0.326706
  11 H :    0.340297
  12 H :    0.368929
  13 H :    0.326125
  14 H :    0.346440
Sum of atomic charges:    0.0000000

LOEWDIN ATOMIC CHARGES
----------------------
   0 C :    0.570106
   1 C :   -0.076757
   2 O :    0.236057
   3 S :    0.432199
   4 O :   -0.133259
   5 O :    0.216245
   6 C :    0.242988
   7 H :   -0.174773
   8 H :   -0.173317
   9 H :   -0.174226
  10 H :   -0.180585
  11 H :   -0.179749
  12 H :   -0.204905
  13 H :   -0.198160
  14 H :   -0.201864

  Mayer bond orders larger than 0.100000
B(  0-C ,  1-C ) :   0.9148 B(  0-C ,  7-H ) :   0.9497 B(  0-C ,  8-H ) :   0.9430
B(  0-C ,  9-H ) :   0.9279 B(  1-C ,  2-O ) :   0.6863 B(  1-C , 10-H ) :   0.9070
B(  1-C , 11-H ) :   0.9001 B(  2-O ,  3-S ) :   0.9687 B(  2-O ,  4-O ) :   0.1149
B(  3-S ,  4-O ) :   1.4011 B(  3-S ,  5-O ) :   0.8759 B(  5-O ,  6-C ) :   0.7923
B(  6-C , 12-H ) :   0.8647 B(  6-C , 13-H ) :   0.9410 B(  6-C , 14-H ) :   0.8904

MP2 TOTAL ENERGY:     -741.927309288 Eh
FINAL SINGLE POINT ENERGY      -741.927309288217

DIPOLE MOMENT
-------------
                                X             Y             Z
Electronic contribution:     -4.81509       2.11489       0.99492
Nuclear contribution   :      4.97318      -2.49894      -0.27239
                        -----------------------------------------
Total Dipole Moment    :      0.15809      -0.38405       0.72253
                        -----------------------------------------
Magnitude (a.u.)       :      0.83339
Magnitude (Debye)      :      2.11831

Rotational constants in cm-1:     0.185780     0.039408     0.034562
Rotational constants in MHz :  5569.544100  1181.431062  1036.143402

                             ****ORCA TERMINATED NORMALLY****
TOTAL RUN TIME: 0 days 0 hours 3 minutes 42 seconds 198 msec
