                         Program Version 5.0.3 -  RELEASE  -
|  1> !ri-mp2 aug-cc-pvtz aug-cc-pvtz/c tightscf
|  2> %pal nprocs 16 end
|  3>
|  4> * xyz 0 1
|  5> C     -1.237894   -1.104197   -0.000349
|  6> C     -0.280575    0.059414   -0.004593
|  7> N     -0.872923    1.267541    0.000200
|  8> S      1.365722   -0.118344    0.000090
|  9> H     -1.971419   -1.006290   -0.804504
| 10> H     -0.698836   -2.036611   -0.119837
| 11> H     -1.784470   -1.132530    0.945767
| 12> H     -1.873504    1.369103   -0.005404
| 13> H     -0.302047    2.095742    0.010785
| 14> *
| 15>
| 16>                          ****END OF INPUT****

CARTESIAN COORDINATES (ANGSTROEM)
---------------------------------
  C     -1.237894   -1.104197   -0.000349
  C     -0.280575    0.059414   -0.004593
  N     -0.872923    1.267541    0.000200
  S      1.365722   -0.118344    0.000090
  H     -1.971419   -1.006290   -0.804504
  H     -0.698836   -2.036611   -0.119837
  H     -1.784470   -1.132530    0.945767
  H     -1.873504    1.369103   -0.005404
  H     -0.302047    2.095742    0.010785

 Total Charge           Charge          ....    0
 Multiplicity           Mult            ....    1
 Number of Electrons    NEL             ....   40
 Basis Dimension        Dim             ....  303

ORBITAL ENERGIES
----------------

  NO   OCC          E(Eh)            E(eV)
   0   2.0000     -91.899029     -2500.6997
   1   2.0000     -15.611285      -424.8047
   2   2.0000     -11.354559      -308.9732
   3   2.0000     -11.249077      -306.1029
   4   2.0000      -8.902190      -242.2409
   5   2.0000      -6.583557      -179.1477
   6   2.0000      -6.582047      -179.1066
   7   2.0000      -6.581126      -179.0815
   8   2.0000      -1.271312       -34.5942
   9   2.0000      -1.044079       -28.4108
  10   2.0000      -0.950807       -25.8728
  11   2.0000      -0.796588       -21.6763
  12   2.0000      -0.735340       -20.0096
  13   2.0000      -0.632615       -17.2143
  14   2.0000      -0.611972       -16.6526
  15   2.0000      -0.570406       -15.5215
  16   2.0000      -0.507888       -13.8203
  17   2.0000      -0.499067       -13.5803
  18   2.0000      -0.336891        -9.1673
  19   2.0000      -0.323976        -8.8158
  20   0.0000       0.018802         0.5116
  21   0.0000       0.036146         0.9836
  22   0.0000       0.040441         1.1005
  23   0.0000       0.046933         1.2771
  24   0.0000       0.063359         1.7241

MULLIKEN ATOMIC CHARGES
-----------------------
   0 C :   -0.733852
   1 C :    0.363474
   2 N :   -0.346411
   3 S :   -0.498004
   4 H :    0.305565
   5 H :    0.333405
   6 H :    0.310504
   7 H :    0.130679
   8 H :    0.134640
Sum of atomic charges:   -0.0000000

LOEWDIN ATOMIC CHARGES
----------------------
   0 C :    0.487695
   1 C :   -0.954317
   2 N :    0.763819
   3 S :    0.859185
   4 H :   -0.174087
   5 H :   -0.209316
   6 H :   -0.170721
   7 H :   -0.289750
   8 H :   -0.312509

  Mayer bond orders larger than 0.100000
B(  0-C ,  1-C ) :   0.7116 B(  0-C ,  4-H ) :   0.9218 B(  0-C ,  5-H ) :   0.9500
B(  0-C ,  6-H ) :   0.9161 B(  1-C ,  2-N ) :   1.1014 B(  1-C ,  3-S ) :   1.5596
B(  2-N ,  7-H ) :   1.0495 B(  2-N ,  8-H ) :   1.0422

MP2 TOTAL ENERGY:     -531.430268118 Eh
FINAL SINGLE POINT ENERGY      -531.430268118108

DIPOLE MOMENT
-------------
                                X             Y             Z
Electronic contribution:      4.76983       1.21106      -0.02001
Nuclear contribution   :     -6.67700      -0.69944       0.02680
                        -----------------------------------------
Total Dipole Moment    :     -1.90717       0.51162       0.00679
                        -----------------------------------------
Magnitude (a.u.)       :      1.97462
Magnitude (Debye)      :      5.01907

Rotational constants in cm-1:     0.324743     0.165015     0.111691
Rotational constants in MHz :  9735.544947  4947.029251  3348.411278

                             ****ORCA TERMINATED NORMALLY****
TOTAL RUN TIME: 0 days 0 hours 1 minutes 11 seconds 851 msec
