                         Program Version 5.0.3 -  RELEASE  -
|  1> !ri-mp2 aug-cc-pvtz aug-cc-pvtz/c tightscf
|  2> %pal nprocs 16 end
|  3>
|  4> * xyz 0 1
|  5> C     -2.527968   -0.340410    0.248367
|  6> H     -2.845198   -0.840786    1.167646
|  7> H     -3.212398   -0.673991   -0.536560
|  8> H     -2.678013    0.728124    0.387385
|  9> C     -0.091832    1.594432   -0.057239
| 10> H     -1.098162    1.981097    0.081533
| 11> H      0.337517    2.085539   -0.935154
| 12> H      0.504466    1.914750    0.800675
| 13> C      2.353687   -0.333741    0.539518
| 14> H      2.021622   -0.818646    1.458831
| 15> H      2.559701    0.712205    0.768285
| 16> C      1.300293   -0.481395   -0.567402
| 17> H      1.676589    0.006126   -1.473854
| 18> H      1.184446   -1.539282   -0.809716
| 19> C     -1.113898   -0.703078   -0.090968
| 20> H     -0.948822   -1.766018   -0.246586
| 21> C     -0.053177    0.098298   -0.222235
| 22> H      3.295617   -0.793751    0.237267
| 23> *
| 24>
| 25>                          ****END OF INPUT****

CARTESIAN COORDINATES (ANGSTROEM)
---------------------------------
  C     -2.527968   -0.340410    0.248367
  H     -2.845198   -0.840786    1.167646
  H     -3.212398   -0.673991   -0.536560
  H     -2.678013    0.728124    0.387385
  C     -0.091832    1.594432   -0.057239
  H     -1.098162    1.981097    0.081533
  H      0.337517    2.085539   -0.935154
  H      0.504466    1.914750    0.800675
  C      2.353687   -0.333741    0.539518
  H      2.021622   -0.818646    1.458831
  H      2.559701    0.712205    0.768285
  C      1.300293   -0.481395   -0.567402
  H      1.676589    0.006126   -1.473854
  H      1.184446   -1.539282   -0.809716
  C     -1.113898   -0.703078   -0.090968
  H     -0.948822   -1.766018   -0.246586
  C     -0.053177    0.098298   -0.222235
  H      3.295617   -0.793751    0.237267

 Total Charge           Charge          ....    0
 Multiplicity           Mult            ....    1
 Number of Electrons    NEL             ....   48
 Basis Dimension        Dim             ....  552

ORBITAL ENERGIES
----------------

  NO   OCC          E(Eh)            E(eV)
   0   2.0000     -11.225542      -305.4625
   1   2.0000     -11.219021      -305.2851
   2   2.0000     -11.214550      -305.1634
   3   2.0000     -11.214473      -305.1613
   4   2.0000     -11.213836      -305.1440
   5   2.0000     -11.210883      -305.0636
   6   2.0000      -1.099985       -29.9321
   7   2.0000      -1.014350       -27.6019
   8   2.0000      -0.966057       -26.2877
   9   2.0000      -0.901273       -24.5249
  10   2.0000      -0.828211       -22.5368
  11   2.0000      -0.701139       -19.0790
  12   2.0000      -0.638615       -17.3776
  13   2.0000      -0.614185       -16.7128
  14   2.0000      -0.577402       -15.7119
  15   2.0000      -0.559351       -15.2207
  16   2.0000      -0.555079       -15.1045
  17   2.0000      -0.545388       -14.8408
  18   2.0000      -0.526652       -14.3309
  19   2.0000      -0.504698       -13.7335
  20   2.0000      -0.498794       -13.5729
  21   2.0000      -0.476193       -12.9579
  22   2.0000      -0.453479       -12.3398
  23   2.0000      -0.330664        -8.9978
  24   0.0000       0.030834         0.8390
  25   0.0000       0.034471         0.9380
  26   0.0000       0.036728         0.9994
  27   0.0000       0.040286         1.0962
  28   0.0000       0.049675         1.3517

MULLIKEN ATOMIC CHARGES
-----------------------
   0 C :   -0.852421
   1 H :    0.234843
   2 H :    0.251227
   3 H :    0.359810
   4 C :   -0.986723
   5 H :    0.343691
   6 H :    0.212697
   7 H :    0.197740
   8 C :   -0.934407
   9 H :    0.276045
  10 H :    0.289572
  11 C :   -0.488223
  12 H :    0.268805
  13 H :    0.206073
  14 C :   -0.826199
  15 H :    0.051085
  16 C :    1.121542
  17 H :    0.274843
Sum of atomic charges:    0.0000000

LOEWDIN ATOMIC CHARGES
----------------------
   0 C :    0.562863
   1 H :   -0.173940
   2 H :   -0.174151
   3 H :   -0.202796
   4 C :    0.577277
   5 H :   -0.197494
   6 H :   -0.161202
   7 H :   -0.169604
   8 C :    0.584260
   9 H :   -0.166254
  10 H :   -0.180832
  11 C :    0.245424
  12 H :   -0.148953
  13 H :   -0.168657
  14 C :    0.233434
  15 H :   -0.192868
  16 C :   -0.094437
  17 H :   -0.172069

  Mayer bond orders larger than 0.100000
B(  0-C ,  1-H ) :   1.0591 B(  0-C ,  2-H ) :   1.0594 B(  0-C ,  3-H ) :   0.8273
B(  0-C , 14-C ) :   0.7523 B(  4-C ,  5-H ) :   0.8562 B(  4-C ,  6-H ) :   1.0596
B(  4-C ,  7-H ) :   1.0658 B(  4-C , 15-H ) :   0.1315 B(  4-C , 16-C ) :   0.7367
B(  8-C ,  9-H ) :   0.9594 B(  8-C , 10-H ) :   0.9299 B(  8-C , 11-C ) :   0.8868
B(  8-C , 17-H ) :   0.9661 B( 11-C , 12-H ) :   0.9943 B( 11-C , 13-H ) :   1.0022
B( 11-C , 16-C ) :   0.9135 B( 14-C , 15-H ) :   1.4396 B( 14-C , 16-C ) :   0.8057
B( 15-H , 16-C ) :  -0.2869

MP2 TOTAL ENERGY:     -235.315728581 Eh
FINAL SINGLE POINT ENERGY      -235.315728581425

DIPOLE MOMENT
-------------
                                X             Y             Z
Electronic contribution:     -0.83112      -0.99518      -0.95978
Nuclear contribution   :      0.85407       1.06616       0.96374
                        -----------------------------------------
Total Dipole Moment    :      0.02295       0.07098       0.00396
                        -----------------------------------------
Magnitude (a.u.)       :      0.07470
Magnitude (Debye)      :      0.18988

Rotational constants in cm-1:     0.207944     0.067235     0.056946
Rotational constants in MHz :  6234.002815  2015.667157  1707.212107

                             ****ORCA TERMINATED NORMALLY****
TOTAL RUN TIME: 0 days 0 hours 5 minutes 20 seconds 164 msec
