                         Program Version 5.0.3 -  RELEASE  -
|  1> !ri-mp2 aug-cc-pvtz aug-cc-pvtz/c tightscf
|  2> %pal nprocs 16 end
|  3>
|  4> * xyz 0 1
|  5> C      0.000000    0.540816    0.000000
|  6> C      1.243175    2.751600    0.000000
|  7> C     -0.679664   -3.043361    0.000000
|  8> C      1.345131    1.232352    0.000000
|  9> C     -1.070032   -1.582821    0.000000
| 10> O     -1.072742    1.091993    0.000000
| 11> O      0.146706   -0.800498    0.000000
| 12> H      0.706894    3.109292    0.877772
| 13> H      2.237781    3.197410    0.000000
| 14> H      0.706894    3.109292   -0.877772
| 15> H     -1.577230   -3.662892    0.000000
| 16> H     -0.092760   -3.292082   -0.884003
| 17> H     -0.092760   -3.292082    0.884003
| 18> H      1.899563    0.870429    0.869102
| 19> H      1.899563    0.870429   -0.869102
| 20> H     -1.655657   -1.316641    0.880006
| 21> H     -1.655657   -1.316641   -0.880006
| 22> *
| 23>
| 24>                          ****END OF INPUT****

CARTESIAN COORDINATES (ANGSTROEM)
---------------------------------
  C      0.000000    0.540816    0.000000
  C      1.243175    2.751600    0.000000
  C     -0.679664   -3.043361    0.000000
  C      1.345131    1.232352    0.000000
  C     -1.070032   -1.582821    0.000000
  O     -1.072742    1.091993    0.000000
  O      0.146706   -0.800498    0.000000
  H      0.706894    3.109292    0.877772
  H      2.237781    3.197410    0.000000
  H      0.706894    3.109292   -0.877772
  H     -1.577230   -3.662892    0.000000
  H     -0.092760   -3.292082   -0.884003
  H     -0.092760   -3.292082    0.884003
  H      1.899563    0.870429    0.869102
  H      1.899563    0.870429   -0.869102
  H     -1.655657   -1.316641    0.880006
  H     -1.655657   -1.316641   -0.880006

 Total Charge           Charge          ....    0
 Multiplicity           Mult            ....    1
 Number of Electrons    NEL             ....   56
 Basis Dimension        Dim             ....  552

ORBITAL ENERGIES
----------------

  NO   OCC          E(Eh)            E(eV)
   0   2.0000     -20.596761      -560.4664
   1   2.0000     -20.540459      -558.9343
   2   2.0000     -11.373720      -309.4947
   3   2.0000     -11.287427      -307.1465
   4   2.0000     -11.242399      -305.9212
   5   2.0000     -11.224343      -305.4299
   6   2.0000     -11.218461      -305.2698
   7   2.0000      -1.453850       -39.5613
   8   2.0000      -1.354677       -36.8626
   9   2.0000      -1.068240       -29.0683
  10   2.0000      -1.030016       -28.0282
  11   2.0000      -0.908323       -24.7167
  12   2.0000      -0.844650       -22.9841
  13   2.0000      -0.769498       -20.9391
  14   2.0000      -0.695450       -18.9241
  15   2.0000      -0.683902       -18.6099
  16   2.0000      -0.662282       -18.0216
  17   2.0000      -0.628298       -17.0968
  18   2.0000      -0.581777       -15.8309
  19   2.0000      -0.570099       -15.5132
  20   2.0000      -0.557957       -15.1828
  21   2.0000      -0.524241       -14.2653
  22   2.0000      -0.520347       -14.1594
  23   2.0000      -0.513037       -13.9604
  24   2.0000      -0.507915       -13.8211
  25   2.0000      -0.492186       -13.3931
  26   2.0000      -0.456493       -12.4218
  27   2.0000      -0.442137       -12.0311
  28   0.0000       0.028334         0.7710
  29   0.0000       0.031980         0.8702
  30   0.0000       0.038664         1.0521
  31   0.0000       0.040453         1.1008
  32   0.0000       0.050328         1.3695

MULLIKEN ATOMIC CHARGES
-----------------------
   0 C :    0.408232
   1 C :   -0.844417
   2 C :   -0.953001
   3 C :   -0.220926
   4 C :   -0.172345
   5 O :   -0.769074
   6 O :   -0.254238
   7 H :    0.278646
   8 H :    0.277334
   9 H :    0.278646
  10 H :    0.319680
  11 H :    0.261442
  12 H :    0.261442
  13 H :    0.243755
  14 H :    0.243755
  15 H :    0.320534
  16 H :    0.320534
Sum of atomic charges:    0.0000000

LOEWDIN ATOMIC CHARGES
----------------------
   0 C :   -0.812333
   1 C :    0.568344
   2 C :    0.580548
   3 C :    0.253421
   4 C :    0.033687
   5 O :    0.467276
   6 O :    0.579944
   7 H :   -0.171943
   8 H :   -0.173568
   9 H :   -0.171943
  10 H :   -0.173915
  11 H :   -0.173363
  12 H :   -0.173363
  13 H :   -0.156215
  14 H :   -0.156215
  15 H :   -0.160181
  16 H :   -0.160181

  Mayer bond orders larger than 0.100000
B(  0-C ,  3-C ) :   0.6373 B(  0-C ,  5-O ) :   1.5329 B(  0-C ,  6-O ) :   1.0568
B(  1-C ,  3-C ) :   0.9164 B(  1-C ,  7-H ) :   0.9361 B(  1-C ,  8-H ) :   0.9938
B(  1-C ,  9-H ) :   0.9361 B(  2-C ,  4-C ) :   0.8817 B(  2-C , 10-H ) :   0.9318
B(  2-C , 11-H ) :   0.9691 B(  2-C , 12-H ) :   0.9691 B(  3-C , 13-H ) :   0.9675
B(  3-C , 14-H ) :   0.9675 B(  4-C ,  6-O ) :   0.7632 B(  4-C , 15-H ) :   0.9045
B(  4-C , 16-H ) :   0.9045

MP2 TOTAL ENERGY:     -346.384354850 Eh
FINAL SINGLE POINT ENERGY      -346.384354849586

DIPOLE MOMENT
-------------
                                X             Y             Z
Electronic contribution:     -1.85384       1.19649       0.00000
Nuclear contribution   :      2.43232      -1.77004       0.00000
                        -----------------------------------------
Total Dipole Moment    :      0.57848      -0.57355       0.00000
                        -----------------------------------------
Magnitude (a.u.)       :      0.81461
Magnitude (Debye)      :      2.07058

Rotational constants in cm-1:     0.263696     0.041966     0.037197
Rotational constants in MHz :  7905.397573  1258.107592  1115.132807

                             ****ORCA TERMINATED NORMALLY****
TOTAL RUN TIME: 0 days 0 hours 5 minutes 27 seconds 667 msec
