                         Program Version 5.0.3 -  RELEASE  -
|  1> !ri-mp2 aug-cc-pvtz aug-cc-pvtz/c tightscf
|  2> %pal nprocs 16 end
|  3>
|  4> * xyz 0 1
|  5> C     -0.154478    1.510212    0.000000
|  6> H     -1.217229    1.713662    0.000000
|  7> F      0.576176    2.632653    0.000000
|  8> C      0.400564    0.312634    0.000000
|  9> H      1.474625    0.185038    0.000000
| 10> C     -0.438047   -0.911202    0.000000
| 11> H     -1.510614   -0.713266    0.000000
| 12> F     -0.154478   -1.686065    1.097573
| 13> F     -0.154478   -1.686065   -1.097573
| 14> *
| 15>
| 16>                          ****END OF INPUT****

CARTESIAN COORDINATES (ANGSTROEM)
---------------------------------
  C     -0.154478    1.510212    0.000000
  H     -1.217229    1.713662    0.000000
  F      0.576176    2.632653    0.000000
  C      0.400564    0.312634    0.000000
  H      1.474625    0.185038    0.000000
  C     -0.438047   -0.911202    0.000000
  H     -1.510614   -0.713266    0.000000
  F     -0.154478   -1.686065    1.097573
  F     -0.154478   -1.686065   -1.097573

 Total Charge           Charge          ....    0
 Multiplicity           Mult            ....    1
 Number of Electrons    NEL             ....   48
 Basis Dimension        Dim             ....  345

ORBITAL ENERGIES
----------------

  NO   OCC          E(Eh)            E(eV)
   0   2.0000     -26.335822      -716.6342
   1   2.0000     -26.314010      -716.0406
   2   2.0000     -26.313991      -716.0401
   3   2.0000     -11.425668      -310.9082
   4   2.0000     -11.359501      -309.1077
   5   2.0000     -11.265161      -306.5406
   6   2.0000      -1.660169       -45.1755
   7   2.0000      -1.652890       -44.9774
   8   2.0000      -1.598907       -43.5085
   9   2.0000      -1.116965       -30.3942
  10   2.0000      -0.963638       -26.2219
  11   2.0000      -0.861415       -23.4403
  12   2.0000      -0.788381       -21.4529
  13   2.0000      -0.778157       -21.1747
  14   2.0000      -0.756856       -20.5951
  15   2.0000      -0.734618       -19.9900
  16   2.0000      -0.714568       -19.4444
  17   2.0000      -0.681338       -18.5402
  18   2.0000      -0.668226       -18.1833
  19   2.0000      -0.631791       -17.1919
  20   2.0000      -0.623138       -16.9564
  21   2.0000      -0.590648       -16.0724
  22   2.0000      -0.542211       -14.7543
  23   2.0000      -0.416141       -11.3238
  24   0.0000       0.026384         0.7179
  25   0.0000       0.037676         1.0252
  26   0.0000       0.042974         1.1694
  27   0.0000       0.075237         2.0473
  28   0.0000       0.084352         2.2953

MULLIKEN ATOMIC CHARGES
-----------------------
   0 C :   -0.304486
   1 H :    0.636087
   2 F :   -0.421328
   3 C :   -0.507516
   4 H :    0.436315
   5 C :    0.706107
   6 H :    0.317057
   7 F :   -0.431118
   8 F :   -0.431118
Sum of atomic charges:   -0.0000000

LOEWDIN ATOMIC CHARGES
----------------------
   0 C :   -0.166389
   1 H :   -0.205134
   2 F :    0.474810
   3 C :    0.163256
   4 H :   -0.192218
   5 C :   -0.803032
   6 H :   -0.191257
   7 F :    0.459982
   8 F :    0.459982

  Mayer bond orders larger than 0.100000
B(  0-C ,  1-H ) :   0.5108 B(  0-C ,  2-F ) :   0.8928 B(  0-C ,  3-C ) :   1.6226
B(  3-C ,  4-H ) :   0.7653 B(  3-C ,  5-C ) :   0.9586 B(  5-C ,  6-H ) :   0.9581
B(  5-C ,  7-F ) :   0.7094 B(  5-C ,  8-F ) :   0.7094

MP2 TOTAL ENERGY:     -415.052421997 Eh
FINAL SINGLE POINT ENERGY      -415.052421997029

DIPOLE MOMENT
-------------
                                X             Y             Z
Electronic contribution:      0.82566      -1.24485      -0.00000
Nuclear contribution   :     -1.42388       1.79799       0.00000
                        -----------------------------------------
Total Dipole Moment    :     -0.59822       0.55314      -0.00000
                        -----------------------------------------
Magnitude (a.u.)       :      0.81476
Magnitude (Debye)      :      2.07095

Rotational constants in cm-1:     0.295245     0.056306     0.050496
Rotational constants in MHz :  8851.213370  1688.016409  1513.835890

                             ****ORCA TERMINATED NORMALLY****
TOTAL RUN TIME: 0 days 0 hours 1 minutes 27 seconds 306 msec
