                         Program Version 5.0.3 -  RELEASE  -
|  1> !ri-mp2 aug-cc-pvtz aug-cc-pvtz/c tightscf
|  2> %pal nprocs 16 end
|  3>
|  4> * xyz 0 1
|  5> O     -0.029545   -0.591156   -0.000011
|  6> O     -2.183481    0.034844   -0.000001
|  7> C     -1.049749    0.363965    0.000007
|  8> C      1.205881   -0.154845   -0.000002
|  9> C      2.343204    0.213694    0.000005
| 10> H     -0.647409    1.384949    0.000027
| 11> H      3.355602    0.528657    0.000011
| 12> *
| 13>
| 14>                          ****END OF INPUT****

CARTESIAN COORDINATES (ANGSTROEM)
---------------------------------
  O     -0.029545   -0.591156   -0.000011
  O     -2.183481    0.034844   -0.000001
  C     -1.049749    0.363965    0.000007
  C      1.205881   -0.154845   -0.000002
  C      2.343204    0.213694    0.000005
  H     -0.647409    1.384949    0.000027
  H      3.355602    0.528657    0.000011

 Total Charge           Charge          ....    0
 Multiplicity           Mult            ....    1
 Number of Electrons    NEL             ....   36
 Basis Dimension        Dim             ....  276

ORBITAL ENERGIES
----------------

  NO   OCC          E(Eh)            E(eV)
   0   2.0000     -20.674168      -562.5727
   1   2.0000     -20.599492      -560.5407
   2   2.0000     -11.425225      -310.8962
   3   2.0000     -11.319775      -308.0267
   4   2.0000     -11.250040      -306.1292
   5   2.0000      -1.518410       -41.3180
   6   2.0000      -1.432052       -38.9681
   7   2.0000      -1.054018       -28.6813
   8   2.0000      -0.926057       -25.1993
   9   2.0000      -0.830448       -22.5976
  10   2.0000      -0.728489       -19.8232
  11   2.0000      -0.712160       -19.3789
  12   2.0000      -0.691434       -18.8149
  13   2.0000      -0.649448       -17.6724
  14   2.0000      -0.556470       -15.1423
  15   2.0000      -0.508858       -13.8467
  16   2.0000      -0.421041       -11.4571
  17   2.0000      -0.403790       -10.9877
  18   0.0000       0.024420         0.6645
  19   0.0000       0.036630         0.9968
  20   0.0000       0.063678         1.7328
  21   0.0000       0.065240         1.7753
  22   0.0000       0.077746         2.1156

MULLIKEN ATOMIC CHARGES
-----------------------
   0 O :   -0.190405
   1 O :   -0.583350
   2 C :    0.053592
   3 C :    0.784107
   4 C :   -1.210560
   5 H :    0.609253
   6 H :    0.537363
Sum of atomic charges:    0.0000000

LOEWDIN ATOMIC CHARGES
----------------------
   0 O :    0.478776
   1 O :    0.436754
   2 C :   -0.441418
   3 C :   -0.302012
   4 C :    0.332486
   5 H :   -0.193432
   6 H :   -0.311153

  Mayer bond orders larger than 0.100000
B(  0-O ,  2-C ) :   1.0567 B(  0-O ,  3-C ) :   0.8795 B(  1-O ,  2-C ) :   1.8081
B(  2-C ,  5-H ) :   0.5408 B(  3-C ,  4-C ) :   1.6347 B(  4-C ,  6-H ) :   0.6440

MP2 TOTAL ENERGY:     -265.429634346 Eh
FINAL SINGLE POINT ENERGY      -265.429634345770

DIPOLE MOMENT
-------------
                                X             Y             Z
Electronic contribution:     -1.67329      -1.04646      -0.00002
Nuclear contribution   :      2.58032       1.83858       0.00004
                        -----------------------------------------
Total Dipole Moment    :      0.90703       0.79212       0.00002
                        -----------------------------------------
Magnitude (a.u.)       :      1.20423
Magnitude (Debye)      :      3.06091

Rotational constants in cm-1:     1.653200     0.091312     0.086532
Rotational constants in MHz : 49561.686066  2737.450808  2594.166666

                             ****ORCA TERMINATED NORMALLY****
TOTAL RUN TIME: 0 days 0 hours 0 minutes 54 seconds 21 msec
