                         Program Version 5.0.3 -  RELEASE  -
|  1> !ri-mp2 aug-cc-pvtz aug-cc-pvtz/c tightscf
|  2> %pal nprocs 16 end
|  3>
|  4> * xyz 0 1
|  5> C     -0.721786    0.465243    0.000043
|  6> O      0.102893   -0.724419   -0.000006
|  7> C     -2.163450    0.006048    0.000234
|  8> H     -0.479504    1.060827    0.881644
|  9> H     -0.479710    1.060747   -0.881667
| 10> N      1.487781   -0.524975   -0.000126
| 11> O      1.827924    0.603525   -0.000194
| 12> H     -2.384003   -0.591203   -0.883644
| 13> H     -2.822542    0.874902    0.000221
| 14> H     -2.383821   -0.591040    0.884268
| 15> *
| 16>
| 17>                          ****END OF INPUT****

CARTESIAN COORDINATES (ANGSTROEM)
---------------------------------
  C     -0.721786    0.465243    0.000043
  O      0.102893   -0.724419   -0.000006
  C     -2.163450    0.006048    0.000234
  H     -0.479504    1.060827    0.881644
  H     -0.479710    1.060747   -0.881667
  N      1.487781   -0.524975   -0.000126
  O      1.827924    0.603525   -0.000194
  H     -2.384003   -0.591203   -0.883644
  H     -2.822542    0.874902    0.000221
  H     -2.383821   -0.591040    0.884268

 Total Charge           Charge          ....    0
 Multiplicity           Mult            ....    1
 Number of Electrons    NEL             ....   40
 Basis Dimension        Dim             ....  345

ORBITAL ENERGIES
----------------

  NO   OCC          E(Eh)            E(eV)
   0   2.0000     -20.648868      -561.8843
   1   2.0000     -20.628868      -561.3400
   2   2.0000     -15.782882      -429.4741
   3   2.0000     -11.297936      -307.4325
   4   2.0000     -11.233225      -305.6716
   5   2.0000      -1.595143       -43.4061
   6   2.0000      -1.396606       -38.0036
   7   2.0000      -1.061344       -28.8806
   8   2.0000      -0.938550       -25.5392
   9   2.0000      -0.842181       -22.9169
  10   2.0000      -0.760469       -20.6934
  11   2.0000      -0.713735       -19.4217
  12   2.0000      -0.705436       -19.1959
  13   2.0000      -0.625724       -17.0268
  14   2.0000      -0.580698       -15.8016
  15   2.0000      -0.565758       -15.3951
  16   2.0000      -0.537230       -14.6188
  17   2.0000      -0.526102       -14.3160
  18   2.0000      -0.476839       -12.9755
  19   2.0000      -0.450345       -12.2545
  20   0.0000       0.028658         0.7798
  21   0.0000       0.040216         1.0943
  22   0.0000       0.040366         1.0984
  23   0.0000       0.049116         1.3365
  24   0.0000       0.064364         1.7514

MULLIKEN ATOMIC CHARGES
-----------------------
   0 C :   -0.101409
   1 O :   -0.271011
   2 C :   -0.936761
   3 H :    0.312253
   4 H :    0.312246
   5 N :    0.070662
   6 O :   -0.284585
   7 H :    0.289372
   8 H :    0.319866
   9 H :    0.289367
Sum of atomic charges:    0.0000000

LOEWDIN ATOMIC CHARGES
----------------------
   0 C :   -0.041600
   1 O :    0.370112
   2 C :    0.570181
   3 H :   -0.181711
   4 H :   -0.181709
   5 N :   -0.273288
   6 O :    0.262750
   7 H :   -0.175211
   8 H :   -0.174315
   9 H :   -0.175210

  Mayer bond orders larger than 0.100000
B(  0-C ,  1-O ) :   0.7079 B(  0-C ,  2-C ) :   0.8798 B(  0-C ,  3-H ) :   0.9041
B(  0-C ,  4-H ) :   0.9041 B(  1-O ,  5-N ) :   0.7513 B(  2-C ,  7-H ) :   0.9299
B(  2-C ,  8-H ) :   0.9236 B(  2-C ,  9-H ) :   0.9299 B(  5-N ,  6-O ) :   1.5632

MP2 TOTAL ENERGY:     -283.861125809 Eh
FINAL SINGLE POINT ENERGY      -283.861125809212

DIPOLE MOMENT
-------------
                                X             Y             Z
Electronic contribution:      7.70589      -1.41475      -0.00075
Nuclear contribution   :     -8.51675       1.81059       0.00082
                        -----------------------------------------
Total Dipole Moment    :     -0.81086       0.39584       0.00007
                        -----------------------------------------
Magnitude (a.u.)       :      0.90232
Magnitude (Debye)      :      2.29351

Rotational constants in cm-1:     0.612499     0.099601     0.088496
Rotational constants in MHz : 18362.268563  2985.955886  2653.046905

                             ****ORCA TERMINATED NORMALLY****
TOTAL RUN TIME: 0 days 0 hours 1 minutes 38 seconds 400 msec
