                         Program Version 5.0.3 -  RELEASE  -
|  1> !ri-mp2 aug-cc-pvtz aug-cc-pvtz/c tightscf
|  2> %pal nprocs 16 end
|  3>
|  4> * xyz 0 1
|  5> C     0.397467     0.657442    0.000000
|  6> C    -0.397467    -0.657442    0.000000
|  7> N    -0.397467     1.884333    0.000000
|  8> N     0.397467    -1.884333    0.000000
|  9> H     0.996875    -1.932923    0.815009
| 10> H     0.996875    -1.932923   -0.815009
| 11> H    -0.996875     1.932923    0.815009
| 12> H    -0.996875     1.932923   -0.815009
| 13> H    -1.053507    -0.679296    0.874859
| 14> H    -1.053507    -0.679296   -0.874859
| 15> H     1.053507     0.679296    0.874859
| 16> H     1.053507     0.679296   -0.874859
| 17> *
| 18>
| 19>                          ****END OF INPUT****

CARTESIAN COORDINATES (ANGSTROEM)
---------------------------------
  C      0.397467    0.657442    0.000000
  C     -0.397467   -0.657442    0.000000
  N     -0.397467    1.884333    0.000000
  N      0.397467   -1.884333    0.000000
  H      0.996875   -1.932923    0.815009
  H      0.996875   -1.932923   -0.815009
  H     -0.996875    1.932923    0.815009
  H     -0.996875    1.932923   -0.815009
  H     -1.053507   -0.679296    0.874859
  H     -1.053507   -0.679296   -0.874859
  H      1.053507    0.679296    0.874859
  H      1.053507    0.679296   -0.874859

 Total Charge           Charge          ....    0
 Multiplicity           Mult            ....    1
 Number of Electrons    NEL             ....   34
 Basis Dimension        Dim             ....  368

ORBITAL ENERGIES
----------------

  NO   OCC          E(Eh)            E(eV)
   0   2.0000     -15.542186      -422.9244
   1   2.0000     -15.542183      -422.9243
   2   2.0000     -11.247970      -306.0728
   3   2.0000     -11.247373      -306.0566
   4   2.0000      -1.193036       -32.4642
   5   2.0000      -1.161677       -31.6109
   6   2.0000      -0.949588       -25.8396
   7   2.0000      -0.829223       -22.5643
   8   2.0000      -0.691371       -18.8132
   9   2.0000      -0.652730       -17.7617
  10   2.0000      -0.601774       -16.3751
  11   2.0000      -0.600783       -16.3481
  12   2.0000      -0.548709       -14.9311
  13   2.0000      -0.523052       -14.2330
  14   2.0000      -0.482440       -13.1278
  15   2.0000      -0.431419       -11.7395
  16   2.0000      -0.366807        -9.9813
  17   0.0000       0.030123         0.8197
  18   0.0000       0.034653         0.9430
  19   0.0000       0.038282         1.0417
  20   0.0000       0.045146         1.2285
  21   0.0000       0.059977         1.6320

MULLIKEN ATOMIC CHARGES
-----------------------
   0 C :   -0.175482
   1 C :   -0.175482
   2 N :   -0.623755
   3 N :   -0.623755
   4 H :    0.108317
   5 H :    0.108317
   6 H :    0.108317
   7 H :    0.108317
   8 H :    0.291301
   9 H :    0.291301
  10 H :    0.291301
  11 H :    0.291301
Sum of atomic charges:   -0.0000000

LOEWDIN ATOMIC CHARGES
----------------------
   0 C :    0.146983
   1 C :    0.146983
   2 N :    0.830988
   3 N :    0.830988
   4 H :   -0.330200
   5 H :   -0.330200
   6 H :   -0.330200
   7 H :   -0.330200
   8 H :   -0.158786
   9 H :   -0.158786
  10 H :   -0.158786
  11 H :   -0.158786

  Mayer bond orders larger than 0.100000
B(  0-C ,  1-C ) :   0.8578 B(  0-C ,  2-N ) :   0.7060 B(  0-C , 10-H ) :   0.9359
B(  0-C , 11-H ) :   0.9359 B(  1-C ,  3-N ) :   0.7060 B(  1-C ,  8-H ) :   0.9359
B(  1-C ,  9-H ) :   0.9359 B(  2-N ,  6-H ) :   1.0002 B(  2-N ,  7-H ) :   1.0002
B(  3-N ,  4-H ) :   1.0002 B(  3-N ,  5-H ) :   1.0002

MP2 TOTAL ENERGY:     -190.153699691 Eh
FINAL SINGLE POINT ENERGY      -190.153699691198

DIPOLE MOMENT
-------------
                                X             Y             Z
Electronic contribution:     -0.00000       0.00000       0.00000
Nuclear contribution   :      0.00000       0.00000       0.00000
                        -----------------------------------------
Total Dipole Moment    :     -0.00000       0.00000       0.00000
                        -----------------------------------------
Magnitude (a.u.)       :      0.00000
Magnitude (Debye)      :      0.00000

Rotational constants in cm-1:     0.883295     0.124023     0.117491
Rotational constants in MHz : 26480.505471  3718.117259  3522.298743

                             ****ORCA TERMINATED NORMALLY****
TOTAL RUN TIME: 0 days 0 hours 1 minutes 31 seconds 583 msec
