                         Program Version 5.0.3 -  RELEASE  -
|  1> !ri-mp2 aug-cc-pvtz aug-cc-pvtz/c tightscf
|  2> %pal nprocs 16 end
|  3>
|  4> * xyz 0 1
|  5> C     -2.320917   -0.461628    0.000000
|  6> H     -2.746079   -0.959757    0.875622
|  7> H     -2.746079   -0.959757   -0.875622
|  8> H     -2.655927    0.575371    0.000000
|  9> C     -0.831837   -0.562138    0.000000
| 10> H     -0.407944   -1.560710    0.000000
| 11> C      0.000000    0.484435    0.000000
| 12> H     -0.409236    1.490531    0.000000
| 13> C      1.415974    0.385941    0.000000
| 14> C      2.618043    0.340629    0.000000
| 15> H      3.677687    0.290883    0.000000
| 16> *
| 17>
| 18>                          ****END OF INPUT****

CARTESIAN COORDINATES (ANGSTROEM)
---------------------------------
  C     -2.320917   -0.461628    0.000000
  H     -2.746079   -0.959757    0.875622
  H     -2.746079   -0.959757   -0.875622
  H     -2.655927    0.575371    0.000000
  C     -0.831837   -0.562138    0.000000
  H     -0.407944   -1.560710    0.000000
  C      0.000000    0.484435    0.000000
  H     -0.409236    1.490531    0.000000
  C      1.415974    0.385941    0.000000
  C      2.618043    0.340629    0.000000
  H      3.677687    0.290883    0.000000

 Total Charge           Charge          ....    0
 Multiplicity           Mult            ....    1
 Number of Electrons    NEL             ....   36
 Basis Dimension        Dim             ....  368

ORBITAL ENERGIES
----------------

  NO   OCC          E(Eh)            E(eV)
   0   2.0000     -11.252988      -306.2094
   1   2.0000     -11.248839      -306.0965
   2   2.0000     -11.234568      -305.7081
   3   2.0000     -11.232889      -305.6624
   4   2.0000     -11.222799      -305.3879
   5   2.0000      -1.103252       -30.0210
   6   2.0000      -1.025892       -27.9159
   7   2.0000      -0.948252       -25.8033
   8   2.0000      -0.802022       -21.8241
   9   2.0000      -0.723018       -19.6743
  10   2.0000      -0.672480       -18.2991
  11   2.0000      -0.611158       -16.6305
  12   2.0000      -0.578942       -15.7538
  13   2.0000      -0.549146       -14.9430
  14   2.0000      -0.517885       -14.0924
  15   2.0000      -0.455676       -12.3996
  16   2.0000      -0.391428       -10.6513
  17   2.0000      -0.331991        -9.0339
  18   0.0000       0.029181         0.7940
  19   0.0000       0.033639         0.9154
  20   0.0000       0.038412         1.0452
  21   0.0000       0.045925         1.2497
  22   0.0000       0.049633         1.3506

MULLIKEN ATOMIC CHARGES
-----------------------
   0 C :   -0.709333
   1 H :    0.296923
   2 H :    0.296923
   3 H :    0.280043
   4 C :   -0.563515
   5 H :    0.200674
   6 C :   -0.309525
   7 H :    0.137794
   8 C :    1.476527
   9 C :   -1.558152
  10 H :    0.451641
Sum of atomic charges:   -0.0000000

LOEWDIN ATOMIC CHARGES
----------------------
   0 C :    0.557921
   1 H :   -0.173905
   2 H :   -0.173905
   3 H :   -0.181628
   4 C :    0.196870
   5 H :   -0.178634
   6 C :    0.110848
   7 H :   -0.205457
   8 C :   -0.036007
   9 C :    0.389983
  10 H :   -0.306086

  Mayer bond orders larger than 0.100000
B(  0-C ,  1-H ) :   0.9553 B(  0-C ,  2-H ) :   0.9553 B(  0-C ,  3-H ) :   0.9333
B(  0-C ,  4-C ) :   0.7101 B(  4-C ,  5-H ) :   1.1532 B(  4-C ,  6-C ) :   1.3747
B(  4-C ,  9-C ) :   0.1482 B(  5-H ,  8-C ) :  -0.1022 B(  6-C ,  7-H ) :   1.2114
B(  6-C ,  8-C ) :   0.4023 B(  6-C ,  9-C ) :  -0.1315 B(  7-H ,  8-C ) :  -0.1100
B(  8-C ,  9-C ) :   0.8409 B(  8-C , 10-H ) :  -0.1794 B(  9-C , 10-H ) :   1.0402

MP2 TOTAL ENERGY:     -193.627441896 Eh
FINAL SINGLE POINT ENERGY      -193.627441896064

DIPOLE MOMENT
-------------
                                X             Y             Z
Electronic contribution:      4.95041       0.98876       0.00000
Nuclear contribution   :     -5.40817      -1.14906       0.00000
                        -----------------------------------------
Total Dipole Moment    :     -0.45776      -0.16030       0.00000
                        -----------------------------------------
Magnitude (a.u.)       :      0.48501
Magnitude (Debye)      :      1.23281

Rotational constants in cm-1:     1.317498     0.074961     0.071860
Rotational constants in MHz : 39497.602125  2247.259660  2154.302195

                             ****ORCA TERMINATED NORMALLY****
TOTAL RUN TIME: 0 days 0 hours 1 minutes 36 seconds 69 msec
