                         Program Version 5.0.3 -  RELEASE  -
|  1> !ri-mp2 aug-cc-pvtz aug-cc-pvtz/c tightscf
|  2> %pal nprocs 16 end
|  3> %maxcore 3800
|  4>
|  5> * xyz 0 1
|  6> C      0.023324   -0.446803   -0.001938
|  7> C     -1.248311    0.370867   -0.000992
|  8> O     -1.311122    1.575337   -0.000848
|  9> C      1.295426    0.393952    0.000986
| 10> H     -0.011251   -1.111297    0.865725
| 11> H     -0.010002   -1.106796   -0.873123
| 12> O     -2.335846   -0.428912   -0.000518
| 13> C     -3.622317    0.232251   -0.000074
| 14> H     -3.685904    0.871725   -0.880589
| 15> H     -3.684388    0.873508    0.879239
| 16> C     -4.691361   -0.836651    0.001907
| 17> H     -5.676911   -0.369592    0.002210
| 18> H     -4.612492   -1.468437    0.886478
| 19> H     -4.613940   -1.470332   -0.881440
| 20> H      1.291757    1.055257   -0.868109
| 21> C      2.564097   -0.458735   -0.000991
| 22> H      1.291137    1.050182    0.873940
| 23> H      2.560871   -1.120937    0.871655
| 24> C      3.850414    0.368061    0.002127
| 25> H      2.561668   -1.115615   -0.877655
| 26> H      3.854143    1.028939   -0.869607
| 27> C      5.116582   -0.486575   -0.000026
| 28> H      3.853418    1.023461    0.877993
| 29> H      5.157271   -1.133612    0.878700
| 30> H      6.015118    0.131837    0.002416
| 31> H      5.158130   -1.127901   -0.882890
| 32> *
| 33>
| 34>                          ****END OF INPUT****

CARTESIAN COORDINATES (ANGSTROEM)
---------------------------------
  C      0.023324   -0.446803   -0.001938
  C     -1.248311    0.370867   -0.000992
  O     -1.311122    1.575337   -0.000848
  C      1.295426    0.393952    0.000986
  H     -0.011251   -1.111297    0.865725
  H     -0.010002   -1.106796   -0.873123
  O     -2.335846   -0.428912   -0.000518
  C     -3.622317    0.232251   -0.000074
  H     -3.685904    0.871725   -0.880589
  H     -3.684388    0.873508    0.879239
  C     -4.691361   -0.836651    0.001907
  H     -5.676911   -0.369592    0.002210
  H     -4.612492   -1.468437    0.886478
  H     -4.613940   -1.470332   -0.881440
  H      1.291757    1.055257   -0.868109
  C      2.564097   -0.458735   -0.000991
  H      1.291137    1.050182    0.873940
  H      2.560871   -1.120937    0.871655
  C      3.850414    0.368061    0.002127
  H      2.561668   -1.115615   -0.877655
  H      3.854143    1.028939   -0.869607
  C      5.116582   -0.486575   -0.000026
  H      3.853418    1.023461    0.877993
  H      5.157271   -1.133612    0.878700
  H      6.015118    0.131837    0.002416
  H      5.158130   -1.127901   -0.882890

 Total Charge           Charge          ....    0
 Multiplicity           Mult            ....    1
 Number of Electrons    NEL             ....   80
 Basis Dimension        Dim             ....  828

ORBITAL ENERGIES
----------------

  NO   OCC          E(Eh)            E(eV)
   0   2.0000     -20.595798      -560.4402
   1   2.0000     -20.539470      -558.9074
   2   2.0000     -11.373095      -309.4776
   3   2.0000     -11.286713      -307.1271
   4   2.0000     -11.239022      -305.8293
   5   2.0000     -11.223830      -305.4159
   6   2.0000     -11.220626      -305.3288
   7   2.0000     -11.219196      -305.2898
   8   2.0000     -11.217772      -305.2511
   9   2.0000     -11.211278      -305.0744
  10   2.0000      -1.452847       -39.5340
  11   2.0000      -1.353649       -36.8347
  12   2.0000      -1.092878       -29.7387
  13   2.0000      -1.051988       -28.6260
  14   2.0000      -1.024910       -27.8892
  15   2.0000      -0.950186       -25.8559
  16   2.0000      -0.874308       -23.7911
  17   2.0000      -0.831562       -22.6280
  18   2.0000      -0.792956       -21.5774
  19   2.0000      -0.767743       -20.8913
  20   2.0000      -0.690637       -18.7932
  21   2.0000      -0.684213       -18.6184
  22   2.0000      -0.661788       -18.0082
  23   2.0000      -0.653024       -17.7697
  24   2.0000      -0.614084       -16.7101
  25   2.0000      -0.586744       -15.9661
  26   2.0000      -0.574009       -15.6196
  27   2.0000      -0.567432       -15.4406
  28   2.0000      -0.562239       -15.2993
  29   2.0000      -0.543546       -14.7906
  30   2.0000      -0.535177       -14.5629
  31   2.0000      -0.510269       -13.8851
  32   2.0000      -0.506859       -13.7923
  33   2.0000      -0.502863       -13.6836
  34   2.0000      -0.482458       -13.1283
  35   2.0000      -0.469903       -12.7867
  36   2.0000      -0.465091       -12.6558
  37   2.0000      -0.463904       -12.6235
  38   2.0000      -0.454698       -12.3730
  39   2.0000      -0.437994       -11.9184
  40   0.0000       0.028489         0.7752
  41   0.0000       0.030225         0.8225
  42   0.0000       0.036465         0.9923
  43   0.0000       0.036805         1.0015
  44   0.0000       0.043018         1.1706

MULLIKEN ATOMIC CHARGES
-----------------------
   0 C :   -0.036518
   1 C :    0.201373
   2 O :   -0.839302
   3 C :   -0.213236
   4 H :    0.186376
   5 H :    0.186663
   6 O :   -0.285368
   7 C :   -0.194207
   8 H :    0.322750
   9 H :    0.323054
  10 C :   -0.957619
  11 H :    0.321292
  12 H :    0.254344
  13 H :    0.254418
  14 H :    0.219490
  15 C :   -0.259676
  16 H :    0.219427
  17 H :    0.250203
  18 C :   -0.481255
  19 H :    0.250207
  20 H :    0.237471
  21 C :   -0.997940
  22 H :    0.237408
  23 H :    0.261733
  24 H :    0.277155
  25 H :    0.261756
Sum of atomic charges:   -0.0000000

LOEWDIN ATOMIC CHARGES
----------------------
   0 C :    0.275776
   1 C :   -0.800648
   2 O :    0.471207
   3 C :    0.265606
   4 H :   -0.147533
   5 H :   -0.147433
   6 O :    0.581700
   7 C :    0.033522
   8 H :   -0.160225
   9 H :   -0.160335
  10 C :    0.580509
  11 H :   -0.174026
  12 H :   -0.173376
  13 H :   -0.173374
  14 H :   -0.142159
  15 C :    0.268970
  16 H :   -0.142063
  17 H :   -0.141502
  18 C :    0.258907
  19 H :   -0.141502
  20 H :   -0.146903
  21 C :    0.578741
  22 H :   -0.146907
  23 H :   -0.171613
  24 H :   -0.173728
  25 H :   -0.171611

  Mayer bond orders larger than 0.100000
B(  0-C ,  1-C ) :   0.5812 B(  0-C ,  3-C ) :   1.0061 B(  0-C ,  4-H ) :   0.9697
B(  0-C ,  5-H ) :   0.9688 B(  0-C ,  6-O ) :  -0.1396 B(  1-C ,  2-O ) :   1.4187
B(  1-C ,  6-O ) :   1.1432 B(  3-C , 14-H ) :   0.9514 B(  3-C , 15-C ) :   0.9400
B(  3-C , 16-H ) :   0.9511 B(  6-O ,  7-C ) :   0.7584 B(  7-C ,  8-H ) :   0.9008
B(  7-C ,  9-H ) :   0.9006 B(  7-C , 10-C ) :   0.8897 B( 10-C , 11-H ) :   0.9303
B( 10-C , 12-H ) :   0.9793 B( 10-C , 13-H ) :   0.9792 B( 15-C , 17-H ) :   0.9465
B( 15-C , 18-C ) :   0.8885 B( 15-C , 19-H ) :   0.9465 B( 18-C , 20-H ) :   0.9646
B( 18-C , 21-C ) :   0.9468 B( 18-C , 22-H ) :   0.9647 B( 21-C , 23-H ) :   0.9691
B( 21-C , 24-H ) :   0.9875 B( 21-C , 25-H ) :   0.9692

MP2 TOTAL ENERGY:     -464.059177735 Eh
FINAL SINGLE POINT ENERGY      -464.059177735253

DIPOLE MOMENT
-------------
                                X             Y             Z
Electronic contribution:     -9.94144       3.39961      -0.00513
Nuclear contribution   :      9.78392      -4.13765       0.00513
                        -----------------------------------------
Total Dipole Moment    :     -0.15752      -0.73804      -0.00000
                        -----------------------------------------
Magnitude (a.u.)       :      0.75466
Magnitude (Debye)      :      1.91819

Rotational constants in cm-1:     0.180654     0.012069     0.011480
Rotational constants in MHz :  5415.860187   361.828803   344.174791

                             ****ORCA TERMINATED NORMALLY****
TOTAL RUN TIME: 0 days 0 hours 17 minutes 25 seconds 232 msec
