                         Program Version 5.0.3 -  RELEASE  -
|  1> !ri-mp2 aug-cc-pvtz aug-cc-pvtz/c tightscf
|  2> %pal nprocs 16 end
|  3>
|  4> * xyz 0 1
|  5> S     -0.485479    1.616939   -0.499622
|  6> S      0.485479   -1.616939   -0.499622
|  7> N      0.485479    4.238358    0.048550
|  8> N     -0.485479   -4.238358    0.048550
|  9> C      0.219813    0.726015    0.967138
| 10> C     -0.219813   -0.726015    0.967138
| 11> C      0.100064    3.168473   -0.157999
| 12> C     -0.100064   -3.168473   -0.157999
| 13> H     -0.158457    1.213127    1.862783
| 14> H      1.302444    0.822259    0.936478
| 15> H     -1.302444   -0.822259    0.936478
| 16> H      0.158457   -1.213127    1.862783
| 17> *
| 18>
| 19>                          ****END OF INPUT****

CARTESIAN COORDINATES (ANGSTROEM)
---------------------------------
  S     -0.485479    1.616939   -0.499622
  S      0.485479   -1.616939   -0.499622
  N      0.485479    4.238358    0.048550
  N     -0.485479   -4.238358    0.048550
  C      0.219813    0.726015    0.967138
  C     -0.219813   -0.726015    0.967138
  C      0.100064    3.168473   -0.157999
  C     -0.100064   -3.168473   -0.157999
  H     -0.158457    1.213127    1.862783
  H      1.302444    0.822259    0.936478
  H     -1.302444   -0.822259    0.936478
  H      0.158457   -1.213127    1.862783

 Total Charge           Charge          ....    0
 Multiplicity           Mult            ....    1
 Number of Electrons    NEL             ....   74
 Basis Dimension        Dim             ....  468

ORBITAL ENERGIES
----------------

  NO   OCC          E(Eh)            E(eV)
   0   2.0000     -92.036883     -2504.4509
   1   2.0000     -92.036883     -2504.4509
   2   2.0000     -15.597483      -424.4291
   3   2.0000     -15.597483      -424.4291
   4   2.0000     -11.330068      -308.3068
   5   2.0000     -11.329426      -308.2894
   6   2.0000     -11.311245      -307.7946
   7   2.0000     -11.311244      -307.7946
   8   2.0000      -9.036482      -245.8952
   9   2.0000      -9.036481      -245.8952
  10   2.0000      -6.717931      -182.8042
  11   2.0000      -6.717930      -182.8042
  12   2.0000      -6.716382      -182.7620
  13   2.0000      -6.716381      -182.7620
  14   2.0000      -6.715424      -182.7360
  15   2.0000      -6.715423      -182.7360
  16   2.0000      -1.245916       -33.9031
  17   2.0000      -1.244970       -33.8774
  18   2.0000      -1.160205       -31.5708
  19   2.0000      -1.083623       -29.4869
  20   2.0000      -1.005108       -27.3504
  21   2.0000      -0.879958       -23.9449
  22   2.0000      -0.732711       -19.9381
  23   2.0000      -0.718104       -19.5406
  24   2.0000      -0.655311       -17.8319
  25   2.0000      -0.628909       -17.1135
  26   2.0000      -0.615393       -16.7457
  27   2.0000      -0.576935       -15.6992
  28   2.0000      -0.574737       -15.6394
  29   2.0000      -0.552811       -15.0427
  30   2.0000      -0.548540       -14.9265
  31   2.0000      -0.533728       -14.5235
  32   2.0000      -0.532584       -14.4923
  33   2.0000      -0.472386       -12.8543
  34   2.0000      -0.466185       -12.6855
  35   2.0000      -0.409062       -11.1311
  36   2.0000      -0.396063       -10.7774
  37   0.0000       0.017478         0.4756
  38   0.0000       0.031950         0.8694
  39   0.0000       0.038811         1.0561
  40   0.0000       0.042130         1.1464
  41   0.0000       0.056578         1.5396

MULLIKEN ATOMIC CHARGES
-----------------------
   0 S :    0.181186
   1 S :    0.181186
   2 N :   -0.411896
   3 N :   -0.411896
   4 C :   -0.406603
   5 C :   -0.406603
   6 C :    0.062901
   7 C :    0.062901
   8 H :    0.303061
   9 H :    0.271350
  10 H :    0.271350
  11 H :    0.303061
Sum of atomic charges:    0.0000000

LOEWDIN ATOMIC CHARGES
----------------------
   0 S :    1.147808
   1 S :    1.147808
   2 N :    0.146202
   3 N :    0.146202
   4 C :   -0.102411
   5 C :   -0.102411
   6 C :   -0.760602
   7 C :   -0.760602
   8 H :   -0.210742
   9 H :   -0.220255
  10 H :   -0.220255
  11 H :   -0.210742

  Mayer bond orders larger than 0.100000
B(  0-S ,  4-C ) :   0.8609 B(  0-S ,  6-C ) :   1.0865 B(  1-S ,  5-C ) :   0.8609
B(  1-S ,  7-C ) :   1.0865 B(  2-N ,  6-C ) :   2.4555 B(  3-N ,  7-C ) :   2.4555
B(  4-C ,  5-C ) :   1.0182 B(  4-C ,  8-H ) :   0.9211 B(  4-C ,  9-H ) :   0.9222
B(  5-C , 10-H ) :   0.9222 B(  5-C , 11-H ) :   0.9211

MP2 TOTAL ENERGY:    -1059.226151679 Eh
FINAL SINGLE POINT ENERGY     -1059.226151678979

DIPOLE MOMENT
-------------
                                X             Y             Z
Electronic contribution:     -0.00000      -0.00000      -4.71695
Nuclear contribution   :     -0.00000       0.00000       5.42565
                        -----------------------------------------
Total Dipole Moment    :     -0.00000      -0.00000       0.70869
                        -----------------------------------------
Magnitude (a.u.)       :      0.70869
Magnitude (Debye)      :      1.80135

Rotational constants in cm-1:     0.228402     0.017641     0.017251
Rotational constants in MHz :  6847.320561   528.851772   517.179693

                             ****ORCA TERMINATED NORMALLY****
TOTAL RUN TIME: 0 days 0 hours 3 minutes 29 seconds 540 msec
