                         Program Version 5.0.3 -  RELEASE  -
|  1> !ri-mp2 aug-cc-pvtz aug-cc-pvtz/c tightscf
|  2> %pal nprocs 16 end
|  3>
|  4> * xyz 0 1
|  5> C      1.217924   -0.353536    0.000000
|  6> C      0.000000    0.571510    0.000000
|  7> N     -1.306888   -0.088652    0.000000
|  8> H      1.220384   -0.996853    0.882589
|  9> H      1.220384   -0.996853   -0.882589
| 10> H      2.148415    0.218943    0.000000
| 11> H      0.037134    1.227011   -0.872854
| 12> H      0.037134    1.227011    0.872854
| 13> H     -1.411390   -0.683272    0.813701
| 14> H     -1.411390   -0.683272   -0.813701
| 15> *
| 16>
| 17>                          ****END OF INPUT****

CARTESIAN COORDINATES (ANGSTROEM)
---------------------------------
  C      1.217924   -0.353536    0.000000
  C      0.000000    0.571510    0.000000
  N     -1.306888   -0.088652    0.000000
  H      1.220384   -0.996853    0.882589
  H      1.220384   -0.996853   -0.882589
  H      2.148415    0.218943    0.000000
  H      0.037134    1.227011   -0.872854
  H      0.037134    1.227011    0.872854
  H     -1.411390   -0.683272    0.813701
  H     -1.411390   -0.683272   -0.813701

 Total Charge           Charge          ....    0
 Multiplicity           Mult            ....    1
 Number of Electrons    NEL             ....   26
 Basis Dimension        Dim             ....  299

ORBITAL ENERGIES
----------------

  NO   OCC          E(Eh)            E(eV)
   0   2.0000     -15.536738      -422.7761
   1   2.0000     -11.246606      -306.0357
   2   2.0000     -11.213367      -305.1312
   3   2.0000      -1.174287       -31.9540
   4   2.0000      -0.987070       -26.8595
   5   2.0000      -0.830553       -22.6005
   6   2.0000      -0.671460       -18.2714
   7   2.0000      -0.597912       -16.2700
   8   2.0000      -0.570268       -15.5178
   9   2.0000      -0.564076       -15.3493
  10   2.0000      -0.506413       -13.7802
  11   2.0000      -0.482770       -13.1368
  12   2.0000      -0.386912       -10.5284
  13   0.0000       0.030306         0.8247
  14   0.0000       0.039448         1.0734
  15   0.0000       0.040893         1.1128
  16   0.0000       0.043978         1.1967
  17   0.0000       0.063817         1.7366

MULLIKEN ATOMIC CHARGES
-----------------------
   0 C :   -0.910597
   1 C :   -0.210110
   2 N :   -0.572906
   3 H :    0.271527
   4 H :    0.271527
   5 H :    0.311004
   6 H :    0.301093
   7 H :    0.301093
   8 H :    0.118684
   9 H :    0.118684
Sum of atomic charges:    0.0000000

LOEWDIN ATOMIC CHARGES
----------------------
   0 C :    0.574931
   1 C :    0.125936
   2 N :    0.825051
   3 H :   -0.179218
   4 H :   -0.179218
   5 H :   -0.178187
   6 H :   -0.161915
   7 H :   -0.161915
   8 H :   -0.332732
   9 H :   -0.332732

  Mayer bond orders larger than 0.100000
B(  0-C ,  1-C ) :   0.8656 B(  0-C ,  3-H ) :   0.9470 B(  0-C ,  4-H ) :   0.9470
B(  0-C ,  5-H ) :   0.9120 B(  1-C ,  2-N ) :   0.7362 B(  1-C ,  6-H ) :   0.9259
B(  1-C ,  7-H ) :   0.9259 B(  2-N ,  8-H ) :   0.9870 B(  2-N ,  9-H ) :   0.9870

MP2 TOTAL ENERGY:     -134.894439570 Eh
FINAL SINGLE POINT ENERGY      -134.894439570319

DIPOLE MOMENT
-------------
                                X             Y             Z
Electronic contribution:     -1.58723       0.38406      -0.00000
Nuclear contribution   :      1.98525      -0.74494       0.00000
                        -----------------------------------------
Total Dipole Moment    :      0.39803      -0.36088      -0.00000
                        -----------------------------------------
Magnitude (a.u.)       :      0.53727
Magnitude (Debye)      :      1.36563

Rotational constants in cm-1:     1.073184     0.290318     0.259780
Rotational constants in MHz : 32173.250292  8703.503075  7788.009275

                             ****ORCA TERMINATED NORMALLY****
TOTAL RUN TIME: 0 days 0 hours 0 minutes 53 seconds 101 msec
