                         Program Version 5.0.3 -  RELEASE  -
|  1> !ri-mp2 aug-cc-pvtz aug-cc-pvtz/c tightscf
|  2> %pal nprocs 16 end
|  3>
|  4> * xyz 0 1
|  5> H      0.284273   -0.845671    1.087487
|  6> C      0.403159   -0.010172    0.405810
|  7> H     -0.632701    1.282616   -0.927159
|  8> Cl    -2.268012   -0.194803   -0.026317
|  9> C     -0.658000    0.458163   -0.230058
| 10> H      1.762492    1.394082   -0.449259
| 11> H      2.138737    0.922123    1.195638
| 12> C      1.787551    0.540851    0.231531
| 13> H      3.784823   -0.084931   -0.358058
| 14> H      2.833963   -1.363785    0.395683
| 15> H      2.491345   -0.877346   -1.263208
| 16> C      2.782835   -0.508081   -0.279571
| 17> *
| 18>
| 19>                          ****END OF INPUT****

CARTESIAN COORDINATES (ANGSTROEM)
---------------------------------
  H      0.284273   -0.845671    1.087487
  C      0.403159   -0.010172    0.405810
  H     -0.632701    1.282616   -0.927159
  Cl    -2.268012   -0.194803   -0.026317
  C     -0.658000    0.458163   -0.230058
  H      1.762492    1.394082   -0.449259
  H      2.138737    0.922123    1.195638
  C      1.787551    0.540851    0.231531
  H      3.784823   -0.084931   -0.358058
  H      2.833963   -1.363785    0.395683
  H      2.491345   -0.877346   -1.263208
  C      2.782835   -0.508081   -0.279571

 Total Charge           Charge          ....    0
 Multiplicity           Mult            ....    1
 Number of Electrons    NEL             ....   48
 Basis Dimension        Dim             ....  395

ORBITAL ENERGIES
----------------

  NO   OCC          E(Eh)            E(eV)
   0   2.0000    -104.834930     -2852.7035
   1   2.0000     -11.289751      -307.2097
   2   2.0000     -11.247881      -306.0704
   3   2.0000     -11.241128      -305.8866
   4   2.0000     -11.225119      -305.4510
   5   2.0000     -10.558694      -287.3167
   6   2.0000      -8.025586      -218.3873
   7   2.0000      -8.023739      -218.3370
   8   2.0000      -8.023736      -218.3369
   9   2.0000      -1.150825       -31.3155
  10   2.0000      -1.075783       -29.2735
  11   2.0000      -0.981829       -26.7169
  12   2.0000      -0.856426       -23.3045
  13   2.0000      -0.775081       -21.0910
  14   2.0000      -0.645504       -17.5650
  15   2.0000      -0.635407       -17.2903
  16   2.0000      -0.590027       -16.0554
  17   2.0000      -0.558735       -15.2040
  18   2.0000      -0.532407       -14.4875
  19   2.0000      -0.500708       -13.6250
  20   2.0000      -0.494716       -13.4619
  21   2.0000      -0.494114       -13.4455
  22   2.0000      -0.447176       -12.1683
  23   2.0000      -0.357209        -9.7201
  24   0.0000       0.028743         0.7821
  25   0.0000       0.036256         0.9866
  26   0.0000       0.040121         1.0917
  27   0.0000       0.041008         1.1159
  28   0.0000       0.057585         1.5670

MULLIKEN ATOMIC CHARGES
-----------------------
   0 H :    0.428437
   1 C :   -0.278668
   2 H :    0.436702
   3 Cl:   -0.321461
   4 C :   -0.452779
   5 H :    0.234027
   6 H :    0.271255
   7 C :   -0.275682
   8 H :    0.267291
   9 H :    0.290497
  10 H :    0.309404
  11 C :   -0.909022
Sum of atomic charges:    0.0000000

LOEWDIN ATOMIC CHARGES
----------------------
   0 H :   -0.201291
   1 C :    0.085517
   2 H :   -0.289080
   3 Cl:    0.876952
   4 C :   -0.432548
   5 H :   -0.165596
   6 H :   -0.154278
   7 C :    0.219204
   8 H :   -0.173019
   9 H :   -0.173184
  10 H :   -0.171122
  11 C :    0.578446

  Mayer bond orders larger than 0.100000
B(  0-H ,  1-C ) :   0.8406 B(  1-C ,  4-C ) :   1.5241 B(  1-C ,  7-C ) :   0.8514
B(  2-H ,  4-C ) :   0.7643 B(  3-Cl,  4-C ) :   0.7847 B(  5-H ,  7-C ) :   0.9612
B(  6-H ,  7-C ) :   0.9588 B(  7-C , 11-C ) :   0.9125 B(  8-H , 11-C ) :   0.9654
B(  9-H , 11-C ) :   0.9323 B( 10-H , 11-C ) :   0.9310

MP2 TOTAL ENERGY:     -615.981518840 Eh
FINAL SINGLE POINT ENERGY      -615.981518839831

DIPOLE MOMENT
-------------
                                X             Y             Z
Electronic contribution:    -14.93772      -0.48994       0.26952
Nuclear contribution   :     15.83644       0.70262      -0.27997
                        -----------------------------------------
Total Dipole Moment    :      0.89872       0.21269      -0.01045
                        -----------------------------------------
Magnitude (a.u.)       :      0.92360
Magnitude (Debye)      :      2.34760

Rotational constants in cm-1:     0.599699     0.046198     0.045119
Rotational constants in MHz : 17978.528810  1384.969394  1352.634733

                             ****ORCA TERMINATED NORMALLY****
TOTAL RUN TIME: 0 days 0 hours 1 minutes 55 seconds 346 msec
