                         Program Version 5.0.3 -  RELEASE  -
|  1> !ri-mp2 aug-cc-pvtz aug-cc-pvtz/c tightscf
|  2> %pal nprocs 16 end
|  3>
|  4> * xyz 0 1
|  5> C     -0.252597    1.434985    0.748313
|  6> C     -0.252597    1.434985   -0.748313
|  7> C      0.389449    0.284544    0.000000
|  8> C     -0.252597   -1.039865    0.000000
|  9> C      0.387394   -2.205488    0.000000
| 10> H      0.401712    2.122298    1.265403
| 11> H     -1.185014    1.236819    1.258413
| 12> H     -1.185014    1.236819   -1.258413
| 13> H      0.401712    2.122298   -1.265403
| 14> H      1.471951    0.266496    0.000000
| 15> H     -1.339751   -1.036337    0.000000
| 16> H      1.469284   -2.259461    0.000000
| 17> H     -0.149199   -3.143904    0.000000
| 18> *
| 19>
| 20>                          ****END OF INPUT****

CARTESIAN COORDINATES (ANGSTROEM)
---------------------------------
  C     -0.252597    1.434985    0.748313
  C     -0.252597    1.434985   -0.748313
  C      0.389449    0.284544    0.000000
  C     -0.252597   -1.039865    0.000000
  C      0.387394   -2.205488    0.000000
  H      0.401712    2.122298    1.265403
  H     -1.185014    1.236819    1.258413
  H     -1.185014    1.236819   -1.258413
  H      0.401712    2.122298   -1.265403
  H      1.471951    0.266496    0.000000
  H     -1.339751   -1.036337    0.000000
  H      1.469284   -2.259461    0.000000
  H     -0.149199   -3.143904    0.000000

 Total Charge           Charge          ....    0
 Multiplicity           Mult            ....    1
 Number of Electrons    NEL             ....   38
 Basis Dimension        Dim             ....  414

ORBITAL ENERGIES
----------------

  NO   OCC          E(Eh)            E(eV)
   0   2.0000     -11.235776      -305.7410
   1   2.0000     -11.234266      -305.6999
   2   2.0000     -11.229079      -305.5588
   3   2.0000     -11.228407      -305.5405
   4   2.0000     -11.214780      -305.1697
   5   2.0000      -1.151837       -31.3431
   6   2.0000      -1.033796       -28.1310
   7   2.0000      -0.847298       -23.0562
   8   2.0000      -0.825680       -22.4679
   9   2.0000      -0.759036       -20.6544
  10   2.0000      -0.663467       -18.0539
  11   2.0000      -0.647350       -17.6153
  12   2.0000      -0.587136       -15.9768
  13   2.0000      -0.555436       -15.1142
  14   2.0000      -0.519501       -14.1363
  15   2.0000      -0.489123       -13.3097
  16   2.0000      -0.461858       -12.5678
  17   2.0000      -0.427355       -11.6289
  18   2.0000      -0.338018        -9.1979
  19   0.0000       0.031218         0.8495
  20   0.0000       0.035690         0.9712
  21   0.0000       0.036818         1.0019
  22   0.0000       0.041537         1.1303
  23   0.0000       0.054514         1.4834

MULLIKEN ATOMIC CHARGES
-----------------------
   0 C :   -0.866016
   1 C :   -0.866016
   2 C :    0.429415
   3 C :   -0.278756
   4 C :   -1.163473
   5 H :    0.365635
   6 H :    0.367473
   7 H :    0.367473
   8 H :    0.365635
   9 H :    0.281562
  10 H :    0.287288
  11 H :    0.243942
  12 H :    0.465836
Sum of atomic charges:   -0.0000000

LOEWDIN ATOMIC CHARGES
----------------------
   0 C :    0.362809
   1 C :    0.362809
   2 C :   -0.003350
   3 C :    0.182868
   4 C :    0.523064
   5 H :   -0.159297
   6 H :   -0.160536
   7 H :   -0.160536
   8 H :   -0.159297
   9 H :   -0.147712
  10 H :   -0.182222
  11 H :   -0.224780
  12 H :   -0.233819

  Mayer bond orders larger than 0.100000
B(  0-C ,  1-C ) :   1.1592 B(  0-C ,  2-C ) :   0.5523 B(  0-C ,  5-H ) :   0.8332
B(  0-C ,  6-H ) :   0.8394 B(  1-C ,  2-C ) :   0.5523 B(  1-C ,  7-H ) :   0.8394
B(  1-C ,  8-H ) :   0.8332 B(  2-C ,  3-C ) :   0.5396 B(  2-C ,  9-H ) :   0.9819
B(  3-C ,  4-C ) :   1.4615 B(  3-C ,  9-H ) :  -0.1080 B(  3-C , 10-H ) :   1.0088
B(  4-C , 11-H ) :   1.1204 B(  4-C , 12-H ) :   0.7251

MP2 TOTAL ENERGY:     -194.854273699 Eh
FINAL SINGLE POINT ENERGY      -194.854273698641

DIPOLE MOMENT
-------------
                                X             Y             Z
Electronic contribution:      0.10977      -0.33983       0.00000
Nuclear contribution   :     -0.11977       0.57102       0.00000
                        -----------------------------------------
Total Dipole Moment    :     -0.01000       0.23119       0.00000
                        -----------------------------------------
Magnitude (a.u.)       :      0.23141
Magnitude (Debye)      :      0.58819

Rotational constants in cm-1:     0.509525     0.101832     0.097894
Rotational constants in MHz : 15275.189038  3052.838927  2934.776601

                             ****ORCA TERMINATED NORMALLY****
TOTAL RUN TIME: 0 days 0 hours 2 minutes 24 seconds 732 msec
