                         Program Version 5.0.3 -  RELEASE  -
|  1> !ri-mp2 aug-cc-pvtz aug-cc-pvtz/c tightscf
|  2> %pal nprocs 16 end
|  3>
|  4> * xyz 0 1
|  5> C      2.774263    0.471453    0.018406
|  6> H      3.025428    1.225242   -0.732402
|  7> H      2.694425    0.968642    0.985285
|  8> H      3.620197   -0.219765    0.061021
|  9> C      1.508736   -0.244855   -0.337967
| 10> H      1.506561   -0.764857   -1.293079
| 11> C      0.414083   -0.292101    0.413417
| 12> H      0.408451    0.231044    1.366497
| 13> C     -0.843677   -1.027566    0.061292
| 14> H     -0.699053   -1.585556   -0.870041
| 15> H     -1.042235   -1.789762    0.825223
| 16> C     -2.083249   -0.179059   -0.069246
| 17> H     -3.009282   -0.738490   -0.164929
| 18> C     -2.134346    1.146986   -0.084084
| 19> H     -3.075965    1.668839   -0.188328
| 20> H     -1.243382    1.755515   -0.000158
| 21> *
| 22>
| 23>                          ****END OF INPUT****

CARTESIAN COORDINATES (ANGSTROEM)
---------------------------------
  C      2.774263    0.471453    0.018406
  H      3.025428    1.225242   -0.732402
  H      2.694425    0.968642    0.985285
  H      3.620197   -0.219765    0.061021
  C      1.508736   -0.244855   -0.337967
  H      1.506561   -0.764857   -1.293079
  C      0.414083   -0.292101    0.413417
  H      0.408451    0.231044    1.366497
  C     -0.843677   -1.027566    0.061292
  H     -0.699053   -1.585556   -0.870041
  H     -1.042235   -1.789762    0.825223
  C     -2.083249   -0.179059   -0.069246
  H     -3.009282   -0.738490   -0.164929
  C     -2.134346    1.146986   -0.084084
  H     -3.075965    1.668839   -0.188328
  H     -1.243382    1.755515   -0.000158

 Total Charge           Charge          ....    0
 Multiplicity           Mult            ....    1
 Number of Electrons    NEL             ....   46
 Basis Dimension        Dim             ....  506

ORBITAL ENERGIES
----------------

  NO   OCC          E(Eh)            E(eV)
   0   2.0000     -11.232025      -305.6389
   1   2.0000     -11.230682      -305.6024
   2   2.0000     -11.226220      -305.4810
   3   2.0000     -11.222011      -305.3665
   4   2.0000     -11.219495      -305.2980
   5   2.0000     -11.214840      -305.1713
   6   2.0000      -1.098535       -29.8927
   7   2.0000      -1.046246       -28.4698
   8   2.0000      -0.967755       -26.3339
   9   2.0000      -0.890165       -24.2226
  10   2.0000      -0.769725       -20.9453
  11   2.0000      -0.732864       -19.9422
  12   2.0000      -0.641848       -17.4656
  13   2.0000      -0.615089       -16.7374
  14   2.0000      -0.609717       -16.5912
  15   2.0000      -0.567181       -15.4338
  16   2.0000      -0.557893       -15.1810
  17   2.0000      -0.536183       -14.5903
  18   2.0000      -0.517792       -14.0898
  19   2.0000      -0.496928       -13.5221
  20   2.0000      -0.471770       -12.8375
  21   2.0000      -0.361459        -9.8358
  22   2.0000      -0.347238        -9.4488
  23   0.0000       0.030779         0.8375
  24   0.0000       0.033962         0.9242
  25   0.0000       0.037239         1.0133
  26   0.0000       0.040070         1.0903
  27   0.0000       0.050510         1.3745

MULLIKEN ATOMIC CHARGES
-----------------------
   0 C :   -0.754194
   1 H :    0.274736
   2 H :    0.271104
   3 H :    0.284250
   4 C :   -0.523170
   5 H :    0.297602
   6 C :   -0.288138
   7 H :    0.259035
   8 C :   -0.088717
   9 H :    0.229642
  10 H :    0.277398
  11 C :   -0.324680
  12 H :    0.280091
  13 C :   -1.014816
  14 H :    0.443429
  15 H :    0.376428
Sum of atomic charges:    0.0000000

LOEWDIN ATOMIC CHARGES
----------------------
   0 C :    0.551388
   1 H :   -0.178297
   2 H :   -0.183937
   3 H :   -0.178400
   4 C :    0.208847
   5 H :   -0.182972
   6 C :    0.188038
   7 H :   -0.177367
   8 C :    0.219494
   9 H :   -0.164704
  10 H :   -0.158228
  11 C :    0.186832
  12 H :   -0.190866
  13 C :    0.517854
  14 H :   -0.229128
  15 H :   -0.228554

  Mayer bond orders larger than 0.100000
B(  0-C ,  1-H ) :   0.9744 B(  0-C ,  2-H ) :   0.9492 B(  0-C ,  3-H ) :   0.9695
B(  0-C ,  4-C ) :   0.8042 B(  4-C ,  5-H ) :   0.9655 B(  4-C ,  6-C ) :   1.2746
B(  6-C ,  7-H ) :   0.9998 B(  6-C ,  8-C ) :   0.8986 B(  6-C , 11-C ) :   0.1525
B(  8-C ,  9-H ) :   0.9510 B(  8-C , 10-H ) :   0.9811 B(  8-C , 11-C ) :   0.8409
B( 11-C , 12-H ) :   1.0557 B( 11-C , 13-C ) :   1.3330 B( 13-C , 14-H ) :   0.7383
B( 13-C , 15-H ) :   0.9877

MP2 TOTAL ENERGY:     -234.085708463 Eh
FINAL SINGLE POINT ENERGY      -234.085708462581

DIPOLE MOMENT
-------------
                                X             Y             Z
Electronic contribution:     -2.17124      -0.90863      -0.01073
Nuclear contribution   :      2.29807       0.78966      -0.01147
                        -----------------------------------------
Total Dipole Moment    :      0.12683      -0.11898      -0.02220
                        -----------------------------------------
Magnitude (a.u.)       :      0.17531
Magnitude (Debye)      :      0.44561

Rotational constants in cm-1:     0.286445     0.055929     0.049598
Rotational constants in MHz :  8587.394675  1676.699162  1486.923092

                             ****ORCA TERMINATED NORMALLY****
TOTAL RUN TIME: 0 days 0 hours 3 minutes 36 seconds 844 msec
