                         Program Version 5.0.3 -  RELEASE  -
|  1> !ri-mp2 aug-cc-pvtz aug-cc-pvtz/c tightscf
|  2> %pal nprocs 16 end
|  3>
|  4> * xyz 0 1
|  5> N      0.512308    0.546801   -0.071754
|  6> N      1.510698   -0.467956   -0.034828
|  7> C     -0.763301    0.125139   -0.013554
|  8> C     -1.913127   -0.223847    0.004210
|  9> H      0.705929    1.370690    0.481900
| 10> H      1.827585   -0.633181    0.915230
| 11> H      2.290894   -0.164761   -0.602259
| 12> H     -2.926878   -0.532418    0.007263
| 13> *
| 14>
| 15>                          ****END OF INPUT****

CARTESIAN COORDINATES (ANGSTROEM)
---------------------------------
  N      0.512308    0.546801   -0.071754
  N      1.510698   -0.467956   -0.034828
  C     -0.763301    0.125139   -0.013554
  C     -1.913127   -0.223847    0.004210
  H      0.705929    1.370690    0.481900
  H      1.827585   -0.633181    0.915230
  H      2.290894   -0.164761   -0.602259
  H     -2.926878   -0.532418    0.007263

 Total Charge           Charge          ....    0
 Multiplicity           Mult            ....    1
 Number of Electrons    NEL             ....   30
 Basis Dimension        Dim             ....  276

ORBITAL ENERGIES
----------------

  NO   OCC          E(Eh)            E(eV)
   0   2.0000     -15.619450      -425.0268
   1   2.0000     -15.597185      -424.4210
   2   2.0000     -11.258004      -306.3459
   3   2.0000     -11.210233      -305.0460
   4   2.0000      -1.310399       -35.6578
   5   2.0000      -1.093808       -29.7640
   6   2.0000      -0.984173       -26.7807
   7   2.0000      -0.763017       -20.7627
   8   2.0000      -0.709689       -19.3116
   9   2.0000      -0.693653       -18.8753
  10   2.0000      -0.669627       -18.2215
  11   2.0000      -0.506142       -13.7728
  12   2.0000      -0.444203       -12.0874
  13   2.0000      -0.390748       -10.6328
  14   2.0000      -0.340271        -9.2592
  15   0.0000       0.022818         0.6209
  16   0.0000       0.038045         1.0353
  17   0.0000       0.043022         1.1707
  18   0.0000       0.046121         1.2550
  19   0.0000       0.091657         2.4941

MULLIKEN ATOMIC CHARGES
-----------------------
   0 N :   -0.038326
   1 N :   -0.364461
   2 C :    0.937376
   3 C :   -1.492387
   4 H :    0.127961
   5 H :    0.172925
   6 H :    0.154890
   7 H :    0.502023
Sum of atomic charges:    0.0000000

LOEWDIN ATOMIC CHARGES
----------------------
   0 N :    0.336994
   1 N :    0.739252
   2 C :   -0.141707
   3 C :    0.354044
   4 H :   -0.310592
   5 H :   -0.321710
   6 H :   -0.332207
   7 H :   -0.324074

  Mayer bond orders larger than 0.100000
B(  0-N ,  1-N ) :   0.7789 B(  0-N ,  2-C ) :   0.9136 B(  0-N ,  3-C ) :  -0.1157
B(  0-N ,  4-H ) :   1.0251 B(  1-N ,  5-H ) :   0.9765 B(  1-N ,  6-H ) :   0.9734
B(  2-C ,  3-C ) :   1.4065 B(  3-C ,  7-H ) :   0.7673

MP2 TOTAL ENERGY:     -187.647331296 Eh
FINAL SINGLE POINT ENERGY      -187.647331295912

DIPOLE MOMENT
-------------
                                X             Y             Z
Electronic contribution:     -1.11351       0.40769      -0.26206
Nuclear contribution   :      1.91874       0.04099       0.80543
                        -----------------------------------------
Total Dipole Moment    :      0.80523       0.44868       0.54337
                        -----------------------------------------
Magnitude (a.u.)       :      1.07003
Magnitude (Debye)      :      2.71980

Rotational constants in cm-1:     1.385602     0.159240     0.146593
Rotational constants in MHz : 41539.305636  4773.889620  4394.757194

                             ****ORCA TERMINATED NORMALLY****
TOTAL RUN TIME: 0 days 0 hours 0 minutes 56 seconds 722 msec
