                         Program Version 5.0.3 -  RELEASE  -
|  1> !ri-mp2 aug-cc-pvtz aug-cc-pvtz/c tightscf
|  2> %pal nprocs 16 end
|  3>
|  4> * xyz 0 1
|  5> C      0.000000    0.531086    0.000000
|  6> C     -1.331860    0.464679    0.000000
|  7> C      0.850788   -0.688356    0.000000
|  8> C     -2.260297    1.629509    0.000000
|  9> C      2.345543   -0.454617    0.000000
| 10> O      0.383363   -1.811009    0.000000
| 11> H      0.503575    1.491936    0.000000
| 12> H     -1.777905   -0.525425    0.000000
| 13> H     -1.728950    2.580430    0.000000
| 14> H     -2.916004    1.597195    0.874296
| 15> H     -2.916004    1.597195   -0.874296
| 16> H      2.872893   -1.404393    0.000000
| 17> H      2.635225    0.128660    0.877308
| 18> H      2.635225    0.128660   -0.877308
| 19> *
| 20>
| 21>                          ****END OF INPUT****

CARTESIAN COORDINATES (ANGSTROEM)
---------------------------------
  C      0.000000    0.531086    0.000000
  C     -1.331860    0.464679    0.000000
  C      0.850788   -0.688356    0.000000
  C     -2.260297    1.629509    0.000000
  C      2.345543   -0.454617    0.000000
  O      0.383363   -1.811009    0.000000
  H      0.503575    1.491936    0.000000
  H     -1.777905   -0.525425    0.000000
  H     -1.728950    2.580430    0.000000
  H     -2.916004    1.597195    0.874296
  H     -2.916004    1.597195   -0.874296
  H      2.872893   -1.404393    0.000000
  H      2.635225    0.128660    0.877308
  H      2.635225    0.128660   -0.877308

 Total Charge           Charge          ....    0
 Multiplicity           Mult            ....    1
 Number of Electrons    NEL             ....   46
 Basis Dimension        Dim             ....  460

ORBITAL ENERGIES
----------------

  NO   OCC          E(Eh)            E(eV)
   0   2.0000     -20.534203      -558.7641
   1   2.0000     -11.327276      -308.2309
   2   2.0000     -11.259767      -306.3938
   3   2.0000     -11.237252      -305.7812
   4   2.0000     -11.230314      -305.5924
   5   2.0000     -11.230037      -305.5848
   6   2.0000      -1.376000       -37.4429
   7   2.0000      -1.093982       -29.7688
   8   2.0000      -1.017707       -27.6932
   9   2.0000      -0.956289       -26.0219
  10   2.0000      -0.810835       -22.0639
  11   2.0000      -0.730323       -19.8731
  12   2.0000      -0.665947       -18.1213
  13   2.0000      -0.634287       -17.2598
  14   2.0000      -0.599113       -16.3027
  15   2.0000      -0.581076       -15.8119
  16   2.0000      -0.578904       -15.7528
  17   2.0000      -0.574174       -15.6241
  18   2.0000      -0.537587       -14.6285
  19   2.0000      -0.516300       -14.0492
  20   2.0000      -0.500779       -13.6269
  21   2.0000      -0.411018       -11.1844
  22   2.0000      -0.371642       -10.1129
  23   0.0000       0.026015         0.7079
  24   0.0000       0.031291         0.8515
  25   0.0000       0.040528         1.1028
  26   0.0000       0.041516         1.1297
  27   0.0000       0.052345         1.4244

MULLIKEN ATOMIC CHARGES
-----------------------
   0 C :   -0.234387
   1 C :   -0.294041
   2 C :    0.633112
   3 C :   -0.815308
   4 C :   -0.821065
   5 O :   -0.882486
   6 H :    0.298617
   7 H :    0.321747
   8 H :    0.285074
   9 H :    0.293008
  10 H :    0.293008
  11 H :    0.328946
  12 H :    0.296887
  13 H :    0.296887
Sum of atomic charges:    0.0000000

LOEWDIN ATOMIC CHARGES
----------------------
   0 C :    0.201191
   1 C :    0.212510
   2 C :   -0.570670
   3 C :    0.570546
   4 C :    0.574306
   5 O :    0.450443
   6 H :   -0.202720
   7 H :   -0.180958
   8 H :   -0.179104
   9 H :   -0.171291
  10 H :   -0.171291
  11 H :   -0.183837
  12 H :   -0.174563
  13 H :   -0.174563

  Mayer bond orders larger than 0.100000
B(  0-C ,  1-C ) :   1.2209 B(  0-C ,  2-C ) :   0.7502 B(  0-C ,  6-H ) :   0.9747
B(  1-C ,  3-C ) :   0.7895 B(  1-C ,  7-H ) :   0.9524 B(  2-C ,  4-C ) :   0.9630
B(  2-C ,  5-O ) :   1.2346 B(  3-C ,  8-H ) :   0.9512 B(  3-C ,  9-H ) :   0.9672
B(  3-C , 10-H ) :   0.9672 B(  4-C , 11-H ) :   0.9438 B(  4-C , 12-H ) :   0.9379
B(  4-C , 13-H ) :   0.9379

MP2 TOTAL ENERGY:     -270.019501077 Eh
FINAL SINGLE POINT ENERGY      -270.019501077212

DIPOLE MOMENT
-------------
                                X             Y             Z
Electronic contribution:      0.70631      -4.37890      -0.00000
Nuclear contribution   :     -0.70444       5.71613       0.00000
                        -----------------------------------------
Total Dipole Moment    :      0.00187       1.33723      -0.00000
                        -----------------------------------------
Magnitude (a.u.)       :      1.33723
Magnitude (Debye)      :      3.39898

Rotational constants in cm-1:     0.306449     0.062105     0.052637
Rotational constants in MHz :  9187.107124  1861.875078  1578.028416

                             ****ORCA TERMINATED NORMALLY****
TOTAL RUN TIME: 0 days 0 hours 3 minutes 31 seconds 132 msec
