                         Program Version 5.0.3 -  RELEASE  -
|  1> !ri-mp2 aug-cc-pvtz aug-cc-pvtz/c tightscf
|  2> %pal nprocs 16 end
|  3>
|  4> * xyz 0 1
|  5> C    -0.323065     0.580595    0.000000
|  6> C     0.323065    -0.580595    0.000000
|  7> C     0.323065     1.931514    0.000000
|  8> C    -0.323065    -1.931514    0.000000
|  9> H    -1.410554     0.569817    0.000000
| 10> H     1.410554    -0.569817    0.000000
| 11> H     0.024557     2.513142    0.876335
| 12> H     1.410604     1.854162    0.000000
| 13> H     0.024557     2.513142   -0.876335
| 14> H    -0.024557    -2.513142    0.876335
| 15> H    -1.410604    -1.854162    0.000000
| 16> H    -0.024557    -2.513142   -0.876335
| 17> *
| 18>
| 19>                          ****END OF INPUT****

CARTESIAN COORDINATES (ANGSTROEM)
---------------------------------
  C     -0.323065    0.580595    0.000000
  C      0.323065   -0.580595    0.000000
  C      0.323065    1.931514    0.000000
  C     -0.323065   -1.931514    0.000000
  H     -1.410554    0.569817    0.000000
  H      1.410554   -0.569817    0.000000
  H      0.024557    2.513142    0.876335
  H      1.410604    1.854162    0.000000
  H      0.024557    2.513142   -0.876335
  H     -0.024557   -2.513142    0.876335
  H     -1.410604   -1.854162    0.000000
  H     -0.024557   -2.513142   -0.876335

 Total Charge           Charge          ....    0
 Multiplicity           Mult            ....    1
 Number of Electrons    NEL             ....   32
 Basis Dimension        Dim             ....  368

ORBITAL ENERGIES
----------------

  NO   OCC          E(Eh)            E(eV)
   0   2.0000     -11.222348      -305.3756
   1   2.0000     -11.220599      -305.3280
   2   2.0000     -11.216931      -305.2282
   3   2.0000     -11.216916      -305.2278
   4   2.0000      -1.077602       -29.3230
   5   2.0000      -0.983623       -26.7657
   6   2.0000      -0.878904       -23.9162
   7   2.0000      -0.743926       -20.2432
   8   2.0000      -0.606633       -16.5073
   9   2.0000      -0.606121       -16.4934
  10   2.0000      -0.570211       -15.5162
  11   2.0000      -0.553186       -15.0530
  12   2.0000      -0.521764       -14.1979
  13   2.0000      -0.509571       -13.8661
  14   2.0000      -0.480053       -13.0629
  15   2.0000      -0.343083        -9.3358
  16   0.0000       0.031996         0.8707
  17   0.0000       0.036385         0.9901
  18   0.0000       0.039731         1.0811
  19   0.0000       0.044474         1.2102
  20   0.0000       0.055731         1.5165

MULLIKEN ATOMIC CHARGES
-----------------------
   0 C :   -0.363050
   1 C :   -0.363050
   2 C :   -0.751394
   3 C :   -0.751394
   4 H :    0.264694
   5 H :    0.264694
   6 H :    0.284599
   7 H :    0.280552
   8 H :    0.284599
   9 H :    0.284599
  10 H :    0.280552
  11 H :    0.284599
Sum of atomic charges:    0.0000000

LOEWDIN ATOMIC CHARGES
----------------------
   0 C :    0.192190
   1 C :    0.192190
   2 C :    0.543538
   3 C :    0.543538
   4 H :   -0.189932
   5 H :   -0.189932
   6 H :   -0.179728
   7 H :   -0.186339
   8 H :   -0.179728
   9 H :   -0.179728
  10 H :   -0.186339
  11 H :   -0.179728

  Mayer bond orders larger than 0.100000
B(  0-C ,  1-C ) :   1.3441 B(  0-C ,  2-C ) :   0.8321 B(  0-C ,  4-H ) :   0.9982
B(  1-C ,  3-C ) :   0.8321 B(  1-C ,  5-H ) :   0.9982 B(  2-C ,  6-H ) :   0.9617
B(  2-C ,  7-H ) :   0.9430 B(  2-C ,  8-H ) :   0.9617 B(  3-C ,  9-H ) :   0.9617
B(  3-C , 10-H ) :   0.9430 B(  3-C , 11-H ) :   0.9617

MP2 TOTAL ENERGY:     -156.862485632 Eh
FINAL SINGLE POINT ENERGY      -156.862485632194

DIPOLE MOMENT
-------------
                                X             Y             Z
Electronic contribution:      0.00000       0.00000       0.00000
Nuclear contribution   :     -0.00000       0.00000       0.00000
                        -----------------------------------------
Total Dipole Moment    :      0.00000       0.00000       0.00000
                        -----------------------------------------
Magnitude (a.u.)       :      0.00000
Magnitude (Debye)      :      0.00000

Rotational constants in cm-1:     1.170376     0.124321     0.117223
Rotational constants in MHz : 35087.000806  3727.061140  3514.263691

                             ****ORCA TERMINATED NORMALLY****
TOTAL RUN TIME: 0 days 0 hours 1 minutes 43 seconds 227 msec
