                         Program Version 5.0.3 -  RELEASE  -
|  1> !ri-mp2 aug-cc-pvtz aug-cc-pvtz/c tightscf
|  2> %pal nprocs 16 end
|  3>
|  4> * xyz 0 1
|  5> C      2.375076    2.291871    0.000000
|  6> H      3.465991    2.277864    0.000000
|  7> H      2.044631    2.840367    0.882327
|  8> H      2.044631    2.840367   -0.882327
|  9> C      1.831458    0.869153    0.000000
| 10> H      2.172537    0.327306   -0.883073
| 11> H      2.172537    0.327306    0.883073
| 12> S      0.000000    0.889482    0.000000
| 13> C     -0.338622   -0.909728    0.000000
| 14> H      0.126062   -1.351508   -0.883539
| 15> H      0.126062   -1.351508    0.883539
| 16> C     -1.840977   -1.176175    0.000000
| 17> H     -2.290661   -0.701679    0.875094
| 18> H     -2.290661   -0.701679   -0.875094
| 19> C     -2.164305   -2.670386    0.000000
| 20> H     -1.752397   -3.165193   -0.881569
| 21> H     -1.752397   -3.165193    0.881569
| 22> H     -3.242119   -2.836574    0.000000
| 23> *
| 24>
| 25>                          ****END OF INPUT****

CARTESIAN COORDINATES (ANGSTROEM)
---------------------------------
  C      2.375076    2.291871    0.000000
  H      3.465991    2.277864    0.000000
  H      2.044631    2.840367    0.882327
  H      2.044631    2.840367   -0.882327
  C      1.831458    0.869153    0.000000
  H      2.172537    0.327306   -0.883073
  H      2.172537    0.327306    0.883073
  S      0.000000    0.889482    0.000000
  C     -0.338622   -0.909728    0.000000
  H      0.126062   -1.351508   -0.883539
  H      0.126062   -1.351508    0.883539
  C     -1.840977   -1.176175    0.000000
  H     -2.290661   -0.701679    0.875094
  H     -2.290661   -0.701679   -0.875094
  C     -2.164305   -2.670386    0.000000
  H     -1.752397   -3.165193   -0.881569
  H     -1.752397   -3.165193    0.881569
  H     -3.242119   -2.836574    0.000000

 Total Charge           Charge          ....    0
 Multiplicity           Mult            ....    1
 Number of Electrons    NEL             ....   58
 Basis Dimension        Dim             ....  556

ORBITAL ENERGIES
----------------

  NO   OCC          E(Eh)            E(eV)
   0   2.0000     -91.935985     -2501.7053
   1   2.0000     -11.253758      -306.2303
   2   2.0000     -11.251046      -306.1565
   3   2.0000     -11.226440      -305.4870
   4   2.0000     -11.221260      -305.3460
   5   2.0000     -11.217033      -305.2310
   6   2.0000      -8.936294      -243.1689
   7   2.0000      -6.617515      -180.0717
   8   2.0000      -6.616665      -180.0486
   9   2.0000      -6.615692      -180.0221
  10   2.0000      -1.088347       -29.6154
  11   2.0000      -1.048967       -28.5438
  12   2.0000      -0.969345       -26.3772
  13   2.0000      -0.883305       -24.0359
  14   2.0000      -0.811864       -22.0920
  15   2.0000      -0.783639       -21.3239
  16   2.0000      -0.645391       -17.5620
  17   2.0000      -0.621370       -16.9083
  18   2.0000      -0.602124       -16.3846
  19   2.0000      -0.580334       -15.7917
  20   2.0000      -0.553564       -15.0633
  21   2.0000      -0.541196       -14.7267
  22   2.0000      -0.529453       -14.4071
  23   2.0000      -0.506037       -13.7700
  24   2.0000      -0.490751       -13.3540
  25   2.0000      -0.479546       -13.0491
  26   2.0000      -0.447619       -12.1803
  27   2.0000      -0.419977       -11.4282
  28   2.0000      -0.331145        -9.0109
  29   0.0000       0.029962         0.8153
  30   0.0000       0.031448         0.8558
  31   0.0000       0.038667         1.0522
  32   0.0000       0.039028         1.0620
  33   0.0000       0.050049         1.3619

MULLIKEN ATOMIC CHARGES
-----------------------
   0 C :   -0.953741
   1 H :    0.293171
   2 H :    0.291677
   3 H :    0.291677
   4 C :   -0.341387
   5 H :    0.247191
   6 H :    0.247191
   7 S :   -0.262949
   8 C :   -0.270473
   9 H :    0.282188
  10 H :    0.282188
  11 C :   -0.514062
  12 H :    0.263078
  13 H :    0.263078
  14 C :   -0.949969
  15 H :    0.274674
  16 H :    0.274674
  17 H :    0.281793
Sum of atomic charges:    0.0000000

LOEWDIN ATOMIC CHARGES
----------------------
   0 C :    0.489136
   1 H :   -0.179122
   2 H :   -0.187439
   3 H :   -0.187439
   4 C :   -0.088936
   5 H :   -0.221630
   6 H :   -0.221630
   7 S :    1.212357
   8 C :   -0.079293
   9 H :   -0.214263
  10 H :   -0.214263
  11 C :    0.169396
  12 H :   -0.165753
  13 H :   -0.165753
  14 C :    0.572674
  15 H :   -0.172338
  16 H :   -0.172338
  17 H :   -0.173365

  Mayer bond orders larger than 0.100000
B(  0-C ,  1-H ) :   0.9550 B(  0-C ,  2-H ) :   0.9453 B(  0-C ,  3-H ) :   0.9453
B(  0-C ,  4-C ) :   0.9022 B(  4-C ,  5-H ) :   0.9306 B(  4-C ,  6-H ) :   0.9306
B(  4-C ,  7-S ) :   0.9474 B(  7-S ,  8-C ) :   0.9700 B(  8-C ,  9-H ) :   0.9071
B(  8-C , 10-H ) :   0.9071 B(  8-C , 11-C ) :   0.9326 B( 11-C , 12-H ) :   0.9565
B( 11-C , 13-H ) :   0.9565 B( 11-C , 14-C ) :   0.9068 B( 14-C , 15-H ) :   0.9548
B( 14-C , 16-H ) :   0.9548 B( 14-C , 17-H ) :   0.9639

MP2 TOTAL ENERGY:     -595.029513659 Eh
FINAL SINGLE POINT ENERGY      -595.029513659496

DIPOLE MOMENT
-------------
                                X             Y             Z
Electronic contribution:     -0.45272       4.35335       0.00000
Nuclear contribution   :      0.86153      -4.89976       0.00000
                        -----------------------------------------
Total Dipole Moment    :      0.40881      -0.54641       0.00000
                        -----------------------------------------
Magnitude (a.u.)       :      0.68241
Magnitude (Debye)      :      1.73455

Rotational constants in cm-1:     0.385398     0.033718     0.031924
Rotational constants in MHz : 11553.946794  1010.835856   957.065769

                             ****ORCA TERMINATED NORMALLY****
TOTAL RUN TIME: 0 days 0 hours 4 minutes 32 seconds 449 msec
