                         Program Version 5.0.3 -  RELEASE  -
|  1> !ri-mp2 aug-cc-pvtz aug-cc-pvtz/c tightscf
|  2> %pal nprocs 16 end
|  3>
|  4> * xyz 0 1
|  5> N    -0.059500     0.647189    0.000000
|  6> N     0.059500    -0.647189    0.000000
|  7> O    -1.192188     1.211304    0.000000
|  8> O     1.192188    -1.211304    0.000000
|  9> C     1.192188     1.415406    0.000000
| 10> C    -1.192188    -1.415406    0.000000
| 11> H     0.895007     2.456379    0.000000
| 12> H     1.774488     1.156491    0.882046
| 13> H     1.774488     1.156491   -0.882046
| 14> H    -0.895007    -2.456379    0.000000
| 15> H    -1.774488    -1.156491    0.882046
| 16> H    -1.774488    -1.156491   -0.882046
| 17> *
| 18>
| 19>                          ****END OF INPUT****

CARTESIAN COORDINATES (ANGSTROEM)
---------------------------------
  N     -0.059500    0.647189    0.000000
  N      0.059500   -0.647189    0.000000
  O     -1.192188    1.211304    0.000000
  O      1.192188   -1.211304    0.000000
  C      1.192188    1.415406    0.000000
  C     -1.192188   -1.415406    0.000000
  H      0.895007    2.456379    0.000000
  H      1.774488    1.156491    0.882046
  H      1.774488    1.156491   -0.882046
  H     -0.895007   -2.456379    0.000000
  H     -1.774488   -1.156491    0.882046
  H     -1.774488   -1.156491   -0.882046

 Total Charge           Charge          ....    0
 Multiplicity           Mult            ....    1
 Number of Electrons    NEL             ....   48
 Basis Dimension        Dim             ....  414

ORBITAL ENERGIES
----------------

  NO   OCC          E(Eh)            E(eV)
   0   2.0000     -20.553979      -559.3022
   1   2.0000     -20.553973      -559.3020
   2   2.0000     -15.778082      -429.3434
   3   2.0000     -15.777084      -429.3163
   4   2.0000     -11.294814      -307.3475
   5   2.0000     -11.294810      -307.3474
   6   2.0000      -1.552614       -42.2488
   7   2.0000      -1.431992       -38.9665
   8   2.0000      -1.204183       -32.7675
   9   2.0000      -1.116124       -30.3713
  10   2.0000      -0.997660       -27.1477
  11   2.0000      -0.811191       -22.0736
  12   2.0000      -0.760253       -20.6875
  13   2.0000      -0.746276       -20.3072
  14   2.0000      -0.717054       -19.5120
  15   2.0000      -0.626004       -17.0344
  16   2.0000      -0.622386       -16.9360
  17   2.0000      -0.614040       -16.7089
  18   2.0000      -0.592682       -16.1277
  19   2.0000      -0.563667       -15.3382
  20   2.0000      -0.539151       -14.6710
  21   2.0000      -0.490083       -13.3358
  22   2.0000      -0.441805       -12.0221
  23   2.0000      -0.333717        -9.0809
  24   0.0000       0.027734         0.7547
  25   0.0000       0.035136         0.9561
  26   0.0000       0.043065         1.1719
  27   0.0000       0.047691         1.2977
  28   0.0000       0.055827         1.5191

MULLIKEN ATOMIC CHARGES
-----------------------
   0 N :    0.621150
   1 N :    0.621150
   2 O :   -0.905814
   3 O :   -0.905814
   4 C :   -0.834509
   5 C :   -0.834509
   6 H :    0.399079
   7 H :    0.360047
   8 H :    0.360047
   9 H :    0.399079
  10 H :    0.360047
  11 H :    0.360047
Sum of atomic charges:    0.0000000

LOEWDIN ATOMIC CHARGES
----------------------
   0 N :   -0.334406
   1 N :   -0.334406
   2 O :    0.313006
   3 O :    0.313006
   4 C :    0.529083
   5 C :    0.529083
   6 H :   -0.177857
   7 H :   -0.164913
   8 H :   -0.164913
   9 H :   -0.177857
  10 H :   -0.164913
  11 H :   -0.164913

  Mayer bond orders larger than 0.100000
B(  0-N ,  1-N ) :   1.7548 B(  0-N ,  2-O ) :   0.5471 B(  0-N ,  3-O ) :   0.3538
B(  0-N ,  4-C ) :   0.8140 B(  1-N ,  2-O ) :   0.3538 B(  1-N ,  3-O ) :   0.5471
B(  1-N ,  5-C ) :   0.8140 B(  4-C ,  6-H ) :   0.8483 B(  4-C ,  7-H ) :   0.8795
B(  4-C ,  8-H ) :   0.8795 B(  5-C ,  9-H ) :   0.8483 B(  5-C , 10-H ) :   0.8795
B(  5-C , 11-H ) :   0.8795

MP2 TOTAL ENERGY:     -339.080582025 Eh
FINAL SINGLE POINT ENERGY      -339.080582025196

DIPOLE MOMENT
-------------
                                X             Y             Z
Electronic contribution:      0.00000      -0.00000      -0.00000
Nuclear contribution   :     -0.00000       0.00000       0.00000
                        -----------------------------------------
Total Dipole Moment    :      0.00000      -0.00000      -0.00000
                        -----------------------------------------
Magnitude (a.u.)       :      0.00000
Magnitude (Debye)      :      0.00000

Rotational constants in cm-1:     0.175524     0.131056     0.077188
Rotational constants in MHz :  5262.081209  3928.970039  2314.041314

                             ****ORCA TERMINATED NORMALLY****
TOTAL RUN TIME: 0 days 0 hours 2 minutes 38 seconds 352 msec
