                         Program Version 5.0.3 -  RELEASE  -
|  1> !ri-mp2 aug-cc-pvtz aug-cc-pvtz/c tightscf
|  2> %pal nprocs 16 end
|  3>
|  4> * xyz 0 1
|  5> S      0.004284    0.891567    0.012200
|  6> S     -1.557225   -0.508946   -0.087104
|  7> C      1.406295   -0.051449   -0.001347
|  8> C      2.452012   -0.649297   -0.003520
|  9> H     -1.672295   -0.734996    1.238559
| 10> H      3.369516   -1.182461   -0.010889
| 11> *
| 12>
| 13>                          ****END OF INPUT****

CARTESIAN COORDINATES (ANGSTROEM)
---------------------------------
  S      0.004284    0.891567    0.012200
  S     -1.557225   -0.508946   -0.087104
  C      1.406295   -0.051449   -0.001347
  C      2.452012   -0.649297   -0.003520
  H     -1.672295   -0.734996    1.238559
  H      3.369516   -1.182461   -0.010889

 Total Charge           Charge          ....    0
 Multiplicity           Mult            ....    1
 Number of Electrons    NEL             ....   46
 Basis Dimension        Dim             ....  238

ORBITAL ENERGIES
----------------

  NO   OCC          E(Eh)            E(eV)
   0   2.0000     -92.021998     -2504.0459
   1   2.0000     -92.001782     -2503.4958
   2   2.0000     -11.267399      -306.6015
   3   2.0000     -11.249327      -306.1098
   4   2.0000      -9.018915      -245.4172
   5   2.0000      -9.000596      -244.9187
   6   2.0000      -6.700038      -182.3173
   7   2.0000      -6.698815      -182.2840
   8   2.0000      -6.697720      -182.2542
   9   2.0000      -6.681452      -181.8116
  10   2.0000      -6.680464      -181.7847
  11   2.0000      -6.679296      -181.7529
  12   2.0000      -1.103569       -30.0297
  13   2.0000      -1.021177       -27.7876
  14   2.0000      -0.915633       -24.9156
  15   2.0000      -0.734951       -19.9990
  16   2.0000      -0.634390       -17.2626
  17   2.0000      -0.569732       -15.5032
  18   2.0000      -0.515133       -14.0175
  19   2.0000      -0.473595       -12.8872
  20   2.0000      -0.404716       -11.0129
  21   2.0000      -0.395100       -10.7512
  22   2.0000      -0.354183        -9.6378
  23   0.0000       0.029355         0.7988
  24   0.0000       0.034720         0.9448
  25   0.0000       0.051978         1.4144
  26   0.0000       0.066556         1.8111
  27   0.0000       0.075490         2.0542

MULLIKEN ATOMIC CHARGES
-----------------------
   0 S :   -0.177668
   1 S :   -0.191104
   2 C :    1.018880
   3 C :   -1.426839
   4 H :    0.176469
   5 H :    0.600262
Sum of atomic charges:   -0.0000000

LOEWDIN ATOMIC CHARGES
----------------------
   0 S :    0.594361
   1 S :    0.781398
   2 C :   -0.647619
   3 C :    0.256732
   4 H :   -0.673647
   5 H :   -0.311225

  Mayer bond orders larger than 0.100000
B(  0-S ,  1-S ) :   1.0939 B(  0-S ,  2-C ) :   0.9470 B(  1-S ,  4-H ) :   1.0014
B(  2-C ,  3-C ) :   0.9046 B(  3-C ,  5-H ) :   0.5076

MP2 TOTAL ENERGY:     -872.608100937 Eh
FINAL SINGLE POINT ENERGY      -872.608100937034

DIPOLE MOMENT
-------------
                                X             Y             Z
Electronic contribution:     -1.54000       1.53339      -0.84288
Nuclear contribution   :      1.67223      -1.84866       1.17859
                        -----------------------------------------
Total Dipole Moment    :      0.13223      -0.31527       0.33571
                        -----------------------------------------
Magnitude (a.u.)       :      0.47915
Magnitude (Debye)      :      1.21790

Rotational constants in cm-1:     0.396664     0.088839     0.073684
Rotational constants in MHz : 11891.698476  2663.337792  2208.987107

                             ****ORCA TERMINATED NORMALLY****
TOTAL RUN TIME: 0 days 0 hours 0 minutes 43 seconds 144 msec
