                         Program Version 5.0.3 -  RELEASE  -
|  1> !ri-mp2 aug-cc-pvtz aug-cc-pvtz/c tightscf
|  2> %pal nprocs 16 end
|  3>
|  4> * xyz 0 1
|  5> O    -0.050156    0.740035    0.079572
|  6> O     1.936027    1.687629   -0.182327
|  7> N     3.213504   -0.696582   -0.044778
|  8> N     4.330864   -0.709304   -0.134489
|  9> C     1.298833    0.673982   -0.023993
| 10> C     1.909663   -0.650513    0.057625
| 11> C    -0.856529   -0.436953    0.311416
| 12> C    -2.276948   -0.004647    0.447772
| 13> C    -3.260722   -0.448114   -0.326484
| 14> C    -4.699726   -0.063453   -0.200434
| 15> H     1.420216   -1.598861    0.184598
| 16> H    -0.512068   -0.920689    1.230337
| 17> H    -0.746910   -1.133819   -0.522395
| 18> H    -2.482030    0.705676    1.242038
| 19> H    -3.020014   -1.148491   -1.122413
| 20> H    -5.062145    0.389855   -1.126289
| 21> H    -4.856995    0.645101    0.612065
| 22> H    -5.325023   -0.940694   -0.016433
| 23> *
| 24>
| 25>                          ****END OF INPUT****

CARTESIAN COORDINATES (ANGSTROEM)
---------------------------------
  O     -0.050156    0.740035    0.079572
  O      1.936027    1.687629   -0.182327
  N      3.213504   -0.696582   -0.044778
  N      4.330864   -0.709304   -0.134489
  C      1.298833    0.673982   -0.023993
  C      1.909663   -0.650513    0.057625
  C     -0.856529   -0.436953    0.311416
  C     -2.276948   -0.004647    0.447772
  C     -3.260722   -0.448114   -0.326484
  C     -4.699726   -0.063453   -0.200434
  H      1.420216   -1.598861    0.184598
  H     -0.512068   -0.920689    1.230337
  H     -0.746910   -1.133819   -0.522395
  H     -2.482030    0.705676    1.242038
  H     -3.020014   -1.148491   -1.122413
  H     -5.062145    0.389855   -1.126289
  H     -4.856995    0.645101    0.612065
  H     -5.325023   -0.940694   -0.016433

 Total Charge           Charge          ....    0
 Multiplicity           Mult            ....    1
 Number of Electrons    NEL             ....   74
 Basis Dimension        Dim             ....  644

ORBITAL ENERGIES
----------------

  NO   OCC          E(Eh)            E(eV)
   0   2.0000     -20.601364      -560.5916
   1   2.0000     -20.528612      -558.6119
   2   2.0000     -15.772378      -429.1882
   3   2.0000     -15.706596      -427.3982
   4   2.0000     -11.389635      -309.9277
   5   2.0000     -11.309329      -307.7425
   6   2.0000     -11.289907      -307.2140
   7   2.0000     -11.248875      -306.0975
   8   2.0000     -11.238818      -305.8238
   9   2.0000     -11.232229      -305.6445
  10   2.0000      -1.507810       -41.0296
  11   2.0000      -1.450738       -39.4766
  12   2.0000      -1.355287       -36.8792
  13   2.0000      -1.161373       -31.6026
  14   2.0000      -1.101626       -29.9768
  15   2.0000      -1.008489       -27.4424
  16   2.0000      -0.909045       -24.7364
  17   2.0000      -0.880937       -23.9715
  18   2.0000      -0.774357       -21.0713
  19   2.0000      -0.755216       -20.5505
  20   2.0000      -0.742701       -20.2099
  21   2.0000      -0.703754       -19.1501
  22   2.0000      -0.697557       -18.9815
  23   2.0000      -0.676865       -18.4184
  24   2.0000      -0.660140       -17.9633
  25   2.0000      -0.633207       -17.2304
  26   2.0000      -0.607050       -16.5187
  27   2.0000      -0.602834       -16.4039
  28   2.0000      -0.578630       -15.7453
  29   2.0000      -0.555565       -15.1177
  30   2.0000      -0.545168       -14.8348
  31   2.0000      -0.526068       -14.3150
  32   2.0000      -0.503102       -13.6901
  33   2.0000      -0.459658       -12.5079
  34   2.0000      -0.449432       -12.2297
  35   2.0000      -0.372646       -10.1402
  36   2.0000      -0.357594        -9.7306
  37   0.0000       0.021058         0.5730
  38   0.0000       0.028817         0.7841
  39   0.0000       0.033912         0.9228
  40   0.0000       0.043046         1.1713
  41   0.0000       0.047568         1.2944

MULLIKEN ATOMIC CHARGES
-----------------------
   0 O :   -0.321112
   1 O :   -0.896952
   2 N :    0.501564
   3 N :   -0.963575
   4 C :    0.631942
   5 C :   -0.001350
   6 C :    0.030491
   7 C :   -0.357505
   8 C :   -0.418050
   9 C :   -0.786177
  10 H :    0.641231
  11 H :    0.354101
  12 H :    0.334679
  13 H :    0.145435
  14 H :    0.251816
  15 H :    0.279469
  16 H :    0.292822
  17 H :    0.281170
Sum of atomic charges:    0.0000000

LOEWDIN ATOMIC CHARGES
----------------------
   0 O :    0.571502
   1 O :    0.406681
   2 N :   -0.007384
   3 N :    0.371928
   4 C :   -0.900961
   5 C :    0.037352
   6 C :    0.007902
   7 C :    0.222595
   8 C :    0.210437
   9 C :    0.559906
  10 H :   -0.254085
  11 H :   -0.163045
  12 H :   -0.170602
  13 H :   -0.179274
  14 H :   -0.181632
  15 H :   -0.174585
  16 H :   -0.180877
  17 H :   -0.175859

  Mayer bond orders larger than 0.100000
B(  0-O ,  1-O ) :  -0.1485 B(  0-O ,  4-C ) :   1.1116 B(  0-O ,  6-C ) :   0.7726
B(  1-O ,  4-C ) :   1.4054 B(  2-N ,  3-N ) :   1.2001 B(  2-N ,  4-C ) :  -0.1513
B(  2-N ,  5-C ) :   1.1441 B(  3-N ,  5-C ) :  -0.3392 B(  4-C ,  5-C ) :   0.8390
B(  5-C , 10-H ) :   0.5162 B(  6-C ,  7-C ) :   0.6734 B(  6-C ,  8-C ) :   0.1706
B(  6-C , 11-H ) :   0.9454 B(  6-C , 12-H ) :   0.8974 B(  7-C ,  8-C ) :   1.1320
B(  7-C , 13-H ) :   1.2546 B(  8-C ,  9-C ) :   0.6974 B(  8-C , 14-H ) :   1.0429
B(  9-C , 15-H ) :   0.9844 B(  9-C , 16-H ) :   0.9524 B(  9-C , 17-H ) :   0.9783

MP2 TOTAL ENERGY:     -492.450583113 Eh
FINAL SINGLE POINT ENERGY      -492.450583113440

DIPOLE MOMENT
-------------
                                X             Y             Z
Electronic contribution:     19.33204       1.98476      -0.25962
Nuclear contribution   :    -20.34051      -3.93890       0.47486
                        -----------------------------------------
Total Dipole Moment    :     -1.00847      -1.95414       0.21524
                        -----------------------------------------
Magnitude (a.u.)       :      2.20952
Magnitude (Debye)      :      5.61617

Rotational constants in cm-1:     0.162126     0.015303     0.014281
Rotational constants in MHz :  4860.407825   458.768662   428.137905

                             ****ORCA TERMINATED NORMALLY****
TOTAL RUN TIME: 0 days 0 hours 9 minutes 34 seconds 24 msec
