                         Program Version 5.0.3 -  RELEASE  -
|  1> !ri-mp2 aug-cc-pvtz aug-cc-pvtz/c tightscf
|  2> %pal nprocs 16 end
|  3>
|  4> * xyz 0 1
|  5> C     -2.624091   -0.223414    0.002412
|  6> H     -2.704638   -0.964618    0.799272
|  7> H     -3.440588    0.487321    0.123953
|  8> H     -2.754705   -0.730974   -0.953978
|  9> C     -1.283867    0.494871    0.060801
| 10> H     -1.250407    1.248579   -0.732964
| 11> H     -1.188350    1.024473    1.014316
| 12> N     -0.191108   -0.449863   -0.112715
| 13> H     -0.395796   -1.431081   -0.024719
| 14> N      1.480161    1.166240    0.046537
| 15> H      2.460546    1.348304   -0.083400
| 16> H      0.852393    1.859667   -0.321530
| 17> C      1.149206   -0.174524   -0.013340
| 18> O      1.993836   -1.054739    0.042882
| 19> *
| 20>
| 21>                          ****END OF INPUT****

CARTESIAN COORDINATES (ANGSTROEM)
---------------------------------
  C     -2.624091   -0.223414    0.002412
  H     -2.704638   -0.964618    0.799272
  H     -3.440588    0.487321    0.123953
  H     -2.754705   -0.730974   -0.953978
  C     -1.283867    0.494871    0.060801
  H     -1.250407    1.248579   -0.732964
  H     -1.188350    1.024473    1.014316
  N     -0.191108   -0.449863   -0.112715
  H     -0.395796   -1.431081   -0.024719
  N      1.480161    1.166240    0.046537
  H      2.460546    1.348304   -0.083400
  H      0.852393    1.859667   -0.321530
  C      1.149206   -0.174524   -0.013340
  O      1.993836   -1.054739    0.042882

 Total Charge           Charge          ....    0
 Multiplicity           Mult            ....    1
 Number of Electrons    NEL             ....   48
 Basis Dimension        Dim             ....  460

ORBITAL ENERGIES
----------------

  NO   OCC          E(Eh)            E(eV)
   0   2.0000     -20.501413      -557.8718
   1   2.0000     -15.578670      -423.9172
   2   2.0000     -15.577445      -423.8838
   3   2.0000     -11.370931      -309.4188
   4   2.0000     -11.281063      -306.9733
   5   2.0000     -11.237285      -305.7821
   6   2.0000      -1.382948       -37.6319
   7   2.0000      -1.240210       -33.7478
   8   2.0000      -1.188508       -32.3410
   9   2.0000      -1.031878       -28.0788
  10   2.0000      -0.873588       -23.7715
  11   2.0000      -0.818342       -22.2682
  12   2.0000      -0.737985       -20.0816
  13   2.0000      -0.681636       -18.5482
  14   2.0000      -0.660582       -17.9754
  15   2.0000      -0.632500       -17.2112
  16   2.0000      -0.599776       -16.3207
  17   2.0000      -0.585028       -15.9194
  18   2.0000      -0.554654       -15.0929
  19   2.0000      -0.531609       -14.4658
  20   2.0000      -0.523437       -14.2434
  21   2.0000      -0.434088       -11.8121
  22   2.0000      -0.421447       -11.4682
  23   2.0000      -0.391414       -10.6509
  24   0.0000       0.021992         0.5984
  25   0.0000       0.030963         0.8426
  26   0.0000       0.038245         1.0407
  27   0.0000       0.040029         1.0892
  28   0.0000       0.052242         1.4216

MULLIKEN ATOMIC CHARGES
-----------------------
   0 C :   -0.901888
   1 H :    0.297968
   2 H :    0.285560
   3 H :    0.304177
   4 C :   -0.244330
   5 H :    0.274352
   6 H :    0.275169
   7 N :    0.036961
   8 H :    0.143058
   9 N :   -0.234494
  10 H :    0.131057
  11 H :    0.180078
  12 C :    0.200788
  13 O :   -0.748458
Sum of atomic charges:   -0.0000000

LOEWDIN ATOMIC CHARGES
----------------------
   0 C :    0.593616
   1 H :   -0.166544
   2 H :   -0.168002
   3 H :   -0.165670
   4 C :    0.149895
   5 H :   -0.154107
   6 H :   -0.144046
   7 N :    0.552822
   8 H :   -0.301442
   9 N :    0.853555
  10 H :   -0.305673
  11 H :   -0.330377
  12 C :   -0.821507
  13 O :    0.407480

  Mayer bond orders larger than 0.100000
B(  0-C ,  1-H ) :   0.9304 B(  0-C ,  2-H ) :   0.9869 B(  0-C ,  3-H ) :   0.9193
B(  0-C ,  4-C ) :   0.8306 B(  4-C ,  5-H ) :   0.9367 B(  4-C ,  6-H ) :   0.9478
B(  4-C ,  7-N ) :   0.7731 B(  7-N ,  8-H ) :   0.9778 B(  7-N , 12-C ) :   1.0411
B(  7-N , 13-O ) :  -0.1206 B(  9-N , 10-H ) :   1.0235 B(  9-N , 11-H ) :   0.9827
B(  9-N , 12-C ) :   1.0075 B( 12-C , 13-O ) :   1.6435

MP2 TOTAL ENERGY:     -303.350505125 Eh
FINAL SINGLE POINT ENERGY      -303.350505124821

DIPOLE MOMENT
-------------
                                X             Y             Z
Electronic contribution:      7.13654      -1.67842      -0.03868
Nuclear contribution   :     -8.57639       2.89467      -0.18290
                        -----------------------------------------
Total Dipole Moment    :     -1.43985       1.21626      -0.22158
                        -----------------------------------------
Magnitude (a.u.)       :      1.89778
Magnitude (Debye)      :      4.82377

Rotational constants in cm-1:     0.287509     0.066626     0.055350
Rotational constants in MHz :  8619.295585  1997.408619  1659.344388

                             ****ORCA TERMINATED NORMALLY****
TOTAL RUN TIME: 0 days 0 hours 3 minutes 2 seconds 965 msec
