                         Program Version 5.0.3 -  RELEASE  -
|  1> !ri-mp2 aug-cc-pvtz aug-cc-pvtz/c tightscf
|  2> %pal nprocs 16 end
|  3>
|  4> * xyz 0 1
|  5> C      1.170211    0.338779    0.232071
|  6> C      0.066000   -0.045993   -0.399570
|  7> C      2.527893   -0.268148    0.055662
|  8> C     -2.338851   -0.455053    0.271000
|  9> C     -1.295746    0.556611   -0.220194
| 10> H      1.103462    1.163582    0.937874
| 11> H      0.129624   -0.873234   -1.104350
| 12> H      3.251170    0.475143   -0.290413
| 13> H      2.510259   -1.084591   -0.666589
| 14> H      2.912006   -0.659771    1.001395
| 15> H     -3.323952    0.006212    0.354652
| 16> H     -2.066008   -0.853268    1.249121
| 17> H     -2.423715   -1.297719   -0.417841
| 18> H     -1.635193    0.971610   -1.175306
| 19> H     -1.234696    1.394857    0.477641
| 20> *
| 21>
| 22>                          ****END OF INPUT****

CARTESIAN COORDINATES (ANGSTROEM)
---------------------------------
  C      1.170211    0.338779    0.232071
  C      0.066000   -0.045993   -0.399570
  C      2.527893   -0.268148    0.055662
  C     -2.338851   -0.455053    0.271000
  C     -1.295746    0.556611   -0.220194
  H      1.103462    1.163582    0.937874
  H      0.129624   -0.873234   -1.104350
  H      3.251170    0.475143   -0.290413
  H      2.510259   -1.084591   -0.666589
  H      2.912006   -0.659771    1.001395
  H     -3.323952    0.006212    0.354652
  H     -2.066008   -0.853268    1.249121
  H     -2.423715   -1.297719   -0.417841
  H     -1.635193    0.971610   -1.175306
  H     -1.234696    1.394857    0.477641

 Total Charge           Charge          ....    0
 Multiplicity           Mult            ....    1
 Number of Electrons    NEL             ....   40
 Basis Dimension        Dim             ....  460

ORBITAL ENERGIES
----------------

  NO   OCC          E(Eh)            E(eV)
   0   2.0000     -11.222038      -305.3672
   1   2.0000     -11.221676      -305.3573
   2   2.0000     -11.218379      -305.2676
   3   2.0000     -11.216901      -305.2274
   4   2.0000     -11.211914      -305.0917
   5   2.0000      -1.085682       -29.5429
   6   2.0000      -1.017730       -27.6938
   7   2.0000      -0.925629       -25.1876
   8   2.0000      -0.830727       -22.6052
   9   2.0000      -0.744676       -20.2637
  10   2.0000      -0.620742       -16.8912
  11   2.0000      -0.619077       -16.8459
  12   2.0000      -0.569704       -15.5024
  13   2.0000      -0.560669       -15.2566
  14   2.0000      -0.550288       -14.9741
  15   2.0000      -0.511561       -13.9203
  16   2.0000      -0.504805       -13.7364
  17   2.0000      -0.481626       -13.1057
  18   2.0000      -0.468047       -12.7362
  19   2.0000      -0.342869        -9.3299
  20   0.0000       0.031583         0.8594
  21   0.0000       0.035042         0.9535
  22   0.0000       0.037933         1.0322
  23   0.0000       0.041050         1.1170
  24   0.0000       0.051923         1.4129

MULLIKEN ATOMIC CHARGES
-----------------------
   0 C :   -0.433919
   1 C :   -0.289625
   2 C :   -0.756523
   3 C :   -0.927209
   4 C :   -0.263549
   5 H :    0.263543
   6 H :    0.210138
   7 H :    0.281612
   8 H :    0.277826
   9 H :    0.281137
  10 H :    0.271913
  11 H :    0.304483
  12 H :    0.280899
  13 H :    0.265954
  14 H :    0.233320
Sum of atomic charges:    0.0000000

LOEWDIN ATOMIC CHARGES
----------------------
   0 C :    0.203096
   1 C :    0.204261
   2 C :    0.546838
   3 C :    0.574398
   4 C :    0.227423
   5 H :   -0.186344
   6 H :   -0.180436
   7 H :   -0.179392
   8 H :   -0.185418
   9 H :   -0.179307
  10 H :   -0.175505
  11 H :   -0.172750
  12 H :   -0.175085
  13 H :   -0.155946
  14 H :   -0.165834

  Mayer bond orders larger than 0.100000
B(  0-C ,  1-C ) :   1.2845 B(  0-C ,  2-C ) :   0.8055 B(  0-C ,  5-H ) :   1.0104
B(  1-C ,  4-C ) :   0.8342 B(  1-C ,  6-H ) :   1.0709 B(  2-C ,  7-H ) :   0.9696
B(  2-C ,  8-H ) :   0.9414 B(  2-C ,  9-H ) :   0.9699 B(  3-C ,  4-C ) :   0.9213
B(  3-C , 10-H ) :   0.9691 B(  3-C , 11-H ) :   0.9315 B(  3-C , 12-H ) :   0.9380
B(  4-C , 13-H ) :   0.9632 B(  4-C , 14-H ) :   0.9482

MP2 TOTAL ENERGY:     -196.087392254 Eh
FINAL SINGLE POINT ENERGY      -196.087392254243

DIPOLE MOMENT
-------------
                                X             Y             Z
Electronic contribution:      0.83521       0.82619      -0.38477
Nuclear contribution   :     -0.83231      -0.81103       0.39223
                        -----------------------------------------
Total Dipole Moment    :      0.00291       0.01516       0.00746
                        -----------------------------------------
Magnitude (a.u.)       :      0.01715
Magnitude (Debye)      :      0.04359

Rotational constants in cm-1:     0.580923     0.069491     0.067581
Rotational constants in MHz : 17415.638708  2083.297150  2026.025760

                             ****ORCA TERMINATED NORMALLY****
TOTAL RUN TIME: 0 days 0 hours 2 minutes 41 seconds 315 msec
