                         Program Version 5.0.3 -  RELEASE  -
|  1> !ri-mp2 aug-cc-pvtz aug-cc-pvtz/c tightscf
|  2> %pal nprocs 16 end
|  3>
|  4> * xyz 0 1
|  5> C      0.232915   -2.318566    0.000000
|  6> C      0.234056   -1.617939    1.200385
|  7> C      0.234056   -1.617939   -1.200385
|  8> C      0.234056   -0.228276    1.197195
|  9> C      0.234056   -0.228276   -1.197195
| 10> C      0.231803    0.488886    0.000000
| 11> C     -1.235575    2.562053    0.000000
| 12> C      0.192517    1.998175    0.000000
| 13> H      0.236268   -3.400335    0.000000
| 14> H      0.239777   -2.153732    2.140626
| 15> H      0.239777   -2.153732   -2.140626
| 16> H      0.241085    0.308775    2.138169
| 17> H      0.241085    0.308775   -2.138169
| 18> H     -1.787127    2.229520   -0.880348
| 19> H     -1.223850    3.653141    0.000000
| 20> H     -1.787127    2.229520    0.880348
| 21> H      0.726399    2.374684    0.875281
| 22> H      0.726399    2.374684   -0.875281
| 23> *
| 24>
| 25>                          ****END OF INPUT****

CARTESIAN COORDINATES (ANGSTROEM)
---------------------------------
  C      0.232915   -2.318566    0.000000
  C      0.234056   -1.617939    1.200385
  C      0.234056   -1.617939   -1.200385
  C      0.234056   -0.228276    1.197195
  C      0.234056   -0.228276   -1.197195
  C      0.231803    0.488886    0.000000
  C     -1.235575    2.562053    0.000000
  C      0.192517    1.998175    0.000000
  H      0.236268   -3.400335    0.000000
  H      0.239777   -2.153732    2.140626
  H      0.239777   -2.153732   -2.140626
  H      0.241085    0.308775    2.138169
  H      0.241085    0.308775   -2.138169
  H     -1.787127    2.229520   -0.880348
  H     -1.223850    3.653141    0.000000
  H     -1.787127    2.229520    0.880348
  H      0.726399    2.374684    0.875281
  H      0.726399    2.374684   -0.875281

 Total Charge           Charge          ....    0
 Multiplicity           Mult            ....    1
 Number of Electrons    NEL             ....   58
 Basis Dimension        Dim             ....  598

ORBITAL ENERGIES
----------------

  NO   OCC          E(Eh)            E(eV)
   0   2.0000     -11.236819      -305.7694
   1   2.0000     -11.231499      -305.6246
   2   2.0000     -11.231316      -305.6196
   3   2.0000     -11.227628      -305.5193
   4   2.0000     -11.227563      -305.5175
   5   2.0000     -11.227150      -305.5063
   6   2.0000     -11.227034      -305.5031
   7   2.0000     -11.215840      -305.1985
   8   2.0000      -1.154240       -31.4085
   9   2.0000      -1.062109       -28.9015
  10   2.0000      -1.011648       -27.5283
  11   2.0000      -0.981941       -26.7200
  12   2.0000      -0.863964       -23.5097
  13   2.0000      -0.824821       -22.4445
  14   2.0000      -0.788010       -21.4429
  15   2.0000      -0.692745       -18.8506
  16   2.0000      -0.641004       -17.4426
  17   2.0000      -0.634294       -17.2600
  18   2.0000      -0.592224       -16.1152
  19   2.0000      -0.586615       -15.9626
  20   2.0000      -0.578037       -15.7292
  21   2.0000      -0.545727       -14.8500
  22   2.0000      -0.520999       -14.1771
  23   2.0000      -0.499570       -13.5940
  24   2.0000      -0.485145       -13.2015
  25   2.0000      -0.477517       -12.9939
  26   2.0000      -0.472842       -12.8667
  27   2.0000      -0.334393        -9.0993
  28   2.0000      -0.324199        -8.8219
  29   0.0000       0.029674         0.8075
  30   0.0000       0.032689         0.8895
  31   0.0000       0.034288         0.9330
  32   0.0000       0.042547         1.1578
  33   0.0000       0.045777         1.2457

MULLIKEN ATOMIC CHARGES
-----------------------
   0 C :   -0.189005
   1 C :   -0.601169
   2 C :   -0.601169
   3 C :   -0.970571
   4 C :   -0.970571
   5 C :    1.485455
   6 C :   -0.903629
   7 C :   -0.331686
   8 H :    0.413358
   9 H :    0.503046
  10 H :    0.503046
  11 H :    0.153413
  12 H :    0.153413
  13 H :    0.284265
  14 H :    0.288603
  15 H :    0.284265
  16 H :    0.249468
  17 H :    0.249468
Sum of atomic charges:    0.0000000

LOEWDIN ATOMIC CHARGES
----------------------
   0 C :    0.189930
   1 C :    0.195281
   2 C :    0.195281
   3 C :    0.214149
   4 C :    0.214149
   5 C :   -0.118334
   6 C :    0.588478
   7 C :    0.256093
   8 H :   -0.188693
   9 H :   -0.185224
  10 H :   -0.185224
  11 H :   -0.176805
  12 H :   -0.176805
  13 H :   -0.169422
  14 H :   -0.171736
  15 H :   -0.169422
  16 H :   -0.155847
  17 H :   -0.155847

  Mayer bond orders larger than 0.100000
B(  0-C ,  1-C ) :   1.1055 B(  0-C ,  2-C ) :   1.1055 B(  0-C ,  3-C ) :  -0.1421
B(  0-C ,  4-C ) :  -0.1421 B(  0-C ,  8-H ) :   0.8849 B(  1-C ,  2-C ) :   0.1059
B(  1-C ,  3-C ) :   1.2685 B(  1-C ,  8-H ) :  -0.1467 B(  1-C ,  9-H ) :   0.7538
B(  2-C ,  4-C ) :   1.2685 B(  2-C ,  8-H ) :  -0.1467 B(  2-C , 10-H ) :   0.7538
B(  3-C ,  5-C ) :   0.5324 B(  3-C , 11-H ) :   1.3243 B(  3-C , 12-H ) :   0.1277
B(  4-C ,  5-C ) :   0.5324 B(  4-C , 11-H ) :   0.1277 B(  4-C , 12-H ) :   1.3243
B(  5-C ,  7-C ) :   0.6198 B(  5-C , 11-H ) :  -0.1564 B(  5-C , 12-H ) :  -0.1564
B(  6-C ,  7-C ) :   0.8438 B(  6-C , 13-H ) :   0.9520 B(  6-C , 14-H ) :   0.9472
B(  6-C , 15-H ) :   0.9520 B(  7-C , 16-H ) :   0.9870 B(  7-C , 17-H ) :   0.9870

MP2 TOTAL ENERGY:     -310.200211937 Eh
FINAL SINGLE POINT ENERGY      -310.200211937164

DIPOLE MOMENT
-------------
                                X             Y             Z
Electronic contribution:      2.18211      -5.75687      -0.00000
Nuclear contribution   :     -2.20314       5.92134       0.00000
                        -----------------------------------------
Total Dipole Moment    :     -0.02103       0.16447      -0.00000
                        -----------------------------------------
Magnitude (a.u.)       :      0.16581
Magnitude (Debye)      :      0.42147

Rotational constants in cm-1:     0.152532     0.048711     0.040449
Rotational constants in MHz :  4572.788388  1460.333908  1212.629493

                             ****ORCA TERMINATED NORMALLY****
TOTAL RUN TIME: 0 days 0 hours 7 minutes 15 seconds 203 msec
