                         Program Version 5.0.3 -  RELEASE  -
|  1> !ri-mp2 aug-cc-pvtz aug-cc-pvtz/c tightscf
|  2> %pal nprocs 16 end
|  3>
|  4> * xyz 0 1
|  5> C      0.146734   -1.257992   -0.001003
|  6> F      1.486654   -1.231502    0.002109
|  7> H     -0.279000   -2.250688   -0.004801
|  8> C     -0.595977   -0.163277    0.000497
|  9> F     -1.944444   -0.328243   -0.001783
| 10> C     -0.254498    1.291824    0.004837
| 11> F      1.109404    1.503367   -0.004948
| 12> H     -0.674434    1.763787    0.897350
| 13> H     -0.688638    1.770979   -0.876947
| 14> *
| 15>
| 16>                          ****END OF INPUT****

CARTESIAN COORDINATES (ANGSTROEM)
---------------------------------
  C      0.146734   -1.257992   -0.001003
  F      1.486654   -1.231502    0.002109
  H     -0.279000   -2.250688   -0.004801
  C     -0.595977   -0.163277    0.000497
  F     -1.944444   -0.328243   -0.001783
  C     -0.254498    1.291824    0.004837
  F      1.109404    1.503367   -0.004948
  H     -0.674434    1.763787    0.897350
  H     -0.688638    1.770979   -0.876947

 Total Charge           Charge          ....    0
 Multiplicity           Mult            ....    1
 Number of Electrons    NEL             ....   48
 Basis Dimension        Dim             ....  345

ORBITAL ENERGIES
----------------

  NO   OCC          E(Eh)            E(eV)
   0   2.0000     -26.331581      -716.5188
   1   2.0000     -26.322632      -716.2752
   2   2.0000     -26.302178      -715.7187
   3   2.0000     -11.347527      -308.7819
   4   2.0000     -11.345480      -308.7262
   5   2.0000     -11.337902      -308.5200
   6   2.0000      -1.646342       -44.7992
   7   2.0000      -1.637704       -44.5642
   8   2.0000      -1.612277       -43.8723
   9   2.0000      -1.095071       -29.7984
  10   2.0000      -0.991360       -26.9763
  11   2.0000      -0.841830       -22.9074
  12   2.0000      -0.775830       -21.1114
  13   2.0000      -0.763981       -20.7890
  14   2.0000      -0.740446       -20.1486
  15   2.0000      -0.707454       -19.2508
  16   2.0000      -0.705719       -19.2036
  17   2.0000      -0.696422       -18.9506
  18   2.0000      -0.692155       -18.8345
  19   2.0000      -0.657428       -17.8895
  20   2.0000      -0.621646       -16.9158
  21   2.0000      -0.561620       -15.2825
  22   2.0000      -0.544713       -14.8224
  23   2.0000      -0.388634       -10.5753
  24   0.0000       0.029211         0.7949
  25   0.0000       0.035870         0.9761
  26   0.0000       0.043016         1.1705
  27   0.0000       0.064269         1.7488
  28   0.0000       0.084211         2.2915

MULLIKEN ATOMIC CHARGES
-----------------------
   0 C :   -0.471964
   1 F :   -0.458674
   2 H :    0.650725
   3 C :    0.591946
   4 F :   -0.502082
   5 C :    0.015563
   6 F :   -0.453217
   7 H :    0.314188
   8 H :    0.313515
Sum of atomic charges:   -0.0000000

LOEWDIN ATOMIC CHARGES
----------------------
   0 C :   -0.189142
   1 F :    0.464332
   2 H :   -0.224154
   3 C :   -0.525458
   4 F :    0.475111
   5 C :   -0.111859
   6 F :    0.463677
   7 H :   -0.176117
   8 H :   -0.176390

  Mayer bond orders larger than 0.100000
B(  0-C ,  1-F ) :   1.0520 B(  0-C ,  2-H ) :   0.4712 B(  0-C ,  3-C ) :   1.5451
B(  3-C ,  4-F ) :   0.6609 B(  3-C ,  5-C ) :   0.8451 B(  5-C ,  6-F ) :   0.7522
B(  5-C ,  7-H ) :   0.9290 B(  5-C ,  8-H ) :   0.9300

MP2 TOTAL ENERGY:     -415.026512678 Eh
FINAL SINGLE POINT ENERGY      -415.026512677769

DIPOLE MOMENT
-------------
                                X             Y             Z
Electronic contribution:      1.46593      -1.21900      -0.01358
Nuclear contribution   :     -2.14512       1.25741       0.01893
                        -----------------------------------------
Total Dipole Moment    :     -0.67919       0.03842       0.00535
                        -----------------------------------------
Magnitude (a.u.)       :      0.68030
Magnitude (Debye)      :      1.72918

Rotational constants in cm-1:     0.133925     0.116004     0.062898
Rotational constants in MHz :  4014.978174  3477.715466  1885.622088

                             ****ORCA TERMINATED NORMALLY****
TOTAL RUN TIME: 0 days 0 hours 1 minutes 23 seconds 730 msec
