                         Program Version 5.0.3 -  RELEASE  -
|  1> !ri-mp2 aug-cc-pvtz aug-cc-pvtz/c tightscf
|  2> %pal nprocs 16 end
|  3>
|  4> * xyz 0 1
|  5> O      1.114134   -0.637896    0.000386
|  6> O     -1.114134   -0.637904   -0.000379
|  7> C     -0.000004    0.243836    0.000033
|  8> C      2.273010   -0.042046    0.000077
|  9> C     -2.273014   -0.042063   -0.000138
| 10> C      3.353062    0.474479   -0.000141
| 11> C     -3.353053    0.474491    0.000162
| 12> H     -0.000326    0.856536    0.903526
| 13> H      0.000313    0.856601   -0.903415
| 14> H      4.314214    0.920528   -0.000423
| 15> H     -4.314202    0.920549    0.000292
| 16> *
| 17>
| 18>                          ****END OF INPUT****

CARTESIAN COORDINATES (ANGSTROEM)
---------------------------------
  O      1.114134   -0.637896    0.000386
  O     -1.114134   -0.637904   -0.000379
  C     -0.000004    0.243836    0.000033
  C      2.273010   -0.042046    0.000077
  C     -2.273014   -0.042063   -0.000138
  C      3.353062    0.474479   -0.000141
  C     -3.353053    0.474491    0.000162
  H     -0.000326    0.856536    0.903526
  H      0.000313    0.856601   -0.903415
  H      4.314214    0.920528   -0.000423
  H     -4.314202    0.920549    0.000292

 Total Charge           Charge          ....    0
 Multiplicity           Mult            ....    1
 Number of Electrons    NEL             ....   50
 Basis Dimension        Dim             ....  414

ORBITAL ENERGIES
----------------

  NO   OCC          E(Eh)            E(eV)
   0   2.0000     -20.649747      -561.9082
   1   2.0000     -20.649738      -561.9079
   2   2.0000     -11.394577      -310.0622
   3   2.0000     -11.307621      -307.6960
   4   2.0000     -11.307619      -307.6960
   5   2.0000     -11.235102      -305.7227
   6   2.0000     -11.235101      -305.7227
   7   2.0000      -1.506038       -40.9814
   8   2.0000      -1.450062       -39.4582
   9   2.0000      -1.060578       -28.8598
  10   2.0000      -1.030784       -28.0491
  11   2.0000      -0.980187       -26.6723
  12   2.0000      -0.825954       -22.4753
  13   2.0000      -0.775256       -21.0958
  14   2.0000      -0.750426       -20.4201
  15   2.0000      -0.716451       -19.4956
  16   2.0000      -0.713856       -19.4250
  17   2.0000      -0.674467       -18.3532
  18   2.0000      -0.635161       -17.2836
  19   2.0000      -0.612188       -16.6585
  20   2.0000      -0.541406       -14.7324
  21   2.0000      -0.411315       -11.1925
  22   2.0000      -0.402629       -10.9561
  23   2.0000      -0.388942       -10.5836
  24   2.0000      -0.386902       -10.5281
  25   0.0000       0.026328         0.7164
  26   0.0000       0.029655         0.8070
  27   0.0000       0.043153         1.1743
  28   0.0000       0.046080         1.2539
  29   0.0000       0.063233         1.7207

MULLIKEN ATOMIC CHARGES
-----------------------
   0 O :   -0.212189
   1 O :   -0.212194
   2 C :   -0.144243
   3 C :    0.744474
   4 C :    0.744428
   5 C :   -1.296466
   6 C :   -1.296415
   7 H :    0.403936
   8 H :    0.403938
   9 H :    0.432360
  10 H :    0.432372
Sum of atomic charges:   -0.0000000

LOEWDIN ATOMIC CHARGES
----------------------
   0 O :    0.511748
   1 O :    0.511748
   2 C :   -0.178495
   3 C :   -0.291469
   4 C :   -0.291469
   5 C :    0.333635
   6 C :    0.333635
   7 H :   -0.147070
   8 H :   -0.147073
   9 H :   -0.317596
  10 H :   -0.317595

  Mayer bond orders larger than 0.100000
B(  0-O ,  2-C ) :   0.9211 B(  0-O ,  3-C ) :   0.9777 B(  0-O ,  5-C ) :  -0.3660
B(  1-O ,  2-C ) :   0.9211 B(  1-O ,  4-C ) :   0.9777 B(  1-O ,  6-C ) :  -0.3660
B(  2-C ,  7-H ) :   0.8447 B(  2-C ,  8-H ) :   0.8447 B(  3-C ,  5-C ) :   1.6821
B(  4-C ,  6-C ) :   1.6822 B(  5-C ,  9-H ) :   0.9330 B(  6-C , 10-H ) :   0.9330

MP2 TOTAL ENERGY:     -342.571199304 Eh
FINAL SINGLE POINT ENERGY      -342.571199303830

DIPOLE MOMENT
-------------
                                X             Y             Z
Electronic contribution:     -0.00000      -2.52990      -0.00003
Nuclear contribution   :     -0.00000       3.45387      -0.00002
                        -----------------------------------------
Total Dipole Moment    :     -0.00000       0.92397      -0.00005
                        -----------------------------------------
Magnitude (a.u.)       :      0.92397
Magnitude (Debye)      :      2.34856

Rotational constants in cm-1:     0.705635     0.035634     0.034147
Rotational constants in MHz : 21154.407662  1068.279410  1023.705024

                             ****ORCA TERMINATED NORMALLY****
TOTAL RUN TIME: 0 days 0 hours 2 minutes 11 seconds 151 msec
