                         Program Version 5.0.3 -  RELEASE  -
|  1> !ri-mp2 aug-cc-pvtz aug-cc-pvtz/c tightscf
|  2> %pal nprocs 16 end
|  3>
|  4> * xyz 0 1
|  5> S     -0.000127   -1.112931    0.000000
|  6> C      0.000196    1.751740    0.000000
|  7> C      0.000000    0.447878    0.000000
|  8> H      0.000427    2.304594    0.929946
|  9> H      0.000427    2.304594   -0.929946
| 10> *
| 11>
| 12>                          ****END OF INPUT****

CARTESIAN COORDINATES (ANGSTROEM)
---------------------------------
  S     -0.000127   -1.112931    0.000000
  C      0.000196    1.751740    0.000000
  C      0.000000    0.447878    0.000000
  H      0.000427    2.304594    0.929946
  H      0.000427    2.304594   -0.929946

 Total Charge           Charge          ....    0
 Multiplicity           Mult            ....    1
 Number of Electrons    NEL             ....   30
 Basis Dimension        Dim             ....  188

ORBITAL ENERGIES
----------------

  NO   OCC          E(Eh)            E(eV)
   0   2.0000     -91.972359     -2502.6951
   1   2.0000     -11.344633      -308.7032
   2   2.0000     -11.251453      -306.1676
   3   2.0000      -8.975127      -244.2256
   4   2.0000      -6.656287      -181.1268
   5   2.0000      -6.654902      -181.0891
   6   2.0000      -6.653698      -181.0563
   7   2.0000      -1.112703       -30.2782
   8   2.0000      -0.992263       -27.0008
   9   2.0000      -0.716089       -19.4858
  10   2.0000      -0.630562       -17.1585
  11   2.0000      -0.588969       -16.0267
  12   2.0000      -0.502487       -13.6734
  13   2.0000      -0.425275       -11.5723
  14   2.0000      -0.330646        -8.9973
  15   0.0000       0.028601         0.7783
  16   0.0000       0.039222         1.0673
  17   0.0000       0.056397         1.5346
  18   0.0000       0.057843         1.5740
  19   0.0000       0.075212         2.0466

MULLIKEN ATOMIC CHARGES
-----------------------
   0 S :   -0.280703
   1 C :   -0.882319
   2 C :    0.318940
   3 H :    0.422041
   4 H :    0.422041
Sum of atomic charges:    0.0000000

LOEWDIN ATOMIC CHARGES
----------------------
   0 S :    0.883436
   1 C :    0.354574
   2 C :   -0.723135
   3 H :   -0.257438
   4 H :   -0.257438

  Mayer bond orders larger than 0.100000
B(  0-S ,  1-C ) :  -0.1039 B(  0-S ,  2-C ) :   2.0852 B(  1-C ,  2-C ) :   1.5152
B(  1-C ,  3-H ) :   0.8411 B(  1-C ,  4-H ) :   0.8411

MP2 TOTAL ENERGY:     -474.909087329 Eh
FINAL SINGLE POINT ENERGY      -474.909087329421

DIPOLE MOMENT
-------------
                                X             Y             Z
Electronic contribution:     -0.00062      -3.87601      -0.00000
Nuclear contribution   :      0.00083       4.50319       0.00000
                        -----------------------------------------
Total Dipole Moment    :      0.00021       0.62719      -0.00000
                        -----------------------------------------
Magnitude (a.u.)       :      0.62719
Magnitude (Debye)      :      1.59418

Rotational constants in cm-1:     9.669208     0.188740     0.185126
Rotational constants in MHz : 289875.555717  5658.271564  5549.938673

                             ****ORCA TERMINATED NORMALLY****
TOTAL RUN TIME: 0 days 0 hours 0 minutes 31 seconds 738 msec
