                         Program Version 5.0.3 -  RELEASE  -
|  1> !ri-mp2 aug-cc-pvtz aug-cc-pvtz/c tightscf
|  2> %pal nprocs 16 end
|  3>
|  4> * xyz 0 1
|  5> Cl     2.462394   -0.834112    0.000000
|  6> Cl    -2.210865    1.860330    0.000000
|  7> O      0.141352   -2.060501    0.000000
|  8> C      0.651704   -0.988993    0.000000
|  9> C      0.000000    0.327350    0.000000
| 10> C     -1.330710    0.383125    0.000000
| 11> H      0.617498    1.210825    0.000000
| 12> H     -1.950271   -0.501414    0.000000
| 13> *
| 14>
| 15>                          ****END OF INPUT****

CARTESIAN COORDINATES (ANGSTROEM)
---------------------------------
  Cl     2.462394   -0.834112    0.000000
  Cl    -2.210865    1.860330    0.000000
  O      0.141352   -2.060501    0.000000
  C      0.651704   -0.988993    0.000000
  C      0.000000    0.327350    0.000000
  C     -1.330710    0.383125    0.000000
  H      0.617498    1.210825    0.000000
  H     -1.950271   -0.501414    0.000000

 Total Charge           Charge          ....    0
 Multiplicity           Mult            ....    1
 Number of Electrons    NEL             ....   62
 Basis Dimension        Dim             ....  330

ORBITAL ENERGIES
----------------

  NO   OCC          E(Eh)            E(eV)
   0   2.0000    -104.880451     -2853.9422
   1   2.0000    -104.854417     -2853.2337
   2   2.0000     -20.598929      -560.5254
   3   2.0000     -11.423778      -310.8568
   4   2.0000     -11.353848      -308.9539
   5   2.0000     -11.286760      -307.1283
   6   2.0000     -10.604293      -288.5575
   7   2.0000     -10.578654      -287.8598
   8   2.0000      -8.071204      -219.6286
   9   2.0000      -8.069233      -219.5750
  10   2.0000      -8.069092      -219.5712
  11   2.0000      -8.045244      -218.9222
  12   2.0000      -8.043604      -218.8776
  13   2.0000      -8.043451      -218.8734
  14   2.0000      -1.455180       -39.5975
  15   2.0000      -1.202206       -32.7137
  16   2.0000      -1.137593       -30.9555
  17   2.0000      -1.071347       -29.1528
  18   2.0000      -0.880291       -23.9539
  19   2.0000      -0.783688       -21.3252
  20   2.0000      -0.714087       -19.4313
  21   2.0000      -0.689887       -18.7728
  22   2.0000      -0.629226       -17.1221
  23   2.0000      -0.616225       -16.7683
  24   2.0000      -0.595318       -16.1994
  25   2.0000      -0.542813       -14.7707
  26   2.0000      -0.494819       -13.4647
  27   2.0000      -0.474602       -12.9146
  28   2.0000      -0.472472       -12.8566
  29   2.0000      -0.460123       -12.5206
  30   2.0000      -0.407444       -11.0871
  31   0.0000       0.030419         0.8277
  32   0.0000       0.038450         1.0463
  33   0.0000       0.038880         1.0580
  34   0.0000       0.060154         1.6369
  35   0.0000       0.076124         2.0715

MULLIKEN ATOMIC CHARGES
-----------------------
   0 Cl:   -0.255730
   1 Cl:   -0.237379
   2 O :   -0.607859
   3 C :    0.530514
   4 C :   -0.313236
   5 C :   -0.276678
   6 H :    0.635520
   7 H :    0.524849
Sum of atomic charges:    0.0000000

LOEWDIN ATOMIC CHARGES
----------------------
   0 Cl:    0.827325
   1 Cl:    0.974833
   2 O :    0.384815
   3 C :   -1.158179
   4 C :   -0.035434
   5 C :   -0.460115
   6 H :   -0.258669
   7 H :   -0.274576

  Mayer bond orders larger than 0.100000
B(  0-Cl,  3-C ) :   0.9301 B(  1-Cl,  5-C ) :   0.9477 B(  2-O ,  3-C ) :   1.6558
B(  3-C ,  4-C ) :   0.9383 B(  4-C ,  5-C ) :   1.5716 B(  4-C ,  6-H ) :   0.6099
B(  5-C ,  7-H ) :   0.6618

MP2 TOTAL ENERGY:    -1109.814350266 Eh
FINAL SINGLE POINT ENERGY     -1109.814350265596

DIPOLE MOMENT
-------------
                                X             Y             Z
Electronic contribution:      1.10675       1.52652      -0.00000
Nuclear contribution   :     -1.57522      -0.73733       0.00000
                        -----------------------------------------
Total Dipole Moment    :     -0.46848       0.78920      -0.00000
                        -----------------------------------------
Magnitude (a.u.)       :      0.91777
Magnitude (Debye)      :      2.33279

Rotational constants in cm-1:     0.233806     0.029122     0.025897
Rotational constants in MHz :  7009.337783   873.067131   776.364890

                             ****ORCA TERMINATED NORMALLY****
TOTAL RUN TIME: 0 days 0 hours 1 minutes 44 seconds 500 msec
