                         Program Version 5.0.3 -  RELEASE  -
|  1> !ri-mp2 aug-cc-pvtz aug-cc-pvtz/c tightscf
|  2> %pal nprocs 16 end
|  3> %maxcore 3800
|  4>
|  5> * xyz 0 1
|  6> C      2.611997    0.223827   -0.300825
|  7> C      1.549505    0.338129    0.501487
|  8> C      3.878275   -0.323343    0.188620
|  9> C     -4.786972   -0.124165   -0.302575
| 10> C      0.207729    0.863036    0.114332
| 11> C     -3.411591   -0.666545    0.081940
| 12> C     -0.908819   -0.183212    0.275038
| 13> C     -2.290909    0.359831   -0.087143
| 14> O      4.877910   -0.455105   -0.482993
| 15> H      2.582459    0.530856   -1.340266
| 16> H      1.654351    0.007675    1.533289
| 17> H      3.872769   -0.625229    1.256593
| 18> H     -5.051986    0.745375    0.302406
| 19> H     -5.564751   -0.875434   -0.160722
| 20> H     -4.810822    0.183879   -1.349781
| 21> H     -0.030363    1.722364    0.751305
| 22> H      0.231964    1.227423   -0.914648
| 23> H     -3.185367   -1.549033   -0.523759
| 24> H     -3.431941   -1.009179    1.120746
| 25> H     -0.917566   -0.545349    1.307622
| 26> H     -0.678207   -1.048957   -0.351592
| 27> H     -2.280124    0.713817   -1.123199
| 28> H     -2.508987    1.237280    0.530712
| 29> *
| 30>
| 31>                          ****END OF INPUT****

CARTESIAN COORDINATES (ANGSTROEM)
---------------------------------
  C      2.611997    0.223827   -0.300825
  C      1.549505    0.338129    0.501487
  C      3.878275   -0.323343    0.188620
  C     -4.786972   -0.124165   -0.302575
  C      0.207729    0.863036    0.114332
  C     -3.411591   -0.666545    0.081940
  C     -0.908819   -0.183212    0.275038
  C     -2.290909    0.359831   -0.087143
  O      4.877910   -0.455105   -0.482993
  H      2.582459    0.530856   -1.340266
  H      1.654351    0.007675    1.533289
  H      3.872769   -0.625229    1.256593
  H     -5.051986    0.745375    0.302406
  H     -5.564751   -0.875434   -0.160722
  H     -4.810822    0.183879   -1.349781
  H     -0.030363    1.722364    0.751305
  H      0.231964    1.227423   -0.914648
  H     -3.185367   -1.549033   -0.523759
  H     -3.431941   -1.009179    1.120746
  H     -0.917566   -0.545349    1.307622
  H     -0.678207   -1.048957   -0.351592
  H     -2.280124    0.713817   -1.123199
  H     -2.508987    1.237280    0.530712

 Total Charge           Charge          ....    0
 Multiplicity           Mult            ....    1
 Number of Electrons    NEL             ....   70
 Basis Dimension        Dim             ....  736

ORBITAL ENERGIES
----------------

  NO   OCC          E(Eh)            E(eV)
   0   2.0000     -20.547844      -559.1353
   1   2.0000     -11.327174      -308.2281
   2   2.0000     -11.270169      -306.6769
   3   2.0000     -11.245371      -306.0021
   4   2.0000     -11.240535      -305.8705
   5   2.0000     -11.236117      -305.7503
   6   2.0000     -11.228344      -305.5388
   7   2.0000     -11.226221      -305.4810
   8   2.0000     -11.217797      -305.2518
   9   2.0000      -1.383084       -37.6356
  10   2.0000      -1.121778       -30.5251
  11   2.0000      -1.082032       -29.4436
  12   2.0000      -1.026322       -27.9276
  13   2.0000      -0.950886       -25.8749
  14   2.0000      -0.866117       -23.5682
  15   2.0000      -0.813376       -22.1331
  16   2.0000      -0.801616       -21.8131
  17   2.0000      -0.780191       -21.2301
  18   2.0000      -0.683275       -18.5929
  19   2.0000      -0.655078       -17.8256
  20   2.0000      -0.647336       -17.6149
  21   2.0000      -0.608132       -16.5481
  22   2.0000      -0.605686       -16.4816
  23   2.0000      -0.578955       -15.7542
  24   2.0000      -0.572162       -15.5693
  25   2.0000      -0.551777       -15.0146
  26   2.0000      -0.536866       -14.6089
  27   2.0000      -0.530675       -14.4404
  28   2.0000      -0.511900       -13.9295
  29   2.0000      -0.493760       -13.4359
  30   2.0000      -0.478089       -13.0095
  31   2.0000      -0.473914       -12.8958
  32   2.0000      -0.471188       -12.8217
  33   2.0000      -0.421202       -11.4615
  34   2.0000      -0.379752       -10.3336
  35   0.0000       0.025006         0.6804
  36   0.0000       0.028684         0.7805
  37   0.0000       0.030935         0.8418
  38   0.0000       0.034446         0.9373
  39   0.0000       0.042882         1.1669

MULLIKEN ATOMIC CHARGES
-----------------------
   0 C :   -0.308074
   1 C :   -0.314400
   2 C :   -0.111750
   3 C :   -0.990834
   4 C :   -0.036816
   5 C :   -0.514203
   6 C :   -0.442133
   7 C :   -0.319855
   8 O :   -0.768500
   9 H :    0.339205
  10 H :    0.181628
  11 H :    0.527837
  12 H :    0.269031
  13 H :    0.278432
  14 H :    0.264784
  15 H :    0.241141
  16 H :    0.202043
  17 H :    0.236987
  18 H :    0.229716
  19 H :    0.259156
  20 H :    0.264583
  21 H :    0.255883
  22 H :    0.256141
Sum of atomic charges:   -0.0000000

LOEWDIN ATOMIC CHARGES
----------------------
   0 C :    0.197614
   1 C :    0.219189
   2 C :   -0.273819
   3 C :    0.580441
   4 C :    0.270763
   5 C :    0.258842
   6 C :    0.281545
   7 C :    0.270903
   8 O :    0.414062
   9 H :   -0.192585
  10 H :   -0.170862
  11 H :   -0.194446
  12 H :   -0.170848
  13 H :   -0.173076
  14 H :   -0.170819
  15 H :   -0.141637
  16 H :   -0.149874
  17 H :   -0.146958
  18 H :   -0.147337
  19 H :   -0.141356
  20 H :   -0.138790
  21 H :   -0.139970
  22 H :   -0.140980

  Mayer bond orders larger than 0.100000
B(  0-C ,  1-C ) :   1.1403 B(  0-C ,  2-C ) :   0.7416 B(  0-C ,  9-H ) :   0.9123
B(  1-C ,  4-C ) :   0.5900 B(  1-C , 10-H ) :   1.2043 B(  2-C ,  8-O ) :   1.5214
B(  2-C , 11-H ) :   0.6929 B(  3-C ,  5-C ) :   0.9284 B(  3-C , 12-H ) :   0.9610
B(  3-C , 13-H ) :   0.9856 B(  3-C , 14-H ) :   0.9672 B(  4-C ,  6-C ) :   0.9484
B(  4-C , 15-H ) :   0.9762 B(  4-C , 16-H ) :   0.9898 B(  5-C ,  7-C ) :   0.9161
B(  5-C , 17-H ) :   0.9644 B(  5-C , 18-H ) :   0.9716 B(  6-C ,  7-C ) :   0.9617
B(  6-C , 19-H ) :   0.9291 B(  6-C , 20-H ) :   0.9496 B(  7-C , 21-H ) :   0.9461
B(  7-C , 22-H ) :   0.9429 B(  8-O ,  9-H ) :   0.1040 B(  8-O , 11-H ) :  -0.1144

MP2 TOTAL ENERGY:     -387.687185711 Eh
FINAL SINGLE POINT ENERGY      -387.687185711367

DIPOLE MOMENT
-------------
                                X             Y             Z
Electronic contribution:     19.09919      -0.46092      -0.41619
Nuclear contribution   :    -20.87799       0.73787       1.07412
                        -----------------------------------------
Total Dipole Moment    :     -1.77880       0.27695       0.65793
                        -----------------------------------------
Magnitude (a.u.)       :      1.91669
Magnitude (Debye)      :      4.87184

Rotational constants in cm-1:     0.276103     0.012754     0.012635
Rotational constants in MHz :  8277.346713   382.346847   378.789250

                             ****ORCA TERMINATED NORMALLY****
TOTAL RUN TIME: 0 days 0 hours 12 minutes 54 seconds 108 msec
