                         Program Version 5.0.3 -  RELEASE  -
|  1> !ri-mp2 aug-cc-pvtz aug-cc-pvtz/c tightscf
|  2> %pal nprocs 16 end
|  3>
|  4> * xyz 0 1
|  5> C     -1.792925    0.132342   -0.066839
|  6> N     -0.414567   -0.229123   -0.392738
|  7> N      0.414567    0.229123    0.392738
|  8> C      1.792925   -0.132342    0.066839
|  9> H     -2.215579    0.652316   -0.927812
| 10> H     -1.855580    0.753706    0.827894
| 11> H     -2.359533   -0.790722    0.064186
| 12> H      2.215579   -0.652316    0.927812
| 13> H      1.855580   -0.753706   -0.827894
| 14> H      2.359533    0.790722   -0.064186
| 15> *
| 16>
| 17>                          ****END OF INPUT****

CARTESIAN COORDINATES (ANGSTROEM)
---------------------------------
  C     -1.792925    0.132342   -0.066839
  N     -0.414567   -0.229123   -0.392738
  N      0.414567    0.229123    0.392738
  C      1.792925   -0.132342    0.066839
  H     -2.215579    0.652316   -0.927812
  H     -1.855580    0.753706    0.827894
  H     -2.359533   -0.790722    0.064186
  H      2.215579   -0.652316    0.927812
  H      1.855580   -0.753706   -0.827894
  H      2.359533    0.790722   -0.064186

 Total Charge           Charge          ....    0
 Multiplicity           Mult            ....    1
 Number of Electrons    NEL             ....   32
 Basis Dimension        Dim             ....  322

ORBITAL ENERGIES
----------------

  NO   OCC          E(Eh)            E(eV)
   0   2.0000     -15.618650      -425.0051
   1   2.0000     -15.617181      -424.9651
   2   2.0000     -11.248495      -306.0871
   3   2.0000     -11.248488      -306.0869
   4   2.0000      -1.363919       -37.1141
   5   2.0000      -1.063215       -28.9315
   6   2.0000      -0.938369       -25.5343
   7   2.0000      -0.777203       -21.1488
   8   2.0000      -0.655178       -17.8283
   9   2.0000      -0.648506       -17.6467
  10   2.0000      -0.623561       -16.9680
  11   2.0000      -0.576837       -15.6965
  12   2.0000      -0.544513       -14.8170
  13   2.0000      -0.516665       -14.0592
  14   2.0000      -0.449909       -12.2427
  15   2.0000      -0.378208       -10.2916
  16   0.0000       0.031749         0.8639
  17   0.0000       0.038504         1.0478
  18   0.0000       0.043380         1.1804
  19   0.0000       0.046532         1.2662
  20   0.0000       0.057454         1.5634

MULLIKEN ATOMIC CHARGES
-----------------------
   0 C :   -0.783138
   1 N :   -0.272039
   2 N :   -0.272039
   3 C :   -0.783138
   4 H :    0.327243
   5 H :    0.400656
   6 H :    0.327278
   7 H :    0.327243
   8 H :    0.400656
   9 H :    0.327278
Sum of atomic charges:    0.0000000

LOEWDIN ATOMIC CHARGES
----------------------
   0 C :    0.401373
   1 N :    0.196353
   2 N :    0.196353
   3 C :    0.401373
   4 H :   -0.196641
   5 H :   -0.204425
   6 H :   -0.196660
   7 H :   -0.196641
   8 H :   -0.204425
   9 H :   -0.196660

  Mayer bond orders larger than 0.100000
B(  0-C ,  1-N ) :   0.8243 B(  0-C ,  4-H ) :   0.9041 B(  0-C ,  5-H ) :   0.8504
B(  0-C ,  6-H ) :   0.9041 B(  1-N ,  2-N ) :   1.4166 B(  2-N ,  3-C ) :   0.8243
B(  3-C ,  7-H ) :   0.9041 B(  3-C ,  8-H ) :   0.8504 B(  3-C ,  9-H ) :   0.9041

MP2 TOTAL ENERGY:     -188.906569910 Eh
FINAL SINGLE POINT ENERGY      -188.906569910391

DIPOLE MOMENT
-------------
                                X             Y             Z
Electronic contribution:      0.00000       0.00000      -0.00000
Nuclear contribution   :      0.00000       0.00000      -0.00000
                        -----------------------------------------
Total Dipole Moment    :      0.00000       0.00000      -0.00000
                        -----------------------------------------
Magnitude (a.u.)       :      0.00000
Magnitude (Debye)      :      0.00000

Rotational constants in cm-1:     1.423719     0.147775     0.140840
Rotational constants in MHz : 42682.011679  4430.170228  4222.274461

                             ****ORCA TERMINATED NORMALLY****
TOTAL RUN TIME: 0 days 0 hours 1 minutes 13 seconds 798 msec
