                         Program Version 5.0.3 -  RELEASE  -
|  1> !ri-mp2 aug-cc-pvtz aug-cc-pvtz/c tightscf
|  2> %pal nprocs 16 end
|  3>
|  4> * xyz 0 1
|  5> C      0.000000    0.000000       0.598150
|  6> C      0.000000    0.000000      -0.598150
|  7> H      0.000000    0.000000       1.659779
|  8> H      0.000000    0.000000      -1.659779
|  9> *
| 10>
| 11>                          ****END OF INPUT****

CARTESIAN COORDINATES (ANGSTROEM)
---------------------------------
  C      0.000000    0.000000    0.598150
  C      0.000000    0.000000   -0.598150
  H      0.000000    0.000000    1.659779
  H      0.000000    0.000000   -1.659779

 Total Charge           Charge          ....    0
 Multiplicity           Mult            ....    1
 Number of Electrons    NEL             ....   14
 Basis Dimension        Dim             ....  138

ORBITAL ENERGIES
----------------

  NO   OCC          E(Eh)            E(eV)
   0   2.0000     -11.241656      -305.9010
   1   2.0000     -11.237683      -305.7929
   2   2.0000      -1.032570       -28.0977
   3   2.0000      -0.766930       -20.8692
   4   2.0000      -0.681781       -18.5522
   5   2.0000      -0.412538       -11.2257
   6   2.0000      -0.412538       -11.2257
   7   0.0000       0.031043         0.8447
   8   0.0000       0.032643         0.8883
   9   0.0000       0.093023         2.5313
  10   0.0000       0.093023         2.5313
  11   0.0000       0.095384         2.5955

MULLIKEN ATOMIC CHARGES
-----------------------
   0 C :   -0.650007
   1 C :   -0.650007
   2 H :    0.650007
   3 H :    0.650007
Sum of atomic charges:   -0.0000000

LOEWDIN ATOMIC CHARGES
----------------------
   0 C :    0.307965
   1 C :    0.307965
   2 H :   -0.307965
   3 H :   -0.307965

  Mayer bond orders larger than 0.100000
B(  0-C ,  1-C ) :   1.6261 B(  0-C ,  2-H ) :   0.5351 B(  1-C ,  3-H ) :   0.5351

MP2 TOTAL ENERGY:      -77.163583949 Eh
FINAL SINGLE POINT ENERGY       -77.163583949291

DIPOLE MOMENT
-------------
                                X             Y             Z
Electronic contribution:      0.00000       0.00000      -0.00000
Nuclear contribution   :      0.00000       0.00000       0.00000
                        -----------------------------------------
Total Dipole Moment    :      0.00000       0.00000      -0.00000
                        -----------------------------------------
Magnitude (a.u.)       :      0.00000
Magnitude (Debye)      :      0.00000

Rotational constants in cm-1:     0.000000     1.191481     1.191481
Rotational constants in MHz :     0.000000 35719.691485 35719.691485

                             ****ORCA TERMINATED NORMALLY****
TOTAL RUN TIME: 0 days 0 hours 0 minutes 32 seconds 969 msec
