                         Program Version 5.0.3 -  RELEASE  -
|  1> !ri-mp2 aug-cc-pvtz aug-cc-pvtz/c tightscf
|  2> %pal nprocs 16 end
|  3>
|  4> * xyz 0 1
|  5> C      0.909826   -0.524796    0.000000
|  6> C      2.312486    0.022275    0.000000
|  7> C     -2.229581    1.332555    0.000000
|  8> C     -1.391432    0.074275    0.000000
|  9> O      0.616627   -1.694503    0.000000
| 10> O      0.000000    0.471377    0.000000
| 11> H      2.468339    0.648836    0.878091
| 12> H      2.468339    0.648836   -0.878091
| 13> H      3.022001   -0.799004    0.000000
| 14> H     -3.287649    1.068275    0.000000
| 15> H     -2.028233    1.937197    0.884062
| 16> H     -2.028233    1.937197   -0.884062
| 17> H     -1.577685   -0.541093   -0.880090
| 18> H     -1.577685   -0.541093    0.880090
| 19> *
| 20>
| 21>                          ****END OF INPUT****

CARTESIAN COORDINATES (ANGSTROEM)
---------------------------------
  C      0.909826   -0.524796    0.000000
  C      2.312486    0.022275    0.000000
  C     -2.229581    1.332555    0.000000
  C     -1.391432    0.074275    0.000000
  O      0.616627   -1.694503    0.000000
  O      0.000000    0.471377    0.000000
  H      2.468339    0.648836    0.878091
  H      2.468339    0.648836   -0.878091
  H      3.022001   -0.799004    0.000000
  H     -3.287649    1.068275    0.000000
  H     -2.028233    1.937197    0.884062
  H     -2.028233    1.937197   -0.884062
  H     -1.577685   -0.541093   -0.880090
  H     -1.577685   -0.541093    0.880090

 Total Charge           Charge          ....    0
 Multiplicity           Mult            ....    1
 Number of Electrons    NEL             ....   48
 Basis Dimension        Dim             ....  460

ORBITAL ENERGIES
----------------

  NO   OCC          E(Eh)            E(eV)
   0   2.0000     -20.598621      -560.5170
   1   2.0000     -20.541629      -558.9662
   2   2.0000     -11.377779      -309.6051
   3   2.0000     -11.288353      -307.1717
   4   2.0000     -11.238916      -305.8264
   5   2.0000     -11.225081      -305.4500
   6   2.0000      -1.455336       -39.6017
   7   2.0000      -1.355866       -36.8950
   8   2.0000      -1.054630       -28.6979
   9   2.0000      -1.001039       -27.2396
  10   2.0000      -0.865618       -23.5547
  11   2.0000      -0.778859       -21.1938
  12   2.0000      -0.689858       -18.7720
  13   2.0000      -0.683348       -18.5949
  14   2.0000      -0.664047       -18.0696
  15   2.0000      -0.609728       -16.5915
  16   2.0000      -0.580294       -15.7906
  17   2.0000      -0.565632       -15.3916
  18   2.0000      -0.551470       -15.0063
  19   2.0000      -0.539171       -14.6716
  20   2.0000      -0.511231       -13.9113
  21   2.0000      -0.502936       -13.6856
  22   2.0000      -0.457927       -12.4608
  23   2.0000      -0.445914       -12.1339
  24   0.0000       0.028231         0.7682
  25   0.0000       0.034165         0.9297
  26   0.0000       0.039737         1.0813
  27   0.0000       0.042491         1.1562
  28   0.0000       0.054698         1.4884

MULLIKEN ATOMIC CHARGES
-----------------------
   0 C :    0.320823
   1 C :   -0.633408
   2 C :   -0.952296
   3 C :   -0.168124
   4 O :   -0.702481
   5 O :   -0.240751
   6 H :    0.270750
   7 H :    0.270750
   8 H :    0.356659
   9 H :    0.319127
  10 H :    0.263265
  11 H :    0.263265
  12 H :    0.316211
  13 H :    0.316211
Sum of atomic charges:   -0.0000000

LOEWDIN ATOMIC CHARGES
----------------------
   0 C :   -0.833133
   1 C :    0.582029
   2 C :    0.580230
   3 C :    0.031726
   4 O :    0.449042
   5 O :    0.572424
   6 H :   -0.176710
   7 H :   -0.176710
   8 H :   -0.186494
   9 H :   -0.173837
  10 H :   -0.173461
  11 H :   -0.173461
  12 H :   -0.160822
  13 H :   -0.160822

  Mayer bond orders larger than 0.100000
B(  0-C ,  1-C ) :   0.6770 B(  0-C ,  4-O ) :   1.5896 B(  0-C ,  5-O ) :   1.0452
B(  1-C ,  6-H ) :   0.9658 B(  1-C ,  7-H ) :   0.9658 B(  1-C ,  8-H ) :   0.8940
B(  2-C ,  3-C ) :   0.8759 B(  2-C ,  9-H ) :   0.9329 B(  2-C , 10-H ) :   0.9649
B(  2-C , 11-H ) :   0.9649 B(  3-C ,  5-O ) :   0.7480 B(  3-C , 12-H ) :   0.9090
B(  3-C , 13-H ) :   0.9090

MP2 TOTAL ENERGY:     -307.159183228 Eh
FINAL SINGLE POINT ENERGY      -307.159183227816

DIPOLE MOMENT
-------------
                                X             Y             Z
Electronic contribution:      2.51441      -3.56445      -0.00000
Nuclear contribution   :     -2.58973       4.44043       0.00000
                        -----------------------------------------
Total Dipole Moment    :     -0.07533       0.87597      -0.00000
                        -----------------------------------------
Magnitude (a.u.)       :      0.87921
Magnitude (Debye)      :      2.23477

Rotational constants in cm-1:     0.282016     0.069306     0.057411
Rotational constants in MHz :  8454.636223  2077.727979  1721.150451

                             ****ORCA TERMINATED NORMALLY****
TOTAL RUN TIME: 0 days 0 hours 3 minutes 22 seconds 736 msec
