                         Program Version 5.0.3 -  RELEASE  -
|  1> !ri-mp2 aug-cc-pvtz aug-cc-pvtz/c tightscf
|  2> %pal nprocs 16 end
|  3>
|  4> * xyz 0 1
|  5> N     -1.442941    2.799964    0.000000
|  6> C     -0.809520    1.836292    0.000000
|  7> H      1.068858    0.833466    0.000000
|  8> C      0.000000    0.664830    0.000000
|  9> H     -1.596381   -0.669835    0.000000
| 10> C     -0.516510   -0.567384    0.000000
| 11> H     -0.069250   -2.431965    0.866379
| 12> H     -0.069250   -2.431965   -0.866379
| 13> C      0.258117   -1.846322    0.000000
| 14> H      2.237470   -2.709684    0.000000
| 15> H      2.135946   -1.190903   -0.882660
| 16> H      2.135946   -1.190903    0.882660
| 17> C      1.777455   -1.722075    0.000000
| 18> *
| 19>
| 20>                          ****END OF INPUT****

CARTESIAN COORDINATES (ANGSTROEM)
---------------------------------
  N     -1.442941    2.799964    0.000000
  C     -0.809520    1.836292    0.000000
  H      1.068858    0.833466    0.000000
  C      0.000000    0.664830    0.000000
  H     -1.596381   -0.669835    0.000000
  C     -0.516510   -0.567384    0.000000
  H     -0.069250   -2.431965    0.866379
  H     -0.069250   -2.431965   -0.866379
  C      0.258117   -1.846322    0.000000
  H      2.237470   -2.709684    0.000000
  H      2.135946   -1.190903   -0.882660
  H      2.135946   -1.190903    0.882660
  C      1.777455   -1.722075    0.000000

 Total Charge           Charge          ....    0
 Multiplicity           Mult            ....    1
 Number of Electrons    NEL             ....   44
 Basis Dimension        Dim             ....  437

ORBITAL ENERGIES
----------------

  NO   OCC          E(Eh)            E(eV)
   0   2.0000     -15.565253      -423.5521
   1   2.0000     -11.282596      -307.0150
   2   2.0000     -11.274289      -306.7890
   3   2.0000     -11.270960      -306.6984
   4   2.0000     -11.257468      -306.3313
   5   2.0000     -11.237424      -305.7858
   6   2.0000      -1.217705       -33.1354
   7   2.0000      -1.126012       -30.6403
   8   2.0000      -1.035238       -28.1702
   9   2.0000      -0.919633       -25.0245
  10   2.0000      -0.810427       -22.0528
  11   2.0000      -0.728256       -19.8168
  12   2.0000      -0.639511       -17.4020
  13   2.0000      -0.638762       -17.3816
  14   2.0000      -0.602967       -16.4076
  15   2.0000      -0.553781       -15.0691
  16   2.0000      -0.529222       -14.4009
  17   2.0000      -0.526456       -14.3256
  18   2.0000      -0.519656       -14.1406
  19   2.0000      -0.506034       -13.7699
  20   2.0000      -0.461451       -12.5567
  21   2.0000      -0.379041       -10.3142
  22   0.0000       0.021528         0.5858
  23   0.0000       0.030786         0.8377
  24   0.0000       0.036102         0.9824
  25   0.0000       0.038360         1.0438
  26   0.0000       0.054412         1.4806

MULLIKEN ATOMIC CHARGES
-----------------------
   0 N :   -0.761727
   1 C :    0.509405
   2 H :    0.205722
   3 C :    0.220222
   4 H :    0.147760
   5 C :   -0.626717
   6 H :    0.285608
   7 H :    0.285608
   8 C :   -0.211916
   9 H :    0.255566
  10 H :    0.285525
  11 H :    0.285525
  12 C :   -0.880581
Sum of atomic charges:   -0.0000000

LOEWDIN ATOMIC CHARGES
----------------------
   0 N :    0.246854
   1 C :   -0.264344
   2 H :   -0.215104
   3 C :    0.142425
   4 H :   -0.165821
   5 C :    0.229482
   6 H :   -0.148917
   7 H :   -0.148917
   8 C :    0.254997
   9 H :   -0.167265
  10 H :   -0.167914
  11 H :   -0.167914
  12 C :    0.572439

  Mayer bond orders larger than 0.100000
B(  0-N ,  1-C ) :   1.8502 B(  1-C ,  3-C ) :   0.9646 B(  1-C ,  5-C ) :   0.1926
B(  2-H ,  3-C ) :   1.0483 B(  3-C ,  5-C ) :   1.1296 B(  4-H ,  5-C ) :   1.2591
B(  5-C ,  6-H ) :  -0.1009 B(  5-C ,  7-H ) :  -0.1009 B(  5-C ,  8-C ) :   0.6054
B(  6-H ,  8-C ) :   0.9681 B(  7-H ,  8-C ) :   0.9681 B(  8-C , 12-C ) :   0.8828
B(  9-H , 12-C ) :   1.0028 B( 10-H , 12-C ) :   0.9342 B( 11-H , 12-C ) :   0.9342

MP2 TOTAL ENERGY:     -248.949702273 Eh
FINAL SINGLE POINT ENERGY      -248.949702272535

DIPOLE MOMENT
-------------
                                X             Y             Z
Electronic contribution:     -5.04783       8.04245      -0.00000
Nuclear contribution   :      5.94400      -9.95819       0.00000
                        -----------------------------------------
Total Dipole Moment    :      0.89618      -1.91574      -0.00000
                        -----------------------------------------
Magnitude (a.u.)       :      2.11500
Magnitude (Debye)      :      5.37589

Rotational constants in cm-1:     0.489856     0.051628     0.047517
Rotational constants in MHz : 14685.504899  1547.753948  1424.526429

                             ****ORCA TERMINATED NORMALLY****
TOTAL RUN TIME: 0 days 0 hours 2 minutes 52 seconds 857 msec
