                         Program Version 5.0.3 -  RELEASE  -
|  1> !ri-mp2 aug-cc-pvtz aug-cc-pvtz/c tightscf
|  2> %pal nprocs 16 end
|  3>
|  4> * xyz 0 1
|  5> C      1.249205   -0.196057    0.013814
|  6> C      0.069711    0.426754   -0.000397
|  7> N     -1.181689   -0.169404   -0.079242
|  8> H      1.330242   -1.275684    0.016682
|  9> H      2.164905    0.373573    0.006405
| 10> H      0.029960    1.509834   -0.008170
| 11> H     -1.221005   -1.153102    0.136560
| 12> H     -1.945772    0.347030    0.322711
| 13> *
| 14>
| 15>                          ****END OF INPUT****

CARTESIAN COORDINATES (ANGSTROEM)
---------------------------------
  C      1.249205   -0.196057    0.013814
  C      0.069711    0.426754   -0.000397
  N     -1.181689   -0.169404   -0.079242
  H      1.330242   -1.275684    0.016682
  H      2.164905    0.373573    0.006405
  H      0.029960    1.509834   -0.008170
  H     -1.221005   -1.153102    0.136560
  H     -1.945772    0.347030    0.322711

 Total Charge           Charge          ....    0
 Multiplicity           Mult            ....    1
 Number of Electrons    NEL             ....   24
 Basis Dimension        Dim             ....  253

ORBITAL ENERGIES
----------------

  NO   OCC          E(Eh)            E(eV)
   0   2.0000     -15.564467      -423.5307
   1   2.0000     -11.268510      -306.6317
   2   2.0000     -11.198430      -304.7248
   3   2.0000      -1.211593       -32.9691
   4   2.0000      -0.995076       -27.0774
   5   2.0000      -0.790906       -21.5216
   6   2.0000      -0.701728       -19.0950
   7   2.0000      -0.638080       -17.3630
   8   2.0000      -0.573598       -15.6084
   9   2.0000      -0.518848       -14.1186
  10   2.0000      -0.494682       -13.4610
  11   2.0000      -0.316858        -8.6221
  12   0.0000       0.027698         0.7537
  13   0.0000       0.039080         1.0634
  14   0.0000       0.041103         1.1185
  15   0.0000       0.059384         1.6159
  16   0.0000       0.062749         1.7075

MULLIKEN ATOMIC CHARGES
-----------------------
   0 C :   -0.987181
   1 C :   -0.207970
   2 N :   -0.442550
   3 H :    0.432595
   4 H :    0.363455
   5 H :    0.590692
   6 H :    0.116343
   7 H :    0.134616
Sum of atomic charges:    0.0000000

LOEWDIN ATOMIC CHARGES
----------------------
   0 C :    0.491401
   1 C :    0.027284
   2 N :    0.810852
   3 H :   -0.241898
   4 H :   -0.258532
   5 H :   -0.191871
   6 H :   -0.315393
   7 H :   -0.321842

  Mayer bond orders larger than 0.100000
B(  0-C ,  1-C ) :   1.5382 B(  0-C ,  2-N ) :  -0.1535 B(  0-C ,  3-H ) :   0.7902
B(  0-C ,  4-H ) :   0.9245 B(  1-C ,  2-N ) :   1.0028 B(  1-C ,  5-H ) :   0.5784
B(  2-N ,  6-H ) :   1.0250 B(  2-N ,  7-H ) :   1.0303

MP2 TOTAL ENERGY:     -133.676622107 Eh
FINAL SINGLE POINT ENERGY      -133.676622107082

DIPOLE MOMENT
-------------
                                X             Y             Z
Electronic contribution:     -0.85077       0.22316      -0.13672
Nuclear contribution   :      0.36775      -0.20862       0.49577
                        -----------------------------------------
Total Dipole Moment    :     -0.48302       0.01454       0.35905
                        -----------------------------------------
Magnitude (a.u.)       :      0.60203
Magnitude (Debye)      :      1.53023

Rotational constants in cm-1:     1.918156     0.334511     0.286749
Rotational constants in MHz : 57504.874685 10028.375310  8596.529436

                             ****ORCA TERMINATED NORMALLY****
TOTAL RUN TIME: 0 days 0 hours 0 minutes 44 seconds 746 msec
