                         Program Version 5.0.3 -  RELEASE  -
|  1> !ri-mp2 aug-cc-pvtz aug-cc-pvtz/c tightscf
|  2> %pal nprocs 16 end
|  3>
|  4> * xyz 0 1
|  5> C      1.353737   -0.368467    0.037834
|  6> C      0.245113    0.262988    0.434823
|  7> C      2.645333    0.319343   -0.004122
|  8> C     -3.556610   -0.151254   -0.231842
|  9> C     -1.123680   -0.325197    0.512772
| 10> C     -2.146913    0.421382   -0.360045
| 11> O      3.687325   -0.191449   -0.351651
| 12> H      1.345138   -1.409243   -0.265925
| 13> H      0.332449    1.309202    0.722433
| 14> H      2.616706    1.382207    0.314022
| 15> H     -3.585524   -1.200760   -0.530463
| 16> H     -3.915768   -0.089864    0.797239
| 17> H     -4.260573    0.392160   -0.862658
| 18> H     -1.094232   -1.380186    0.232496
| 19> H     -1.463655   -0.283003    1.554077
| 20> H     -2.152324    1.478782   -0.082114
| 21> H     -1.822698    0.379526   -1.402423
| 22> *
| 23>
| 24>                          ****END OF INPUT****

CARTESIAN COORDINATES (ANGSTROEM)
---------------------------------
  C      1.353737   -0.368467    0.037834
  C      0.245113    0.262988    0.434823
  C      2.645333    0.319343   -0.004122
  C     -3.556610   -0.151254   -0.231842
  C     -1.123680   -0.325197    0.512772
  C     -2.146913    0.421382   -0.360045
  O      3.687325   -0.191449   -0.351651
  H      1.345138   -1.409243   -0.265925
  H      0.332449    1.309202    0.722433
  H      2.616706    1.382207    0.314022
  H     -3.585524   -1.200760   -0.530463
  H     -3.915768   -0.089864    0.797239
  H     -4.260573    0.392160   -0.862658
  H     -1.094232   -1.380186    0.232496
  H     -1.463655   -0.283003    1.554077
  H     -2.152324    1.478782   -0.082114
  H     -1.822698    0.379526   -1.402423

 Total Charge           Charge          ....    0
 Multiplicity           Mult            ....    1
 Number of Electrons    NEL             ....   54
 Basis Dimension        Dim             ....  552

ORBITAL ENERGIES
----------------

  NO   OCC          E(Eh)            E(eV)
   0   2.0000     -20.548351      -559.1491
   1   2.0000     -11.327642      -308.2408
   2   2.0000     -11.270685      -306.6909
   3   2.0000     -11.246155      -306.0234
   4   2.0000     -11.241203      -305.8887
   5   2.0000     -11.239333      -305.8378
   6   2.0000     -11.225997      -305.4749
   7   2.0000      -1.383625       -37.6503
   8   2.0000      -1.120080       -30.4789
   9   2.0000      -1.057471       -28.7752
  10   2.0000      -0.964232       -26.2381
  11   2.0000      -0.855483       -23.2789
  12   2.0000      -0.809046       -22.0153
  13   2.0000      -0.781626       -21.2691
  14   2.0000      -0.681959       -18.5570
  15   2.0000      -0.651381       -17.7250
  16   2.0000      -0.636296       -17.3145
  17   2.0000      -0.603491       -16.4218
  18   2.0000      -0.584676       -15.9098
  19   2.0000      -0.566383       -15.4121
  20   2.0000      -0.535917       -14.5830
  21   2.0000      -0.532442       -14.4885
  22   2.0000      -0.506172       -13.7736
  23   2.0000      -0.499031       -13.5793
  24   2.0000      -0.490100       -13.3363
  25   2.0000      -0.421940       -11.4816
  26   2.0000      -0.380806       -10.3623
  27   0.0000       0.024818         0.6753
  28   0.0000       0.029965         0.8154
  29   0.0000       0.034121         0.9285
  30   0.0000       0.037185         1.0118
  31   0.0000       0.048844         1.3291

MULLIKEN ATOMIC CHARGES
-----------------------
   0 C :   -0.287164
   1 C :   -0.323076
   2 C :   -0.119338
   3 C :   -0.987187
   4 C :   -0.096567
   5 C :   -0.412072
   6 O :   -0.759573
   7 H :    0.340115
   8 H :    0.226499
   9 H :    0.531852
  10 H :    0.279467
  11 H :    0.271271
  12 H :    0.276608
  13 H :    0.235058
  14 H :    0.280513
  15 H :    0.260897
  16 H :    0.282697
Sum of atomic charges:    0.0000000

LOEWDIN ATOMIC CHARGES
----------------------
   0 C :    0.197220
   1 C :    0.217075
   2 C :   -0.273741
   3 C :    0.582610
   4 C :    0.261017
   5 C :    0.261316
   6 O :    0.414331
   7 H :   -0.192695
   8 H :   -0.171765
   9 H :   -0.194453
  10 H :   -0.168938
  11 H :   -0.170047
  12 H :   -0.171345
  13 H :   -0.151614
  14 H :   -0.143001
  15 H :   -0.149610
  16 H :   -0.146361

  Mayer bond orders larger than 0.100000
B(  0-C ,  1-C ) :   1.1910 B(  0-C ,  2-C ) :   0.7263 B(  0-C ,  7-H ) :   0.9206
B(  1-C ,  4-C ) :   0.7020 B(  1-C ,  8-H ) :   1.1388 B(  2-C ,  6-O ) :   1.5487
B(  2-C ,  9-H ) :   0.6842 B(  3-C ,  5-C ) :   0.9054 B(  3-C , 10-H ) :   0.9492
B(  3-C , 11-H ) :   0.9537 B(  3-C , 12-H ) :   0.9652 B(  4-C ,  5-C ) :   0.9035
B(  4-C , 13-H ) :   0.9733 B(  4-C , 14-H ) :   0.9545 B(  5-C , 15-H ) :   0.9487
B(  5-C , 16-H ) :   0.9437 B(  6-O ,  9-H ) :  -0.1126

MP2 TOTAL ENERGY:     -309.237006523 Eh
FINAL SINGLE POINT ENERGY      -309.237006523167

DIPOLE MOMENT
-------------
                                X             Y             Z
Electronic contribution:     12.61904      -0.16582      -0.09468
Nuclear contribution   :    -14.40702       0.59499       0.48684
                        -----------------------------------------
Total Dipole Moment    :     -1.78798       0.42917       0.39217
                        -----------------------------------------
Magnitude (a.u.)       :      1.88013
Magnitude (Debye)      :      4.77890

Rotational constants in cm-1:     0.468135     0.026838     0.026697
Rotational constants in MHz : 14034.331672   804.572683   800.355631

                             ****ORCA TERMINATED NORMALLY****
TOTAL RUN TIME: 0 days 0 hours 5 minutes 44 seconds 686 msec
