                         Program Version 5.0.3 -  RELEASE  -
|  1> !ri-mp2 aug-cc-pvtz aug-cc-pvtz/c tightscf
|  2> %pal nprocs 16 end
|  3>
|  4> * xyz 0 1
|  5> S     -4.596838   -0.003107   -0.000137
|  6> S      4.596838    0.003103   -0.000056
|  7> N     -1.832054   -0.149686    0.000108
|  8> N      1.832054    0.149689    0.000098
|  9> C     -0.565103    0.514998    0.000097
| 10> C      0.565103   -0.514994    0.000093
| 11> C     -3.015809   -0.039311   -0.000005
| 12> C      3.015809    0.039311    0.000027
| 13> H     -0.483266    1.151721    0.883482
| 14> H     -0.483277    1.151723   -0.883288
| 15> H      0.483272   -1.151716   -0.883294
| 16> H      0.483270   -1.151720    0.883476
| 17> *
| 18>
| 19>                          ****END OF INPUT****

CARTESIAN COORDINATES (ANGSTROEM)
---------------------------------
  S     -4.596838   -0.003107   -0.000137
  S      4.596838    0.003103   -0.000056
  N     -1.832054   -0.149686    0.000108
  N      1.832054    0.149689    0.000098
  C     -0.565103    0.514998    0.000097
  C      0.565103   -0.514994    0.000093
  C     -3.015809   -0.039311   -0.000005
  C      3.015809    0.039311    0.000027
  H     -0.483266    1.151721    0.883482
  H     -0.483277    1.151723   -0.883288
  H      0.483272   -1.151716   -0.883294
  H      0.483270   -1.151720    0.883476

 Total Charge           Charge          ....    0
 Multiplicity           Mult            ....    1
 Number of Electrons    NEL             ....   74
 Basis Dimension        Dim             ....  468

ORBITAL ENERGIES
----------------

  NO   OCC          E(Eh)            E(eV)
   0   2.0000     -91.958125     -2502.3078
   1   2.0000     -91.958125     -2502.3078
   2   2.0000     -15.620935      -425.0673
   3   2.0000     -15.620933      -425.0672
   4   2.0000     -11.387191      -309.8612
   5   2.0000     -11.387191      -309.8612
   6   2.0000     -11.326883      -308.2201
   7   2.0000     -11.326268      -308.2034
   8   2.0000      -8.961366      -243.8512
   9   2.0000      -8.961366      -243.8512
  10   2.0000      -6.642999      -180.7652
  11   2.0000      -6.642998      -180.7652
  12   2.0000      -6.640443      -180.6956
  13   2.0000      -6.640442      -180.6956
  14   2.0000      -6.640229      -180.6898
  15   2.0000      -6.640229      -180.6898
  16   2.0000      -1.316580       -35.8260
  17   2.0000      -1.304146       -35.4876
  18   2.0000      -1.115770       -30.3616
  19   2.0000      -1.052583       -28.6422
  20   2.0000      -1.023656       -27.8551
  21   2.0000      -0.946386       -25.7525
  22   2.0000      -0.780442       -21.2369
  23   2.0000      -0.722617       -19.6634
  24   2.0000      -0.712568       -19.3900
  25   2.0000      -0.653863       -17.7925
  26   2.0000      -0.628140       -17.0926
  27   2.0000      -0.605923       -16.4880
  28   2.0000      -0.602758       -16.4019
  29   2.0000      -0.571899       -15.5622
  30   2.0000      -0.548266       -14.9191
  31   2.0000      -0.524124       -14.2621
  32   2.0000      -0.523524       -14.2458
  33   2.0000      -0.377584       -10.2746
  34   2.0000      -0.375423       -10.2158
  35   2.0000      -0.368624       -10.0308
  36   2.0000      -0.365222        -9.9382
  37   0.0000       0.021952         0.5973
  38   0.0000       0.034102         0.9280
  39   0.0000       0.034747         0.9455
  40   0.0000       0.050119         1.3638
  41   0.0000       0.054572         1.4850

MULLIKEN ATOMIC CHARGES
-----------------------
   0 S :   -0.374663
   1 S :   -0.374663
   2 N :    0.016607
   3 N :    0.016605
   4 C :    0.127992
   5 C :    0.127992
   6 C :   -0.420057
   7 C :   -0.420055
   8 H :    0.325068
   9 H :    0.325054
  10 H :    0.325055
  11 H :    0.325067
Sum of atomic charges:    0.0000000

LOEWDIN ATOMIC CHARGES
----------------------
   0 S :    0.823686
   1 S :    0.823686
   2 N :    0.227194
   3 N :    0.227194
   4 C :    0.118279
   5 C :    0.118278
   6 C :   -0.875628
   7 C :   -0.875627
   8 H :   -0.146766
   9 H :   -0.146765
  10 H :   -0.146765
  11 H :   -0.146766

  Mayer bond orders larger than 0.100000
B(  0-S ,  2-N ) :  -0.1303 B(  0-S ,  6-C ) :   1.8889 B(  1-S ,  3-N ) :  -0.1303
B(  1-S ,  7-C ) :   1.8889 B(  2-N ,  4-C ) :   0.4780 B(  2-N ,  6-C ) :   1.9703
B(  3-N ,  5-C ) :   0.4780 B(  3-N ,  7-C ) :   1.9703 B(  4-C ,  5-C ) :   0.9365
B(  4-C ,  6-C ) :  -0.3565 B(  4-C ,  8-H ) :   0.9061 B(  4-C ,  9-H ) :   0.9061
B(  5-C ,  7-C ) :  -0.3565 B(  5-C , 10-H ) :   0.9061 B(  5-C , 11-H ) :   0.9061

MP2 TOTAL ENERGY:    -1059.246915861 Eh
FINAL SINGLE POINT ENERGY     -1059.246915861436

DIPOLE MOMENT
-------------
                                X             Y             Z
Electronic contribution:      0.00000      -0.00001      -0.00031
Nuclear contribution   :     -0.00000       0.00001       0.00037
                        -----------------------------------------
Total Dipole Moment    :      0.00000       0.00000       0.00006
                        -----------------------------------------
Magnitude (a.u.)       :      0.00006
Magnitude (Debye)      :      0.00015

Rotational constants in cm-1:     1.085603     0.010039     0.009984
Rotational constants in MHz : 32545.573212   300.966902   299.320649

                             ****ORCA TERMINATED NORMALLY****
TOTAL RUN TIME: 0 days 0 hours 3 minutes 32 seconds 733 msec
