                         Program Version 5.0.3 -  RELEASE  -
|  1> !ri-mp2 aug-cc-pvtz aug-cc-pvtz/c tightscf
|  2> %pal nprocs 16 end
|  3>
|  4> * xyz 0 1
|  5> C      0.000000    0.000000       0.662415
|  6> C      0.000000    0.000000      -0.662415
|  7> H      0.000000    0.920717       1.231649
|  8> H      0.000000   -0.920717       1.231649
|  9> H      0.000000   -0.920717      -1.231649
| 10> H      0.000000    0.920717      -1.231649
| 11> *
| 12>
| 13>                          ****END OF INPUT****

CARTESIAN COORDINATES (ANGSTROEM)
---------------------------------
  C      0.000000    0.000000    0.662415
  C      0.000000    0.000000   -0.662415
  H      0.000000    0.920717    1.231649
  H      0.000000   -0.920717    1.231649
  H      0.000000   -0.920717   -1.231649
  H      0.000000    0.920717   -1.231649

 Total Charge           Charge          ....    0
 Multiplicity           Mult            ....    1
 Number of Electrons    NEL             ....   16
 Basis Dimension        Dim             ....  184

ORBITAL ENERGIES
----------------

  NO   OCC          E(Eh)            E(eV)
   0   2.0000     -11.230505      -305.5976
   1   2.0000     -11.228714      -305.5488
   2   2.0000      -1.036460       -28.2035
   3   2.0000      -0.792873       -21.5752
   4   2.0000      -0.643774       -17.5180
   5   2.0000      -0.590595       -16.0709
   6   2.0000      -0.505848       -13.7648
   7   2.0000      -0.379106       -10.3160
   8   0.0000       0.032474         0.8837
   9   0.0000       0.040563         1.1038
  10   0.0000       0.042401         1.1538
  11   0.0000       0.060336         1.6418
  12   0.0000       0.092333         2.5125

MULLIKEN ATOMIC CHARGES
-----------------------
   0 C :   -0.898121
   1 C :   -0.898121
   2 H :    0.449060
   3 H :    0.449060
   4 H :    0.449060
   5 H :    0.449060
Sum of atomic charges:   -0.0000000

LOEWDIN ATOMIC CHARGES
----------------------
   0 C :    0.471959
   1 C :    0.471959
   2 H :   -0.235980
   3 H :   -0.235980
   4 H :   -0.235980
   5 H :   -0.235980

  Mayer bond orders larger than 0.100000
B(  0-C ,  1-C ) :   1.7416 B(  0-C ,  2-H ) :   0.7786 B(  0-C ,  3-H ) :   0.7786
B(  1-C ,  4-H ) :   0.7786 B(  1-C ,  5-H ) :   0.7786

MP2 TOTAL ENERGY:      -78.404387872 Eh
FINAL SINGLE POINT ENERGY       -78.404387871693

DIPOLE MOMENT
-------------
                                X             Y             Z
Electronic contribution:      0.00000       0.00000      -0.00000
Nuclear contribution   :      0.00000       0.00000       0.00000
                        -----------------------------------------
Total Dipole Moment    :      0.00000       0.00000      -0.00000
                        -----------------------------------------
Magnitude (a.u.)       :      0.00000
Magnitude (Debye)      :      0.00000

Rotational constants in cm-1:     4.932011     1.012041     0.839730
Rotational constants in MHz : 147857.975870 30340.219809 25174.460781

                             ****ORCA TERMINATED NORMALLY****
TOTAL RUN TIME: 0 days 0 hours 0 minutes 26 seconds 693 msec
