                         Program Version 5.0.3 -  RELEASE  -
|  1> !ri-mp2 aug-cc-pvtz aug-cc-pvtz/c tightscf
|  2> %pal nprocs 16 end
|  3>
|  4> * xyz 0 1
|  5> C      2.426570    0.268454   -0.038318
|  6> H      2.760369    0.116017    0.990136
|  7> H      3.253108    0.001930   -0.698500
|  8> H      2.233139    1.334903   -0.166770
|  9> C      1.182111   -0.565869   -0.339346
| 10> H      1.417681   -1.627286   -0.214177
| 11> H      0.901208   -0.440117   -1.390298
| 12> C     -1.860514    0.318742   -0.486059
| 13> H     -2.881941    0.608681   -0.244065
| 14> H     -1.761084    0.301163   -1.570736
| 15> C     -0.724980    1.118216    0.203651
| 16> H     -1.069190    1.647720    1.091661
| 17> H     -0.170207    1.821261   -0.418230
| 18> C     -0.010079   -0.222816    0.548294
| 19> H      0.287769   -0.318234    1.594712
| 20> C     -1.322720   -0.972916    0.181963
| 21> H     -1.213766   -1.850521   -0.456380
| 22> H     -1.899417   -1.258384    1.061532
| 23> *
| 24>
| 25>                          ****END OF INPUT****

CARTESIAN COORDINATES (ANGSTROEM)
---------------------------------
  C      2.426570    0.268454   -0.038318
  H      2.760369    0.116017    0.990136
  H      3.253108    0.001930   -0.698500
  H      2.233139    1.334903   -0.166770
  C      1.182111   -0.565869   -0.339346
  H      1.417681   -1.627286   -0.214177
  H      0.901208   -0.440117   -1.390298
  C     -1.860514    0.318742   -0.486059
  H     -2.881941    0.608681   -0.244065
  H     -1.761084    0.301163   -1.570736
  C     -0.724980    1.118216    0.203651
  H     -1.069190    1.647720    1.091661
  H     -0.170207    1.821261   -0.418230
  C     -0.010079   -0.222816    0.548294
  H      0.287769   -0.318234    1.594712
  C     -1.322720   -0.972916    0.181963
  H     -1.213766   -1.850521   -0.456380
  H     -1.899417   -1.258384    1.061532

 Total Charge           Charge          ....    0
 Multiplicity           Mult            ....    1
 Number of Electrons    NEL             ....   48
 Basis Dimension        Dim             ....  552

ORBITAL ENERGIES
----------------

  NO   OCC          E(Eh)            E(eV)
   0   2.0000     -11.218257      -305.2643
   1   2.0000     -11.214978      -305.1751
   2   2.0000     -11.213417      -305.1326
   3   2.0000     -11.212040      -305.0951
   4   2.0000     -11.211756      -305.0874
   5   2.0000     -11.208571      -305.0007
   6   2.0000      -1.126912       -30.6648
   7   2.0000      -1.023240       -27.8438
   8   2.0000      -0.900593       -24.5064
   9   2.0000      -0.890359       -24.2279
  10   2.0000      -0.816903       -22.2291
  11   2.0000      -0.724538       -19.7157
  12   2.0000      -0.656117       -17.8538
  13   2.0000      -0.632003       -17.1977
  14   2.0000      -0.595848       -16.2138
  15   2.0000      -0.561849       -15.2887
  16   2.0000      -0.538261       -14.6468
  17   2.0000      -0.523522       -14.2458
  18   2.0000      -0.500634       -13.6229
  19   2.0000      -0.487601       -13.2683
  20   2.0000      -0.463469       -12.6116
  21   2.0000      -0.437566       -11.9068
  22   2.0000      -0.420851       -11.4519
  23   2.0000      -0.418442       -11.3864
  24   0.0000       0.031227         0.8497
  25   0.0000       0.035683         0.9710
  26   0.0000       0.037213         1.0126
  27   0.0000       0.037946         1.0326
  28   0.0000       0.051662         1.4058

MULLIKEN ATOMIC CHARGES
-----------------------
   0 C :   -1.042121
   1 H :    0.225780
   2 H :    0.260049
   3 H :    0.308539
   4 C :   -0.336418
   5 H :    0.313840
   6 H :    0.266628
   7 C :   -0.612081
   8 H :    0.395417
   9 H :    0.237332
  10 C :   -0.816385
  11 H :    0.236175
  12 H :    0.333576
  13 C :    0.049467
  14 H :    0.560298
  15 C :   -0.923675
  16 H :    0.312118
  17 H :    0.231459
Sum of atomic charges:   -0.0000000

LOEWDIN ATOMIC CHARGES
----------------------
   0 C :    0.583003
   1 H :   -0.169317
   2 H :   -0.171850
   3 H :   -0.174134
   4 C :    0.261772
   5 H :   -0.143976
   6 H :   -0.143200
   7 C :    0.328565
   8 H :   -0.155479
   9 H :   -0.155292
  10 C :    0.333004
  11 H :   -0.149109
  12 H :   -0.155732
  13 C :    0.011469
  14 H :   -0.132980
  15 C :    0.334157
  16 H :   -0.149996
  17 H :   -0.150904

  Mayer bond orders larger than 0.100000
B(  0-C ,  1-H ) :   1.0082 B(  0-C ,  2-H ) :   1.0052 B(  0-C ,  3-H ) :   0.9155
B(  0-C ,  4-C ) :   0.8863 B(  4-C ,  5-H ) :   0.9113 B(  4-C ,  6-H ) :   0.9828
B(  4-C , 13-C ) :   0.7404 B(  7-C ,  8-H ) :   0.7983 B(  7-C ,  9-H ) :   0.9750
B(  7-C , 10-C ) :   1.1202 B(  7-C , 13-C ) :  -0.3218 B(  7-C , 15-C ) :   1.1609
B( 10-C , 11-H ) :   0.9706 B( 10-C , 12-H ) :   0.8660 B( 10-C , 13-C ) :   1.0166
B( 13-C , 14-H ) :   0.6185 B( 13-C , 15-C ) :   1.0666 B( 14-H , 15-C ) :  -0.1131
B( 15-C , 16-H ) :   0.8677 B( 15-C , 17-H ) :   0.9893

MP2 TOTAL ENERGY:     -235.305646784 Eh
FINAL SINGLE POINT ENERGY      -235.305646784119

DIPOLE MOMENT
-------------
                                X             Y             Z
Electronic contribution:     -1.98114      -0.37893       0.46970
Nuclear contribution   :      1.98978       0.36111      -0.45106
                        -----------------------------------------
Total Dipole Moment    :      0.00865      -0.01782       0.01863
                        -----------------------------------------
Magnitude (a.u.)       :      0.02719
Magnitude (Debye)      :      0.06912

Rotational constants in cm-1:     0.243048     0.076432     0.067495
Rotational constants in MHz :  7286.380766  2291.373917  2023.437919

                             ****ORCA TERMINATED NORMALLY****
TOTAL RUN TIME: 0 days 0 hours 5 minutes 21 seconds 533 msec
