                         Program Version 5.0.3 -  RELEASE  -
|  1> !ri-mp2 aug-cc-pvtz aug-cc-pvtz/c tightscf
|  2> %pal nprocs 16 end
|  3>
|  4> * xyz 0 1
|  5> Cl    -2.048706    0.016035   -0.000004
|  6> N      3.079563   -0.194242    0.000006
|  7> C      0.597673    0.488341    0.000004
|  8> C     -0.380235   -0.415943   -0.000003
|  9> C      1.964239    0.097426    0.000005
| 10> H      0.384661    1.548887    0.000008
| 11> H     -0.203660   -1.480729   -0.000008
| 12> *
| 13>
| 14>                          ****END OF INPUT****

CARTESIAN COORDINATES (ANGSTROEM)
---------------------------------
  Cl    -2.048706    0.016035   -0.000004
  N      3.079563   -0.194242    0.000006
  C      0.597673    0.488341    0.000004
  C     -0.380235   -0.415943   -0.000003
  C      1.964239    0.097426    0.000005
  H      0.384661    1.548887    0.000008
  H     -0.203660   -1.480729   -0.000008

 Total Charge           Charge          ....    0
 Multiplicity           Mult            ....    1
 Number of Electrons    NEL             ....   44
 Basis Dimension        Dim             ....  280

ORBITAL ENERGIES
----------------

  NO   OCC          E(Eh)            E(eV)
   0   2.0000    -104.879406     -2853.9137
   1   2.0000     -15.587037      -424.1448
   2   2.0000     -11.353274      -308.9383
   3   2.0000     -11.305938      -307.6502
   4   2.0000     -11.291013      -307.2441
   5   2.0000     -10.603247      -288.5290
   6   2.0000      -8.070168      -219.6004
   7   2.0000      -8.068172      -219.5461
   8   2.0000      -8.068080      -219.5436
   9   2.0000      -1.239236       -33.7213
  10   2.0000      -1.198909       -32.6240
  11   2.0000      -1.080138       -29.3921
  12   2.0000      -0.872190       -23.7335
  13   2.0000      -0.761025       -20.7086
  14   2.0000      -0.672905       -18.3107
  15   2.0000      -0.602392       -16.3919
  16   2.0000      -0.567210       -15.4346
  17   2.0000      -0.562199       -15.2982
  18   2.0000      -0.510806       -13.8998
  19   2.0000      -0.490666       -13.3517
  20   2.0000      -0.481543       -13.1035
  21   2.0000      -0.393449       -10.7063
  22   0.0000       0.027587         0.7507
  23   0.0000       0.033963         0.9242
  24   0.0000       0.056323         1.5326
  25   0.0000       0.058143         1.5822
  26   0.0000       0.080452         2.1892

MULLIKEN ATOMIC CHARGES
-----------------------
   0 Cl:   -0.224637
   1 N :   -0.566985
   2 C :   -0.026496
   3 C :   -0.470376
   4 C :    0.303869
   5 H :    0.530797
   6 H :    0.453827
Sum of atomic charges:    0.0000000

LOEWDIN ATOMIC CHARGES
----------------------
   0 Cl:    0.960714
   1 N :    0.257411
   2 C :    0.017987
   3 C :   -0.457791
   4 C :   -0.281844
   5 H :   -0.224288
   6 H :   -0.272190

  Mayer bond orders larger than 0.100000
B(  0-Cl,  3-C ) :   0.9624 B(  1-N ,  2-C ) :  -0.1494 B(  1-N ,  4-C ) :   2.3729
B(  2-C ,  3-C ) :   1.6246 B(  2-C ,  4-C ) :   1.0049 B(  2-C ,  5-H ) :   0.7225
B(  3-C ,  6-H ) :   0.7388

MP2 TOTAL ENERGY:     -629.613633346 Eh
FINAL SINGLE POINT ENERGY      -629.613633346172

DIPOLE MOMENT
-------------
                                X             Y             Z
Electronic contribution:     -4.15084       0.10200      -0.00001
Nuclear contribution   :      2.95574       0.04162       0.00001
                        -----------------------------------------
Total Dipole Moment    :     -1.19510       0.14362      -0.00000
                        -----------------------------------------
Magnitude (a.u.)       :      1.20370
Magnitude (Debye)      :      3.05957

Rotational constants in cm-1:     1.649546     0.050458     0.048960
Rotational constants in MHz : 49452.130015  1512.691630  1467.793289

                             ****ORCA TERMINATED NORMALLY****
TOTAL RUN TIME: 0 days 0 hours 0 minutes 59 seconds 95 msec
