                         Program Version 5.0.3 -  RELEASE  -
|  1> !ri-mp2 aug-cc-pvtz aug-cc-pvtz/c tightscf
|  2> %pal nprocs 16 end
|  3>
|  4> * xyz 0 1
|  5> C     -1.030686   -0.636526    0.000000
|  6> C      0.000000    0.445344    0.000000
|  7> N      1.241167    0.190751    0.000000
|  8> H     -0.556818   -1.615743    0.000000
|  9> H     -1.676866   -0.544559    0.876683
| 10> H     -1.676866   -0.544559   -0.876683
| 11> H     -0.389088    1.470939    0.000000
| 12> H      1.795584    1.045760    0.000000
| 13> *
| 14>
| 15>                          ****END OF INPUT****

CARTESIAN COORDINATES (ANGSTROEM)
---------------------------------
  C     -1.030686   -0.636526    0.000000
  C      0.000000    0.445344    0.000000
  N      1.241167    0.190751    0.000000
  H     -0.556818   -1.615743    0.000000
  H     -1.676866   -0.544559    0.876683
  H     -1.676866   -0.544559   -0.876683
  H     -0.389088    1.470939    0.000000
  H      1.795584    1.045760    0.000000

 Total Charge           Charge          ....    0
 Multiplicity           Mult            ....    1
 Number of Electrons    NEL             ....   24
 Basis Dimension        Dim             ....  253

ORBITAL ENERGIES
----------------

  NO   OCC          E(Eh)            E(eV)
   0   2.0000     -15.550178      -423.1419
   1   2.0000     -11.284846      -307.0763
   2   2.0000     -11.227237      -305.5087
   3   2.0000      -1.210179       -32.9307
   4   2.0000      -0.994031       -27.0490
   5   2.0000      -0.778592       -21.1866
   6   2.0000      -0.695184       -18.9169
   7   2.0000      -0.581835       -15.8325
   8   2.0000      -0.568960       -15.4822
   9   2.0000      -0.546241       -14.8640
  10   2.0000      -0.429153       -11.6778
  11   2.0000      -0.419964       -11.4278
  12   0.0000       0.027842         0.7576
  13   0.0000       0.038760         1.0547
  14   0.0000       0.045757         1.2451
  15   0.0000       0.046220         1.2577
  16   0.0000       0.063953         1.7403

MULLIKEN ATOMIC CHARGES
-----------------------
   0 C :   -0.656248
   1 C :   -0.203514
   2 N :   -0.624058
   3 H :    0.297310
   4 H :    0.279981
   5 H :    0.279981
   6 H :    0.481106
   7 H :    0.145442
Sum of atomic charges:   -0.0000000

LOEWDIN ATOMIC CHARGES
----------------------
   0 C :    0.550104
   1 C :   -0.017751
   2 N :    0.632830
   3 H :   -0.188504
   4 H :   -0.182399
   5 H :   -0.182399
   6 H :   -0.172262
   7 H :   -0.439619

  Mayer bond orders larger than 0.100000
B(  0-C ,  1-C ) :   0.8207 B(  0-C ,  3-H ) :   0.9134 B(  0-C ,  4-H ) :   0.9386
B(  0-C ,  5-H ) :   0.9386 B(  1-C ,  2-N ) :   1.4937 B(  1-C ,  6-H ) :   0.7153
B(  2-N ,  7-H ) :   0.9589

MP2 TOTAL ENERGY:     -133.681408287 Eh
FINAL SINGLE POINT ENERGY      -133.681408287357

DIPOLE MOMENT
-------------
                                X             Y             Z
Electronic contribution:      1.92490       0.77207      -0.00000
Nuclear contribution   :     -2.61299      -0.19575       0.00000
                        -----------------------------------------
Total Dipole Moment    :     -0.68808       0.57632      -0.00000
                        -----------------------------------------
Magnitude (a.u.)       :      0.89755
Magnitude (Debye)      :      2.28140

Rotational constants in cm-1:     1.807848     0.326557     0.291412
Rotational constants in MHz : 54197.928559  9789.941817  8736.314692

                             ****ORCA TERMINATED NORMALLY****
TOTAL RUN TIME: 0 days 0 hours 0 minutes 41 seconds 597 msec
