                         Program Version 5.0.3 -  RELEASE  -
|  1> !ri-mp2 aug-cc-pvtz aug-cc-pvtz/c tightscf
|  2> %pal nprocs 16 end
|  3>
|  4> * xyz 0 1
|  5> C    -0.321563    -3.165600    0.000000
|  6> C     0.321563     3.165600    0.000000
|  7> C     0.321563     0.650169    0.000000
|  8> C    -0.321563    -0.650169    0.000000
|  9> C    -0.327188     1.819192    0.000000
| 10> C     0.327188    -1.819192    0.000000
| 11> H    -1.408837    -3.086565    0.000000
| 12> H     1.408837     3.086565    0.000000
| 13> H    -0.023595    -3.749001    0.875844
| 14> H    -0.023595    -3.749001   -0.875844
| 15> H     0.023595     3.749001    0.875844
| 16> H     0.023595     3.749001   -0.875844
| 17> H     1.408805     0.652661    0.000000
| 18> H    -1.408805    -0.652661    0.000000
| 19> H    -1.414062     1.807646    0.000000
| 20> H     1.414062    -1.807646    0.000000
| 21> *
| 22>
| 23>                          ****END OF INPUT****

CARTESIAN COORDINATES (ANGSTROEM)
---------------------------------
  C     -0.321563   -3.165600    0.000000
  C      0.321563    3.165600    0.000000
  C      0.321563    0.650169    0.000000
  C     -0.321563   -0.650169    0.000000
  C     -0.327188    1.819192    0.000000
  C      0.327188   -1.819192    0.000000
  H     -1.408837   -3.086565    0.000000
  H      1.408837    3.086565    0.000000
  H     -0.023595   -3.749001    0.875844
  H     -0.023595   -3.749001   -0.875844
  H      0.023595    3.749001    0.875844
  H      0.023595    3.749001   -0.875844
  H      1.408805    0.652661    0.000000
  H     -1.408805   -0.652661    0.000000
  H     -1.414062    1.807646    0.000000
  H      1.414062   -1.807646    0.000000

 Total Charge           Charge          ....    0
 Multiplicity           Mult            ....    1
 Number of Electrons    NEL             ....   46
 Basis Dimension        Dim             ....  506

ORBITAL ENERGIES
----------------

  NO   OCC          E(Eh)            E(eV)
   0   2.0000     -11.228424      -305.5410
   1   2.0000     -11.228404      -305.5404
   2   2.0000     -11.224049      -305.4219
   3   2.0000     -11.223207      -305.3990
   4   2.0000     -11.220027      -305.3125
   5   2.0000     -11.220027      -305.3124
   6   2.0000      -1.099199       -29.9107
   7   2.0000      -1.047956       -28.5163
   8   2.0000      -0.968024       -26.3413
   9   2.0000      -0.895555       -24.3693
  10   2.0000      -0.764560       -20.8047
  11   2.0000      -0.749861       -20.4047
  12   2.0000      -0.646585       -17.5945
  13   2.0000      -0.612336       -16.6625
  14   2.0000      -0.566905       -15.4263
  15   2.0000      -0.563721       -15.3396
  16   2.0000      -0.557893       -15.1810
  17   2.0000      -0.548066       -14.9136
  18   2.0000      -0.513695       -13.9783
  19   2.0000      -0.502285       -13.6679
  20   2.0000      -0.480951       -13.0873
  21   2.0000      -0.424703       -11.5567
  22   2.0000      -0.300489        -8.1767
  23   0.0000       0.030811         0.8384
  24   0.0000       0.031864         0.8671
  25   0.0000       0.034491         0.9385
  26   0.0000       0.046572         1.2673
  27   0.0000       0.050011         1.3609

MULLIKEN ATOMIC CHARGES
-----------------------
   0 C :   -0.801414
   1 C :   -0.801414
   2 C :   -0.051410
   3 C :   -0.051410
   4 C :   -0.483672
   5 C :   -0.483672
   6 H :    0.296699
   7 H :    0.296699
   8 H :    0.276707
   9 H :    0.276707
  10 H :    0.276707
  11 H :    0.276707
  12 H :    0.242867
  13 H :    0.242867
  14 H :    0.243517
  15 H :    0.243517
Sum of atomic charges:    0.0000000

LOEWDIN ATOMIC CHARGES
----------------------
   0 C :    0.547325
   1 C :    0.547325
   2 C :    0.169847
   3 C :    0.169847
   4 C :    0.201646
   5 C :    0.201646
   6 H :   -0.184486
   7 H :   -0.184486
   8 H :   -0.178001
   9 H :   -0.178001
  10 H :   -0.178001
  11 H :   -0.178001
  12 H :   -0.190716
  13 H :   -0.190716
  14 H :   -0.187614
  15 H :   -0.187614

  Mayer bond orders larger than 0.100000
B(  0-C ,  5-C ) :   0.7269 B(  0-C ,  6-H ) :   0.9501 B(  0-C ,  8-H ) :   0.9776
B(  0-C ,  9-H ) :   0.9776 B(  1-C ,  4-C ) :   0.7269 B(  1-C ,  7-H ) :   0.9501
B(  1-C , 10-H ) :   0.9776 B(  1-C , 11-H ) :   0.9776 B(  2-C ,  3-C ) :   0.5012
B(  2-C ,  4-C ) :   1.0466 B(  2-C ,  5-C ) :  -0.1879 B(  2-C , 12-H ) :   1.1440
B(  3-C ,  4-C ) :  -0.1879 B(  3-C ,  5-C ) :   1.0466 B(  3-C , 13-H ) :   1.1440
B(  4-C ,  5-C ) :   0.1812 B(  4-C , 14-H ) :   1.1745 B(  5-C , 15-H ) :   1.1745

MP2 TOTAL ENERGY:     -234.097292095 Eh
FINAL SINGLE POINT ENERGY      -234.097292095169

DIPOLE MOMENT
-------------
                                X             Y             Z
Electronic contribution:      0.00000       0.00000      -0.00000
Nuclear contribution   :      0.00000       0.00000       0.00000
                        -----------------------------------------
Total Dipole Moment    :      0.00000       0.00000      -0.00000
                        -----------------------------------------
Magnitude (a.u.)       :      0.00000
Magnitude (Debye)      :      0.00000

Rotational constants in cm-1:     0.782163     0.040338     0.038907
Rotational constants in MHz : 23448.646717  1209.300989  1166.411682

                             ****ORCA TERMINATED NORMALLY****
TOTAL RUN TIME: 0 days 0 hours 3 minutes 38 seconds 733 msec
