                         Program Version 5.0.3 -  RELEASE  -
|  1> !ri-mp2 aug-cc-pvtz aug-cc-pvtz/c tightscf
|  2> %pal nprocs 16 end
|  3>
|  4> * xyz 0 1
|  5> C      1.516650    0.705578    0.000000
|  6> C      0.000000    0.834467    0.000000
|  7> S     -0.755427   -0.847361    0.000000
|  8> H      1.868133    0.170753    0.882762
|  9> H      1.868133    0.170753   -0.882762
| 10> H      1.975965    1.695046    0.000000
| 11> H     -0.341365    1.368763   -0.884290
| 12> H     -0.341365    1.368763    0.884290
| 13> H     -2.042577   -0.456566    0.000000
| 14> *
| 15>
| 16>                          ****END OF INPUT****

CARTESIAN COORDINATES (ANGSTROEM)
---------------------------------
  C      1.516650    0.705578    0.000000
  C      0.000000    0.834467    0.000000
  S     -0.755427   -0.847361    0.000000
  H      1.868133    0.170753    0.882762
  H      1.868133    0.170753   -0.882762
  H      1.975965    1.695046    0.000000
  H     -0.341365    1.368763   -0.884290
  H     -0.341365    1.368763    0.884290
  H     -2.042577   -0.456566    0.000000

 Total Charge           Charge          ....    0
 Multiplicity           Mult            ....    1
 Number of Electrons    NEL             ....   34
 Basis Dimension        Dim             ....  280

ORBITAL ENERGIES
----------------

  NO   OCC          E(Eh)            E(eV)
   0   2.0000     -91.949516     -2502.0735
   1   2.0000     -11.263718      -306.5013
   2   2.0000     -11.227638      -305.5196
   3   2.0000      -8.950465      -243.5545
   4   2.0000      -6.631793      -180.4603
   5   2.0000      -6.630798      -180.4332
   6   2.0000      -6.629785      -180.4056
   7   2.0000      -1.068442       -29.0738
   8   2.0000      -0.942204       -25.6387
   9   2.0000      -0.819094       -22.2887
  10   2.0000      -0.631732       -17.1903
  11   2.0000      -0.614266       -16.7150
  12   2.0000      -0.541926       -14.7466
  13   2.0000      -0.515277       -14.0214
  14   2.0000      -0.500934       -13.6311
  15   2.0000      -0.446117       -12.1395
  16   2.0000      -0.354912        -9.6577
  17   0.0000       0.029611         0.8058
  18   0.0000       0.038084         1.0363
  19   0.0000       0.042942         1.1685
  20   0.0000       0.044597         1.2136
  21   0.0000       0.061039         1.6610

MULLIKEN ATOMIC CHARGES
-----------------------
   0 C :   -0.899877
   1 C :   -0.376293
   2 S :   -0.278104
   3 H :    0.312723
   4 H :    0.312723
   5 H :    0.288776
   6 H :    0.266568
   7 H :    0.266568
   8 H :    0.106917
Sum of atomic charges:    0.0000000

LOEWDIN ATOMIC CHARGES
----------------------
   0 C :    0.478932
   1 C :   -0.121214
   2 S :    1.250783
   3 H :   -0.188776
   4 H :   -0.188776
   5 H :   -0.178867
   6 H :   -0.229920
   7 H :   -0.229920
   8 H :   -0.592243

  Mayer bond orders larger than 0.100000
B(  0-C ,  1-C ) :   0.9353 B(  0-C ,  3-H ) :   0.9100 B(  0-C ,  4-H ) :   0.9100
B(  0-C ,  5-H ) :   0.9475 B(  1-C ,  2-S ) :   0.9684 B(  1-C ,  6-H ) :   0.9254
B(  1-C ,  7-H ) :   0.9254 B(  2-S ,  8-H ) :   1.0455

MP2 TOTAL ENERGY:     -477.354131985 Eh
FINAL SINGLE POINT ENERGY      -477.354131984598

DIPOLE MOMENT
-------------
                                X             Y             Z
Electronic contribution:     -3.05554      -3.75438       0.00000
Nuclear contribution   :      3.09379       4.46422       0.00000
                        -----------------------------------------
Total Dipole Moment    :      0.03825       0.70984       0.00000
                        -----------------------------------------
Magnitude (a.u.)       :      0.71087
Magnitude (Debye)      :      1.80689

Rotational constants in cm-1:     0.958860     0.179508     0.160249
Rotational constants in MHz : 28745.894957  5381.500081  4804.145513

                             ****ORCA TERMINATED NORMALLY****
TOTAL RUN TIME: 0 days 0 hours 0 minutes 54 seconds 274 msec
