                         Program Version 5.0.3 -  RELEASE  -
|  1> !ri-mp2 aug-cc-pvtz aug-cc-pvtz/c tightscf
|  2> %pal nprocs 16 end
|  3>
|  4> * xyz 0 1
|  5> C      1.211962   -0.100418        0.000000
|  6> C      0.000000    0.441434        0.000000
|  7> O     -1.190822   -0.218573        0.000000
|  8> H      1.366451   -1.172202        0.000000
|  9> H      2.084447    0.533775        0.000000
| 10> H     -0.160334    1.511121        0.000000
| 11> H     -1.035759   -1.170209        0.000000
| 12> *
| 13>
| 14>                          ****END OF INPUT****

CARTESIAN COORDINATES (ANGSTROEM)
---------------------------------
  C      1.211962   -0.100418    0.000000
  C      0.000000    0.441434    0.000000
  O     -1.190822   -0.218573    0.000000
  H      1.366451   -1.172202    0.000000
  H      2.084447    0.533775    0.000000
  H     -0.160334    1.511121    0.000000
  H     -1.035759   -1.170209    0.000000

 Total Charge           Charge          ....    0
 Multiplicity           Mult            ....    1
 Number of Electrons    NEL             ....   24
 Basis Dimension        Dim             ....  230

ORBITAL ENERGIES
----------------

  NO   OCC          E(Eh)            E(eV)
   0   2.0000     -20.593453      -560.3764
   1   2.0000     -11.300390      -307.4993
   2   2.0000     -11.216114      -305.2060
   3   2.0000      -1.405461       -38.2445
   4   2.0000      -1.025842       -27.9146
   5   2.0000      -0.834037       -22.6953
   6   2.0000      -0.681962       -18.5571
   7   2.0000      -0.671393       -18.2695
   8   2.0000      -0.580636       -15.7999
   9   2.0000      -0.549382       -14.9494
  10   2.0000      -0.542327       -14.7575
  11   2.0000      -0.352922        -9.6035
  12   0.0000       0.029786         0.8105
  13   0.0000       0.038060         1.0357
  14   0.0000       0.042288         1.1507
  15   0.0000       0.060562         1.6480
  16   0.0000       0.092015         2.5039

MULLIKEN ATOMIC CHARGES
-----------------------
   0 C :   -0.930256
   1 C :   -0.342949
   2 O :   -0.480207
   3 H :    0.481967
   4 H :    0.389658
   5 H :    0.695630
   6 H :    0.186158
Sum of atomic charges:    0.0000000

LOEWDIN ATOMIC CHARGES
----------------------
   0 C :    0.488578
   1 C :   -0.091321
   2 O :    0.795915
   3 H :   -0.240941
   4 H :   -0.255229
   5 H :   -0.208646
   6 H :   -0.488356

  Mayer bond orders larger than 0.100000
B(  0-C ,  1-C ) :   1.6950 B(  0-C ,  2-O ) :  -0.1081 B(  0-C ,  3-H ) :   0.7296
B(  0-C ,  4-H ) :   0.8887 B(  1-C ,  2-O ) :   1.0187 B(  1-C ,  5-H ) :   0.4485
B(  1-C ,  6-H ) :   0.1161 B(  2-O ,  5-H ) :  -0.1008 B(  2-O ,  6-H ) :   0.9766

MP2 TOTAL ENERGY:     -153.538083642 Eh
FINAL SINGLE POINT ENERGY      -153.538083642491

DIPOLE MOMENT
-------------
                                X             Y             Z
Electronic contribution:     -2.02414      -0.00130      -0.00000
Nuclear contribution   :      2.28784      -0.30793       0.00000
                        -----------------------------------------
Total Dipole Moment    :      0.26370      -0.30923      -0.00000
                        -----------------------------------------
Magnitude (a.u.)       :      0.40640
Magnitude (Debye)      :      1.03299

Rotational constants in cm-1:     2.026845     0.352317     0.300144
Rotational constants in MHz : 60763.284504 10562.193895  8998.097272

                             ****ORCA TERMINATED NORMALLY****
TOTAL RUN TIME: 0 days 0 hours 0 minutes 39 seconds 104 msec
