                         Program Version 5.0.3 -  RELEASE  -
|  1> !ri-mp2 aug-cc-pvtz aug-cc-pvtz/c tightscf
|  2> %pal nprocs 16 end
|  3>
|  4> * xyz 0 1
|  5> C     -2.219388   -1.031508    0.000000
|  6> H     -2.709797   -0.060794    0.000000
|  7> H     -2.567570   -1.583635    0.876540
|  8> H     -2.567570   -1.583635   -0.876540
|  9> C      0.000000    0.174336    0.000000
| 10> H     -0.192077   -1.881945    0.000000
| 11> C     -0.724178   -0.938568    0.000000
| 12> H     -0.067567    2.120550    0.878325
| 13> H     -0.067567    2.120550   -0.878325
| 14> C     -0.449589    1.597487    0.000000
| 15> Cl     1.768594    0.022859    0.000000
| 16> H     -1.535021    1.669819    0.000000
| 17> *
| 18>
| 19>                          ****END OF INPUT****

CARTESIAN COORDINATES (ANGSTROEM)
---------------------------------
  C     -2.219388   -1.031508    0.000000
  H     -2.709797   -0.060794    0.000000
  H     -2.567570   -1.583635    0.876540
  H     -2.567570   -1.583635   -0.876540
  C      0.000000    0.174336    0.000000
  H     -0.192077   -1.881945    0.000000
  C     -0.724178   -0.938568    0.000000
  H     -0.067567    2.120550    0.878325
  H     -0.067567    2.120550   -0.878325
  C     -0.449589    1.597487    0.000000
  Cl     1.768594    0.022859    0.000000
  H     -1.535021    1.669819    0.000000

 Total Charge           Charge          ....    0
 Multiplicity           Mult            ....    1
 Number of Electrons    NEL             ....   48
 Basis Dimension        Dim             ....  395

ORBITAL ENERGIES
----------------

  NO   OCC          E(Eh)            E(eV)
   0   2.0000    -104.827540     -2852.5024
   1   2.0000     -11.296330      -307.3888
   2   2.0000     -11.241970      -305.9096
   3   2.0000     -11.236503      -305.7608
   4   2.0000     -11.233655      -305.6833
   5   2.0000     -10.551423      -287.1188
   6   2.0000      -8.018228      -218.1871
   7   2.0000      -8.016490      -218.1398
   8   2.0000      -8.016470      -218.1392
   9   2.0000      -1.155507       -31.4430
  10   2.0000      -1.050623       -28.5889
  11   2.0000      -0.988716       -26.9043
  12   2.0000      -0.906688       -24.6722
  13   2.0000      -0.722769       -19.6675
  14   2.0000      -0.651232       -17.7209
  15   2.0000      -0.601829       -16.3766
  16   2.0000      -0.598040       -16.2735
  17   2.0000      -0.570637       -15.5278
  18   2.0000      -0.554648       -15.0927
  19   2.0000      -0.532418       -14.4878
  20   2.0000      -0.493053       -13.4167
  21   2.0000      -0.477391       -12.9905
  22   2.0000      -0.441966       -12.0265
  23   2.0000      -0.348075        -9.4716
  24   0.0000       0.028391         0.7726
  25   0.0000       0.035193         0.9577
  26   0.0000       0.042335         1.1520
  27   0.0000       0.043140         1.1739
  28   0.0000       0.056555         1.5389

MULLIKEN ATOMIC CHARGES
-----------------------
   0 C :   -0.768986
   1 H :    0.337637
   2 H :    0.248652
   3 H :    0.248652
   4 C :    0.440297
   5 H :    0.406161
   6 C :   -0.542666
   7 H :    0.282768
   8 H :    0.282768
   9 C :   -0.841005
  10 Cl:   -0.431626
  11 H :    0.337348
Sum of atomic charges:   -0.0000000

LOEWDIN ATOMIC CHARGES
----------------------
   0 C :    0.555491
   1 H :   -0.199460
   2 H :   -0.172144
   3 H :   -0.172144
   4 C :   -0.710045
   5 H :   -0.223556
   6 C :    0.103425
   7 H :   -0.184180
   8 H :   -0.184180
   9 C :    0.468576
  10 Cl:    0.919761
  11 H :   -0.201545

  Mayer bond orders larger than 0.100000
B(  0-C ,  1-H ) :   0.8490 B(  0-C ,  2-H ) :   1.0167 B(  0-C ,  3-H ) :   1.0167
B(  0-C ,  6-C ) :   0.8202 B(  4-C ,  6-C ) :   1.5561 B(  4-C ,  9-C ) :   0.8205
B(  4-C , 10-Cl) :   0.8800 B(  5-H ,  6-C ) :   0.8819 B(  7-H ,  9-C ) :   0.9823
B(  8-H ,  9-C ) :   0.9823 B(  9-C , 11-H ) :   0.8422

MP2 TOTAL ENERGY:     -615.988157043 Eh
FINAL SINGLE POINT ENERGY      -615.988157043052

DIPOLE MOMENT
-------------
                                X             Y             Z
Electronic contribution:     11.25266      -0.69482       0.00000
Nuclear contribution   :    -12.18262       0.76477       0.00000
                        -----------------------------------------
Total Dipole Moment    :     -0.92995       0.06995       0.00000
                        -----------------------------------------
Magnitude (a.u.)       :      0.93258
Magnitude (Debye)      :      2.37043

Rotational constants in cm-1:     0.243719     0.079443     0.061265
Rotational constants in MHz :  7306.523781  2381.633802  1836.684820

                             ****ORCA TERMINATED NORMALLY****
TOTAL RUN TIME: 0 days 0 hours 2 minutes 26 seconds 704 msec
