                         Program Version 5.0.3 -  RELEASE  -
|  1> !ri-mp2 aug-cc-pvtz aug-cc-pvtz/c tightscf
|  2> %pal nprocs 16 end
|  3>
|  4> * xyz 0 1
|  5> O      0.000000    0.875253    0.000000
|  6> H     -1.597409   -0.112403    0.885605
|  7> H     -1.597409   -0.112403   -0.885605
|  8> C     -1.403897    0.489442    0.000000
|  9> H     -1.992692    2.365984    0.884747
| 10> H     -3.270428    1.523039    0.000000
| 11> H     -1.992692    2.365984   -0.884747
| 12> C     -2.208098    1.768537    0.000000
| 13> O      2.148853    0.326496    0.000000
| 14> Cl     0.523259   -1.724654    0.000000
| 15> C      1.006061    0.021175    0.000000
| 16> *
| 17>
| 18>                          ****END OF INPUT****

CARTESIAN COORDINATES (ANGSTROEM)
---------------------------------
  O      0.000000    0.875253    0.000000
  H     -1.597409   -0.112403    0.885605
  H     -1.597409   -0.112403   -0.885605
  C     -1.403897    0.489442    0.000000
  H     -1.992692    2.365984    0.884747
  H     -3.270428    1.523039    0.000000
  H     -1.992692    2.365984   -0.884747
  C     -2.208098    1.768537    0.000000
  O      2.148853    0.326496    0.000000
  Cl     0.523259   -1.724654    0.000000
  C      1.006061    0.021175    0.000000

 Total Charge           Charge          ....    0
 Multiplicity           Mult            ....    1
 Number of Electrons    NEL             ....   56
 Basis Dimension        Dim             ....  395

ORBITAL ENERGIES
----------------

  NO   OCC          E(Eh)            E(eV)
   0   2.0000    -104.862519     -2853.4542
   1   2.0000     -20.637118      -561.5645
   2   2.0000     -20.577537      -559.9432
   3   2.0000     -11.455815      -311.7286
   4   2.0000     -11.320316      -308.0415
   5   2.0000     -11.243187      -305.9427
   6   2.0000     -10.586727      -288.0795
   7   2.0000      -8.053399      -219.1441
   8   2.0000      -8.051619      -219.0957
   9   2.0000      -8.051508      -219.0927
  10   2.0000      -1.497369       -40.7455
  11   2.0000      -1.406316       -38.2678
  12   2.0000      -1.132500       -30.8169
  13   2.0000      -1.068241       -29.0683
  14   2.0000      -0.903042       -24.5730
  15   2.0000      -0.812550       -22.1106
  16   2.0000      -0.722758       -19.6673
  17   2.0000      -0.713740       -19.4219
  18   2.0000      -0.694813       -18.9068
  19   2.0000      -0.625632       -17.0243
  20   2.0000      -0.593490       -16.1497
  21   2.0000      -0.574671       -15.6376
  22   2.0000      -0.544868       -14.8266
  23   2.0000      -0.536846       -14.6083
  24   2.0000      -0.497005       -13.5242
  25   2.0000      -0.493315       -13.4238
  26   2.0000      -0.470238       -12.7958
  27   2.0000      -0.462716       -12.5911
  28   0.0000       0.023676         0.6443
  29   0.0000       0.037284         1.0145
  30   0.0000       0.037728         1.0266
  31   0.0000       0.045658         1.2424
  32   0.0000       0.061657         1.6778

MULLIKEN ATOMIC CHARGES
-----------------------
   0 O :   -0.242790
   1 H :    0.356899
   2 H :    0.356899
   3 C :   -0.173774
   4 H :    0.291965
   5 H :    0.317775
   6 H :    0.291965
   7 C :   -0.943172
   8 O :   -0.605945
   9 Cl:   -0.166474
  10 C :    0.516651
Sum of atomic charges:   -0.0000000

LOEWDIN ATOMIC CHARGES
----------------------
   0 O :    0.500766
   1 H :   -0.187386
   2 H :   -0.187386
   3 C :   -0.007744
   4 H :   -0.169658
   5 H :   -0.170398
   6 H :   -0.169658
   7 C :    0.585722
   8 O :    0.341591
   9 Cl:    0.860607
  10 C :   -1.396455

  Mayer bond orders larger than 0.100000
B(  0-O ,  3-C ) :   0.6666 B(  0-O , 10-C ) :   1.2536 B(  1-H ,  3-C ) :   0.8883
B(  2-H ,  3-C ) :   0.8883 B(  3-C ,  7-C ) :   0.8628 B(  4-H ,  7-C ) :   0.9341
B(  5-H ,  7-C ) :   0.9287 B(  6-H ,  7-C ) :   0.9341 B(  8-O , 10-C ) :   1.7559
B(  9-Cl, 10-C ) :   0.9337

MP2 TOTAL ENERGY:     -727.045154199 Eh
FINAL SINGLE POINT ENERGY      -727.045154198890

DIPOLE MOMENT
-------------
                                X             Y             Z
Electronic contribution:      9.08160      -8.22169       0.00000
Nuclear contribution   :    -10.82050       8.25349       0.00000
                        -----------------------------------------
Total Dipole Moment    :     -1.73890       0.03180       0.00000
                        -----------------------------------------
Magnitude (a.u.)       :      1.73919
Magnitude (Debye)      :      4.42067

Rotational constants in cm-1:     0.168722     0.060200     0.045119
Rotational constants in MHz :  5058.149373  1804.740297  1352.640490

                             ****ORCA TERMINATED NORMALLY****
TOTAL RUN TIME: 0 days 0 hours 2 minutes 17 seconds 66 msec
