                         Program Version 5.0.3 -  RELEASE  -
|  1> !ri-mp2 aug-cc-pvtz aug-cc-pvtz/c tightscf
|  2> %pal nprocs 16 end
|  3>
|  4> * xyz 0 1
|  5> C      2.441663    0.162598   -0.365182
|  6> C      1.385172    0.126631    0.440416
|  7> C      3.766263   -0.479321   -0.089056
|  8> C     -3.620200   -0.583267   -0.136932
|  9> C      0.056507    0.764266    0.164386
| 10> C     -2.466044    0.416907   -0.102935
| 11> C     -1.104645   -0.239625    0.126643
| 12> H      2.358643    0.700966   -1.306573
| 13> H      1.466900   -0.412762    1.382304
| 14> H      4.569757    0.262058   -0.075544
| 15> H      4.024236   -1.204082   -0.865896
| 16> H      3.767683   -0.996869    0.870489
| 17> H     -3.485464   -1.314681   -0.936498
| 18> H     -3.692335   -1.134107    0.803175
| 19> H     -4.576083   -0.084249   -0.302393
| 20> H     -0.155903    1.508409    0.940995
| 21> H      0.100952    1.309497   -0.782195
| 22> H     -2.646373    1.155223    0.684348
| 23> H     -2.441268    0.977092   -1.042548
| 24> H     -1.127620   -0.800201    1.066921
| 25> H     -0.915420   -0.975427   -0.660622
| 26> *
| 27>
| 28>                          ****END OF INPUT****

CARTESIAN COORDINATES (ANGSTROEM)
---------------------------------
  C      2.441663    0.162598   -0.365182
  C      1.385172    0.126631    0.440416
  C      3.766263   -0.479321   -0.089056
  C     -3.620200   -0.583267   -0.136932
  C      0.056507    0.764266    0.164386
  C     -2.466044    0.416907   -0.102935
  C     -1.104645   -0.239625    0.126643
  H      2.358643    0.700966   -1.306573
  H      1.466900   -0.412762    1.382304
  H      4.569757    0.262058   -0.075544
  H      4.024236   -1.204082   -0.865896
  H      3.767683   -0.996869    0.870489
  H     -3.485464   -1.314681   -0.936498
  H     -3.692335   -1.134107    0.803175
  H     -4.576083   -0.084249   -0.302393
  H     -0.155903    1.508409    0.940995
  H      0.100952    1.309497   -0.782195
  H     -2.646373    1.155223    0.684348
  H     -2.441268    0.977092   -1.042548
  H     -1.127620   -0.800201    1.066921
  H     -0.915420   -0.975427   -0.660622

 Total Charge           Charge          ....    0
 Multiplicity           Mult            ....    1
 Number of Electrons    NEL             ....   56
 Basis Dimension        Dim             ....  644

ORBITAL ENERGIES
----------------

  NO   OCC          E(Eh)            E(eV)
   0   2.0000     -11.221520      -305.3531
   1   2.0000     -11.219046      -305.2858
   2   2.0000     -11.217926      -305.2553
   3   2.0000     -11.216557      -305.2180
   4   2.0000     -11.215992      -305.2027
   5   2.0000     -11.214852      -305.1716
   6   2.0000     -11.209511      -305.0263
   7   2.0000      -1.092928       -29.7401
   8   2.0000      -1.054861       -28.7042
   9   2.0000      -0.992839       -27.0165
  10   2.0000      -0.921150       -25.0658
  11   2.0000      -0.846939       -23.0464
  12   2.0000      -0.789461       -21.4823
  13   2.0000      -0.744004       -20.2454
  14   2.0000      -0.642783       -17.4910
  15   2.0000      -0.613274       -16.6880
  16   2.0000      -0.599217       -16.3055
  17   2.0000      -0.583618       -15.8810
  18   2.0000      -0.561720       -15.2852
  19   2.0000      -0.549839       -14.9619
  20   2.0000      -0.535039       -14.5591
  21   2.0000      -0.514827       -14.0091
  22   2.0000      -0.497734       -13.5440
  23   2.0000      -0.483642       -13.1606
  24   2.0000      -0.470761       -12.8100
  25   2.0000      -0.462283       -12.5794
  26   2.0000      -0.454430       -12.3657
  27   2.0000      -0.341643        -9.2966
  28   0.0000       0.031042         0.8447
  29   0.0000       0.032716         0.8903
  30   0.0000       0.035605         0.9689
  31   0.0000       0.038295         1.0421
  32   0.0000       0.045904         1.2491

MULLIKEN ATOMIC CHARGES
-----------------------
   0 C :   -0.446685
   1 C :   -0.343821
   2 C :   -0.790101
   3 C :   -0.980052
   4 C :   -0.136799
   5 C :   -0.490164
   6 C :   -0.333958
   7 H :    0.283055
   8 H :    0.133133
   9 H :    0.279628
  10 H :    0.274084
  11 H :    0.284354
  12 H :    0.266195
  13 H :    0.267373
  14 H :    0.271586
  15 H :    0.253431
  16 H :    0.179930
  17 H :    0.241192
  18 H :    0.248344
  19 H :    0.257950
  20 H :    0.281325
Sum of atomic charges:    0.0000000

LOEWDIN ATOMIC CHARGES
----------------------
   0 C :    0.206382
   1 C :    0.214811
   2 C :    0.547143
   3 C :    0.577705
   4 C :    0.248238
   5 C :    0.254391
   6 C :    0.265892
   7 H :   -0.185619
   8 H :   -0.178337
   9 H :   -0.179348
  10 H :   -0.179393
  11 H :   -0.185360
  12 H :   -0.171507
  13 H :   -0.171806
  14 H :   -0.174334
  15 H :   -0.147856
  16 H :   -0.157196
  17 H :   -0.148998
  18 H :   -0.147828
  19 H :   -0.144761
  20 H :   -0.142218

  Mayer bond orders larger than 0.100000
B(  0-C ,  1-C ) :   1.2014 B(  0-C ,  2-C ) :   0.7634 B(  0-C ,  7-H ) :   1.0001
B(  1-C ,  4-C ) :   0.7483 B(  1-C ,  8-H ) :   1.2073 B(  2-C ,  9-H ) :   0.9825
B(  2-C , 10-H ) :   0.9778 B(  2-C , 11-H ) :   0.9421 B(  3-C ,  5-C ) :   0.9141
B(  3-C , 12-H ) :   0.9585 B(  3-C , 13-H ) :   0.9612 B(  3-C , 14-H ) :   0.9871
B(  4-C ,  6-C ) :   0.9657 B(  4-C , 15-H ) :   0.9772 B(  4-C , 16-H ) :   0.9761
B(  5-C ,  6-C ) :   0.8870 B(  5-C , 17-H ) :   0.9623 B(  5-C , 18-H ) :   0.9630
B(  6-C , 19-H ) :   0.9344 B(  6-C , 20-H ) :   0.9375

MP2 TOTAL ENERGY:     -274.537623443 Eh
FINAL SINGLE POINT ENERGY      -274.537623443313

DIPOLE MOMENT
-------------
                                X             Y             Z
Electronic contribution:      2.93768       1.09035       0.22520
Nuclear contribution   :     -2.94804      -1.08090      -0.23997
                        -----------------------------------------
Total Dipole Moment    :     -0.01036       0.00945      -0.01477
                        -----------------------------------------
Magnitude (a.u.)       :      0.02036
Magnitude (Debye)      :      0.05176

Rotational constants in cm-1:     0.353593     0.026008     0.025416
Rotational constants in MHz : 10600.446206   779.695495   761.949883

                             ****ORCA TERMINATED NORMALLY****
TOTAL RUN TIME: 0 days 0 hours 6 minutes 36 seconds 289 msec
