                         Program Version 5.0.3 -  RELEASE  -
|  1> !ri-mp2 aug-cc-pvtz aug-cc-pvtz/c tightscf
|  2> %pal nprocs 16 end
|  3>
|  4> * xyz 0 1
|  5> Cl    4.447941   -0.116167    0.000012
|  6> N    -3.025270   -0.496796   -0.000055
|  7> N    -4.225241   -0.238014   -0.000076
|  8> N    -5.349023   -0.121568   -0.000107
|  9> C    -2.135877    0.693862    0.000077
| 10> C    -0.744389    0.279137    0.000046
| 11> C     0.418235   -0.030637    0.000023
| 12> C     1.770768   -0.449000   -0.000006
| 13> C     2.794415    0.405041    0.000048
| 14> H    -2.339149    1.308733   -0.883213
| 15> H    -2.339163    1.308547    0.883494
| 16> H     1.960606   -1.516013   -0.000076
| 17> H     2.680539    1.477792    0.000117
| 18> *
| 19>
| 20>                          ****END OF INPUT****

CARTESIAN COORDINATES (ANGSTROEM)
---------------------------------
  Cl     4.447941   -0.116167    0.000012
  N     -3.025270   -0.496796   -0.000055
  N     -4.225241   -0.238014   -0.000076
  N     -5.349023   -0.121568   -0.000107
  C     -2.135877    0.693862    0.000077
  C     -0.744389    0.279137    0.000046
  C      0.418235   -0.030637    0.000023
  C      1.770768   -0.449000   -0.000006
  C      2.794415    0.405041    0.000048
  H     -2.339149    1.308733   -0.883213
  H     -2.339163    1.308547    0.883494
  H      1.960606   -1.516013   -0.000076
  H      2.680539    1.477792    0.000117

 Total Charge           Charge          ....    0
 Multiplicity           Mult            ....    1
 Number of Electrons    NEL             ....   72
 Basis Dimension        Dim             ....  510

ORBITAL ENERGIES
----------------

  NO   OCC          E(Eh)            E(eV)
   0   2.0000    -104.854040     -2853.2235
   1   2.0000     -15.792388      -429.7327
   2   2.0000     -15.676596      -426.5819
   3   2.0000     -15.619360      -425.0244
   4   2.0000     -11.320875      -308.0567
   5   2.0000     -11.317465      -307.9639
   6   2.0000     -11.278350      -306.8995
   7   2.0000     -11.252802      -306.2043
   8   2.0000     -11.248982      -306.1004
   9   2.0000     -10.577832      -287.8374
  10   2.0000      -8.044746      -218.9087
  11   2.0000      -8.042827      -218.8564
  12   2.0000      -8.042787      -218.8554
  13   2.0000      -1.517689       -41.2984
  14   2.0000      -1.306801       -35.5599
  15   2.0000      -1.173929       -31.9442
  16   2.0000      -1.099830       -29.9279
  17   2.0000      -1.054115       -28.6839
  18   2.0000      -0.974781       -26.5251
  19   2.0000      -0.831649       -22.6303
  20   2.0000      -0.765626       -20.8338
  21   2.0000      -0.738119       -20.0852
  22   2.0000      -0.723850       -19.6970
  23   2.0000      -0.711105       -19.3501
  24   2.0000      -0.681805       -18.5528
  25   2.0000      -0.640973       -17.4418
  26   2.0000      -0.638297       -17.3690
  27   2.0000      -0.630208       -17.1488
  28   2.0000      -0.561283       -15.2733
  29   2.0000      -0.529959       -14.4209
  30   2.0000      -0.465750       -12.6737
  31   2.0000      -0.458878       -12.4867
  32   2.0000      -0.457246       -12.4423
  33   2.0000      -0.406806       -11.0698
  34   2.0000      -0.391920       -10.6647
  35   2.0000      -0.341597        -9.2953
  36   0.0000       0.025746         0.7006
  37   0.0000       0.037093         1.0093
  38   0.0000       0.038409         1.0452
  39   0.0000       0.041507         1.1295
  40   0.0000       0.066868         1.8196

MULLIKEN ATOMIC CHARGES
-----------------------
   0 Cl:   -0.273728
   1 N :   -0.804196
   2 N :    1.247272
   3 N :   -0.824982
   4 C :   -0.313228
   5 C :   -0.084816
   6 C :    0.551324
   7 C :   -0.305094
   8 C :   -0.541040
   9 H :    0.269240
  10 H :    0.269240
  11 H :    0.387541
  12 H :    0.422467
Sum of atomic charges:    0.0000000

LOEWDIN ATOMIC CHARGES
----------------------
   0 Cl:    0.918015
   1 N :    0.209328
   2 N :   -0.248263
   3 N :    0.285307
   4 C :    0.020649
   5 C :    0.085645
   6 C :    0.034905
   7 C :    0.003787
   8 C :   -0.454574
   9 H :   -0.174990
  10 H :   -0.174989
  11 H :   -0.222260
  12 H :   -0.282560

  Mayer bond orders larger than 0.100000
B(  0-Cl,  8-C ) :   0.8900 B(  1-N ,  2-N ) :   0.9142 B(  1-N ,  3-N ) :   0.6972
B(  1-N ,  4-C ) :   1.1445 B(  1-N ,  5-C ) :  -0.2861 B(  2-N ,  3-N ) :   1.1880
B(  4-C ,  5-C ) :   1.2757 B(  4-C ,  6-C ) :  -0.1392 B(  4-C ,  7-C ) :   0.1059
B(  4-C ,  9-H ) :   0.9329 B(  4-C , 10-H ) :   0.9329 B(  5-C ,  6-C ) :   2.3649
B(  5-C ,  7-C ) :  -0.2041 B(  5-C ,  8-C ) :   0.2208 B(  6-C ,  7-C ) :   0.7709
B(  6-C ,  8-C ) :  -0.2002 B(  6-C , 11-H ) :  -0.1485 B(  7-C ,  8-C ) :   1.5443
B(  7-C , 11-H ) :   0.9479 B(  8-C , 12-H ) :   0.8019

MP2 TOTAL ENERGY:     -816.081735325 Eh
FINAL SINGLE POINT ENERGY      -816.081735325116

DIPOLE MOMENT
-------------
                                X             Y             Z
Electronic contribution:      6.04150      -1.85663      -0.00021
Nuclear contribution   :     -6.18463       2.61751       0.00029
                        -----------------------------------------
Total Dipole Moment    :     -0.14314       0.76088       0.00008
                        -----------------------------------------
Magnitude (a.u.)       :      0.77422
Magnitude (Debye)      :      1.96792

Rotational constants in cm-1:     0.660128     0.009923     0.009794
Rotational constants in MHz : 19790.143717   297.478130   293.608462

                             ****ORCA TERMINATED NORMALLY****
TOTAL RUN TIME: 0 days 0 hours 4 minutes 20 seconds 254 msec
