                         Program Version 5.0.3 -  RELEASE  -
|  1> !ri-mp2 aug-cc-pvtz aug-cc-pvtz/c tightscf
|  2> %pal nprocs 16 end
|  3>
|  4> * xyz 0 1
|  5> C      0.000000    0.421048        0.000000
|  6> O     -1.028183   -0.446144        0.000000
|  7> O      1.158545    0.117343        0.000000
|  8> H     -0.383251    1.447877        0.000000
|  9> H     -0.659642   -1.343762        0.000000
| 10> *
| 11>
| 12>                          ****END OF INPUT****

CARTESIAN COORDINATES (ANGSTROEM)
---------------------------------
  C      0.000000    0.421048    0.000000
  O     -1.028183   -0.446144    0.000000
  O      1.158545    0.117343    0.000000
  H     -0.383251    1.447877    0.000000
  H     -0.659642   -1.343762    0.000000

 Total Charge           Charge          ....    0
 Multiplicity           Mult            ....    1
 Number of Electrons    NEL             ....   24
 Basis Dimension        Dim             ....  184

ORBITAL ENERGIES
----------------

  NO   OCC          E(Eh)            E(eV)
   0   2.0000     -20.628668      -561.3346
   1   2.0000     -20.568262      -559.6909
   2   2.0000     -11.397136      -310.1318
   3   2.0000      -1.478096       -40.2210
   4   2.0000      -1.380050       -37.5531
   5   2.0000      -0.897444       -24.4207
   6   2.0000      -0.726474       -19.7684
   7   2.0000      -0.714267       -19.4362
   8   2.0000      -0.638844       -17.3838
   9   2.0000      -0.605725       -16.4826
  10   2.0000      -0.498905       -13.5759
  11   2.0000      -0.475160       -12.9297
  12   0.0000       0.029387         0.7997
  13   0.0000       0.037374         1.0170
  14   0.0000       0.074258         2.0207
  15   0.0000       0.080490         2.1902
  16   0.0000       0.107039         2.9127

MULLIKEN ATOMIC CHARGES
-----------------------
   0 C :    0.012280
   1 O :   -0.328242
   2 O :   -0.535589
   3 H :    0.603520
   4 H :    0.248030
Sum of atomic charges:   -0.0000000

LOEWDIN ATOMIC CHARGES
----------------------
   0 C :   -0.501552
   1 O :    0.792335
   2 O :    0.398799
   3 H :   -0.208006
   4 H :   -0.481576

  Mayer bond orders larger than 0.100000
B(  0-C ,  1-O ) :   1.1571 B(  0-C ,  2-O ) :   1.8665 B(  0-C ,  3-H ) :   0.5365
B(  1-O ,  4-H ) :   0.9164

MP2 TOTAL ENERGY:     -189.486590303 Eh
FINAL SINGLE POINT ENERGY      -189.486590302846

DIPOLE MOMENT
-------------
                                X             Y             Z
Electronic contribution:      0.34358      -0.14482      -0.00000
Nuclear contribution   :     -1.01933       0.09689       0.00000
                        -----------------------------------------
Total Dipole Moment    :     -0.67575      -0.04793      -0.00000
                        -----------------------------------------
Magnitude (a.u.)       :      0.67744
Magnitude (Debye)      :      1.72193

Rotational constants in cm-1:     2.601862     0.401953     0.348166
Rotational constants in MHz : 78001.849825 12050.254170 10437.758524

                             ****ORCA TERMINATED NORMALLY****
TOTAL RUN TIME: 0 days 0 hours 0 minutes 32 seconds 738 msec
