                         Program Version 5.0.3 -  RELEASE  -
|  1> !ri-mp2 aug-cc-pvtz aug-cc-pvtz/c tightscf
|  2> %pal nprocs 16 end
|  3>
|  4> * xyz 0 1
|  5> C      0.000000    0.000000   -1.828651
|  6> C      0.000000    1.203661   -1.131682
|  7> C      0.000000   -1.203661   -1.131682
|  8> C      0.000000    1.212801    0.259047
|  9> C      0.000000   -1.212801    0.259047
| 10> C      0.000000    0.000000    0.924672
| 11> F      0.000000    0.000000    2.277491
| 12> H      0.000000    0.000000   -2.909624
| 13> H      0.000000    2.141917   -1.669399
| 14> H      0.000000   -2.141917   -1.669399
| 15> H      0.000000    2.134302    0.823249
| 16> H      0.000000   -2.134302    0.823249
| 17> *
| 18>
| 19>                          ****END OF INPUT****

CARTESIAN COORDINATES (ANGSTROEM)
---------------------------------
  C      0.000000    0.000000   -1.828651
  C      0.000000    1.203661   -1.131682
  C      0.000000   -1.203661   -1.131682
  C      0.000000    1.212801    0.259047
  C      0.000000   -1.212801    0.259047
  C      0.000000    0.000000    0.924672
  F      0.000000    0.000000    2.277491
  H      0.000000    0.000000   -2.909624
  H      0.000000    2.141917   -1.669399
  H      0.000000   -2.141917   -1.669399
  H      0.000000    2.134302    0.823249
  H      0.000000   -2.134302    0.823249

 Total Charge           Charge          ....    0
 Multiplicity           Mult            ....    1
 Number of Electrons    NEL             ....   50
 Basis Dimension        Dim             ....  437

ORBITAL ENERGIES
----------------

  NO   OCC          E(Eh)            E(eV)
   0   2.0000     -26.308061      -715.8787
   1   2.0000     -11.329304      -308.2860
   2   2.0000     -11.250816      -306.1503
   3   2.0000     -11.250755      -306.1486
   4   2.0000     -11.244642      -305.9823
   5   2.0000     -11.244626      -305.9818
   6   2.0000     -11.240688      -305.8747
   7   2.0000      -1.623318       -44.1727
   8   2.0000      -1.167506       -31.7695
   9   2.0000      -1.034892       -28.1608
  10   2.0000      -1.024688       -27.8832
  11   2.0000      -0.857037       -23.3212
  12   2.0000      -0.842481       -22.9251
  13   2.0000      -0.745638       -20.2898
  14   2.0000      -0.700063       -19.0497
  15   2.0000      -0.691434       -18.8149
  16   2.0000      -0.688391       -18.7321
  17   2.0000      -0.625307       -17.0155
  18   2.0000      -0.607752       -16.5378
  19   2.0000      -0.596619       -16.2348
  20   2.0000      -0.532567       -14.4919
  21   2.0000      -0.512031       -13.9331
  22   2.0000      -0.509123       -13.8539
  23   2.0000      -0.353386        -9.6161
  24   2.0000      -0.342254        -9.3132
  25   0.0000       0.028037         0.7629
  26   0.0000       0.032972         0.8972
  27   0.0000       0.037312         1.0153
  28   0.0000       0.048486         1.3194
  29   0.0000       0.051838         1.4106

MULLIKEN ATOMIC CHARGES
-----------------------
   0 C :   -0.437471
   1 C :   -0.361870
   2 C :   -0.361870
   3 C :   -0.704814
   4 C :   -0.704814
   5 C :    0.671665
   6 F :   -0.513686
   7 H :    0.519703
   8 H :    0.433432
   9 H :    0.433432
  10 H :    0.513146
  11 H :    0.513146
Sum of atomic charges:    0.0000000

LOEWDIN ATOMIC CHARGES
----------------------
   0 C :    0.189843
   1 C :    0.185587
   2 C :    0.185587
   3 C :    0.194076
   4 C :    0.194076
   5 C :   -0.514744
   6 F :    0.488293
   7 H :   -0.189119
   8 H :   -0.182387
   9 H :   -0.182387
  10 H :   -0.184412
  11 H :   -0.184412

  Mayer bond orders larger than 0.100000
B(  0-C ,  1-C ) :   1.0884 B(  0-C ,  2-C ) :   1.0884 B(  0-C ,  3-C ) :   0.1076
B(  0-C ,  4-C ) :   0.1076 B(  0-C ,  7-H ) :   0.6865 B(  1-C ,  2-C ) :  -0.1604
B(  1-C ,  3-C ) :   1.2792 B(  1-C ,  5-C ) :  -0.1721 B(  1-C ,  8-H ) :   0.8469
B(  2-C ,  4-C ) :   1.2792 B(  2-C ,  5-C ) :  -0.1721 B(  2-C ,  9-H ) :   0.8469
B(  3-C ,  4-C ) :   0.2445 B(  3-C ,  5-C ) :   1.2501 B(  3-C , 10-H ) :   0.6168
B(  4-C ,  5-C ) :   1.2501 B(  4-C , 11-H ) :   0.6168 B(  5-C ,  6-F ) :   0.5532

MP2 TOTAL ENERGY:     -330.882547171 Eh
FINAL SINGLE POINT ENERGY      -330.882547171039

DIPOLE MOMENT
-------------
                                X             Y             Z
Electronic contribution:      0.00000      -0.00000       5.98516
Nuclear contribution   :      0.00000       0.00000      -6.69429
                        -----------------------------------------
Total Dipole Moment    :      0.00000      -0.00000      -0.70913
                        -----------------------------------------
Magnitude (a.u.)       :      0.70913
Magnitude (Debye)      :      1.80246

Rotational constants in cm-1:     0.190333     0.085838     0.059158
Rotational constants in MHz :  5706.047718  2573.359945  1773.522363

                             ****ORCA TERMINATED NORMALLY****
TOTAL RUN TIME: 0 days 0 hours 2 minutes 56 seconds 227 msec
