                         Program Version 5.0.3 -  RELEASE  -
|  1> !ri-mp2 aug-cc-pvtz aug-cc-pvtz/c tightscf
|  2> %pal nprocs 16 end
|  3>
|  4> * xyz 0 1
|  5> C      0.000000    0.418868        0.000000
|  6> N     -0.937301   -0.562370        0.000000
|  7> O      1.196475    0.233417        0.000000
|  8> H     -0.446375    1.428379        0.000000
|  9> H     -0.646660   -1.526108        0.000000
| 10> H     -1.917653   -0.346222        0.000000
| 11> *
| 12>
| 13>                          ****END OF INPUT****

CARTESIAN COORDINATES (ANGSTROEM)
---------------------------------
  C      0.000000    0.418868    0.000000
  N     -0.937301   -0.562370    0.000000
  O      1.196475    0.233417    0.000000
  H     -0.446375    1.428379    0.000000
  H     -0.646660   -1.526108    0.000000
  H     -1.917653   -0.346222    0.000000

 Total Charge           Charge          ....    0
 Multiplicity           Mult            ....    1
 Number of Electrons    NEL             ....   24
 Basis Dimension        Dim             ....  207

ORBITAL ENERGIES
----------------

  NO   OCC          E(Eh)            E(eV)
   0   2.0000     -20.530804      -558.6716
   1   2.0000     -15.596895      -424.4131
   2   2.0000     -11.357153      -309.0438
   3   2.0000      -1.388492       -37.7828
   4   2.0000      -1.222163       -33.2567
   5   2.0000      -0.853197       -23.2167
   6   2.0000      -0.752959       -20.4891
   7   2.0000      -0.676531       -18.4093
   8   2.0000      -0.610879       -16.6229
   9   2.0000      -0.573733       -15.6121
  10   2.0000      -0.437930       -11.9167
  11   2.0000      -0.423612       -11.5271
  12   0.0000       0.020910         0.5690
  13   0.0000       0.036632         0.9968
  14   0.0000       0.048862         1.3296
  15   0.0000       0.080510         2.1908
  16   0.0000       0.098578         2.6825

MULLIKEN ATOMIC CHARGES
-----------------------
   0 C :   -0.038423
   1 N :   -0.274528
   2 O :   -0.600812
   3 H :    0.575613
   4 H :    0.193341
   5 H :    0.144810
Sum of atomic charges:    0.0000000

LOEWDIN ATOMIC CHARGES
----------------------
   0 C :   -0.396797
   1 N :    0.818723
   2 O :    0.380707
   3 H :   -0.188861
   4 H :   -0.299467
   5 H :   -0.314305

  Mayer bond orders larger than 0.100000
B(  0-C ,  1-N ) :   1.1493 B(  0-C ,  2-O ) :   1.7456 B(  0-C ,  3-H ) :   0.5674
B(  1-N ,  4-H ) :   0.9745 B(  1-N ,  5-H ) :   1.0453

MP2 TOTAL ENERGY:     -169.620643283 Eh
FINAL SINGLE POINT ENERGY      -169.620643282836

DIPOLE MOMENT
-------------
                                X             Y             Z
Electronic contribution:      1.33465       0.25934       0.00000
Nuclear contribution   :     -2.99951      -0.44390       0.00000
                        -----------------------------------------
Total Dipole Moment    :     -1.66486      -0.18455       0.00000
                        -----------------------------------------
Magnitude (a.u.)       :      1.67506
Magnitude (Debye)      :      4.25766

Rotational constants in cm-1:     2.460151     0.379518     0.328796
Rotational constants in MHz : 73753.485774 11377.676741  9857.064027

                             ****ORCA TERMINATED NORMALLY****
TOTAL RUN TIME: 0 days 0 hours 0 minutes 45 seconds 438 msec
