                         Program Version 5.0.3 -  RELEASE  -
|  1> !ri-mp2 aug-cc-pvtz aug-cc-pvtz/c tightscf
|  2> %pal nprocs 16 end
|  3>
|  4> * xyz 0 1
|  5> C      0.000000    0.557702    0.000000
|  6> C      1.131396   -0.441623    0.000000
|  7> F     -1.231732   -0.112505    0.000000
|  8> H      0.016530    1.191540    0.888182
|  9> H      0.016530    1.191540   -0.888182
| 10> H      2.088160    0.083890    0.000000
| 11> H      1.087998   -1.075450    0.885435
| 12> H      1.087998   -1.075450   -0.885435
| 13> *
| 14>
| 15>                          ****END OF INPUT****

CARTESIAN COORDINATES (ANGSTROEM)
---------------------------------
  C      0.000000    0.557702    0.000000
  C      1.131396   -0.441623    0.000000
  F     -1.231732   -0.112505    0.000000
  H      0.016530    1.191540    0.888182
  H      0.016530    1.191540   -0.888182
  H      2.088160    0.083890    0.000000
  H      1.087998   -1.075450    0.885435
  H      1.087998   -1.075450   -0.885435

 Total Charge           Charge          ....    0
 Multiplicity           Mult            ....    1
 Number of Electrons    NEL             ....   26
 Basis Dimension        Dim             ....  253

ORBITAL ENERGIES
----------------

  NO   OCC          E(Eh)            E(eV)
   0   2.0000     -26.269652      -714.8336
   1   2.0000     -11.308213      -307.7121
   2   2.0000     -11.227307      -305.5105
   3   2.0000      -1.575567       -42.8734
   4   2.0000      -1.035724       -28.1835
   5   2.0000      -0.862990       -23.4832
   6   2.0000      -0.698586       -19.0095
   7   2.0000      -0.687481       -18.7073
   8   2.0000      -0.648276       -17.6405
   9   2.0000      -0.579912       -15.7802
  10   2.0000      -0.550849       -14.9894
  11   2.0000      -0.511089       -13.9074
  12   2.0000      -0.497779       -13.5453
  13   0.0000       0.029267         0.7964
  14   0.0000       0.040432         1.1002
  15   0.0000       0.041138         1.1194
  16   0.0000       0.048603         1.3226
  17   0.0000       0.065491         1.7821

MULLIKEN ATOMIC CHARGES
-----------------------
   0 C :   -0.063425
   1 C :   -0.921623
   2 F :   -0.496674
   3 H :    0.290604
   4 H :    0.290604
   5 H :    0.322148
   6 H :    0.289184
   7 H :    0.289184
Sum of atomic charges:    0.0000000

LOEWDIN ATOMIC CHARGES
----------------------
   0 C :   -0.090192
   1 C :    0.563764
   2 F :    0.420348
   3 H :   -0.178978
   4 H :   -0.178978
   5 H :   -0.178526
   6 H :   -0.178719
   7 H :   -0.178719

  Mayer bond orders larger than 0.100000
B(  0-C ,  1-C ) :   0.9334 B(  0-C ,  2-F ) :   0.5957 B(  0-C ,  3-H ) :   0.9275
B(  0-C ,  4-H ) :   0.9275 B(  1-C ,  5-H ) :   0.8959 B(  1-C ,  6-H ) :   0.9187
B(  1-C ,  7-H ) :   0.9187

MP2 TOTAL ENERGY:     -178.771699653 Eh
FINAL SINGLE POINT ENERGY      -178.771699652578

DIPOLE MOMENT
-------------
                                X             Y             Z
Electronic contribution:     -4.80533      -0.09708       0.00000
Nuclear contribution   :      5.60199       0.43402       0.00000
                        -----------------------------------------
Total Dipole Moment    :      0.79666       0.33694       0.00000
                        -----------------------------------------
Magnitude (a.u.)       :      0.86498
Magnitude (Debye)      :      2.19860

Rotational constants in cm-1:     1.212188     0.310417     0.272463
Rotational constants in MHz : 36340.482216  9306.077825  8168.224649

                             ****ORCA TERMINATED NORMALLY****
TOTAL RUN TIME: 0 days 0 hours 0 minutes 40 seconds 268 msec
