                         Program Version 5.0.3 -  RELEASE  -
|  1> !ri-mp2 aug-cc-pvtz aug-cc-pvtz/c tightscf
|  2> %pal nprocs 16 end
|  3>
|  4> * xyz 0 1
|  5> C     0.000000     0.000000   -0.637684
|  6> F     0.000000     0.000000    0.754062
|  7> H     0.000000     1.032068   -0.986819
|  8> H     0.893797    -0.516034   -0.986819
|  9> H    -0.893797    -0.516034   -0.986819
| 10> *
| 11>
| 12>                          ****END OF INPUT****

CARTESIAN COORDINATES (ANGSTROEM)
---------------------------------
  C      0.000000    0.000000   -0.637684
  F      0.000000    0.000000    0.754062
  H      0.000000    1.032068   -0.986819
  H      0.893797   -0.516034   -0.986819
  H     -0.893797   -0.516034   -0.986819

 Total Charge           Charge          ....    0
 Multiplicity           Mult            ....    1
 Number of Electrons    NEL             ....   18
 Basis Dimension        Dim             ....  161

ORBITAL ENERGIES
----------------

  NO   OCC          E(Eh)            E(eV)
   0   2.0000     -26.277553      -715.0486
   1   2.0000     -11.307353      -307.6887
   2   2.0000      -1.583324       -43.0844
   3   2.0000      -0.955213       -25.9927
   4   2.0000      -0.693347       -18.8669
   5   2.0000      -0.693347       -18.8669
   6   2.0000      -0.671171       -18.2635
   7   2.0000      -0.532356       -14.4861
   8   2.0000      -0.532356       -14.4861
   9   0.0000       0.028667         0.7801
  10   0.0000       0.046529         1.2661
  11   0.0000       0.046529         1.2661
  12   0.0000       0.074422         2.0251
  13   0.0000       0.123456         3.3594

MULLIKEN ATOMIC CHARGES
-----------------------
   0 C :   -0.454267
   1 F :   -0.431819
   2 H :    0.295362
   3 H :    0.295362
   4 H :    0.295362
Sum of atomic charges:    0.0000000

LOEWDIN ATOMIC CHARGES
----------------------
   0 C :    0.223104
   1 F :    0.396897
   2 H :   -0.206667
   3 H :   -0.206667
   4 H :   -0.206667

  Mayer bond orders larger than 0.100000
B(  0-C ,  1-F ) :   0.6692 B(  0-C ,  2-H ) :   0.9184 B(  0-C ,  3-H ) :   0.9184
B(  0-C ,  4-H ) :   0.9184

MP2 TOTAL ENERGY:     -139.541477033 Eh
FINAL SINGLE POINT ENERGY      -139.541477032534

DIPOLE MOMENT
-------------
                                X             Y             Z
Electronic contribution:      0.00000      -0.00000       2.85791
Nuclear contribution   :      0.00000       0.00000      -3.68037
                        -----------------------------------------
Total Dipole Moment    :      0.00000      -0.00000      -0.82246
                        -----------------------------------------
Magnitude (a.u.)       :      0.82246
Magnitude (Debye)      :      2.09052

Rotational constants in cm-1:     5.233576     0.849529     0.849529
Rotational constants in MHz : 156898.663266 25468.233514 25468.233022

                             ****ORCA TERMINATED NORMALLY****
TOTAL RUN TIME: 0 days 0 hours 0 minutes 33 seconds 68 msec
