                         Program Version 5.0.3 -  RELEASE  -
|  1> !ri-mp2 aug-cc-pvtz aug-cc-pvtz/c tightscf
|  2> %pal nprocs 16 end
|  3>
|  4> * xyz 0 1
|  5> C      0.000000    0.716076   -0.955449
|  6> C      0.000000   -0.716076   -0.955449
|  7> C      0.000000    1.093572    0.345603
|  8> C      0.000000   -1.093572    0.345603
|  9> O      0.000000    0.000000    1.157159
| 10> H      0.000000    1.369847   -1.810079
| 11> H      0.000000   -1.369847   -1.810079
| 12> H      0.000000    2.047381    0.840519
| 13> H      0.000000   -2.047381    0.840519
| 14> *
| 15>
| 16>                          ****END OF INPUT****

CARTESIAN COORDINATES (ANGSTROEM)
---------------------------------
  C      0.000000    0.716076   -0.955449
  C      0.000000   -0.716076   -0.955449
  C      0.000000    1.093572    0.345603
  C      0.000000   -1.093572    0.345603
  O      0.000000    0.000000    1.157159
  H      0.000000    1.369847   -1.810079
  H      0.000000   -1.369847   -1.810079
  H      0.000000    2.047381    0.840519
  H      0.000000   -2.047381    0.840519

 Total Charge           Charge          ....    0
 Multiplicity           Mult            ....    1
 Number of Electrons    NEL             ....   36
 Basis Dimension        Dim             ....  322

ORBITAL ENERGIES
----------------

  NO   OCC          E(Eh)            E(eV)
   0   2.0000     -20.623957      -561.2064
   1   2.0000     -11.287931      -307.1602
   2   2.0000     -11.287885      -307.1590
   3   2.0000     -11.231011      -305.6113
   4   2.0000     -11.230029      -305.5846
   5   2.0000      -1.458426       -39.6858
   6   2.0000      -1.085569       -29.5398
   7   2.0000      -1.005767       -27.3683
   8   2.0000      -0.807508       -21.9734
   9   2.0000      -0.782302       -21.2875
  10   2.0000      -0.740524       -20.1507
  11   2.0000      -0.633898       -17.2492
  12   2.0000      -0.610353       -16.6086
  13   2.0000      -0.578043       -15.7293
  14   2.0000      -0.565158       -15.3787
  15   2.0000      -0.541128       -14.7248
  16   2.0000      -0.399148       -10.8614
  17   2.0000      -0.321446        -8.7470
  18   0.0000       0.029633         0.8064
  19   0.0000       0.035230         0.9586
  20   0.0000       0.038158         1.0383
  21   0.0000       0.048829         1.3287
  22   0.0000       0.081547         2.2190

MULLIKEN ATOMIC CHARGES
-----------------------
   0 C :   -0.539097
   1 C :   -0.539097
   2 C :   -0.515085
   3 C :   -0.515085
   4 O :   -0.292099
   5 H :    0.482164
   6 H :    0.482164
   7 H :    0.718068
   8 H :    0.718068
Sum of atomic charges:    0.0000000

LOEWDIN ATOMIC CHARGES
----------------------
   0 C :    0.159867
   1 C :    0.159867
   2 C :   -0.038502
   3 C :   -0.038502
   4 O :    0.545549
   5 H :   -0.198440
   6 H :   -0.198440
   7 H :   -0.195700
   8 H :   -0.195700

  Mayer bond orders larger than 0.100000
B(  0-C ,  1-C ) :   1.1745 B(  0-C ,  2-C ) :   1.3354 B(  0-C ,  5-H ) :   0.8646
B(  1-C ,  3-C ) :   1.3354 B(  1-C ,  6-H ) :   0.8646 B(  2-C ,  4-O ) :   1.0327
B(  2-C ,  7-H ) :   0.4354 B(  3-C ,  4-O ) :   1.0327 B(  3-C ,  8-H ) :   0.4354

MP2 TOTAL ENERGY:     -229.592473284 Eh
FINAL SINGLE POINT ENERGY      -229.592473284173

DIPOLE MOMENT
-------------
                                X             Y             Z
Electronic contribution:      0.00000       0.00000       1.59739
Nuclear contribution   :      0.00000       0.00000      -1.90778
                        -----------------------------------------
Total Dipole Moment    :      0.00000       0.00000      -0.31038
                        -----------------------------------------
Magnitude (a.u.)       :      0.31038
Magnitude (Debye)      :      0.78893

Rotational constants in cm-1:     0.316402     0.311042     0.156850
Rotational constants in MHz :  9485.505213  9324.803721  4702.234005

                             ****ORCA TERMINATED NORMALLY****
TOTAL RUN TIME: 0 days 0 hours 1 minutes 22 seconds 313 msec
