                         Program Version 5.0.3 -  RELEASE  -
|  1> !ri-mp2 aug-cc-pvtz aug-cc-pvtz/c tightscf
|  2> %pal nprocs 16 end
|  3>
|  4> * xyz 0 1
|  5> C      0.000000    0.000000   -0.095596
|  6> C      0.000000    0.000000   -1.287136
|  7> F      0.000000    0.000000    1.182582
|  8> H      0.000000    0.000000   -2.346846
|  9> *
| 10>
| 11>                          ****END OF INPUT****

CARTESIAN COORDINATES (ANGSTROEM)
---------------------------------
  C      0.000000    0.000000   -0.095596
  C      0.000000    0.000000   -1.287136
  F      0.000000    0.000000    1.182582
  H      0.000000    0.000000   -2.346846

 Total Charge           Charge          ....    0
 Multiplicity           Mult            ....    1
 Number of Electrons    NEL             ....   22
 Basis Dimension        Dim             ....  161

ORBITAL ENERGIES
----------------

  NO   OCC          E(Eh)            E(eV)
   0   2.0000     -26.386152      -718.0037
   1   2.0000     -11.339545      -308.5647
   2   2.0000     -11.247291      -306.0544
   3   2.0000      -1.706525       -46.4369
   4   2.0000      -1.053803       -28.6755
   5   2.0000      -0.860980       -23.4285
   6   2.0000      -0.760174       -20.6854
   7   2.0000      -0.760174       -20.6854
   8   2.0000      -0.724281       -19.7087
   9   2.0000      -0.419330       -11.4106
  10   2.0000      -0.419330       -11.4106
  11   0.0000       0.028064         0.7637
  12   0.0000       0.053570         1.4577
  13   0.0000       0.090016         2.4495
  14   0.0000       0.090016         2.4495
  15   0.0000       0.102758         2.7962

MULLIKEN ATOMIC CHARGES
-----------------------
   0 C :    0.469149
   1 C :   -0.785239
   2 F :   -0.251015
   3 H :    0.567105
Sum of atomic charges:    0.0000000

LOEWDIN ATOMIC CHARGES
----------------------
   0 C :   -0.400377
   1 C :    0.263230
   2 F :    0.458706
   3 H :   -0.321559

  Mayer bond orders larger than 0.100000
B(  0-C ,  1-C ) :   1.9602 B(  0-C ,  2-F ) :   1.1551 B(  1-C ,  2-F ) :  -0.1593
B(  1-C ,  3-H ) :   0.5704

MP2 TOTAL ENERGY:     -176.275032703 Eh
FINAL SINGLE POINT ENERGY      -176.275032702681

DIPOLE MOMENT
-------------
                                X             Y             Z
Electronic contribution:      0.00000       0.00000       2.94208
Nuclear contribution   :      0.00000       0.00000      -3.29838
                        -----------------------------------------
Total Dipole Moment    :      0.00000       0.00000      -0.35630
                        -----------------------------------------
Magnitude (a.u.)       :      0.35630
Magnitude (Debye)      :      0.90565

Rotational constants in cm-1:     0.000000     0.325111     0.325111
Rotational constants in MHz :     0.000000  9746.588029  9746.588029

                             ****ORCA TERMINATED NORMALLY****
TOTAL RUN TIME: 0 days 0 hours 0 minutes 27 seconds 811 msec
