                         Program Version 5.0.3 -  RELEASE  -
|  1> !ri-mp2 aug-cc-pvtz aug-cc-pvtz/c tightscf
|  2> %pal nprocs 16 end
|  3>
|  4> * xyz 0 1
|  5> O      0.000000    0.000000    1.179618
|  6> N      0.000000    0.000000   -0.020937
|  7> C      0.000000    0.000000   -1.175868
|  8> H      0.000000    0.000000   -2.235178
|  9> *
| 10>
| 11>                          ****END OF INPUT****

CARTESIAN COORDINATES (ANGSTROEM)
---------------------------------
  O      0.000000    0.000000    1.179618
  N      0.000000    0.000000   -0.020937
  C      0.000000    0.000000   -1.175868
  H      0.000000    0.000000   -2.235178

 Total Charge           Charge          ....    0
 Multiplicity           Mult            ....    1
 Number of Electrons    NEL             ....   22
 Basis Dimension        Dim             ....  161

ORBITAL ENERGIES
----------------

  NO   OCC          E(Eh)            E(eV)
   0   2.0000     -20.585740      -560.1665
   1   2.0000     -15.760495      -428.8649
   2   2.0000     -11.317469      -307.9640
   3   2.0000      -1.513469       -41.1836
   4   2.0000      -1.232126       -33.5279
   5   2.0000      -0.820028       -22.3141
   6   2.0000      -0.733211       -19.9517
   7   2.0000      -0.681271       -18.5383
   8   2.0000      -0.681271       -18.5383
   9   2.0000      -0.409416       -11.1408
  10   2.0000      -0.409416       -11.1408
  11   0.0000       0.019868         0.5406
  12   0.0000       0.061290         1.6678
  13   0.0000       0.061290         1.6678
  14   0.0000       0.069391         1.8882
  15   0.0000       0.120431         3.2771

MULLIKEN ATOMIC CHARGES
-----------------------
   0 O :   -0.654483
   1 N :    0.383593
   2 C :   -0.504325
   3 H :    0.775215
Sum of atomic charges:   -0.0000000

LOEWDIN ATOMIC CHARGES
----------------------
   0 O :    0.212063
   1 N :   -0.281220
   2 C :    0.334594
   3 H :   -0.265438

  Mayer bond orders larger than 0.100000
B(  0-O ,  1-N ) :   1.2585 B(  0-O ,  2-C ) :   0.2686 B(  1-N ,  2-C ) :   2.3583
B(  2-C ,  3-H ) :   0.2168

MP2 TOTAL ENERGY:     -168.311667886 Eh
FINAL SINGLE POINT ENERGY      -168.311667886257

DIPOLE MOMENT
-------------
                                X             Y             Z
Electronic contribution:      0.00000       0.00000       0.44501
Nuclear contribution   :      0.00000       0.00000      -2.12874
                        -----------------------------------------
Total Dipole Moment    :      0.00000       0.00000      -1.68373
                        -----------------------------------------
Magnitude (a.u.)       :      1.68373
Magnitude (Debye)      :      4.27970

Rotational constants in cm-1:     0.000000     0.384886     0.384886
Rotational constants in MHz :     0.000000 11538.579218 11538.579218

                             ****ORCA TERMINATED NORMALLY****
TOTAL RUN TIME: 0 days 0 hours 0 minutes 28 seconds 450 msec
