                         Program Version 5.0.3 -  RELEASE  -
|  1> !ri-mp2 aug-cc-pvtz aug-cc-pvtz/c tightscf
|  2> %pal nprocs 16 end
|  3>
|  4> * xyz 0 1
|  5> F      0.332657   -1.506812    0.000000
|  6> N      0.468461    1.859310    0.000000
|  7> C     -0.629654   -0.510772    0.000000
|  8> C      0.000000    0.810536    0.000000
|  9> H     -1.247608   -0.626221    0.891185
| 10> H     -1.247608   -0.626221   -0.891185
| 11> *
| 12>
| 13>                          ****END OF INPUT****

CARTESIAN COORDINATES (ANGSTROEM)
---------------------------------
  F      0.332657   -1.506812    0.000000
  N      0.468461    1.859310    0.000000
  C     -0.629654   -0.510772    0.000000
  C      0.000000    0.810536    0.000000
  H     -1.247608   -0.626221    0.891185
  H     -1.247608   -0.626221   -0.891185

 Total Charge           Charge          ....    0
 Multiplicity           Mult            ....    1
 Number of Electrons    NEL             ....   30
 Basis Dimension        Dim             ....  230

ORBITAL ENERGIES
----------------

  NO   OCC          E(Eh)            E(eV)
   0   2.0000     -26.326014      -716.3673
   1   2.0000     -15.598064      -424.4449
   2   2.0000     -11.385191      -309.8068
   3   2.0000     -11.294605      -307.3418
   4   2.0000      -1.634923       -44.4885
   5   2.0000      -1.246024       -33.9060
   6   2.0000      -1.047347       -28.4998
   7   2.0000      -0.784990       -21.3607
   8   2.0000      -0.753271       -20.4976
   9   2.0000      -0.735761       -20.0211
  10   2.0000      -0.631942       -17.1960
  11   2.0000      -0.600965       -16.3531
  12   2.0000      -0.575032       -15.6474
  13   2.0000      -0.497474       -13.5369
  14   2.0000      -0.486162       -13.2291
  15   0.0000       0.022230         0.6049
  16   0.0000       0.038075         1.0361
  17   0.0000       0.059735         1.6255
  18   0.0000       0.069290         1.8855
  19   0.0000       0.097784         2.6608

MULLIKEN ATOMIC CHARGES
-----------------------
   0 F :   -0.429334
   1 N :   -0.334792
   2 C :    0.130497
   3 C :   -0.044158
   4 H :    0.338894
   5 H :    0.338894
Sum of atomic charges:   -0.0000000

LOEWDIN ATOMIC CHARGES
----------------------
   0 F :    0.451208
   1 N :    0.255024
   2 C :   -0.120081
   3 C :   -0.218105
   4 H :   -0.184023
   5 H :   -0.184023

  Mayer bond orders larger than 0.100000
B(  0-F ,  2-C ) :   0.6981 B(  1-N ,  3-C ) :   2.4586 B(  2-C ,  3-C ) :   0.9478
B(  2-C ,  4-H ) :   0.9068 B(  2-C ,  5-H ) :   0.9068

MP2 TOTAL ENERGY:     -231.618091350 Eh
FINAL SINGLE POINT ENERGY      -231.618091349677

DIPOLE MOMENT
-------------
                                X             Y             Z
Electronic contribution:      1.54535      -1.00235       0.00000
Nuclear contribution   :     -2.69195       0.23530       0.00000
                        -----------------------------------------
Total Dipole Moment    :     -1.14661      -0.76704       0.00000
                        -----------------------------------------
Magnitude (a.u.)       :      1.37952
Magnitude (Debye)      :      3.50645

Rotational constants in cm-1:     1.219841     0.159490     0.144932
Rotational constants in MHz : 36569.923875  4781.400259  4344.949230

                             ****ORCA TERMINATED NORMALLY****
TOTAL RUN TIME: 0 days 0 hours 0 minutes 38 seconds 712 msec
