                         Program Version 5.0.3 -  RELEASE  -
|  1> !ri-mp2 aug-cc-pvtz aug-cc-pvtz/c tightscf
|  2> %pal nprocs 16 end
|  3>
|  4> * xyz 0 1
|  5> C     0.123949    -1.862885       0.000000
|  6> C    -0.123949     1.862885       0.000000
|  7> C    -0.463693     0.483335       0.000000
|  8> C     0.463693    -0.483335       0.000000
|  9> N    -0.123949    -2.988322       0.000000
| 10> N     0.123949     2.988322       0.000000
| 11> H    -1.519242     0.244524       0.000000
| 12> H     1.519242    -0.244524       0.000000
| 13> *
| 14>
| 15>                          ****END OF INPUT****

CARTESIAN COORDINATES (ANGSTROEM)
---------------------------------
  C      0.123949   -1.862885    0.000000
  C     -0.123949    1.862885    0.000000
  C     -0.463693    0.483335    0.000000
  C      0.463693   -0.483335    0.000000
  N     -0.123949   -2.988322    0.000000
  N      0.123949    2.988322    0.000000
  H     -1.519242    0.244524    0.000000
  H      1.519242   -0.244524    0.000000

 Total Charge           Charge          ....    0
 Multiplicity           Mult            ....    1
 Number of Electrons    NEL             ....   40
 Basis Dimension        Dim             ....  322

ORBITAL ENERGIES
----------------

  NO   OCC          E(Eh)            E(eV)
   0   2.0000     -15.609149      -424.7465
   1   2.0000     -15.609149      -424.7465
   2   2.0000     -11.340827      -308.5996
   3   2.0000     -11.339170      -308.5545
   4   2.0000     -11.308170      -307.7110
   5   2.0000     -11.308169      -307.7109
   6   2.0000      -1.261005       -34.3137
   7   2.0000      -1.254355       -34.1327
   8   2.0000      -1.154540       -31.4166
   9   2.0000      -0.970844       -26.4180
  10   2.0000      -0.782107       -21.2822
  11   2.0000      -0.761217       -20.7138
  12   2.0000      -0.652653       -17.7596
  13   2.0000      -0.595540       -16.2055
  14   2.0000      -0.585907       -15.9433
  15   2.0000      -0.572079       -15.5671
  16   2.0000      -0.523210       -14.2373
  17   2.0000      -0.505953       -13.7677
  18   2.0000      -0.498366       -13.5612
  19   2.0000      -0.416511       -11.3338
  20   0.0000       0.014652         0.3987
  21   0.0000       0.022305         0.6070
  22   0.0000       0.029102         0.7919
  23   0.0000       0.056789         1.5453
  24   0.0000       0.067985         1.8500

MULLIKEN ATOMIC CHARGES
-----------------------
   0 C :    0.331203
   1 C :    0.331203
   2 C :   -0.074414
   3 C :   -0.074414
   4 N :   -0.594769
   5 N :   -0.594769
   6 H :    0.337981
   7 H :    0.337981
Sum of atomic charges:   -0.0000000

LOEWDIN ATOMIC CHARGES
----------------------
   0 C :   -0.239817
   1 C :   -0.239817
   2 C :    0.148010
   3 C :    0.148010
   4 N :    0.277547
   5 N :    0.277547
   6 H :   -0.185740
   7 H :   -0.185740

  Mayer bond orders larger than 0.100000
B(  0-C ,  3-C ) :   1.0222 B(  0-C ,  4-N ) :   2.2697 B(  1-C ,  2-C ) :   1.0222
B(  1-C ,  5-N ) :   2.2697 B(  2-C ,  3-C ) :   1.3079 B(  2-C ,  5-N ) :  -0.1493
B(  2-C ,  6-H ) :   0.9311 B(  3-C ,  4-N ) :  -0.1493 B(  3-C ,  7-H ) :   0.9311

MP2 TOTAL ENERGY:     -262.576537572 Eh
FINAL SINGLE POINT ENERGY      -262.576537572445

DIPOLE MOMENT
-------------
                                X             Y             Z
Electronic contribution:      0.00000      -0.00000      -0.00000
Nuclear contribution   :      0.00000       0.00000       0.00000
                        -----------------------------------------
Total Dipole Moment    :      0.00000      -0.00000      -0.00000
                        -----------------------------------------
Magnitude (a.u.)       :      0.00000
Magnitude (Debye)      :      0.00000

Rotational constants in cm-1:     1.588485     0.049688     0.048181
Rotational constants in MHz : 47621.592615  1489.612868  1444.430787

                             ****ORCA TERMINATED NORMALLY****
TOTAL RUN TIME: 0 days 0 hours 1 minutes 18 seconds 761 msec
