                         Program Version 5.0.3 -  RELEASE  -
|  1> !ri-mp2 aug-cc-pvtz aug-cc-pvtz/c tightscf
|  2> %pal nprocs 16 end
|  3>
|  4> * xyz 0 1
|  5> C      0.000000    0.000000   -0.526958
|  6> O      0.000000    0.000000    0.673270
|  7> H      0.000000    0.938263   -1.112205
|  8> H      0.000000   -0.938263   -1.112205
|  9> *
| 10>
| 11>                          ****END OF INPUT****

CARTESIAN COORDINATES (ANGSTROEM)
---------------------------------
  C      0.000000    0.000000   -0.526958
  O      0.000000    0.000000    0.673270
  H      0.000000    0.938263   -1.112205
  H      0.000000   -0.938263   -1.112205

 Total Charge           Charge          ....    0
 Multiplicity           Mult            ....    1
 Number of Electrons    NEL             ....   16
 Basis Dimension        Dim             ....  138

ORBITAL ENERGIES
----------------

  NO   OCC          E(Eh)            E(eV)
   0   2.0000     -20.578880      -559.9798
   1   2.0000     -11.342274      -308.6390
   2   2.0000      -1.410749       -38.3884
   3   2.0000      -0.869237       -23.6531
   4   2.0000      -0.695095       -18.9145
   5   2.0000      -0.654267       -17.8035
   6   2.0000      -0.539993       -14.6940
   7   2.0000      -0.442592       -12.0435
   8   0.0000       0.026353         0.7171
   9   0.0000       0.041812         1.1378
  10   0.0000       0.062722         1.7067
  11   0.0000       0.076428         2.0797
  12   0.0000       0.130367         3.5475

MULLIKEN ATOMIC CHARGES
-----------------------
   0 C :   -0.431590
   1 O :   -0.488491
   2 H :    0.460040
   3 H :    0.460040
Sum of atomic charges:    0.0000000

LOEWDIN ATOMIC CHARGES
----------------------
   0 C :    0.061784
   1 O :    0.387204
   2 H :   -0.224494
   3 H :   -0.224494

  Mayer bond orders larger than 0.100000
B(  0-C ,  1-O ) :   1.9170 B(  0-C ,  2-H ) :   0.7258 B(  0-C ,  3-H ) :   0.7258

MP2 TOTAL ENERGY:     -114.316132781 Eh
FINAL SINGLE POINT ENERGY      -114.316132780659

DIPOLE MOMENT
-------------
                                X             Y             Z
Electronic contribution:     -0.00000      -0.00000       1.10561
Nuclear contribution   :      0.00000       0.00000      -2.21550
                        -----------------------------------------
Total Dipole Moment    :     -0.00000      -0.00000      -1.10989
                        -----------------------------------------
Magnitude (a.u.)       :      1.10989
Magnitude (Debye)      :      2.82113

Rotational constants in cm-1:     9.498547     1.304764     1.147182
Rotational constants in MHz : 284759.285973 39115.833550 34391.640977

                             ****ORCA TERMINATED NORMALLY****
TOTAL RUN TIME: 0 days 0 hours 0 minutes 27 seconds 138 msec
