                         Program Version 5.0.3 -  RELEASE  -
|  1> !ri-mp2 aug-cc-pvtz aug-cc-pvtz/c tightscf
|  2> %pal nprocs 16 end
|  3>
|  4> * xyz 0 1
|  5> C      0.000000    0.735787   -1.400081
|  6> C      0.000000   -0.735787   -1.400081
|  7> C      0.000000    1.175419   -0.125488
|  8> C      0.000000   -1.175419   -0.125488
|  9> C      0.000000    0.000000    0.758403
| 10> C      0.000000    0.000000    2.096421
| 11> H      0.000000    1.347657   -2.289398
| 12> H      0.000000   -1.347657   -2.289398
| 13> H      0.000000    2.197794    0.217520
| 14> H      0.000000   -2.197794    0.217520
| 15> H      0.000000   -0.923202    2.660823
| 16> H      0.000000    0.923202    2.660823
| 17> *
| 18>
| 19>                          ****END OF INPUT****

CARTESIAN COORDINATES (ANGSTROEM)
---------------------------------
  C      0.000000    0.735787   -1.400081
  C      0.000000   -0.735787   -1.400081
  C      0.000000    1.175419   -0.125488
  C      0.000000   -1.175419   -0.125488
  C      0.000000    0.000000    0.758403
  C      0.000000    0.000000    2.096421
  H      0.000000    1.347657   -2.289398
  H      0.000000   -1.347657   -2.289398
  H      0.000000    2.197794    0.217520
  H      0.000000   -2.197794    0.217520
  H      0.000000   -0.923202    2.660823
  H      0.000000    0.923202    2.660823

 Total Charge           Charge          ....    0
 Multiplicity           Mult            ....    1
 Number of Electrons    NEL             ....   42
 Basis Dimension        Dim             ....  414

ORBITAL ENERGIES
----------------

  NO   OCC          E(Eh)            E(eV)
   0   2.0000     -11.248665      -306.0917
   1   2.0000     -11.243334      -305.9467
   2   2.0000     -11.232575      -305.6539
   3   2.0000     -11.231795      -305.6327
   4   2.0000     -11.225976      -305.4743
   5   2.0000     -11.225945      -305.4735
   6   2.0000      -1.164220       -31.6800
   7   2.0000      -1.027964       -27.9723
   8   2.0000      -0.970465       -26.4077
   9   2.0000      -0.861125       -23.4324
  10   2.0000      -0.744358       -20.2550
  11   2.0000      -0.727026       -19.7834
  12   2.0000      -0.688567       -18.7369
  13   2.0000      -0.608424       -16.5560
  14   2.0000      -0.565624       -15.3914
  15   2.0000      -0.556852       -15.1527
  16   2.0000      -0.521131       -14.1807
  17   2.0000      -0.504062       -13.7162
  18   2.0000      -0.490519       -13.3477
  19   2.0000      -0.346174        -9.4199
  20   2.0000      -0.310091        -8.4380
  21   0.0000       0.030134         0.8200
  22   0.0000       0.033005         0.8981
  23   0.0000       0.035965         0.9787
  24   0.0000       0.047820         1.3013
  25   0.0000       0.049816         1.3556

MULLIKEN ATOMIC CHARGES
-----------------------
   0 C :   -0.580357
   1 C :   -0.580357
   2 C :   -0.828132
   3 C :   -0.828132
   4 C :    1.641622
   5 C :   -1.473875
   6 H :    0.524825
   7 H :    0.524825
   8 H :    0.426631
   9 H :    0.426631
  10 H :    0.373161
  11 H :    0.373161
Sum of atomic charges:   -0.0000000

LOEWDIN ATOMIC CHARGES
----------------------
   0 C :    0.202521
   1 C :    0.202521
   2 C :    0.197269
   3 C :    0.197269
   4 C :   -0.212465
   5 C :    0.574811
   6 H :   -0.188696
   7 H :   -0.188696
   8 H :   -0.183515
   9 H :   -0.183515
  10 H :   -0.208752
  11 H :   -0.208752

  Mayer bond orders larger than 0.100000
B(  0-C ,  1-C ) :   0.8555 B(  0-C ,  2-C ) :   1.6236 B(  0-C ,  4-C ) :  -0.1224
B(  0-C ,  6-H ) :   0.7782 B(  1-C ,  3-C ) :   1.6236 B(  1-C ,  4-C ) :  -0.1224
B(  1-C ,  7-H ) :   0.7782 B(  2-C ,  4-C ) :   0.4490 B(  2-C ,  8-H ) :   0.9190
B(  3-C ,  4-C ) :   0.4490 B(  3-C ,  9-H ) :   0.9190 B(  4-C ,  5-C ) :   0.9928
B(  5-C , 10-H ) :   0.9124 B(  5-C , 11-H ) :   0.9124

MP2 TOTAL ENERGY:     -231.686288353 Eh
FINAL SINGLE POINT ENERGY      -231.686288353341

DIPOLE MOMENT
-------------
                                X             Y             Z
Electronic contribution:     -0.00000       0.00000      -0.98909
Nuclear contribution   :      0.00000       0.00000       1.18943
                        -----------------------------------------
Total Dipole Moment    :     -0.00000       0.00000       0.20034
                        -----------------------------------------
Magnitude (a.u.)       :      0.20034
Magnitude (Debye)      :      0.50922

Rotational constants in cm-1:     0.274950     0.127631     0.087168
Rotational constants in MHz :  8242.795315  3826.283796  2613.229548

                             ****ORCA TERMINATED NORMALLY****
TOTAL RUN TIME: 0 days 0 hours 2 minutes 37 seconds 617 msec
