                         Program Version 5.0.3 -  RELEASE  -
|  1> !ri-mp2 aug-cc-pvtz aug-cc-pvtz/c tightscf
|  2> %pal nprocs 16 end
|  3>
|  4> * xyz 0 1
|  5> C     -0.300615   -1.924790        0.000000
|  6> C     -0.970523   -0.674797        0.000000
|  7> C      1.032092   -1.640070        0.000000
|  8> C      0.000000    0.288032        0.000000
|  9> C     -0.029988    1.739577        0.000000
| 10> O     -1.049576    2.396115        0.000000
| 11> O      1.237658   -0.307636        0.000000
| 12> H     -0.741739   -2.906165        0.000000
| 13> H     -2.030305   -0.489429        0.000000
| 14> H      1.913637   -2.256025        0.000000
| 15> H      0.967952    2.216073        0.000000
| 16> *
| 17>
| 18>                          ****END OF INPUT****

CARTESIAN COORDINATES (ANGSTROEM)
---------------------------------
  C     -0.300615   -1.924790    0.000000
  C     -0.970523   -0.674797    0.000000
  C      1.032092   -1.640070    0.000000
  C      0.000000    0.288032    0.000000
  C     -0.029988    1.739577    0.000000
  O     -1.049576    2.396115    0.000000
  O      1.237658   -0.307636    0.000000
  H     -0.741739   -2.906165    0.000000
  H     -2.030305   -0.489429    0.000000
  H      1.913637   -2.256025    0.000000
  H      0.967952    2.216073    0.000000

 Total Charge           Charge          ....    0
 Multiplicity           Mult            ....    1
 Number of Electrons    NEL             ....   50
 Basis Dimension        Dim             ....  414

ORBITAL ENERGIES
----------------

  NO   OCC          E(Eh)            E(eV)
   0   2.0000     -20.649568      -561.9033
   1   2.0000     -20.558609      -559.4282
   2   2.0000     -11.342247      -308.6382
   3   2.0000     -11.319160      -308.0100
   4   2.0000     -11.302565      -307.5584
   5   2.0000     -11.263319      -306.4905
   6   2.0000     -11.251128      -306.1588
   7   2.0000      -1.486178       -40.4409
   8   2.0000      -1.393128       -37.9089
   9   2.0000      -1.111833       -30.2545
  10   2.0000      -1.051453       -28.6115
  11   2.0000      -0.895164       -24.3586
  12   2.0000      -0.829659       -22.5762
  13   2.0000      -0.785644       -21.3785
  14   2.0000      -0.736227       -20.0337
  15   2.0000      -0.673865       -18.3368
  16   2.0000      -0.663644       -18.0587
  17   2.0000      -0.630963       -17.1694
  18   2.0000      -0.598762       -16.2931
  19   2.0000      -0.592159       -16.1135
  20   2.0000      -0.568147       -15.4601
  21   2.0000      -0.538173       -14.6444
  22   2.0000      -0.439675       -11.9642
  23   2.0000      -0.420246       -11.4355
  24   2.0000      -0.339672        -9.2429
  25   0.0000       0.023524         0.6401
  26   0.0000       0.032241         0.8773
  27   0.0000       0.038655         1.0518
  28   0.0000       0.047829         1.3015
  29   0.0000       0.055140         1.5004

MULLIKEN ATOMIC CHARGES
-----------------------
   0 C :   -0.531278
   1 C :   -0.711824
   2 C :   -0.561911
   3 C :    0.757983
   4 C :   -0.136165
   5 O :   -0.738301
   6 O :   -0.340780
   7 H :    0.519686
   8 H :    0.480539
   9 H :    0.718947
  10 H :    0.543104
Sum of atomic charges:   -0.0000000

LOEWDIN ATOMIC CHARGES
----------------------
   0 C :    0.193891
   1 C :    0.205930
   2 C :   -0.014108
   3 C :   -0.395819
   4 C :   -0.245628
   5 O :    0.421227
   6 O :    0.566325
   7 H :   -0.192194
   8 H :   -0.168567
   9 H :   -0.183038
  10 H :   -0.188021

  Mayer bond orders larger than 0.100000
B(  0-C ,  1-C ) :   1.2161 B(  0-C ,  2-C ) :   1.2201 B(  0-C ,  6-O ) :  -0.1141
B(  0-C ,  7-H ) :   0.8181 B(  1-C ,  3-C ) :   1.3013 B(  1-C ,  8-H ) :   0.8700
B(  2-C ,  6-O ) :   1.1935 B(  2-C ,  9-H ) :   0.4309 B(  3-C ,  4-C ) :   0.8036
B(  3-C ,  5-O ) :  -0.1235 B(  3-C ,  6-O ) :   0.8024 B(  4-C ,  5-O ) :   1.6483
B(  4-C , 10-H ) :   0.6595

MP2 TOTAL ENERGY:     -342.745138014 Eh
FINAL SINGLE POINT ENERGY      -342.745138014459

DIPOLE MOMENT
-------------
                                X             Y             Z
Electronic contribution:      0.52345       1.94520       0.00000
Nuclear contribution   :      0.10996      -3.32538       0.00000
                        -----------------------------------------
Total Dipole Moment    :      0.63341      -1.38017       0.00000
                        -----------------------------------------
Magnitude (a.u.)       :      1.51858
Magnitude (Debye)      :      3.85992

Rotational constants in cm-1:     0.275709     0.068182     0.054664
Rotational constants in MHz :  8265.554192  2044.055691  1638.786848

                             ****ORCA TERMINATED NORMALLY****
TOTAL RUN TIME: 0 days 0 hours 2 minutes 45 seconds 419 msec
