                         Program Version 5.0.3 -  RELEASE  -
|  1> !ri-mp2 aug-cc-pvtz aug-cc-pvtz/c tightscf
|  2> %pal nprocs 16 end
|  3>
|  4> * xyz 0 1
|  5> C      0.000000    0.400163        0.000000
|  6> O      1.146373    0.135369        0.000000
|  7> F     -0.967416   -0.541572        0.000000
|  8> H     -0.464239    1.390219        0.000000
|  9> *
| 10>
| 11>                          ****END OF INPUT****

CARTESIAN COORDINATES (ANGSTROEM)
---------------------------------
  C      0.000000    0.400163    0.000000
  O      1.146373    0.135369    0.000000
  F     -0.967416   -0.541572    0.000000
  H     -0.464239    1.390219    0.000000

 Total Charge           Charge          ....    0
 Multiplicity           Mult            ....    1
 Number of Electrons    NEL             ....   24
 Basis Dimension        Dim             ....  161

ORBITAL ENERGIES
----------------

  NO   OCC          E(Eh)            E(eV)
   0   2.0000     -26.345840      -716.9068
   1   2.0000     -20.605096      -560.6932
   2   2.0000     -11.437927      -311.2418
   3   2.0000      -1.667764       -45.3822
   4   2.0000      -1.452194       -39.5162
   5   2.0000      -0.913359       -24.8538
   6   2.0000      -0.793630       -21.5958
   7   2.0000      -0.731433       -19.9033
   8   2.0000      -0.729141       -19.8409
   9   2.0000      -0.642782       -17.4910
  10   2.0000      -0.561365       -15.2755
  11   2.0000      -0.515506       -14.0276
  12   0.0000       0.026141         0.7113
  13   0.0000       0.067251         1.8300
  14   0.0000       0.075458         2.0533
  15   0.0000       0.076585         2.0840
  16   0.0000       0.128336         3.4922

MULLIKEN ATOMIC CHARGES
-----------------------
   0 C :    0.163856
   1 O :   -0.415022
   2 F :   -0.303940
   3 H :    0.555106
Sum of atomic charges:   -0.0000000

LOEWDIN ATOMIC CHARGES
----------------------
   0 C :   -0.594251
   1 O :    0.399809
   2 F :    0.419173
   3 H :   -0.224731

  Mayer bond orders larger than 0.100000
B(  0-C ,  1-O ) :   2.0196 B(  0-C ,  2-F ) :   0.9544 B(  0-C ,  3-H ) :   0.6007

MP2 TOTAL ENERGY:     -213.487058048 Eh
FINAL SINGLE POINT ENERGY      -213.487058047569

DIPOLE MOMENT
-------------
                                X             Y             Z
Electronic contribution:     -1.07135      -1.04412       0.00000
Nuclear contribution   :      0.47804       1.80911       0.00000
                        -----------------------------------------
Total Dipole Moment    :     -0.59331       0.76499       0.00000
                        -----------------------------------------
Magnitude (a.u.)       :      0.96811
Magnitude (Debye)      :      2.46073

Rotational constants in cm-1:     3.050046     0.390668     0.346311
Rotational constants in MHz : 91438.071768 11711.932836 10382.128041

                             ****ORCA TERMINATED NORMALLY****
TOTAL RUN TIME: 0 days 0 hours 0 minutes 32 seconds 894 msec
