                         Program Version 5.0.3 -  RELEASE  -
|  1> !ri-mp2 aug-cc-pvtz aug-cc-pvtz/c tightscf
|  2> %pal nprocs 16 end
|  3>
|  4> * xyz 0 1
|  5> C      0.000000    0.806204        0.000000
|  6> O      1.118460    1.175635        0.000000
|  7> Cl    -0.473479   -0.921920        0.000000
|  8> H     -0.898535    1.430335        0.000000
|  9> *
| 10>
| 11>                          ****END OF INPUT****

CARTESIAN COORDINATES (ANGSTROEM)
---------------------------------
  C      0.000000    0.806204    0.000000
  O      1.118460    1.175635    0.000000
  Cl    -0.473479   -0.921920    0.000000
  H     -0.898535    1.430335    0.000000

 Total Charge           Charge          ....    0
 Multiplicity           Mult            ....    1
 Number of Electrons    NEL             ....   32
 Basis Dimension        Dim             ....  165

ORBITAL ENERGIES
----------------

  NO   OCC          E(Eh)            E(eV)
   0   2.0000    -104.863148     -2853.4713
   1   2.0000     -20.615070      -560.9646
   2   2.0000     -11.420568      -310.7695
   3   2.0000     -10.587627      -288.1040
   4   2.0000      -8.054251      -219.1673
   5   2.0000      -8.052544      -219.1209
   6   2.0000      -8.052375      -219.1163
   7   2.0000      -1.466092       -39.8944
   8   2.0000      -1.141309       -31.0566
   9   2.0000      -0.860751       -23.4222
  10   2.0000      -0.718722       -19.5574
  11   2.0000      -0.672794       -18.3077
  12   2.0000      -0.607154       -16.5215
  13   2.0000      -0.482894       -13.1402
  14   2.0000      -0.479063       -13.0360
  15   2.0000      -0.472661       -12.8618
  16   0.0000       0.027474         0.7476
  17   0.0000       0.062486         1.7003
  18   0.0000       0.070572         1.9204
  19   0.0000       0.078399         2.1333
  20   0.0000       0.104672         2.8483

MULLIKEN ATOMIC CHARGES
-----------------------
   0 C :    0.063657
   1 O :   -0.437786
   2 Cl:   -0.129731
   3 H :    0.503860
Sum of atomic charges:   -0.0000000

LOEWDIN ATOMIC CHARGES
----------------------
   0 C :   -0.827592
   1 O :    0.348155
   2 Cl:    0.778374
   3 H :   -0.298937

  Mayer bond orders larger than 0.100000
B(  0-C ,  1-O ) :   1.9749 B(  0-C ,  2-Cl) :   0.9986 B(  0-C ,  3-H ) :   0.6437

MP2 TOTAL ENERGY:     -573.456782438 Eh
FINAL SINGLE POINT ENERGY      -573.456782438406

DIPOLE MOMENT
-------------
                                X             Y             Z
Electronic contribution:     -0.61734      -2.29189      -0.00000
Nuclear contribution   :     -0.18971       2.58009       0.00000
                        -----------------------------------------
Total Dipole Moment    :     -0.80705       0.28821      -0.00000
                        -----------------------------------------
Magnitude (a.u.)       :      0.85697
Magnitude (Debye)      :      2.17825

Rotational constants in cm-1:     2.617587     0.199897     0.185714
Rotational constants in MHz : 78473.292386  5992.746676  5567.569728

                             ****ORCA TERMINATED NORMALLY****
TOTAL RUN TIME: 0 days 0 hours 0 minutes 30 seconds 414 msec
