                         Program Version 5.0.3 -  RELEASE  -
|  1> !ri-mp2 aug-cc-pvtz aug-cc-pvtz/c tightscf
|  2> %pal nprocs 16 end
|  3>
|  4> * xyz 0 1
|  5> C      0.000000    0.434774        0.000000
|  6> C      1.185792   -0.138856        0.000000
|  7> F     -1.143002   -0.282121        0.000000
|  8> H     -0.195129    1.498103        0.000000
|  9> H      1.296848   -1.213206        0.000000
| 10> H      2.070547    0.478682        0.000000
| 11> *
| 12>
| 13>                          ****END OF INPUT****

CARTESIAN COORDINATES (ANGSTROEM)
---------------------------------
  C      0.000000    0.434774    0.000000
  C      1.185792   -0.138856    0.000000
  F     -1.143002   -0.282121    0.000000
  H     -0.195129    1.498103    0.000000
  H      1.296848   -1.213206    0.000000
  H      2.070547    0.478682    0.000000

 Total Charge           Charge          ....    0
 Multiplicity           Mult            ....    1
 Number of Electrons    NEL             ....   24
 Basis Dimension        Dim             ....  207

ORBITAL ENERGIES
----------------

  NO   OCC          E(Eh)            E(eV)
   0   2.0000     -26.308750      -715.8975
   1   2.0000     -11.328108      -308.2535
   2   2.0000     -11.236217      -305.7530
   3   2.0000      -1.623410       -44.1752
   4   2.0000      -1.054349       -28.6903
   5   2.0000      -0.836524       -22.7630
   6   2.0000      -0.736593       -20.0437
   7   2.0000      -0.688023       -18.7221
   8   2.0000      -0.683940       -18.6109
   9   2.0000      -0.589652       -16.0453
  10   2.0000      -0.559734       -15.2311
  11   2.0000      -0.387558       -10.5460
  12   0.0000       0.030072         0.8183
  13   0.0000       0.038950         1.0599
  14   0.0000       0.046323         1.2605
  15   0.0000       0.089482         2.4349
  16   0.0000       0.090033         2.4499

MULLIKEN ATOMIC CHARGES
-----------------------
   0 C :   -0.175369
   1 C :   -1.037046
   2 F :   -0.403696
   3 H :    0.731745
   4 H :    0.465973
   5 H :    0.418393
Sum of atomic charges:   -0.0000000

LOEWDIN ATOMIC CHARGES
----------------------
   0 C :   -0.207340
   1 C :    0.478065
   2 F :    0.438954
   3 H :   -0.226727
   4 H :   -0.234434
   5 H :   -0.248517

  Mayer bond orders larger than 0.100000
B(  0-C ,  1-C ) :   1.8430 B(  0-C ,  2-F ) :   0.8860 B(  0-C ,  3-H ) :   0.3723
B(  1-C ,  4-H ) :   0.7542 B(  1-C ,  5-H ) :   0.8316

MP2 TOTAL ENERGY:     -177.543009255 Eh
FINAL SINGLE POINT ENERGY      -177.543009255206

DIPOLE MOMENT
-------------
                                X             Y             Z
Electronic contribution:     -3.67501      -0.66446      -0.00000
Nuclear contribution   :      4.21045       1.02024       0.00000
                        -----------------------------------------
Total Dipole Moment    :      0.53544       0.35578      -0.00000
                        -----------------------------------------
Magnitude (a.u.)       :      0.64286
Magnitude (Debye)      :      1.63403

Rotational constants in cm-1:     2.185296     0.353999     0.304649
Rotational constants in MHz : 65513.538543 10612.637307  9133.145275

                             ****ORCA TERMINATED NORMALLY****
TOTAL RUN TIME: 0 days 0 hours 0 minutes 33 seconds 385 msec
