                         Program Version 5.0.3 -  RELEASE  -
|  1> !ri-mp2 aug-cc-pvtz aug-cc-pvtz/c tightscf
|  2> %pal nprocs 16 end
|  3>
|  4> * xyz 0 1
|  5> C      0.000000    0.554399    0.000000
|  6> O      1.166268    0.850486    0.000000
|  7> O     -0.993246    1.475442    0.000000
|  8> C     -0.558650   -0.860872    0.000000
|  9> N      0.418261   -1.927134    0.000000
| 10> H     -0.577661    2.350468    0.000000
| 11> H     -1.213149   -0.954876    0.869365
| 12> H     -1.213149   -0.954876   -0.869365
| 13> H      1.021928   -1.859686    0.809956
| 14> H      1.021928   -1.859686   -0.809956
| 15> *
| 16>
| 17>                          ****END OF INPUT****

CARTESIAN COORDINATES (ANGSTROEM)
---------------------------------
  C      0.000000    0.554399    0.000000
  O      1.166268    0.850486    0.000000
  O     -0.993246    1.475442    0.000000
  C     -0.558650   -0.860872    0.000000
  N      0.418261   -1.927134    0.000000
  H     -0.577661    2.350468    0.000000
  H     -1.213149   -0.954876    0.869365
  H     -1.213149   -0.954876   -0.869365
  H      1.021928   -1.859686    0.809956
  H      1.021928   -1.859686   -0.809956

 Total Charge           Charge          ....    0
 Multiplicity           Mult            ....    1
 Number of Electrons    NEL             ....   40
 Basis Dimension        Dim             ....  345

ORBITAL ENERGIES
----------------

  NO   OCC          E(Eh)            E(eV)
   0   2.0000     -20.619164      -561.0760
   1   2.0000     -20.557776      -559.4055
   2   2.0000     -15.554506      -423.2596
   3   2.0000     -11.389205      -309.9160
   4   2.0000     -11.280435      -306.9562
   5   2.0000      -1.471135       -40.0316
   6   2.0000      -1.369877       -37.2763
   7   2.0000      -1.197943       -32.5977
   8   2.0000      -0.979494       -26.6534
   9   2.0000      -0.818115       -22.2620
  10   2.0000      -0.711347       -19.3567
  11   2.0000      -0.700302       -19.0562
  12   2.0000      -0.696701       -18.9582
  13   2.0000      -0.631326       -17.1792
  14   2.0000      -0.604555       -16.4508
  15   2.0000      -0.589010       -16.0278
  16   2.0000      -0.537168       -14.6171
  17   2.0000      -0.492155       -13.3922
  18   2.0000      -0.469783       -12.7835
  19   2.0000      -0.413285       -11.2461
  20   0.0000       0.027562         0.7500
  21   0.0000       0.038429         1.0457
  22   0.0000       0.041473         1.1285
  23   0.0000       0.046397         1.2625
  24   0.0000       0.067185         1.8282

MULLIKEN ATOMIC CHARGES
-----------------------
   0 C :    0.420941
   1 O :   -0.708117
   2 O :   -0.402012
   3 C :    0.084744
   4 N :   -0.575911
   5 H :    0.255240
   6 H :    0.333061
   7 H :    0.333061
   8 H :    0.129497
   9 H :    0.129497
Sum of atomic charges:    0.0000000

LOEWDIN ATOMIC CHARGES
----------------------
   0 C :   -0.784034
   1 O :    0.439515
   2 O :    0.823316
   3 C :    0.134330
   4 N :    0.829970
   5 H :   -0.473586
   6 H :   -0.160203
   7 H :   -0.160203
   8 H :   -0.324552
   9 H :   -0.324552

  Mayer bond orders larger than 0.100000
B(  0-C ,  1-O ) :   1.5600 B(  0-C ,  2-O ) :   1.0141 B(  0-C ,  3-C ) :   0.6343
B(  2-O ,  5-H ) :   0.9415 B(  3-C ,  4-N ) :   0.7715 B(  3-C ,  6-H ) :   0.9113
B(  3-C ,  7-H ) :   0.9113 B(  4-N ,  8-H ) :   0.9753 B(  4-N ,  9-H ) :   0.9753

MP2 TOTAL ENERGY:     -283.981203851 Eh
FINAL SINGLE POINT ENERGY      -283.981203850700

DIPOLE MOMENT
-------------
                                X             Y             Z
Electronic contribution:      0.54506       3.51472       0.00000
Nuclear contribution   :     -0.95563      -3.25572       0.00000
                        -----------------------------------------
Total Dipole Moment    :     -0.41057       0.25899       0.00000
                        -----------------------------------------
Magnitude (a.u.)       :      0.48543
Magnitude (Debye)      :      1.23387

Rotational constants in cm-1:     0.345713     0.128365     0.096664
Rotational constants in MHz : 10364.225556  3848.297845  2897.902897

                             ****ORCA TERMINATED NORMALLY****
TOTAL RUN TIME: 0 days 0 hours 1 minutes 29 seconds 644 msec
