                         Program Version 5.0.3 -  RELEASE  -
|  1> !ri-mp2 aug-cc-pvtz aug-cc-pvtz/c tightscf
|  2> %pal nprocs 16 end
|  3>
|  4> * xyz 0 1
|  5> H     -0.333392    2.025670   -0.458487
|  6> H      1.594629    0.802015   -1.272848
|  7> H      1.833366   -1.474020   -0.539014
|  8> H     -0.033157    1.529153    1.201325
|  9> C      0.022543    1.205712    0.159355
| 10> H      2.219734    1.139182    0.340551
| 11> C      1.405703    0.669564   -0.207531
| 12> H      1.546270   -1.040847    1.156693
| 13> C      1.270591   -0.821031    0.123306
| 14> O     -2.082550   -0.030351   -0.067109
| 15> C     -0.888795   -0.002092    0.002806
| 16> O     -0.128413   -1.131408   -0.044870
| 17> *
| 18>
| 19>                          ****END OF INPUT****

CARTESIAN COORDINATES (ANGSTROEM)
---------------------------------
  H     -0.333392    2.025670   -0.458487
  H      1.594629    0.802015   -1.272848
  H      1.833366   -1.474020   -0.539014
  H     -0.033157    1.529153    1.201325
  C      0.022543    1.205712    0.159355
  H      2.219734    1.139182    0.340551
  C      1.405703    0.669564   -0.207531
  H      1.546270   -1.040847    1.156693
  C      1.270591   -0.821031    0.123306
  O     -2.082550   -0.030351   -0.067109
  C     -0.888795   -0.002092    0.002806
  O     -0.128413   -1.131408   -0.044870

 Total Charge           Charge          ....    0
 Multiplicity           Mult            ....    1
 Number of Electrons    NEL             ....   46
 Basis Dimension        Dim             ....  414

ORBITAL ENERGIES
----------------

  NO   OCC          E(Eh)            E(eV)
   0   2.0000     -20.602671      -560.6272
   1   2.0000     -20.541316      -558.9576
   2   2.0000     -11.378288      -309.6189
   3   2.0000     -11.304943      -307.6231
   4   2.0000     -11.257338      -306.3278
   5   2.0000     -11.255069      -306.2660
   6   2.0000      -1.457181       -39.6519
   7   2.0000      -1.366185       -37.1758
   8   2.0000      -1.094770       -29.7902
   9   2.0000      -0.992330       -27.0027
  10   2.0000      -0.857727       -23.3399
  11   2.0000      -0.777541       -21.1580
  12   2.0000      -0.711869       -19.3709
  13   2.0000      -0.695619       -18.9287
  14   2.0000      -0.649280       -17.6678
  15   2.0000      -0.611974       -16.6527
  16   2.0000      -0.596482       -16.2311
  17   2.0000      -0.581314       -15.8184
  18   2.0000      -0.540214       -14.7000
  19   2.0000      -0.518537       -14.1101
  20   2.0000      -0.501301       -13.6411
  21   2.0000      -0.455031       -12.3820
  22   2.0000      -0.437329       -11.9003
  23   0.0000       0.022204         0.6042
  24   0.0000       0.033661         0.9159
  25   0.0000       0.034818         0.9474
  26   0.0000       0.042993         1.1699
  27   0.0000       0.054951         1.4953

MULLIKEN ATOMIC CHARGES
-----------------------
   0 H :    0.316802
   1 H :    0.263075
   2 H :    0.348543
   3 H :    0.247978
   4 C :   -0.273611
   5 H :    0.331975
   6 C :   -0.549797
   7 H :    0.293239
   8 C :   -0.272065
   9 O :   -0.733704
  10 C :    0.403396
  11 O :   -0.375830
Sum of atomic charges:    0.0000000

LOEWDIN ATOMIC CHARGES
----------------------
   0 H :   -0.150083
   1 H :   -0.148776
   2 H :   -0.155314
   3 H :   -0.144605
   4 C :    0.299322
   5 H :   -0.145496
   6 C :    0.298895
   7 H :   -0.151351
   8 C :    0.089667
   9 O :    0.427516
  10 C :   -0.794920
  11 O :    0.575145

  Mayer bond orders larger than 0.100000
B(  0-H ,  4-C ) :   0.9155 B(  1-H ,  6-C ) :   0.9438 B(  2-H ,  8-C ) :   0.9103
B(  3-H ,  4-C ) :   0.9277 B(  4-C ,  6-C ) :   0.9647 B(  4-C , 10-C ) :   0.6589
B(  5-H ,  6-C ) :   0.9017 B(  6-C ,  8-C ) :   0.9427 B(  7-H ,  8-C ) :   0.9457
B(  8-C , 11-O ) :   0.6960 B(  9-O , 10-C ) :   1.5091 B( 10-C , 11-O ) :   1.0676

MP2 TOTAL ENERGY:     -305.958578647 Eh
FINAL SINGLE POINT ENERGY      -305.958578647246

DIPOLE MOMENT
-------------
                                X             Y             Z
Electronic contribution:     -4.88762      -2.28058      -0.25861
Nuclear contribution   :      6.81637       2.97321       0.42795
                        -----------------------------------------
Total Dipole Moment    :      1.92875       0.69263       0.16934
                        -----------------------------------------
Magnitude (a.u.)       :      2.05633
Magnitude (Debye)      :      5.22678

Rotational constants in cm-1:     0.243541     0.119253     0.085032
Rotational constants in MHz :  7301.161003  3575.103980  2549.186775

                             ****ORCA TERMINATED NORMALLY****
TOTAL RUN TIME: 0 days 0 hours 2 minutes 31 seconds 680 msec
