                         Program Version 5.0.3 -  RELEASE  -
|  1> !ri-mp2 aug-cc-pvtz aug-cc-pvtz/c tightscf
|  2> %pal nprocs 16 end
|  3> %maxcore 3800
|  4>
|  5> * xyz 0 1
|  6> N     -1.424042    1.687954   -0.315662
|  7> C     -1.175219    0.248620   -0.494595
|  8> C     -2.365563   -0.567051    0.058790
|  9> O     -2.366240   -1.768365    0.103385
| 10> O     -3.404107    0.178411    0.450947
| 11> H     -3.124488    1.108651    0.299481
| 12> C      0.140646   -0.242894    0.117615
| 13> C      1.376852    0.225616   -0.655543
| 14> C      2.649673    0.036162    0.158499
| 15> O      2.767995    0.503567    1.276755
| 16> N      3.647934   -0.665145   -0.444780
| 17> H     -1.174045    0.033000   -1.566491
| 18> H      0.210972    0.115142    1.147316
| 19> H      0.114142   -1.330876    0.160468
| 20> H      1.436071   -0.283556   -1.619729
| 21> H      1.310231    1.297639   -0.858898
| 22> H      3.536523   -1.093206   -1.344786
| 23> H      4.500031   -0.822115    0.066469
| 24> H     -0.866188    2.078023    0.433662
| 25> H     -1.250015    2.226005   -1.151686
| 26> *
| 27>
| 28>                          ****END OF INPUT****

CARTESIAN COORDINATES (ANGSTROEM)
---------------------------------
  N     -1.424042    1.687954   -0.315662
  C     -1.175219    0.248620   -0.494595
  C     -2.365563   -0.567051    0.058790
  O     -2.366240   -1.768365    0.103385
  O     -3.404107    0.178411    0.450947
  H     -3.124488    1.108651    0.299481
  C      0.140646   -0.242894    0.117615
  C      1.376852    0.225616   -0.655543
  C      2.649673    0.036162    0.158499
  O      2.767995    0.503567    1.276755
  N      3.647934   -0.665145   -0.444780
  H     -1.174045    0.033000   -1.566491
  H      0.210972    0.115142    1.147316
  H      0.114142   -1.330876    0.160468
  H      1.436071   -0.283556   -1.619729
  H      1.310231    1.297639   -0.858898
  H      3.536523   -1.093206   -1.344786
  H      4.500031   -0.822115    0.066469
  H     -0.866188    2.078023    0.433662
  H     -1.250015    2.226005   -1.151686

 Total Charge           Charge          ....    0
 Multiplicity           Mult            ....    1
 Number of Electrons    NEL             ....   78
 Basis Dimension        Dim             ....  690

ORBITAL ENERGIES
----------------

  NO   OCC          E(Eh)            E(eV)
   0   2.0000     -20.597026      -560.4736
   1   2.0000     -20.536246      -558.8197
   2   2.0000     -20.528533      -558.6098
   3   2.0000     -15.598316      -424.4518
   4   2.0000     -15.586391      -424.1273
   5   2.0000     -11.375742      -309.5497
   6   2.0000     -11.364553      -309.2452
   7   2.0000     -11.299339      -307.4706
   8   2.0000     -11.259763      -306.3937
   9   2.0000     -11.249599      -306.1171
  10   2.0000      -1.452538       -39.5256
  11   2.0000      -1.392747       -37.8986
  12   2.0000      -1.356955       -36.9246
  13   2.0000      -1.227759       -33.4090
  14   2.0000      -1.224174       -33.3115
  15   2.0000      -1.082803       -29.4646
  16   2.0000      -0.987008       -26.8579
  17   2.0000      -0.881279       -23.9808
  18   2.0000      -0.806894       -21.9567
  19   2.0000      -0.801609       -21.8129
  20   2.0000      -0.748714       -20.3735
  21   2.0000      -0.729379       -19.8474
  22   2.0000      -0.705649       -19.2017
  23   2.0000      -0.689821       -18.7710
  24   2.0000      -0.667024       -18.1507
  25   2.0000      -0.635494       -17.2927
  26   2.0000      -0.625173       -17.0118
  27   2.0000      -0.619995       -16.8709
  28   2.0000      -0.602564       -16.3966
  29   2.0000      -0.583145       -15.8682
  30   2.0000      -0.564101       -15.3500
  31   2.0000      -0.533813       -14.5258
  32   2.0000      -0.516161       -14.0455
  33   2.0000      -0.512028       -13.9330
  34   2.0000      -0.472432       -12.8555
  35   2.0000      -0.466430       -12.6922
  36   2.0000      -0.438503       -11.9323
  37   2.0000      -0.426393       -11.6027
  38   2.0000      -0.416195       -11.3253
  39   0.0000       0.015153         0.4123
  40   0.0000       0.023485         0.6391
  41   0.0000       0.033161         0.9024
  42   0.0000       0.041488         1.1289
  43   0.0000       0.046797         1.2734

MULLIKEN ATOMIC CHARGES
-----------------------
   0 N :   -0.518901
   1 C :    0.516339
   2 C :    0.498284
   3 O :   -0.811418
   4 O :   -0.553580
   5 H :    0.253145
   6 C :   -0.344786
   7 C :   -0.067355
   8 C :    0.529185
   9 O :   -0.881550
  10 N :   -0.415036
  11 H :    0.367562
  12 H :    0.249669
  13 H :    0.283207
  14 H :    0.158282
  15 H :    0.285295
  16 H :    0.121491
  17 H :    0.165616
  18 H :    0.114275
  19 H :    0.050274
Sum of atomic charges:   -0.0000000

LOEWDIN ATOMIC CHARGES
----------------------
   0 N :    0.874459
   1 C :   -0.094127
   2 C :   -0.769855
   3 O :    0.438370
   4 O :    0.841786
   5 H :   -0.591311
   6 C :    0.291212
   7 C :    0.290928
   8 C :   -0.665891
   9 O :    0.440132
  10 N :    0.860561
  11 H :   -0.132871
  12 H :   -0.149014
  13 H :   -0.153096
  14 H :   -0.156277
  15 H :   -0.151139
  16 H :   -0.304900
  17 H :   -0.288442
  18 H :   -0.291476
  19 H :   -0.289050

  Mayer bond orders larger than 0.100000
B(  0-N ,  1-C ) :   0.5774 B(  0-N ,  2-C ) :   0.1957 B(  0-N ,  5-H ) :   0.1212
B(  0-N , 18-H ) :   0.9832 B(  0-N , 19-H ) :   1.0638 B(  1-C ,  2-C ) :   0.5803
B(  1-C ,  6-C ) :   0.8838 B(  1-C , 11-H ) :   0.9152 B(  2-C ,  3-O ) :   1.3596
B(  2-C ,  4-O ) :   0.7522 B(  4-O ,  5-H ) :   0.8500 B(  6-C ,  7-C ) :   0.8661
B(  6-C , 12-H ) :   1.0146 B(  6-C , 13-H ) :   0.9086 B(  7-C ,  8-C ) :   0.5195
B(  7-C , 10-N ) :  -0.1151 B(  7-C , 14-H ) :   1.0150 B(  7-C , 15-H ) :   0.9410
B(  8-C ,  9-O ) :   1.2955 B(  8-C , 10-N ) :   0.9700 B( 10-N , 16-H ) :   1.0877
B( 10-N , 17-H ) :   1.0209

MP2 TOTAL ENERGY:     -530.878959394 Eh
FINAL SINGLE POINT ENERGY      -530.878959394466

DIPOLE MOMENT
-------------
                                X             Y             Z
Electronic contribution:     -3.25383      -2.28756       2.54204
Nuclear contribution   :      4.66992       3.32539      -4.42016
                        -----------------------------------------
Total Dipole Moment    :      1.41609       1.03783      -1.87813
                        -----------------------------------------
Magnitude (a.u.)       :      2.57094
Magnitude (Debye)      :      6.53482

Rotational constants in cm-1:     0.096270     0.018589     0.017264
Rotational constants in MHz :  2886.106752   557.277388   517.562243

                             ****ORCA TERMINATED NORMALLY****
TOTAL RUN TIME: 0 days 0 hours 9 minutes 54 seconds 912 msec
