                         Program Version 5.0.3 -  RELEASE  -
|  1> !ri-mp2 aug-cc-pvtz aug-cc-pvtz/c tightscf
|  2> %pal nprocs 16 end
|  3> %maxcore 3800
|  4>
|  5> * xyz 0 1
|  6> N      0.630582    1.427132    0.497820
|  7> C      0.942174   -0.008642    0.479325
|  8> C      2.405547   -0.219182    0.025066
|  9> O      2.939125   -1.297716    0.031446
| 10> O      3.012778    0.899944   -0.375393
| 11> H      2.332608    1.605804   -0.257569
| 12> C      0.024429   -0.827843   -0.440883
| 13> C     -1.389805   -1.084945    0.084499
| 14> C     -2.385902    0.029375   -0.119800
| 15> O     -2.158654    1.123873   -0.578738
| 16> O     -3.623769   -0.339435    0.271599
| 17> H      0.891335   -0.439220    1.483407
| 18> H     -0.025257   -0.346028   -1.419975
| 19> H      0.508995   -1.791744   -0.586679
| 20> H     -1.813631   -1.966586   -0.401442
| 21> H     -1.380996   -1.327411    1.150793
| 22> H     -0.248077    1.634248    0.037933
| 23> H      0.602211    1.803939    1.434644
| 24> H     -4.215760    0.411176    0.113596
| 25> *
| 26>
| 27>                          ****END OF INPUT****

CARTESIAN COORDINATES (ANGSTROEM)
---------------------------------
  N      0.630582    1.427132    0.497820
  C      0.942174   -0.008642    0.479325
  C      2.405547   -0.219182    0.025066
  O      2.939125   -1.297716    0.031446
  O      3.012778    0.899944   -0.375393
  H      2.332608    1.605804   -0.257569
  C      0.024429   -0.827843   -0.440883
  C     -1.389805   -1.084945    0.084499
  C     -2.385902    0.029375   -0.119800
  O     -2.158654    1.123873   -0.578738
  O     -3.623769   -0.339435    0.271599
  H      0.891335   -0.439220    1.483407
  H     -0.025257   -0.346028   -1.419975
  H      0.508995   -1.791744   -0.586679
  H     -1.813631   -1.966586   -0.401442
  H     -1.380996   -1.327411    1.150793
  H     -0.248077    1.634248    0.037933
  H      0.602211    1.803939    1.434644
  H     -4.215760    0.411176    0.113596

 Total Charge           Charge          ....    0
 Multiplicity           Mult            ....    1
 Number of Electrons    NEL             ....   78
 Basis Dimension        Dim             ....  667

ORBITAL ENERGIES
----------------

  NO   OCC          E(Eh)            E(eV)
   0   2.0000     -20.635342      -561.5162
   1   2.0000     -20.592168      -560.3414
   2   2.0000     -20.576514      -559.9154
   3   2.0000     -20.532259      -558.7112
   4   2.0000     -15.570251      -423.6881
   5   2.0000     -11.413364      -310.5734
   6   2.0000     -11.370626      -309.4105
   7   2.0000     -11.294157      -307.3296
   8   2.0000     -11.272466      -306.7394
   9   2.0000     -11.256312      -306.2998
  10   2.0000      -1.490887       -40.5691
  11   2.0000      -1.448177       -39.4069
  12   2.0000      -1.388049       -37.7707
  13   2.0000      -1.352472       -36.8026
  14   2.0000      -1.216299       -33.0972
  15   2.0000      -1.096104       -29.8265
  16   2.0000      -0.997997       -27.1569
  17   2.0000      -0.899794       -24.4846
  18   2.0000      -0.818070       -22.2608
  19   2.0000      -0.797643       -21.7050
  20   2.0000      -0.735729       -20.0202
  21   2.0000      -0.730907       -19.8890
  22   2.0000      -0.726912       -19.7803
  23   2.0000      -0.690730       -18.7957
  24   2.0000      -0.680033       -18.5046
  25   2.0000      -0.659855       -17.9556
  26   2.0000      -0.626551       -17.0493
  27   2.0000      -0.618609       -16.8332
  28   2.0000      -0.610996       -16.6261
  29   2.0000      -0.597354       -16.2548
  30   2.0000      -0.569379       -15.4936
  31   2.0000      -0.542629       -14.7657
  32   2.0000      -0.531180       -14.4541
  33   2.0000      -0.516052       -14.0425
  34   2.0000      -0.508804       -13.8453
  35   2.0000      -0.479107       -13.0372
  36   2.0000      -0.466827       -12.7030
  37   2.0000      -0.459136       -12.4937
  38   2.0000      -0.410483       -11.1698
  39   0.0000       0.018453         0.5021
  40   0.0000       0.029246         0.7958
  41   0.0000       0.033284         0.9057
  42   0.0000       0.037962         1.0330
  43   0.0000       0.052867         1.4386

MULLIKEN ATOMIC CHARGES
-----------------------
   0 N :   -0.632442
   1 C :    0.536214
   2 C :    0.588707
   3 O :   -0.829003
   4 O :   -0.557886
   5 H :    0.270468
   6 C :   -0.431106
   7 C :   -0.159095
   8 C :    0.519769
   9 O :   -0.741299
  10 O :   -0.484140
  11 H :    0.390305
  12 H :    0.313365
  13 H :    0.209933
  14 H :    0.286550
  15 H :    0.181142
  16 H :    0.263764
  17 H :    0.020643
  18 H :    0.254110
Sum of atomic charges:   -0.0000000

LOEWDIN ATOMIC CHARGES
----------------------
   0 N :    0.884847
   1 C :   -0.090127
   2 C :   -0.779746
   3 O :    0.433409
   4 O :    0.840491
   5 H :   -0.594000
   6 C :    0.299808
   7 C :    0.302113
   8 C :   -0.750219
   9 O :    0.502149
  10 O :    0.842558
  11 H :   -0.138825
  12 H :   -0.135335
  13 H :   -0.160223
  14 H :   -0.148437
  15 H :   -0.145681
  16 H :   -0.418187
  17 H :   -0.279908
  18 H :   -0.464686

  Mayer bond orders larger than 0.100000
B(  0-N ,  1-C ) :   0.4822 B(  0-N ,  2-C ) :   0.2125 B(  0-N ,  5-H ) :   0.1424
B(  0-N , 16-H ) :   0.8784 B(  0-N , 17-H ) :   1.0961 B(  1-C ,  2-C ) :   0.6597
B(  1-C ,  6-C ) :   0.8939 B(  1-C , 11-H ) :   0.9089 B(  2-C ,  3-O ) :   1.3368
B(  2-C ,  4-O ) :   0.8102 B(  2-C ,  6-C ) :   0.1027 B(  4-O ,  5-H ) :   0.8217
B(  6-C ,  7-C ) :   0.9438 B(  6-C , 12-H ) :   0.9310 B(  6-C , 13-H ) :   0.9740
B(  7-C ,  8-C ) :   0.5457 B(  7-C , 14-H ) :   0.9691 B(  7-C , 15-H ) :   0.9802
B(  8-C ,  9-O ) :   1.4545 B(  8-C , 10-O ) :   0.9578 B( 10-O , 18-H ) :   0.9664

MP2 TOTAL ENERGY:     -550.749432907 Eh
FINAL SINGLE POINT ENERGY      -550.749432907282

DIPOLE MOMENT
-------------
                                X             Y             Z
Electronic contribution:      1.04925       0.78106      -0.80083
Nuclear contribution   :     -3.32765      -0.39960       1.54063
                        -----------------------------------------
Total Dipole Moment    :     -2.27841       0.38145       0.73981
                        -----------------------------------------
Magnitude (a.u.)       :      2.42569
Magnitude (Debye)      :      6.16561

Rotational constants in cm-1:     0.107230     0.021037     0.018588
Rotational constants in MHz :  3214.677791   630.674440   557.259974

                             ****ORCA TERMINATED NORMALLY****
TOTAL RUN TIME: 0 days 0 hours 9 minutes 43 seconds 884 msec
