                         Program Version 5.0.3 -  RELEASE  -
|  1> !ri-mp2 aug-cc-pvtz aug-cc-pvtz/c tightscf
|  2> %pal nprocs 16 end
|  3>
|  4> * xyz 0 1
|  5> C     -0.738863   -0.744609    0.000092
|  6> C      0.514163    0.098603    0.000027
|  7> O      1.636178   -0.642444   -0.000068
|  8> O      0.505630    1.304270    0.000046
|  9> O     -1.893095    0.053802   -0.000097
| 10> H     -0.715437   -1.394908   -0.880519
| 11> H     -0.715499   -1.394600    0.880937
| 12> H     -1.602727    0.976904   -0.000086
| 13> H      2.392158   -0.036383   -0.000096
| 14> *
| 15>
| 16>                          ****END OF INPUT****

CARTESIAN COORDINATES (ANGSTROEM)
---------------------------------
  C     -0.738863   -0.744609    0.000092
  C      0.514163    0.098603    0.000027
  O      1.636178   -0.642444   -0.000068
  O      0.505630    1.304270    0.000046
  O     -1.893095    0.053802   -0.000097
  H     -0.715437   -1.394908   -0.880519
  H     -0.715499   -1.394600    0.880937
  H     -1.602727    0.976904   -0.000086
  H      2.392158   -0.036383   -0.000096

 Total Charge           Charge          ....    0
 Multiplicity           Mult            ....    1
 Number of Electrons    NEL             ....   40
 Basis Dimension        Dim             ....  322

ORBITAL ENERGIES
----------------

  NO   OCC          E(Eh)            E(eV)
   0   2.0000     -20.634731      -561.4996
   1   2.0000     -20.573220      -559.8258
   2   2.0000     -20.570094      -559.7407
   3   2.0000     -11.405875      -310.3696
   4   2.0000     -11.308774      -307.7274
   5   2.0000      -1.489266       -40.5250
   6   2.0000      -1.394786       -37.9540
   7   2.0000      -1.369728       -37.2722
   8   2.0000      -1.009754       -27.4768
   9   2.0000      -0.839771       -22.8513
  10   2.0000      -0.746476       -20.3126
  11   2.0000      -0.728084       -19.8122
  12   2.0000      -0.686932       -18.6924
  13   2.0000      -0.650261       -17.6945
  14   2.0000      -0.615291       -16.7429
  15   2.0000      -0.614355       -16.7174
  16   2.0000      -0.545513       -14.8442
  17   2.0000      -0.507359       -13.8059
  18   2.0000      -0.478181       -13.0120
  19   2.0000      -0.466892       -12.7048
  20   0.0000       0.025059         0.6819
  21   0.0000       0.039640         1.0787
  22   0.0000       0.044022         1.1979
  23   0.0000       0.051149         1.3918
  24   0.0000       0.084153         2.2899

MULLIKEN ATOMIC CHARGES
-----------------------
   0 C :    0.131284
   1 C :    0.404963
   2 O :   -0.396154
   3 O :   -0.698539
   4 O :   -0.568567
   5 H :    0.320416
   6 H :    0.320390
   7 H :    0.235094
   8 H :    0.251113
Sum of atomic charges:   -0.0000000

LOEWDIN ATOMIC CHARGES
----------------------
   0 C :    0.017152
   1 C :   -0.779401
   2 O :    0.835692
   3 O :    0.469980
   4 O :    0.813492
   5 H :   -0.164864
   6 H :   -0.164858
   7 H :   -0.565073
   8 H :   -0.462121

  Mayer bond orders larger than 0.100000
B(  0-C ,  1-C ) :   0.7189 B(  0-C ,  4-O ) :   0.7681 B(  0-C ,  5-H ) :   0.9210
B(  0-C ,  6-H ) :   0.9210 B(  1-C ,  2-O ) :   1.0416 B(  1-C ,  3-O ) :   1.5261
B(  2-O ,  8-H ) :   0.9435 B(  4-O ,  7-H ) :   0.9513

MP2 TOTAL ENERGY:     -303.843598500 Eh
FINAL SINGLE POINT ENERGY      -303.843598499604

DIPOLE MOMENT
-------------
                                X             Y             Z
Electronic contribution:      1.43287       1.33167      -0.00015
Nuclear contribution   :     -0.62980      -1.81528       0.00023
                        -----------------------------------------
Total Dipole Moment    :      0.80307      -0.48361       0.00008
                        -----------------------------------------
Magnitude (a.u.)       :      0.93745
Magnitude (Debye)      :      2.38280

Rotational constants in cm-1:     0.358326     0.134926     0.099833
Rotational constants in MHz : 10742.349264  4044.974863  2992.924897

                             ****ORCA TERMINATED NORMALLY****
TOTAL RUN TIME: 0 days 0 hours 1 minutes 10 seconds 41 msec
