                         Program Version 5.0.3 -  RELEASE  -
|  1> !ri-mp2 aug-cc-pvtz aug-cc-pvtz/c tightscf
|  2> %pal nprocs 16 end
|  3>
|  4> * xyz 0 1
|  5> O     -2.417963    0.047987   -0.123897
|  6> H     -1.254547   -0.774720    1.304580
|  7> H     -1.302489   -1.718686   -0.195314
|  8> C     -1.251091   -0.706463    0.216624
|  9> O      0.061919    1.328254    0.263126
| 10> H      0.015456    0.038391   -1.353421
| 11> C      0.012297    0.000165   -0.254588
| 12> H      1.281639   -0.756010    1.300499
| 13> H      1.324011   -1.707294   -0.195753
| 14> C      1.283432   -0.694142    0.205599
| 15> H      2.364208    0.899324   -0.013832
| 16> O      2.446879   -0.029282   -0.258813
| 17> H     -0.816557    1.714063    0.164460
| 18> H     -2.606229   -0.068088   -1.060358
| 19> *
| 20>
| 21>                          ****END OF INPUT****

CARTESIAN COORDINATES (ANGSTROEM)
---------------------------------
  O     -2.417963    0.047987   -0.123897
  H     -1.254547   -0.774720    1.304580
  H     -1.302489   -1.718686   -0.195314
  C     -1.251091   -0.706463    0.216624
  O      0.061919    1.328254    0.263126
  H      0.015456    0.038391   -1.353421
  C      0.012297    0.000165   -0.254588
  H      1.281639   -0.756010    1.300499
  H      1.324011   -1.707294   -0.195753
  C      1.283432   -0.694142    0.205599
  H      2.364208    0.899324   -0.013832
  O      2.446879   -0.029282   -0.258813
  H     -0.816557    1.714063    0.164460
  H     -2.606229   -0.068088   -1.060358

 Total Charge           Charge          ....    0
 Multiplicity           Mult            ....    1
 Number of Electrons    NEL             ....   50
 Basis Dimension        Dim             ....  460

ORBITAL ENERGIES
----------------

  NO   OCC          E(Eh)            E(eV)
   0   2.0000     -20.580228      -560.0165
   1   2.0000     -20.565209      -559.6078
   2   2.0000     -20.555139      -559.3338
   3   2.0000     -11.292418      -307.2823
   4   2.0000     -11.288733      -307.1820
   5   2.0000     -11.279927      -306.9424
   6   2.0000      -1.390784       -37.8451
   7   2.0000      -1.368393       -37.2359
   8   2.0000      -1.347781       -36.6750
   9   2.0000      -1.041534       -28.3416
  10   2.0000      -0.922483       -25.1020
  11   2.0000      -0.827768       -22.5247
  12   2.0000      -0.732822       -19.9411
  13   2.0000      -0.708067       -19.2675
  14   2.0000      -0.679557       -18.4917
  15   2.0000      -0.649297       -17.6683
  16   2.0000      -0.625975       -17.0337
  17   2.0000      -0.588852       -16.0235
  18   2.0000      -0.581075       -15.8119
  19   2.0000      -0.540886       -14.7183
  20   2.0000      -0.531093       -14.4518
  21   2.0000      -0.507779       -13.8174
  22   2.0000      -0.484814       -13.1925
  23   2.0000      -0.445104       -12.1119
  24   2.0000      -0.439827       -11.9683
  25   0.0000       0.024497         0.6666
  26   0.0000       0.035128         0.9559
  27   0.0000       0.039245         1.0679
  28   0.0000       0.043073         1.1721
  29   0.0000       0.057867         1.5746

MULLIKEN ATOMIC CHARGES
-----------------------
   0 O :   -0.612639
   1 H :    0.333432
   2 H :    0.321351
   3 C :   -0.282296
   4 O :   -0.676724
   5 H :    0.283377
   6 C :    0.360482
   7 H :    0.258114
   8 H :    0.336636
   9 C :   -0.226346
  10 H :    0.204505
  11 O :   -0.648301
  12 H :    0.184191
  13 H :    0.164218
Sum of atomic charges:   -0.0000000

LOEWDIN ATOMIC CHARGES
----------------------
   0 O :    0.816449
   1 H :   -0.157802
   2 H :   -0.147827
   3 C :    0.055609
   4 O :    0.831558
   5 H :   -0.138433
   6 C :   -0.277258
   7 H :   -0.151572
   8 H :   -0.160540
   9 C :    0.027183
  10 H :   -0.516791
  11 O :    0.813827
  12 H :   -0.508353
  13 H :   -0.486051

  Mayer bond orders larger than 0.100000
B(  0-O ,  3-C ) :   0.7541 B(  0-O , 13-H ) :   0.9996 B(  1-H ,  3-C ) :   0.8960
B(  2-H ,  3-C ) :   0.9325 B(  3-C ,  6-C ) :   0.9073 B(  4-O ,  6-C ) :   0.5571
B(  4-O , 12-H ) :   0.9865 B(  5-H ,  6-C ) :   0.9178 B(  6-C ,  9-C ) :   0.8416
B(  7-H ,  9-C ) :   0.9944 B(  8-H ,  9-C ) :   0.9204 B(  9-C , 11-O ) :   0.7210
B( 10-H , 11-O ) :   0.9719

MP2 TOTAL ENERGY:     -344.237393182 Eh
FINAL SINGLE POINT ENERGY      -344.237393182142

DIPOLE MOMENT
-------------
                                X             Y             Z
Electronic contribution:      0.21835       1.97639      -0.29925
Nuclear contribution   :     -1.01259      -2.39800      -0.05203
                        -----------------------------------------
Total Dipole Moment    :     -0.79424      -0.42161      -0.35128
                        -----------------------------------------
Magnitude (a.u.)       :      0.96538
Magnitude (Debye)      :      2.45381

Rotational constants in cm-1:     0.273546     0.065189     0.056423
Rotational constants in MHz :  8200.708611  1954.318977  1691.529264

                             ****ORCA TERMINATED NORMALLY****
TOTAL RUN TIME: 0 days 0 hours 2 minutes 56 seconds 871 msec
