                         Program Version 5.0.3 -  RELEASE  -
|  1> !ri-mp2 aug-cc-pvtz aug-cc-pvtz/c tightscf
|  2> %pal nprocs 16 end
|  3>
|  4> * xyz 0 1
|  5> C     -0.017919    0.121480    0.000209
|  6> N     -0.222845    1.381237    0.009408
|  7> N     -0.973006   -0.891055    0.074673
|  8> N      1.277018   -0.374139   -0.080092
|  9> H     -1.210366    1.609782   -0.043242
| 10> H     -1.924501   -0.586118   -0.046428
| 11> H     -0.761135   -1.727618   -0.447294
| 12> H      1.968806    0.351343    0.024724
| 13> H      1.466538   -1.188574    0.483063
| 14> *
| 15>
| 16>                          ****END OF INPUT****

CARTESIAN COORDINATES (ANGSTROEM)
---------------------------------
  C     -0.017919    0.121480    0.000209
  N     -0.222845    1.381237    0.009408
  N     -0.973006   -0.891055    0.074673
  N      1.277018   -0.374139   -0.080092
  H     -1.210366    1.609782   -0.043242
  H     -1.924501   -0.586118   -0.046428
  H     -0.761135   -1.727618   -0.447294
  H      1.968806    0.351343    0.024724
  H      1.466538   -1.188574    0.483063

 Total Charge           Charge          ....    0
 Multiplicity           Mult            ....    1
 Number of Electrons    NEL             ....   32
 Basis Dimension        Dim             ....  299

ORBITAL ENERGIES
----------------

  NO   OCC          E(Eh)            E(eV)
   0   2.0000     -15.580565      -423.9687
   1   2.0000     -15.569549      -423.6690
   2   2.0000     -15.510776      -422.0697
   3   2.0000     -11.344488      -308.6992
   4   2.0000      -1.295565       -35.2541
   5   2.0000      -1.168711       -31.8023
   6   2.0000      -1.132920       -30.8283
   7   2.0000      -0.811939       -22.0940
   8   2.0000      -0.729962       -19.8633
   9   2.0000      -0.710058       -19.3217
  10   2.0000      -0.630089       -17.1456
  11   2.0000      -0.611937       -16.6517
  12   2.0000      -0.564513       -15.3612
  13   2.0000      -0.435672       -11.8552
  14   2.0000      -0.421916       -11.4809
  15   2.0000      -0.364642        -9.9224
  16   0.0000       0.023330         0.6348
  17   0.0000       0.034921         0.9503
  18   0.0000       0.043391         1.1807
  19   0.0000       0.056119         1.5271
  20   0.0000       0.061741         1.6801

MULLIKEN ATOMIC CHARGES
-----------------------
   0 C :    0.440058
   1 N :   -0.630460
   2 N :   -0.300101
   3 N :   -0.265906
   4 H :    0.159554
   5 H :    0.148696
   6 H :    0.143970
   7 H :    0.190416
   8 H :    0.113772
Sum of atomic charges:    0.0000000

LOEWDIN ATOMIC CHARGES
----------------------
   0 C :   -0.604778
   1 N :    0.626693
   2 N :    0.854898
   3 N :    0.836923
   4 H :   -0.461077
   5 H :   -0.312900
   6 H :   -0.310000
   7 H :   -0.318021
   8 H :   -0.311738

  Mayer bond orders larger than 0.100000
B(  0-C ,  1-N ) :   1.4993 B(  0-C ,  2-N ) :   0.8930 B(  0-C ,  3-N ) :   0.8881
B(  1-N ,  4-H ) :   0.9441 B(  2-N ,  5-H ) :   1.0105 B(  2-N ,  6-H ) :   1.0100
B(  3-N ,  7-H ) :   0.9534 B(  3-N ,  8-H ) :   1.0440

MP2 TOTAL ENERGY:     -205.018392673 Eh
FINAL SINGLE POINT ENERGY      -205.018392672637

DIPOLE MOMENT
-------------
                                X             Y             Z
Electronic contribution:      0.13189       0.40815       0.01212
Nuclear contribution   :     -0.46818      -1.56727      -0.02966
                        -----------------------------------------
Total Dipole Moment    :     -0.33629      -1.15912      -0.01754
                        -----------------------------------------
Magnitude (a.u.)       :      1.20704
Magnitude (Debye)      :      3.06806

Rotational constants in cm-1:     0.352438     0.340669     0.175312
Rotational constants in MHz : 10565.814728 10212.998553  5255.719686

                             ****ORCA TERMINATED NORMALLY****
TOTAL RUN TIME: 0 days 0 hours 1 minutes 12 seconds 864 msec
