                         Program Version 5.0.3 -  RELEASE  -
|  1> !ri-mp2 aug-cc-pvtz aug-cc-pvtz/c tightscf
|  2> %pal nprocs 16 end
|  3> %maxcore 3800
|  4>
|  5> * xyz 0 1
|  6> C      1.115853    0.989979    0.201060
|  7> C     -0.314474    1.262685   -0.244860
|  8> C      1.590049   -0.399146   -0.223279
|  9> C     -1.222885    0.133264    0.240191
| 10> C      0.581955   -1.449023    0.245268
| 11> C     -2.647642    0.247392   -0.273872
| 12> O     -0.712544   -1.117915   -0.238783
| 13> O      1.938737    2.012668   -0.343122
| 14> O     -0.797977    2.486634    0.288000
| 15> O      2.916634   -0.629266    0.240675
| 16> O      0.944839   -2.686590   -0.268393
| 17> O     -3.477430   -0.790535    0.223836
| 18> H      1.140111    1.046893    1.299737
| 19> H     -0.336642    1.288486   -1.341217
| 20> H      1.646637   -0.454256   -1.310960
| 21> H     -1.241659    0.127736    1.337503
| 22> H      0.545143   -1.472520    1.349105
| 23> H     -2.633844    0.247751   -1.369821
| 24> H     -3.076579    1.187253    0.065541
| 25> H      2.858515    1.774040   -0.179127
| 26> H     -0.153038    3.172141    0.080576
| 27> H      2.899013   -0.846682    1.179337
| 28> H      0.327548   -3.352594    0.052774
| 29> H     -3.090410   -1.629125   -0.048206
| 30> *
| 31>
| 32>                          ****END OF INPUT****

CARTESIAN COORDINATES (ANGSTROEM)
---------------------------------
  C      1.115853    0.989979    0.201060
  C     -0.314474    1.262685   -0.244860
  C      1.590049   -0.399146   -0.223279
  C     -1.222885    0.133264    0.240191
  C      0.581955   -1.449023    0.245268
  C     -2.647642    0.247392   -0.273872
  O     -0.712544   -1.117915   -0.238783
  O      1.938737    2.012668   -0.343122
  O     -0.797977    2.486634    0.288000
  O      2.916634   -0.629266    0.240675
  O      0.944839   -2.686590   -0.268393
  O     -3.477430   -0.790535    0.223836
  H      1.140111    1.046893    1.299737
  H     -0.336642    1.288486   -1.341217
  H      1.646637   -0.454256   -1.310960
  H     -1.241659    0.127736    1.337503
  H      0.545143   -1.472520    1.349105
  H     -2.633844    0.247751   -1.369821
  H     -3.076579    1.187253    0.065541
  H      2.858515    1.774040   -0.179127
  H     -0.153038    3.172141    0.080576
  H      2.899013   -0.846682    1.179337
  H      0.327548   -3.352594    0.052774
  H     -3.090410   -1.629125   -0.048206

 Total Charge           Charge          ....    0
 Multiplicity           Mult            ....    1
 Number of Electrons    NEL             ....   96
 Basis Dimension        Dim             ....  828

ORBITAL ENERGIES
----------------

  NO   OCC          E(Eh)            E(eV)
   0   2.0000     -20.586781      -560.1948
   1   2.0000     -20.585676      -560.1647
   2   2.0000     -20.584896      -560.1435
   3   2.0000     -20.577022      -559.9292
   4   2.0000     -20.571505      -559.7791
   5   2.0000     -20.558692      -559.4305
   6   2.0000     -11.361014      -309.1489
   7   2.0000     -11.301499      -307.5294
   8   2.0000     -11.299772      -307.4824
   9   2.0000     -11.297943      -307.4327
  10   2.0000     -11.297080      -307.4092
  11   2.0000     -11.278663      -306.9080
  12   2.0000      -1.442572       -39.2544
  13   2.0000      -1.398716       -38.0610
  14   2.0000      -1.385404       -37.6988
  15   2.0000      -1.370047       -37.2809
  16   2.0000      -1.363717       -37.1086
  17   2.0000      -1.353568       -36.8325
  18   2.0000      -1.073438       -29.2097
  19   2.0000      -1.049020       -28.5453
  20   2.0000      -0.946055       -25.7435
  21   2.0000      -0.882251       -24.0073
  22   2.0000      -0.853680       -23.2298
  23   2.0000      -0.821698       -22.3595
  24   2.0000      -0.757202       -20.6045
  25   2.0000      -0.732898       -19.9432
  26   2.0000      -0.726885       -19.7795
  27   2.0000      -0.713252       -19.4086
  28   2.0000      -0.683889       -18.6096
  29   2.0000      -0.673956       -18.3393
  30   2.0000      -0.664993       -18.0954
  31   2.0000      -0.636709       -17.3257
  32   2.0000      -0.630381       -17.1535
  33   2.0000      -0.603811       -16.4305
  34   2.0000      -0.597829       -16.2678
  35   2.0000      -0.590001       -16.0547
  36   2.0000      -0.571892       -15.5620
  37   2.0000      -0.558159       -15.1883
  38   2.0000      -0.551149       -14.9975
  39   2.0000      -0.525860       -14.3094
  40   2.0000      -0.520141       -14.1538
  41   2.0000      -0.516598       -14.0573
  42   2.0000      -0.497070       -13.5260
  43   2.0000      -0.482363       -13.1258
  44   2.0000      -0.463144       -12.6028
  45   2.0000      -0.455450       -12.3934
  46   2.0000      -0.440469       -11.9858
  47   2.0000      -0.434454       -11.8221
  48   0.0000       0.021427         0.5830
  49   0.0000       0.029878         0.8130
  50   0.0000       0.033864         0.9215
  51   0.0000       0.039918         1.0862
  52   0.0000       0.048068         1.3080

MULLIKEN ATOMIC CHARGES
-----------------------
   0 C :    0.422465
   1 C :    0.525578
   2 C :    0.442139
   3 C :    0.505799
   4 C :    0.504010
   5 C :   -0.346050
   6 O :   -0.870243
   7 O :   -0.831912
   8 O :   -0.833855
   9 O :   -0.810525
  10 O :   -0.766905
  11 O :   -0.705926
  12 H :    0.150122
  13 H :    0.190471
  14 H :    0.348342
  15 H :    0.316162
  16 H :    0.283098
  17 H :    0.248952
  18 H :    0.343739
  19 H :    0.188608
  20 H :    0.172465
  21 H :    0.142425
  22 H :    0.183306
  23 H :    0.197736
Sum of atomic charges:   -0.0000000

LOEWDIN ATOMIC CHARGES
----------------------
   0 C :   -0.251468
   1 C :   -0.250522
   2 C :   -0.230074
   3 C :   -0.253573
   4 C :   -0.510984
   5 C :    0.051844
   6 O :    0.615408
   7 O :    0.850012
   8 O :    0.851988
   9 O :    0.846387
  10 O :    0.847150
  11 O :    0.817238
  12 H :   -0.127922
  13 H :   -0.124452
  14 H :   -0.134518
  15 H :   -0.128390
  16 H :   -0.133247
  17 H :   -0.145511
  18 H :   -0.161653
  19 H :   -0.487126
  20 H :   -0.487723
  21 H :   -0.475768
  22 H :   -0.465981
  23 H :   -0.511113

  Mayer bond orders larger than 0.100000
B(  0-C ,  1-C ) :   0.8474 B(  0-C ,  2-C ) :   0.9586 B(  0-C ,  7-O ) :   0.2508
B(  0-C ,  8-O ) :   0.1175 B(  0-C ,  9-O ) :   0.1812 B(  0-C , 12-H ) :   1.0577
B(  1-C ,  3-C ) :   0.8251 B(  1-C ,  6-O ) :   0.1129 B(  1-C ,  8-O ) :   0.2086
B(  1-C , 13-H ) :   1.0766 B(  2-C ,  4-C ) :   0.9337 B(  2-C ,  7-O ) :   0.1009
B(  2-C ,  9-O ) :   0.1715 B(  2-C , 14-H ) :   0.8767 B(  3-C ,  5-C ) :   0.7547
B(  3-C ,  6-O ) :   0.5614 B(  3-C , 15-H ) :   0.9365 B(  4-C ,  6-O ) :   0.8587
B(  4-C , 10-O ) :   0.5025 B(  4-C , 16-H ) :   1.0365 B(  5-C , 11-O ) :   0.6992
B(  5-C , 17-H ) :   1.0552 B(  5-C , 18-H ) :   0.9650 B(  6-O , 15-H ) :  -0.1147
B(  7-O , 19-H ) :   0.9976 B(  8-O , 20-H ) :   1.0059 B(  9-O , 14-H ) :  -0.1071
B(  9-O , 21-H ) :   1.0493 B( 10-O , 22-H ) :   1.0036 B( 11-O , 23-H ) :   0.9817

MP2 TOTAL ENERGY:     -686.108009779 Eh
FINAL SINGLE POINT ENERGY      -686.108009779380

DIPOLE MOMENT
-------------
                                X             Y             Z
Electronic contribution:      1.76136      -1.38318      -0.45705
Nuclear contribution   :     -1.10325       1.07853       1.11456
                        -----------------------------------------
Total Dipole Moment    :      0.65811      -0.30465       0.65751
                        -----------------------------------------
Magnitude (a.u.)       :      0.97890
Magnitude (Debye)      :      2.48817

Rotational constants in cm-1:     0.038973     0.026040     0.016313
Rotational constants in MHz :  1168.376073   780.672134   489.064600

                             ****ORCA TERMINATED NORMALLY****
TOTAL RUN TIME: 0 days 0 hours 20 minutes 39 seconds 240 msec
