                         Program Version 5.0.3 -  RELEASE  -
|  1> !ri-mp2 aug-cc-pvtz aug-cc-pvtz/c tightscf
|  2> %pal nprocs 16 end
|  3>
|  4> * xyz 0 1
|  5> O     1.166590     2.672477       0.000000
|  6> O    -1.166590    -2.672477       0.000000
|  7> N     1.166590     1.298532       0.000000
|  8> N    -1.166590    -1.298532       0.000000
|  9> C     0.027863     0.723227       0.000000
| 10> C    -0.027863    -0.723227       0.000000
| 11> H     0.248784     2.997834       0.000000
| 12> H    -0.248784    -2.997834       0.000000
| 13> H    -0.917383     1.269774       0.000000
| 14> H     0.917383    -1.269774       0.000000
| 15> *
| 16>
| 17>                          ****END OF INPUT****

CARTESIAN COORDINATES (ANGSTROEM)
---------------------------------
  O      1.166590    2.672477    0.000000
  O     -1.166590   -2.672477    0.000000
  N      1.166590    1.298532    0.000000
  N     -1.166590   -1.298532    0.000000
  C      0.027863    0.723227    0.000000
  C     -0.027863   -0.723227    0.000000
  H      0.248784    2.997834    0.000000
  H     -0.248784   -2.997834    0.000000
  H     -0.917383    1.269774    0.000000
  H      0.917383   -1.269774    0.000000

 Total Charge           Charge          ....    0
 Multiplicity           Mult            ....    1
 Number of Electrons    NEL             ....   46
 Basis Dimension        Dim             ....  368

ORBITAL ENERGIES
----------------

  NO   OCC          E(Eh)            E(eV)
   0   2.0000     -20.626679      -561.2805
   1   2.0000     -20.626679      -561.2805
   2   2.0000     -15.659247      -426.1098
   3   2.0000     -15.659244      -426.1097
   4   2.0000     -11.305911      -307.6495
   5   2.0000     -11.305039      -307.6258
   6   2.0000      -1.460396       -39.7394
   7   2.0000      -1.457990       -39.6739
   8   2.0000      -1.212338       -32.9894
   9   2.0000      -1.153450       -31.3870
  10   2.0000      -0.919839       -25.0301
  11   2.0000      -0.837941       -22.8015
  12   2.0000      -0.760304       -20.6889
  13   2.0000      -0.749512       -20.3953
  14   2.0000      -0.672193       -18.2913
  15   2.0000      -0.631414       -17.1816
  16   2.0000      -0.618959       -16.8427
  17   2.0000      -0.614648       -16.7254
  18   2.0000      -0.559997       -15.2383
  19   2.0000      -0.487208       -13.2576
  20   2.0000      -0.485521       -13.2117
  21   2.0000      -0.478977       -13.0336
  22   2.0000      -0.378529       -10.3003
  23   0.0000       0.026007         0.7077
  24   0.0000       0.027106         0.7376
  25   0.0000       0.049444         1.3454
  26   0.0000       0.056862         1.5473
  27   0.0000       0.067078         1.8253

MULLIKEN ATOMIC CHARGES
-----------------------
   0 O :   -0.379039
   1 O :   -0.379039
   2 N :   -0.327854
   3 N :   -0.327854
   4 C :   -0.154819
   5 C :   -0.154819
   6 H :    0.220597
   7 H :    0.220597
   8 H :    0.641114
   9 H :    0.641114
Sum of atomic charges:    0.0000000

LOEWDIN ATOMIC CHARGES
----------------------
   0 O :    0.639483
   1 O :    0.639483
   2 N :    0.118587
   3 N :    0.118587
   4 C :   -0.047876
   5 C :   -0.047876
   6 H :   -0.526221
   7 H :   -0.526221
   8 H :   -0.183974
   9 H :   -0.183974

  Mayer bond orders larger than 0.100000
B(  0-O ,  2-N ) :   0.6661 B(  0-O ,  6-H ) :   0.9530 B(  1-O ,  3-N ) :   0.6661
B(  1-O ,  7-H ) :   0.9530 B(  2-N ,  4-C ) :   1.5983 B(  2-N ,  5-C ) :  -0.2121
B(  3-N ,  4-C ) :  -0.2121 B(  3-N ,  5-C ) :   1.5983 B(  4-C ,  5-C ) :   0.4808
B(  4-C ,  8-H ) :   0.5369 B(  5-C ,  9-H ) :   0.5369

MP2 TOTAL ENERGY:     -337.885408311 Eh
FINAL SINGLE POINT ENERGY      -337.885408310919

DIPOLE MOMENT
-------------
                                X             Y             Z
Electronic contribution:      0.00000       0.00000      -0.00000
Nuclear contribution   :      0.00000       0.00000       0.00000
                        -----------------------------------------
Total Dipole Moment    :      0.00000       0.00000      -0.00000
                        -----------------------------------------
Magnitude (a.u.)       :      0.00000
Magnitude (Debye)      :      0.00000

Rotational constants in cm-1:     1.108899     0.044595     0.042871
Rotational constants in MHz : 33243.945083  1336.932851  1285.245631

                             ****ORCA TERMINATED NORMALLY****
TOTAL RUN TIME: 0 days 0 hours 1 minutes 35 seconds 856 msec
