                         Program Version 5.0.3 -  RELEASE  -
|  1> !ri-mp2 aug-cc-pvtz aug-cc-pvtz/c tightscf
|  2> %pal nprocs 16 end
|  3>
|  4> * xyz 0 1
|  5> C      1.730475    2.260799    0.000000
|  6> C     -1.877092   -3.067542    0.000000
|  7> C      1.469179    0.778822    0.000000
|  8> C     -1.675526   -1.553237    0.000000
|  9> C      0.000000    0.375846    0.000000
| 10> C     -0.203783   -1.139524    0.000000
| 11> O      0.882361    3.116832    0.000000
| 12> H      2.805089    2.541058    0.000000
| 13> H     -2.936193   -3.328318    0.000000
| 14> H     -1.423356   -3.526632    0.880821
| 15> H     -1.423356   -3.526632   -0.880821
| 16> H      1.999279    0.364970    0.867425
| 17> H      1.999279    0.364970   -0.867425
| 18> H     -2.170087   -1.119104    0.873840
| 19> H     -2.170087   -1.119104   -0.873840
| 20> H     -0.491084    0.816415    0.870631
| 21> H     -0.491084    0.816415   -0.870631
| 22> H      0.291599   -1.574837   -0.874744
| 23> H      0.291599   -1.574837    0.874744
| 24> *
| 25>
| 26>                          ****END OF INPUT****

CARTESIAN COORDINATES (ANGSTROEM)
---------------------------------
  C      1.730475    2.260799    0.000000
  C     -1.877092   -3.067542    0.000000
  C      1.469179    0.778822    0.000000
  C     -1.675526   -1.553237    0.000000
  C      0.000000    0.375846    0.000000
  C     -0.203783   -1.139524    0.000000
  O      0.882361    3.116832    0.000000
  H      2.805089    2.541058    0.000000
  H     -2.936193   -3.328318    0.000000
  H     -1.423356   -3.526632    0.880821
  H     -1.423356   -3.526632   -0.880821
  H      1.999279    0.364970    0.867425
  H      1.999279    0.364970   -0.867425
  H     -2.170087   -1.119104    0.873840
  H     -2.170087   -1.119104   -0.873840
  H     -0.491084    0.816415    0.870631
  H     -0.491084    0.816415   -0.870631
  H      0.291599   -1.574837   -0.874744
  H      0.291599   -1.574837    0.874744

 Total Charge           Charge          ....    0
 Multiplicity           Mult            ....    1
 Number of Electrons    NEL             ....   56
 Basis Dimension        Dim             ....  598

ORBITAL ENERGIES
----------------

  NO   OCC          E(Eh)            E(eV)
   0   2.0000     -20.556752      -559.3776
   1   2.0000     -11.331044      -308.3334
   2   2.0000     -11.242373      -305.9205
   3   2.0000     -11.224625      -305.4376
   4   2.0000     -11.222555      -305.3812
   5   2.0000     -11.220256      -305.3187
   6   2.0000     -11.213395      -305.1320
   7   2.0000      -1.394604       -37.9491
   8   2.0000      -1.094682       -29.7878
   9   2.0000      -1.041193       -28.3323
  10   2.0000      -0.957825       -26.0637
  11   2.0000      -0.862229       -23.4624
  12   2.0000      -0.797811       -21.7095
  13   2.0000      -0.769810       -20.9476
  14   2.0000      -0.673789       -18.3347
  15   2.0000      -0.660011       -17.9598
  16   2.0000      -0.629865       -17.1395
  17   2.0000      -0.615370       -16.7451
  18   2.0000      -0.578658       -15.7461
  19   2.0000      -0.561791       -15.2871
  20   2.0000      -0.554235       -15.0815
  21   2.0000      -0.508445       -13.8355
  22   2.0000      -0.507310       -13.8046
  23   2.0000      -0.483881       -13.1671
  24   2.0000      -0.474836       -12.9209
  25   2.0000      -0.469976       -12.7887
  26   2.0000      -0.467191       -12.7129
  27   2.0000      -0.416565       -11.3353
  28   0.0000       0.026635         0.7248
  29   0.0000       0.030480         0.8294
  30   0.0000       0.036423         0.9911
  31   0.0000       0.038999         1.0612
  32   0.0000       0.047251         1.2858

MULLIKEN ATOMIC CHARGES
-----------------------
   0 C :   -0.226257
   1 C :   -0.999622
   2 C :   -0.316051
   3 C :   -0.475906
   4 C :   -0.233349
   5 C :   -0.281161
   6 O :   -0.750671
   7 H :    0.498988
   8 H :    0.274660
   9 H :    0.265741
  10 H :    0.265741
  11 H :    0.254546
  12 H :    0.254546
  13 H :    0.241814
  14 H :    0.241814
  15 H :    0.232842
  16 H :    0.232842
  17 H :    0.259742
  18 H :    0.259742
Sum of atomic charges:   -0.0000000

LOEWDIN ATOMIC CHARGES
----------------------
   0 C :   -0.208320
   1 C :    0.579116
   2 C :    0.256932
   3 C :    0.258737
   4 C :    0.262295
   5 C :    0.266962
   6 O :    0.443644
   7 H :   -0.176968
   8 H :   -0.173525
   9 H :   -0.171489
  10 H :   -0.171489
  11 H :   -0.151651
  12 H :   -0.151651
  13 H :   -0.146771
  14 H :   -0.146771
  15 H :   -0.142401
  16 H :   -0.142401
  17 H :   -0.142124
  18 H :   -0.142124

  Mayer bond orders larger than 0.100000
B(  0-C ,  2-C ) :   0.7831 B(  0-C ,  4-C ) :  -0.1266 B(  0-C ,  6-O ) :   1.5734
B(  0-C ,  7-H ) :   0.7210 B(  1-C ,  3-C ) :   0.9299 B(  1-C ,  8-H ) :   0.9899
B(  1-C ,  9-H ) :   0.9632 B(  1-C , 10-H ) :   0.9632 B(  2-C ,  4-C ) :   1.0054
B(  2-C , 11-H ) :   0.9577 B(  2-C , 12-H ) :   0.9577 B(  3-C ,  5-C ) :   0.8850
B(  3-C , 13-H ) :   0.9625 B(  3-C , 14-H ) :   0.9625 B(  4-C ,  5-C ) :   0.9383
B(  4-C , 15-H ) :   0.9528 B(  4-C , 16-H ) :   0.9528 B(  5-C , 17-H ) :   0.9371
B(  5-C , 18-H ) :   0.9371

MP2 TOTAL ENERGY:     -310.454064980 Eh
FINAL SINGLE POINT ENERGY      -310.454064979547

DIPOLE MOMENT
-------------
                                X             Y             Z
Electronic contribution:      4.49644      10.32744       0.00000
Nuclear contribution   :     -3.88983     -11.35766       0.00000
                        -----------------------------------------
Total Dipole Moment    :      0.60661      -1.03021       0.00000
                        -----------------------------------------
Magnitude (a.u.)       :      1.19554
Magnitude (Debye)      :      3.03882

Rotational constants in cm-1:     0.331527     0.028654     0.027024
Rotational constants in MHz :  9938.923932   859.012889   810.172946

                             ****ORCA TERMINATED NORMALLY****
TOTAL RUN TIME: 0 days 0 hours 7 minutes 2 seconds 498 msec
