                         Program Version 5.0.3 -  RELEASE  -
|  1> !ri-mp2 aug-cc-pvtz aug-cc-pvtz/c tightscf
|  2> %pal nprocs 16 end
|  3>
|  4> * xyz 0 1
|  5> C      0.000000    0.928126    0.000000
|  6> C      0.925344   -0.256408    0.000000
|  7> O     -1.349713    0.557465    0.000000
|  8> O      0.516462   -1.391513    0.000000
|  9> H     -1.374140   -0.411223    0.000000
| 10> H      0.240237    1.542269    0.879378
| 11> H      0.240237    1.542269   -0.879378
| 12> H      2.007614   -0.031238    0.000000
| 13> *
| 14>
| 15>                          ****END OF INPUT****

CARTESIAN COORDINATES (ANGSTROEM)
---------------------------------
  C      0.000000    0.928126    0.000000
  C      0.925344   -0.256408    0.000000
  O     -1.349713    0.557465    0.000000
  O      0.516462   -1.391513    0.000000
  H     -1.374140   -0.411223    0.000000
  H      0.240237    1.542269    0.879378
  H      0.240237    1.542269   -0.879378
  H      2.007614   -0.031238    0.000000

 Total Charge           Charge          ....    0
 Multiplicity           Mult            ....    1
 Number of Electrons    NEL             ....   32
 Basis Dimension        Dim             ....  276

ORBITAL ENERGIES
----------------

  NO   OCC          E(Eh)            E(eV)
   0   2.0000     -20.582185      -560.0697
   1   2.0000     -20.569956      -559.7370
   2   2.0000     -11.352578      -308.9194
   3   2.0000     -11.304521      -307.6116
   4   2.0000      -1.426352       -38.8130
   5   2.0000      -1.372004       -37.3341
   6   2.0000      -1.006976       -27.4012
   7   2.0000      -0.817334       -22.2408
   8   2.0000      -0.732850       -19.9419
   9   2.0000      -0.685150       -18.6439
  10   2.0000      -0.663264       -18.0483
  11   2.0000      -0.612375       -16.6636
  12   2.0000      -0.556227       -15.1357
  13   2.0000      -0.540673       -14.7124
  14   2.0000      -0.464689       -12.6448
  15   2.0000      -0.448571       -12.2062
  16   0.0000       0.024944         0.6788
  17   0.0000       0.041123         1.1190
  18   0.0000       0.041235         1.1221
  19   0.0000       0.050687         1.3793
  20   0.0000       0.086861         2.3636

MULLIKEN ATOMIC CHARGES
-----------------------
   0 C :   -0.027717
   1 C :   -0.107373
   2 O :   -0.558687
   3 O :   -0.695818
   4 H :    0.234479
   5 H :    0.312824
   6 H :    0.312824
   7 H :    0.529468
Sum of atomic charges:   -0.0000000

LOEWDIN ATOMIC CHARGES
----------------------
   0 C :   -0.003036
   1 C :   -0.191241
   2 O :    0.808944
   3 O :    0.459345
   4 H :   -0.563017
   5 H :   -0.168444
   6 H :   -0.168444
   7 H :   -0.174106

  Mayer bond orders larger than 0.100000
B(  0-C ,  1-C ) :   0.8935 B(  0-C ,  2-O ) :   0.8019 B(  0-C ,  5-H ) :   0.9099
B(  0-C ,  6-H ) :   0.9099 B(  1-C ,  3-O ) :   1.6217 B(  1-C ,  7-H ) :   0.6298
B(  2-O ,  4-H ) :   0.9463

MP2 TOTAL ENERGY:     -228.677234465 Eh
FINAL SINGLE POINT ENERGY      -228.677234465428

DIPOLE MOMENT
-------------
                                X             Y             Z
Electronic contribution:     -0.23540      -1.92412      -0.00000
Nuclear contribution   :      1.10166       2.63096       0.00000
                        -----------------------------------------
Total Dipole Moment    :      0.86626       0.70684      -0.00000
                        -----------------------------------------
Magnitude (a.u.)       :      1.11804
Magnitude (Debye)      :      2.84184

Rotational constants in cm-1:     0.619635     0.217202     0.165758
Rotational constants in MHz : 18576.200292  6511.557106  4969.293203

                             ****ORCA TERMINATED NORMALLY****
TOTAL RUN TIME: 0 days 0 hours 0 minutes 50 seconds 559 msec
