                         Program Version 5.0.3 -  RELEASE  -
|  1> !ri-mp2 aug-cc-pvtz aug-cc-pvtz/c tightscf
|  2> %pal nprocs 16 end
|  3> %maxcore 3800
|  4>
|  5> * xyz 0 1
|  6> C      2.331625    0.140596   -0.002766
|  7> C      3.562671   -0.742228    0.006967
|  8> C     -4.097798   -0.269419   -0.001780
|  9> C      0.990909   -0.574254   -0.007194
| 10> C     -2.775391    0.495292    0.007306
| 11> C     -0.224164    0.345462    0.004932
| 12> C     -1.548821   -0.417709   -0.003855
| 13> O      2.419096    1.348033   -0.005792
| 14> H      3.571661   -1.365777    0.903608
| 15> H      3.553384   -1.419544   -0.849424
| 16> H      4.460036   -0.129875   -0.019314
| 17> H     -4.183730   -0.919977    0.871115
| 18> H     -4.951146    0.409944    0.006808
| 19> H     -4.184176   -0.898252   -0.890409
| 20> H      0.972256   -1.232580   -0.883480
| 21> H      0.975011   -1.253830    0.852590
| 22> H     -2.733388    1.141611    0.888893
| 23> H     -2.733543    1.162627   -0.858464
| 24> H     -0.175148    1.014310   -0.856999
| 25> H     -0.174496    0.992679    0.883335
| 26> H     -1.591964   -1.065480   -0.886410
| 27> H     -1.591700   -1.086565    0.862830
| 28> *
| 29>
| 30>                          ****END OF INPUT****

CARTESIAN COORDINATES (ANGSTROEM)
---------------------------------
  C      2.331625    0.140596   -0.002766
  C      3.562671   -0.742228    0.006967
  C     -4.097798   -0.269419   -0.001780
  C      0.990909   -0.574254   -0.007194
  C     -2.775391    0.495292    0.007306
  C     -0.224164    0.345462    0.004932
  C     -1.548821   -0.417709   -0.003855
  O      2.419096    1.348033   -0.005792
  H      3.571661   -1.365777    0.903608
  H      3.553384   -1.419544   -0.849424
  H      4.460036   -0.129875   -0.019314
  H     -4.183730   -0.919977    0.871115
  H     -4.951146    0.409944    0.006808
  H     -4.184176   -0.898252   -0.890409
  H      0.972256   -1.232580   -0.883480
  H      0.975011   -1.253830    0.852590
  H     -2.733388    1.141611    0.888893
  H     -2.733543    1.162627   -0.858464
  H     -0.175148    1.014310   -0.856999
  H     -0.174496    0.992679    0.883335
  H     -1.591964   -1.065480   -0.886410
  H     -1.591700   -1.086565    0.862830

 Total Charge           Charge          ....    0
 Multiplicity           Mult            ....    1
 Number of Electrons    NEL             ....   64
 Basis Dimension        Dim             ....  690

ORBITAL ENERGIES
----------------

  NO   OCC          E(Eh)            E(eV)
   0   2.0000     -20.542965      -559.0025
   1   2.0000     -11.328173      -308.2553
   2   2.0000     -11.236157      -305.7514
   3   2.0000     -11.232935      -305.6637
   4   2.0000     -11.219320      -305.2932
   5   2.0000     -11.218723      -305.2770
   6   2.0000     -11.217551      -305.2451
   7   2.0000     -11.211382      -305.0772
   8   2.0000      -1.385345       -37.6972
   9   2.0000      -1.090883       -29.6844
  10   2.0000      -1.044847       -28.4317
  11   2.0000      -1.002730       -27.2857
  12   2.0000      -0.935861       -25.4661
  13   2.0000      -0.841886       -22.9089
  14   2.0000      -0.792042       -21.5526
  15   2.0000      -0.732001       -19.9188
  16   2.0000      -0.658228       -17.9113
  17   2.0000      -0.650859       -17.7108
  18   2.0000      -0.623696       -16.9716
  19   2.0000      -0.621412       -16.9095
  20   2.0000      -0.583189       -15.8694
  21   2.0000      -0.582149       -15.8411
  22   2.0000      -0.559143       -15.2150
  23   2.0000      -0.545936       -14.8557
  24   2.0000      -0.537310       -14.6209
  25   2.0000      -0.504057       -13.7161
  26   2.0000      -0.491635       -13.3781
  27   2.0000      -0.479885       -13.0583
  28   2.0000      -0.469341       -12.7714
  29   2.0000      -0.464013       -12.6264
  30   2.0000      -0.463724       -12.6186
  31   2.0000      -0.406368       -11.0578
  32   0.0000       0.025723         0.7000
  33   0.0000       0.030488         0.8296
  34   0.0000       0.035874         0.9762
  35   0.0000       0.038418         1.0454
  36   0.0000       0.045889         1.2487

MULLIKEN ATOMIC CHARGES
-----------------------
   0 C :    0.458674
   1 C :   -0.891849
   2 C :   -1.001945
   3 C :   -0.269639
   4 C :   -0.493173
   5 C :   -0.337196
   6 C :   -0.264493
   7 O :   -0.866038
   8 H :    0.310746
   9 H :    0.309558
  10 H :    0.313130
  11 H :    0.262780
  12 H :    0.272129
  13 H :    0.262933
  14 H :    0.232814
  15 H :    0.232333
  16 H :    0.236283
  17 H :    0.235901
  18 H :    0.242112
  19 H :    0.241501
  20 H :    0.256502
  21 H :    0.256937
Sum of atomic charges:   -0.0000000

LOEWDIN ATOMIC CHARGES
----------------------
   0 C :   -0.508186
   1 C :    0.589245
   2 C :    0.578408
   3 C :    0.273343
   4 C :    0.258820
   5 C :    0.266533
   6 C :    0.268621
   7 O :    0.474473
   8 H :   -0.173002
   9 H :   -0.173745
  10 H :   -0.183027
  11 H :   -0.171769
  12 H :   -0.173816
  13 H :   -0.171757
  14 H :   -0.145880
  15 H :   -0.145965
  16 H :   -0.146880
  17 H :   -0.146885
  18 H :   -0.142563
  19 H :   -0.141975
  20 H :   -0.142001
  21 H :   -0.141993

  Mayer bond orders larger than 0.100000
B(  0-C ,  1-C ) :   0.9437 B(  0-C ,  3-C ) :   0.7883 B(  0-C ,  7-O ) :   1.1830
B(  1-C ,  8-H ) :   0.9355 B(  1-C ,  9-H ) :   0.9384 B(  1-C , 10-H ) :   0.9466
B(  2-C ,  4-C ) :   0.9349 B(  2-C , 11-H ) :   0.9678 B(  2-C , 12-H ) :   0.9945
B(  2-C , 13-H ) :   0.9675 B(  3-C ,  5-C ) :   1.0229 B(  3-C , 14-H ) :   0.9581
B(  3-C , 15-H ) :   0.9601 B(  4-C ,  6-C ) :   0.8903 B(  4-C , 16-H ) :   0.9675
B(  4-C , 17-H ) :   0.9676 B(  5-C ,  6-C ) :   0.9411 B(  5-C , 18-H ) :   0.9588
B(  5-C , 19-H ) :   0.9574 B(  6-C , 20-H ) :   0.9425 B(  6-C , 21-H ) :   0.9415

MP2 TOTAL ENERGY:     -349.690028547 Eh
FINAL SINGLE POINT ENERGY      -349.690028546670

DIPOLE MOMENT
-------------
                                X             Y             Z
Electronic contribution:      9.04964       3.66077      -0.02148
Nuclear contribution   :     -9.20918      -4.87306       0.02588
                        -----------------------------------------
Total Dipole Moment    :     -0.15954      -1.21229       0.00440
                        -----------------------------------------
Magnitude (a.u.)       :      1.22275
Magnitude (Debye)      :      3.10799

Rotational constants in cm-1:     0.233893     0.021521     0.020143
Rotational constants in MHz :  7011.928533   645.191676   603.882526

                             ****ORCA TERMINATED NORMALLY****
TOTAL RUN TIME: 0 days 0 hours 9 minutes 56 seconds 107 msec
