                         Program Version 5.0.3 -  RELEASE  -
|  1> !ri-mp2 aug-cc-pvtz aug-cc-pvtz/c tightscf
|  2> %pal nprocs 16 end
|  3>
|  4> * xyz 0 1
|  5> C     -0.521080    0.491811    0.031617
|  6> O     -1.757960   -0.126244   -0.064518
|  7> O      0.469147   -0.535551   -0.126038
|  8> O      1.752362    0.137407   -0.041874
|  9> H     -1.897823   -0.685361    0.707197
| 10> H      2.117970   -0.266792    0.756685
| 11> H     -0.442357    1.205959   -0.787605
| 12> H     -0.359703    0.990434    0.993457
| 13> *
| 14>
| 15>                          ****END OF INPUT****

CARTESIAN COORDINATES (ANGSTROEM)
---------------------------------
  C     -0.521080    0.491811    0.031617
  O     -1.757960   -0.126244   -0.064518
  O      0.469147   -0.535551   -0.126038
  O      1.752362    0.137407   -0.041874
  H     -1.897823   -0.685361    0.707197
  H      2.117970   -0.266792    0.756685
  H     -0.442357    1.205959   -0.787605
  H     -0.359703    0.990434    0.993457

 Total Charge           Charge          ....    0
 Multiplicity           Mult            ....    1
 Number of Electrons    NEL             ....   34
 Basis Dimension        Dim             ....  276

ORBITAL ENERGIES
----------------

  NO   OCC          E(Eh)            E(eV)
   0   2.0000     -20.633423      -561.4640
   1   2.0000     -20.630811      -561.3929
   2   2.0000     -20.585018      -560.1468
   3   2.0000     -11.344169      -308.6905
   4   2.0000      -1.485693       -40.4278
   5   2.0000      -1.394781       -37.9539
   6   2.0000      -1.220393       -33.2086
   7   2.0000      -0.913980       -24.8707
   8   2.0000      -0.743214       -20.2239
   9   2.0000      -0.728035       -19.8108
  10   2.0000      -0.682173       -18.5629
  11   2.0000      -0.634173       -17.2567
  12   2.0000      -0.610332       -16.6080
  13   2.0000      -0.541109       -14.7243
  14   2.0000      -0.513369       -13.9695
  15   2.0000      -0.497000       -13.5241
  16   2.0000      -0.456918       -12.4334
  17   0.0000       0.025041         0.6814
  18   0.0000       0.039190         1.0664
  19   0.0000       0.045830         1.2471
  20   0.0000       0.049790         1.3548
  21   0.0000       0.096451         2.6246

MULLIKEN ATOMIC CHARGES
-----------------------
   0 C :   -0.021890
   1 O :   -0.526496
   2 O :   -0.321981
   3 O :   -0.328899
   4 H :    0.202721
   5 H :    0.252215
   6 H :    0.399193
   7 H :    0.345137
Sum of atomic charges:    0.0000000

LOEWDIN ATOMIC CHARGES
----------------------
   0 C :   -0.280294
   1 O :    0.798735
   2 O :    0.323081
   3 O :    0.567419
   4 H :   -0.486618
   5 H :   -0.553327
   6 H :   -0.186263
   7 H :   -0.182732

  Mayer bond orders larger than 0.100000
B(  0-C ,  1-O ) :   0.9163 B(  0-C ,  2-O ) :   0.7713 B(  0-C ,  6-H ) :   0.8498
B(  0-C ,  7-H ) :   0.8837 B(  1-O ,  4-H ) :   0.9675 B(  2-O ,  3-O ) :   0.8395
B(  3-O ,  5-H ) :   0.9649

MP2 TOTAL ENERGY:     -265.691161941 Eh
FINAL SINGLE POINT ENERGY      -265.691161940561

DIPOLE MOMENT
-------------
                                X             Y             Z
Electronic contribution:      0.68198      -1.12368      -0.51555
Nuclear contribution   :     -0.57294       1.23239       1.66124
                        -----------------------------------------
Total Dipole Moment    :      0.10903       0.10871       1.14569
                        -----------------------------------------
Magnitude (a.u.)       :      1.15599
Magnitude (Debye)      :      2.93830

Rotational constants in cm-1:     1.200164     0.144325     0.134963
Rotational constants in MHz : 35980.008682  4326.768184  4046.096188

                             ****ORCA TERMINATED NORMALLY****
TOTAL RUN TIME: 0 days 0 hours 0 minutes 51 seconds 872 msec
