                         Program Version 5.0.3 -  RELEASE  -
|  1> !ri-mp2 aug-cc-pvtz aug-cc-pvtz/c tightscf
|  2> %pal nprocs 16 end
|  3>
|  4> * xyz 0 1
|  5> O      0.500202    0.649433   -0.012191
|  6> O      1.498887   -0.464552   -0.099113
|  7> C     -0.689930    0.150600    0.001728
|  8> C     -1.824334   -0.241903    0.015562
|  9> H      1.923095   -0.355188    0.766050
| 10> H     -2.830223   -0.576039    0.020646
| 11> *
| 12>
| 13>                          ****END OF INPUT****

CARTESIAN COORDINATES (ANGSTROEM)
---------------------------------
  O      0.500202    0.649433   -0.012191
  O      1.498887   -0.464552   -0.099113
  C     -0.689930    0.150600    0.001728
  C     -1.824334   -0.241903    0.015562
  H      1.923095   -0.355188    0.766050
  H     -2.830223   -0.576039    0.020646

 Total Charge           Charge          ....    0
 Multiplicity           Mult            ....    1
 Number of Electrons    NEL             ....   30
 Basis Dimension        Dim             ....  230

ORBITAL ENERGIES
----------------

  NO   OCC          E(Eh)            E(eV)
   0   2.0000     -20.692835      -563.0807
   1   2.0000     -20.675636      -562.6127
   2   2.0000     -11.302251      -307.5499
   3   2.0000     -11.237065      -305.7761
   4   2.0000      -1.523351       -41.4525
   5   2.0000      -1.303712       -35.4758
   6   2.0000      -1.025023       -27.8923
   7   2.0000      -0.790273       -21.5044
   8   2.0000      -0.752500       -20.4766
   9   2.0000      -0.708997       -19.2928
  10   2.0000      -0.675365       -18.3776
  11   2.0000      -0.595876       -16.2146
  12   2.0000      -0.550097       -14.9689
  13   2.0000      -0.404884       -11.0174
  14   2.0000      -0.385254       -10.4833
  15   0.0000       0.025776         0.7014
  16   0.0000       0.034997         0.9523
  17   0.0000       0.070583         1.9207
  18   0.0000       0.085950         2.3388
  19   0.0000       0.093290         2.5385

MULLIKEN ATOMIC CHARGES
-----------------------
   0 O :   -0.266129
   1 O :   -0.236392
   2 C :    0.660820
   3 C :   -0.990421
   4 H :    0.284111
   5 H :    0.548012
Sum of atomic charges:    0.0000000

LOEWDIN ATOMIC CHARGES
----------------------
   0 O :    0.291216
   1 O :    0.629875
   2 C :   -0.371195
   3 C :    0.314263
   4 H :   -0.543224
   5 H :   -0.320935

  Mayer bond orders larger than 0.100000
B(  0-O ,  1-O ) :   0.8238 B(  0-O ,  2-C ) :   1.0309 B(  1-O ,  4-H ) :   0.9498
B(  2-C ,  3-C ) :   1.9031 B(  3-C ,  5-H ) :   0.6233

MP2 TOTAL ENERGY:     -227.301343056 Eh
FINAL SINGLE POINT ENERGY      -227.301343056114

DIPOLE MOMENT
-------------
                                X             Y             Z
Electronic contribution:      1.03116       0.70728      -0.17033
Nuclear contribution   :     -0.85006      -0.90122       0.76203
                        -----------------------------------------
Total Dipole Moment    :      0.18110      -0.19394       0.59170
                        -----------------------------------------
Magnitude (a.u.)       :      0.64848
Magnitude (Debye)      :      1.64830

Rotational constants in cm-1:     1.366532     0.171708     0.154546
Rotational constants in MHz : 40967.588616  5147.690308  4633.166922

                             ****ORCA TERMINATED NORMALLY****
TOTAL RUN TIME: 0 days 0 hours 0 minutes 40 seconds 524 msec
