                         Program Version 5.0.3 -  RELEASE  -
|  1> !ri-mp2 aug-cc-pvtz aug-cc-pvtz/c tightscf
|  2> %pal nprocs 16 end
|  3>
|  4> * xyz 0 1
|  5> C      0.000000    0.000000      -0.496902
|  6> N      0.000000    0.000000       0.649125
|  7> H      0.000000    0.000000      -1.562463
|  8> *
|  9>
| 10>                          ****END OF INPUT****

CARTESIAN COORDINATES (ANGSTROEM)
---------------------------------
  C      0.000000    0.000000   -0.496902
  N      0.000000    0.000000    0.649125
  H      0.000000    0.000000   -1.562463

 Total Charge           Charge          ....    0
 Multiplicity           Mult            ....    1
 Number of Electrons    NEL             ....   14
 Basis Dimension        Dim             ....  115

ORBITAL ENERGIES
----------------

  NO   OCC          E(Eh)            E(eV)
   0   2.0000     -15.597504      -424.4297
   1   2.0000     -11.289764      -307.2101
   2   2.0000      -1.240508       -33.7559
   3   2.0000      -0.812149       -22.0997
   4   2.0000      -0.581839       -15.8326
   5   2.0000      -0.499065       -13.5802
   6   2.0000      -0.499065       -13.5802
   7   0.0000       0.023123         0.6292
   8   0.0000       0.071706         1.9512
   9   0.0000       0.072963         1.9854
  10   0.0000       0.072963         1.9854
  11   0.0000       0.127622         3.4728

MULLIKEN ATOMIC CHARGES
-----------------------
   0 C :   -0.422101
   1 N :   -0.333087
   2 H :    0.755188
Sum of atomic charges:    0.0000000

LOEWDIN ATOMIC CHARGES
----------------------
   0 C :    0.088804
   1 N :    0.184963
   2 H :   -0.273767

  Mayer bond orders larger than 0.100000
B(  0-C ,  1-N ) :   2.6491 B(  0-C ,  2-H ) :   0.2870

MP2 TOTAL ENERGY:      -93.258850218 Eh
FINAL SINGLE POINT ENERGY       -93.258850217575

DIPOLE MOMENT
-------------
                                X             Y             Z
Electronic contribution:      0.00000       0.00000       0.22237
Nuclear contribution   :      0.00000       0.00000      -1.51638
                        -----------------------------------------
Total Dipole Moment    :      0.00000       0.00000      -1.29401
                        -----------------------------------------
Magnitude (a.u.)       :      1.29401
Magnitude (Debye)      :      3.28912

Rotational constants in cm-1:     0.000000     1.499827     1.499827
Rotational constants in MHz :     0.000000 44963.685360 44963.685360

                             ****ORCA TERMINATED NORMALLY****
TOTAL RUN TIME: 0 days 0 hours 0 minutes 32 seconds 82 msec
