                         Program Version 5.0.3 -  RELEASE  -
|  1> !ri-mp2 aug-cc-pvtz aug-cc-pvtz/c tightscf
|  2> %pal nprocs 16 end
|  3> %maxcore 3800
|  4>
|  5> * xyz 0 1
|  6> C      1.510583    1.057959   -0.207635
|  7> C      1.131202    2.378179   -0.627087
|  8> C     -0.031282    3.021695   -0.376287
|  9> C     -1.131202    2.495684    0.390765
| 10> C     -1.415623    1.207590    0.659413
| 11> C     -0.736352    0.000021    0.155956
| 12> C      0.736352   -0.000021    0.155956
| 13> C      1.415623   -1.207590    0.659413
| 14> C      1.131202   -2.495684    0.390765
| 15> C      0.031282   -3.021695   -0.376287
| 16> C     -1.131202   -2.378179   -0.627087
| 17> C     -1.510583   -1.057959   -0.207635
| 18> H      2.580111    0.874669   -0.203910
| 19> H      1.905624    2.939917   -1.136925
| 20> H     -0.119386    4.051335   -0.699854
| 21> H     -1.817588    3.233906    0.791454
| 22> H     -2.284527    1.012644    1.278492
| 23> H      2.284527   -1.012644    1.278492
| 24> H      1.817588   -3.233906    0.791454
| 25> H      0.119386   -4.051335   -0.699854
| 26> H     -1.905624   -2.939917   -1.136925
| 27> H     -2.580111   -0.874669   -0.203910
| 28> *
| 29>
| 30>                          ****END OF INPUT****

CARTESIAN COORDINATES (ANGSTROEM)
---------------------------------
  C      1.510583    1.057959   -0.207635
  C      1.131202    2.378179   -0.627087
  C     -0.031282    3.021695   -0.376287
  C     -1.131202    2.495684    0.390765
  C     -1.415623    1.207590    0.659413
  C     -0.736352    0.000021    0.155956
  C      0.736352   -0.000021    0.155956
  C      1.415623   -1.207590    0.659413
  C      1.131202   -2.495684    0.390765
  C      0.031282   -3.021695   -0.376287
  C     -1.131202   -2.378179   -0.627087
  C     -1.510583   -1.057959   -0.207635
  H      2.580111    0.874669   -0.203910
  H      1.905624    2.939917   -1.136925
  H     -0.119386    4.051335   -0.699854
  H     -1.817588    3.233906    0.791454
  H     -2.284527    1.012644    1.278492
  H      2.284527   -1.012644    1.278492
  H      1.817588   -3.233906    0.791454
  H      0.119386   -4.051335   -0.699854
  H     -1.905624   -2.939917   -1.136925
  H     -2.580111   -0.874669   -0.203910

 Total Charge           Charge          ....    0
 Multiplicity           Mult            ....    1
 Number of Electrons    NEL             ....   82
 Basis Dimension        Dim             ....  782

ORBITAL ENERGIES
----------------

  NO   OCC          E(Eh)            E(eV)
   0   2.0000     -11.260627      -306.4172
   1   2.0000     -11.259838      -306.3958
   2   2.0000     -11.241732      -305.9031
   3   2.0000     -11.241731      -305.9030
   4   2.0000     -11.240774      -305.8770
   5   2.0000     -11.240774      -305.8770
   6   2.0000     -11.239712      -305.8481
   7   2.0000     -11.239712      -305.8481
   8   2.0000     -11.234515      -305.7067
   9   2.0000     -11.234515      -305.7067
  10   2.0000     -11.231132      -305.6147
  11   2.0000     -11.231132      -305.6146
  12   2.0000      -1.161213       -31.5982
  13   2.0000      -1.109479       -30.1905
  14   2.0000      -1.073954       -29.2238
  15   2.0000      -1.053792       -28.6751
  16   2.0000      -1.023476       -27.8502
  17   2.0000      -0.942483       -25.6463
  18   2.0000      -0.898404       -24.4468
  19   2.0000      -0.861932       -23.4544
  20   2.0000      -0.805145       -21.9091
  21   2.0000      -0.737354       -20.0644
  22   2.0000      -0.727599       -19.7990
  23   2.0000      -0.699089       -19.0232
  24   2.0000      -0.668950       -18.2031
  25   2.0000      -0.661557       -18.0019
  26   2.0000      -0.618626       -16.8337
  27   2.0000      -0.613847       -16.7036
  28   2.0000      -0.590488       -16.0680
  29   2.0000      -0.579440       -15.7674
  30   2.0000      -0.554013       -15.0755
  31   2.0000      -0.525329       -14.2949
  32   2.0000      -0.523468       -14.2443
  33   2.0000      -0.510230       -13.8841
  34   2.0000      -0.477854       -13.0031
  35   2.0000      -0.473115       -12.8741
  36   2.0000      -0.453425       -12.3383
  37   2.0000      -0.396072       -10.7777
  38   2.0000      -0.367931       -10.0119
  39   2.0000      -0.341680        -9.2976
  40   2.0000      -0.249247        -6.7823
  41   0.0000       0.028459         0.7744
  42   0.0000       0.030535         0.8309
  43   0.0000       0.032590         0.8868
  44   0.0000       0.038162         1.0385
  45   0.0000       0.042382         1.1533

MULLIKEN ATOMIC CHARGES
-----------------------
   0 C :   -0.873047
   1 C :   -0.234597
   2 C :   -0.334284
   3 C :   -0.246184
   4 C :   -0.590184
   5 C :    1.365328
   6 C :    1.365308
   7 C :   -0.590228
   8 C :   -0.246095
   9 C :   -0.334293
  10 C :   -0.234561
  11 C :   -0.873089
  12 H :   -0.024510
  13 H :    0.276355
  14 H :    0.252073
  15 H :    0.374945
  16 H :    0.034083
  17 H :    0.034063
  18 H :    0.374979
  19 H :    0.252055
  20 H :    0.276342
  21 H :   -0.024460
Sum of atomic charges:   -0.0000000

LOEWDIN ATOMIC CHARGES
----------------------
   0 C :    0.216029
   1 C :    0.204459
   2 C :    0.201842
   3 C :    0.201669
   4 C :    0.221817
   5 C :   -0.086367
   6 C :   -0.086367
   7 C :    0.221817
   8 C :    0.201670
   9 C :    0.201842
  10 C :    0.204459
  11 C :    0.216029
  12 H :   -0.192782
  13 H :   -0.191719
  14 H :   -0.197048
  15 H :   -0.191789
  16 H :   -0.186110
  17 H :   -0.186110
  18 H :   -0.191789
  19 H :   -0.197048
  20 H :   -0.191720
  21 H :   -0.192782

  Mayer bond orders larger than 0.100000
B(  0-C ,  1-C ) :   0.7166 B(  0-C ,  5-C ) :  -0.3532 B(  0-C ,  6-C ) :   1.0658
B(  0-C ,  7-C ) :   0.1200 B(  0-C , 11-C ) :   0.1624 B(  0-C , 12-H ) :   1.4748
B(  0-C , 13-H ) :  -0.1265 B(  1-C ,  2-C ) :   1.4742 B(  1-C ,  4-C ) :   0.1384
B(  1-C ,  6-C ) :   0.2078 B(  1-C , 12-H ) :  -0.1459 B(  1-C , 13-H ) :   1.0274
B(  1-C , 14-H ) :  -0.1302 B(  2-C ,  3-C ) :   0.8424 B(  2-C ,  6-C ) :   0.1348
B(  2-C , 14-H ) :   1.0264 B(  3-C ,  4-C ) :   1.5099 B(  3-C , 14-H ) :  -0.2103
B(  3-C , 15-H ) :   0.8827 B(  4-C ,  5-C ) :   0.2364 B(  4-C ,  7-C ) :   0.1287
B(  4-C , 11-C ) :   0.1200 B(  4-C , 15-H ) :  -0.1235 B(  4-C , 16-H ) :   1.3906
B(  5-C ,  6-C ) :   0.7371 B(  5-C ,  9-C ) :   0.1348 B(  5-C , 10-C ) :   0.2078
B(  5-C , 11-C ) :   1.0658 B(  5-C , 16-H ) :  -0.1788 B(  5-C , 21-H ) :  -0.1705
B(  6-C ,  7-C ) :   0.2364 B(  6-C , 11-C ) :  -0.3532 B(  6-C , 12-H ) :  -0.1706
B(  6-C , 17-H ) :  -0.1787 B(  7-C ,  8-C ) :   1.5099 B(  7-C , 10-C ) :   0.1384
B(  7-C , 17-H ) :   1.3907 B(  7-C , 18-H ) :  -0.1235 B(  8-C ,  9-C ) :   0.8423
B(  8-C , 18-H ) :   0.8827 B(  8-C , 19-H ) :  -0.2103 B(  9-C , 10-C ) :   1.4742
B(  9-C , 19-H ) :   1.0264 B( 10-C , 11-C ) :   0.7167 B( 10-C , 19-H ) :  -0.1302
B( 10-C , 20-H ) :   1.0275 B( 10-C , 21-H ) :  -0.1459 B( 11-C , 20-H ) :  -0.1265
B( 11-C , 21-H ) :   1.4747

MP2 TOTAL ENERGY:     -462.215933332 Eh
FINAL SINGLE POINT ENERGY      -462.215933332418

DIPOLE MOMENT
-------------
                                X             Y             Z
Electronic contribution:     -0.00000      -0.00000       0.00987
Nuclear contribution   :      0.00000       0.00000       0.05843
                        -----------------------------------------
Total Dipole Moment    :     -0.00000      -0.00000       0.06830
                        -----------------------------------------
Magnitude (a.u.)       :      0.06830
Magnitude (Debye)      :      0.17360

Rotational constants in cm-1:     0.066889     0.024828     0.019662
Rotational constants in MHz :  2005.275353   744.317892   589.449142

                             ****ORCA TERMINATED NORMALLY****
TOTAL RUN TIME: 0 days 0 hours 23 minutes 34 seconds 791 msec
