                         Program Version 5.0.3 -  RELEASE  -
|  1> !ri-mp2 aug-cc-pvtz aug-cc-pvtz/c tightscf
|  2> %pal nprocs 16 end
|  3> %maxcore 3800
|  4>
|  5> * xyz 0 1
|  6> C     0.000000     3.833474   -0.352624
|  7> C     0.000000    -3.833474   -0.352624
|  8> C     0.000000     2.560916    0.492939
|  9> C     0.000000    -2.560916    0.492939
| 10> C     0.000000     1.279918   -0.342345
| 11> C     0.000000    -1.279918   -0.342345
| 12> C     0.000000     0.000000    0.494121
| 13> H     0.000000     4.728440    0.271238
| 14> H    -0.880595     3.878602   -0.996848
| 15> H     0.880595     3.878602   -0.996848
| 16> H    -0.880595    -3.878602   -0.996848
| 17> H     0.880595    -3.878602   -0.996848
| 18> H     0.000000    -4.728440    0.271238
| 19> H    -0.873897     2.560727    1.151361
| 20> H     0.873897     2.560727    1.151361
| 21> H     0.873897    -2.560727    1.151361
| 22> H    -0.873897    -2.560727    1.151361
| 23> H    -0.874400     1.280845   -1.001938
| 24> H     0.874400     1.280845   -1.001938
| 25> H     0.874400    -1.280845   -1.001938
| 26> H    -0.874400    -1.280845   -1.001938
| 27> H     0.874450     0.000000    1.153429
| 28> H    -0.874450     0.000000    1.153429
| 29> *
| 30>
| 31>                          ****END OF INPUT****

CARTESIAN COORDINATES (ANGSTROEM)
---------------------------------
  C      0.000000    3.833474   -0.352624
  C      0.000000   -3.833474   -0.352624
  C      0.000000    2.560916    0.492939
  C      0.000000   -2.560916    0.492939
  C      0.000000    1.279918   -0.342345
  C      0.000000   -1.279918   -0.342345
  C      0.000000    0.000000    0.494121
  H      0.000000    4.728440    0.271238
  H     -0.880595    3.878602   -0.996848
  H      0.880595    3.878602   -0.996848
  H     -0.880595   -3.878602   -0.996848
  H      0.880595   -3.878602   -0.996848
  H      0.000000   -4.728440    0.271238
  H     -0.873897    2.560727    1.151361
  H      0.873897    2.560727    1.151361
  H      0.873897   -2.560727    1.151361
  H     -0.873897   -2.560727    1.151361
  H     -0.874400    1.280845   -1.001938
  H      0.874400    1.280845   -1.001938
  H      0.874400   -1.280845   -1.001938
  H     -0.874400   -1.280845   -1.001938
  H      0.874450    0.000000    1.153429
  H     -0.874450    0.000000    1.153429

 Total Charge           Charge          ....    0
 Multiplicity           Mult            ....    1
 Number of Electrons    NEL             ....   58
 Basis Dimension        Dim             ....  690

ORBITAL ENERGIES
----------------

  NO   OCC          E(Eh)            E(eV)
   0   2.0000     -11.214176      -305.1532
   1   2.0000     -11.214175      -305.1532
   2   2.0000     -11.212294      -305.1020
   3   2.0000     -11.211858      -305.0902
   4   2.0000     -11.211434      -305.0786
   5   2.0000     -11.208360      -304.9950
   6   2.0000     -11.208360      -304.9950
   7   2.0000      -1.087221       -29.5848
   8   2.0000      -1.049877       -28.5686
   9   2.0000      -0.990443       -26.9513
  10   2.0000      -0.915153       -24.9026
  11   2.0000      -0.836668       -22.7669
  12   2.0000      -0.787060       -21.4170
  13   2.0000      -0.784172       -21.3384
  14   2.0000      -0.652794       -17.7634
  15   2.0000      -0.620516       -16.8851
  16   2.0000      -0.590759       -16.0754
  17   2.0000      -0.581391       -15.8205
  18   2.0000      -0.573521       -15.6063
  19   2.0000      -0.552105       -15.0236
  20   2.0000      -0.522972       -14.2308
  21   2.0000      -0.513012       -13.9598
  22   2.0000      -0.502409       -13.6712
  23   2.0000      -0.482567       -13.1313
  24   2.0000      -0.472446       -12.8559
  25   2.0000      -0.461283       -12.5521
  26   2.0000      -0.456740       -12.4285
  27   2.0000      -0.455979       -12.4078
  28   2.0000      -0.433746       -11.8028
  29   0.0000       0.031524         0.8578
  30   0.0000       0.031669         0.8618
  31   0.0000       0.035947         0.9782
  32   0.0000       0.037822         1.0292
  33   0.0000       0.045947         1.2503

MULLIKEN ATOMIC CHARGES
-----------------------
   0 C :   -1.002896
   1 C :   -1.002897
   2 C :   -0.504571
   3 C :   -0.504571
   4 C :   -0.284095
   5 C :   -0.284095
   6 C :   -0.388151
   7 H :    0.272601
   8 H :    0.261963
   9 H :    0.261963
  10 H :    0.261963
  11 H :    0.261963
  12 H :    0.272601
  13 H :    0.228987
  14 H :    0.228987
  15 H :    0.228987
  16 H :    0.228987
  17 H :    0.243225
  18 H :    0.243225
  19 H :    0.243225
  20 H :    0.243225
  21 H :    0.244686
  22 H :    0.244686
Sum of atomic charges:    0.0000000

LOEWDIN ATOMIC CHARGES
----------------------
   0 C :    0.577330
   1 C :    0.577330
   2 C :    0.256215
   3 C :    0.256215
   4 C :    0.268614
   5 C :    0.268614
   6 C :    0.274887
   7 H :   -0.174555
   8 H :   -0.171970
   9 H :   -0.171970
  10 H :   -0.171970
  11 H :   -0.171970
  12 H :   -0.174555
  13 H :   -0.148383
  14 H :   -0.148383
  15 H :   -0.148383
  16 H :   -0.148383
  17 H :   -0.141811
  18 H :   -0.141811
  19 H :   -0.141811
  20 H :   -0.141811
  21 H :   -0.140717
  22 H :   -0.140717

  Mayer bond orders larger than 0.100000
B(  0-C ,  2-C ) :   0.9315 B(  0-C ,  7-H ) :   0.9930 B(  0-C ,  8-H ) :   0.9696
B(  0-C ,  9-H ) :   0.9696 B(  1-C ,  3-C ) :   0.9315 B(  1-C , 10-H ) :   0.9696
B(  1-C , 11-H ) :   0.9696 B(  1-C , 12-H ) :   0.9930 B(  2-C ,  4-C ) :   0.9070
B(  2-C , 13-H ) :   0.9729 B(  2-C , 14-H ) :   0.9729 B(  3-C ,  5-C ) :   0.9070
B(  3-C , 15-H ) :   0.9729 B(  3-C , 16-H ) :   0.9729 B(  4-C ,  6-C ) :   0.9734
B(  4-C , 17-H ) :   0.9533 B(  4-C , 18-H ) :   0.9533 B(  5-C ,  6-C ) :   0.9734
B(  5-C , 19-H ) :   0.9533 B(  5-C , 20-H ) :   0.9533 B(  6-C , 21-H ) :   0.9478
B(  6-C , 22-H ) :   0.9478

MP2 TOTAL ENERGY:     -275.759958741 Eh
FINAL SINGLE POINT ENERGY      -275.759958740663

DIPOLE MOMENT
-------------
                                X             Y             Z
Electronic contribution:      0.00000      -0.00000       0.62056
Nuclear contribution   :      0.00000       0.00000      -0.58741
                        -----------------------------------------
Total Dipole Moment    :      0.00000      -0.00000       0.03315
                        -----------------------------------------
Magnitude (a.u.)       :      0.03315
Magnitude (Debye)      :      0.08427

Rotational constants in cm-1:     0.404951     0.024099     0.023430
Rotational constants in MHz : 12140.115090   722.460539   702.409628

                             ****ORCA TERMINATED NORMALLY****
TOTAL RUN TIME: 0 days 0 hours 8 minutes 33 seconds 675 msec
