                         Program Version 5.0.3 -  RELEASE  -
|  1> !ri-mp2 aug-cc-pvtz aug-cc-pvtz/c tightscf
|  2> %pal nprocs 16 end
|  3> %maxcore 3800
|  4>
|  5> * xyz 0 1
|  6> C     -2.341682    0.111370    0.062323
|  7> C      4.074930   -0.182147    0.064954
|  8> C     -1.005389   -0.584989    0.280499
|  9> C      2.730567    0.451968   -0.287379
| 10> C      0.185855    0.257397   -0.174608
| 11> C      1.531563   -0.380318    0.168545
| 12> N     -3.379576   -0.706845   -0.277643
| 13> O     -2.490867    1.311718    0.200335
| 14> H      4.179038   -0.312677    1.144121
| 15> H      4.907792    0.434652   -0.275258
| 16> H      4.181268   -1.165989   -0.397058
| 17> H     -0.928223   -0.779637    1.355244
| 18> H     -0.998311   -1.560235   -0.212711
| 19> H      2.671429    0.604297   -1.369128
| 20> H      2.667243    1.447267    0.161800
| 21> H      0.120409    0.418511   -1.254432
| 22> H      0.107976    1.243573    0.284716
| 23> H      1.592586   -0.535216    1.251266
| 24> H      1.594355   -1.376608   -0.283106
| 25> H     -4.296353   -0.304735   -0.373362
| 26> H     -3.270304   -1.698720   -0.377277
| 27> *
| 28>
| 29>                          ****END OF INPUT****

CARTESIAN COORDINATES (ANGSTROEM)
---------------------------------
  C     -2.341682    0.111370    0.062323
  C      4.074930   -0.182147    0.064954
  C     -1.005389   -0.584989    0.280499
  C      2.730567    0.451968   -0.287379
  C      0.185855    0.257397   -0.174608
  C      1.531563   -0.380318    0.168545
  N     -3.379576   -0.706845   -0.277643
  O     -2.490867    1.311718    0.200335
  H      4.179038   -0.312677    1.144121
  H      4.907792    0.434652   -0.275258
  H      4.181268   -1.165989   -0.397058
  H     -0.928223   -0.779637    1.355244
  H     -0.998311   -1.560235   -0.212711
  H      2.671429    0.604297   -1.369128
  H      2.667243    1.447267    0.161800
  H      0.120409    0.418511   -1.254432
  H      0.107976    1.243573    0.284716
  H      1.592586   -0.535216    1.251266
  H      1.594355   -1.376608   -0.283106
  H     -4.296353   -0.304735   -0.373362
  H     -3.270304   -1.698720   -0.377277

 Total Charge           Charge          ....    0
 Multiplicity           Mult            ....    1
 Number of Electrons    NEL             ....   64
 Basis Dimension        Dim             ....  667

ORBITAL ENERGIES
----------------

  NO   OCC          E(Eh)            E(eV)
   0   2.0000     -20.514993      -558.2414
   1   2.0000     -15.584109      -424.0652
   2   2.0000     -11.349103      -308.8248
   3   2.0000     -11.239149      -305.8328
   4   2.0000     -11.220769      -305.3326
   5   2.0000     -11.219268      -305.2918
   6   2.0000     -11.217667      -305.2482
   7   2.0000     -11.211353      -305.0764
   8   2.0000      -1.378389       -37.5079
   9   2.0000      -1.209675       -32.9169
  10   2.0000      -1.089218       -29.6391
  11   2.0000      -1.033244       -28.1160
  12   2.0000      -0.946949       -25.7678
  13   2.0000      -0.851081       -23.1591
  14   2.0000      -0.794385       -21.6163
  15   2.0000      -0.781501       -21.2657
  16   2.0000      -0.720975       -19.6187
  17   2.0000      -0.670864       -18.2552
  18   2.0000      -0.650425       -17.6990
  19   2.0000      -0.613913       -16.7054
  20   2.0000      -0.599686       -16.3183
  21   2.0000      -0.575043       -15.6477
  22   2.0000      -0.568973       -15.4826
  23   2.0000      -0.551685       -15.0121
  24   2.0000      -0.525302       -14.2942
  25   2.0000      -0.503879       -13.7112
  26   2.0000      -0.482471       -13.1287
  27   2.0000      -0.470104       -12.7922
  28   2.0000      -0.464449       -12.6383
  29   2.0000      -0.462319       -12.5803
  30   2.0000      -0.417960       -11.3733
  31   2.0000      -0.413496       -11.2518
  32   0.0000       0.022054         0.6001
  33   0.0000       0.031276         0.8511
  34   0.0000       0.037042         1.0080
  35   0.0000       0.038553         1.0491
  36   0.0000       0.046616         1.2685

MULLIKEN ATOMIC CHARGES
-----------------------
   0 C :    0.511110
   1 C :   -1.002548
   2 C :   -0.053208
   3 C :   -0.489385
   4 C :   -0.372569
   5 C :   -0.285993
   6 N :   -0.398720
   7 O :   -0.860215
   8 H :    0.267890
   9 H :    0.278068
  10 H :    0.262479
  11 H :    0.270025
  12 H :    0.158598
  13 H :    0.238314
  14 H :    0.240820
  15 H :    0.241624
  16 H :    0.231574
  17 H :    0.252378
  18 H :    0.241030
  19 H :    0.158571
  20 H :    0.110155
Sum of atomic charges:    0.0000000

LOEWDIN ATOMIC CHARGES
----------------------
   0 C :   -0.665773
   1 C :    0.578542
   2 C :    0.282192
   3 C :    0.259077
   4 C :    0.271739
   5 C :    0.268924
   6 N :    0.853364
   7 O :    0.437353
   8 H :   -0.171504
   9 H :   -0.173737
  10 H :   -0.171855
  11 H :   -0.141691
  12 H :   -0.159738
  13 H :   -0.147287
  14 H :   -0.146278
  15 H :   -0.135915
  16 H :   -0.151809
  17 H :   -0.141920
  18 H :   -0.141917
  19 H :   -0.293764
  20 H :   -0.308003

  Mayer bond orders larger than 0.100000
B(  0-C ,  2-C ) :   0.4805 B(  0-C ,  6-N ) :   0.9885 B(  0-C ,  7-O ) :   1.3166
B(  1-C ,  3-C ) :   0.9328 B(  1-C ,  8-H ) :   0.9634 B(  1-C ,  9-H ) :   0.9891
B(  1-C , 10-H ) :   0.9663 B(  2-C ,  4-C ) :   0.9802 B(  2-C ,  6-N ) :  -0.1408
B(  2-C , 11-H ) :   0.9151 B(  2-C , 12-H ) :   0.9957 B(  3-C ,  5-C ) :   0.8962
B(  3-C , 13-H ) :   0.9696 B(  3-C , 14-H ) :   0.9607 B(  4-C ,  5-C ) :   0.9134
B(  4-C , 15-H ) :   0.9264 B(  4-C , 16-H ) :   0.9812 B(  5-C , 17-H ) :   0.9530
B(  5-C , 18-H ) :   0.9584 B(  6-N , 19-H ) :   1.0303 B(  6-N , 20-H ) :   1.0868

MP2 TOTAL ENERGY:     -365.754125577 Eh
FINAL SINGLE POINT ENERGY      -365.754125577050

DIPOLE MOMENT
-------------
                                X             Y             Z
Electronic contribution:    -12.98851       2.21101       0.16092
Nuclear contribution   :     13.01338      -3.72456      -0.35864
                        -----------------------------------------
Total Dipole Moment    :      0.02487      -1.51356      -0.19771
                        -----------------------------------------
Magnitude (a.u.)       :      1.52662
Magnitude (Debye)      :      3.88036

Rotational constants in cm-1:     0.235553     0.021688     0.020508
Rotational constants in MHz :  7061.703718   650.197356   614.811938

                             ****ORCA TERMINATED NORMALLY****
TOTAL RUN TIME: 0 days 0 hours 9 minutes 29 seconds 856 msec
