                         Program Version 5.0.3 -  RELEASE  -
|  1> !ri-mp2 aug-cc-pvtz aug-cc-pvtz/c tightscf
|  2> %pal nprocs 16 end
|  3>
|  4> * xyz 0 1
|  5> S     -0.588948   -0.854750   -0.597619
|  6> S      0.588932    0.854989   -0.597326
|  7> O     -2.696710    0.623868    0.346427
|  8> O      2.696697   -0.624032    0.346082
|  9> C     -1.855232   -0.435708    0.688286
| 10> C      1.855275    0.435453    0.688361
| 11> H     -1.332873   -0.262522    1.630730
| 12> H     -2.466770   -1.333392    0.769900
| 13> H      1.332960    0.261952    1.630771
| 14> H      2.466846    1.333087    0.770258
| 15> H     -2.164171    1.423911    0.259063
| 16> H      2.164119   -1.424019    0.258442
| 17> *
| 18>
| 19>                          ****END OF INPUT****

CARTESIAN COORDINATES (ANGSTROEM)
---------------------------------
  S     -0.588948   -0.854750   -0.597619
  S      0.588932    0.854989   -0.597326
  O     -2.696710    0.623868    0.346427
  O      2.696697   -0.624032    0.346082
  C     -1.855232   -0.435708    0.688286
  C      1.855275    0.435453    0.688361
  H     -1.332873   -0.262522    1.630730
  H     -2.466770   -1.333392    0.769900
  H      1.332960    0.261952    1.630771
  H      2.466846    1.333087    0.770258
  H     -2.164171    1.423911    0.259063
  H      2.164119   -1.424019    0.258442

 Total Charge           Charge          ....    0
 Multiplicity           Mult            ....    1
 Number of Electrons    NEL             ....   66
 Basis Dimension        Dim             ....  422

ORBITAL ENERGIES
----------------

  NO   OCC          E(Eh)            E(eV)
   0   2.0000     -91.989272     -2503.1554
   1   2.0000     -91.989270     -2503.1553
   2   2.0000     -20.584037      -560.1201
   3   2.0000     -20.584036      -560.1201
   4   2.0000     -11.331115      -308.3353
   5   2.0000     -11.331114      -308.3353
   6   2.0000      -8.987942      -244.5743
   7   2.0000      -8.987764      -244.5695
   8   2.0000      -6.668938      -181.4710
   9   2.0000      -6.668620      -181.4624
  10   2.0000      -6.667601      -181.4347
  11   2.0000      -6.667548      -181.4332
  12   2.0000      -6.666795      -181.4127
  13   2.0000      -6.666794      -181.4127
  14   2.0000      -1.392600       -37.8946
  15   2.0000      -1.391991       -37.8780
  16   2.0000      -1.076739       -29.2995
  17   2.0000      -0.991688       -26.9852
  18   2.0000      -0.908991       -24.7349
  19   2.0000      -0.812074       -22.0977
  20   2.0000      -0.721093       -19.6219
  21   2.0000      -0.712177       -19.3793
  22   2.0000      -0.649967       -17.6865
  23   2.0000      -0.640005       -17.4154
  24   2.0000      -0.616146       -16.7662
  25   2.0000      -0.607568       -16.5328
  26   2.0000      -0.536951       -14.6112
  27   2.0000      -0.520050       -14.1513
  28   2.0000      -0.484947       -13.1961
  29   2.0000      -0.457897       -12.4600
  30   2.0000      -0.446376       -12.1465
  31   2.0000      -0.374504       -10.1908
  32   2.0000      -0.373296       -10.1579
  33   0.0000       0.026865         0.7310
  34   0.0000       0.033202         0.9035
  35   0.0000       0.042653         1.1606
  36   0.0000       0.043535         1.1846
  37   0.0000       0.051391         1.3984

MULLIKEN ATOMIC CHARGES
-----------------------
   0 S :   -0.226506
   1 S :   -0.226507
   2 O :   -0.557596
   3 O :   -0.557597
   4 C :   -0.077417
   5 C :   -0.077421
   6 H :    0.270830
   7 H :    0.381193
   8 H :    0.270826
   9 H :    0.381197
  10 H :    0.209497
  11 H :    0.209500
Sum of atomic charges:   -0.0000000

LOEWDIN ATOMIC CHARGES
----------------------
   0 S :    0.681839
   1 S :    0.681837
   2 O :    0.750724
   3 O :    0.750724
   4 C :   -0.385540
   5 C :   -0.385540
   6 H :   -0.251583
   7 H :   -0.256886
   8 H :   -0.251584
   9 H :   -0.256887
  10 H :   -0.538548
  11 H :   -0.538556

  Mayer bond orders larger than 0.100000
B(  0-S ,  1-S ) :   1.0429 B(  0-S ,  4-C ) :   0.9203 B(  1-S ,  5-C ) :   0.9203
B(  2-O ,  4-C ) :   0.7901 B(  2-O , 10-H ) :   0.9619 B(  3-O ,  5-C ) :   0.7901
B(  3-O , 11-H ) :   0.9619 B(  4-C ,  6-H ) :   0.9169 B(  4-C ,  7-H ) :   0.8622
B(  5-C ,  8-H ) :   0.9169 B(  5-C ,  9-H ) :   0.8622

MP2 TOTAL ENERGY:    -1025.330451334 Eh
FINAL SINGLE POINT ENERGY     -1025.330451333923

DIPOLE MOMENT
-------------
                                X             Y             Z
Electronic contribution:     -0.00010       0.00083      -4.32774
Nuclear contribution   :      0.00011      -0.00098       5.27189
                        -----------------------------------------
Total Dipole Moment    :      0.00001      -0.00015       0.94415
                        -----------------------------------------
Magnitude (a.u.)       :      0.94415
Magnitude (Debye)      :      2.39984

Rotational constants in cm-1:     0.145008     0.041370     0.038789
Rotational constants in MHz :  4347.222576  1240.234015  1162.876185

                             ****ORCA TERMINATED NORMALLY****
TOTAL RUN TIME: 0 days 0 hours 2 minutes 28 seconds 108 msec
