                         Program Version 5.0.3 -  RELEASE  -
|  1> !ri-mp2 aug-cc-pvtz aug-cc-pvtz/c tightscf
|  2> %pal nprocs 16 end
|  3>
|  4> * xyz 0 1
|  5> O      1.964875   -1.028829    0.000000
|  6> N     -2.725203   -0.414146    0.000000
|  7> N      0.766731    2.336947   -0.000002
|  8> C     -0.171149   -0.063923    0.000000
|  9> C      0.638308   -1.147035    0.000000
| 10> C     -1.584579   -0.252310    0.000000
| 11> C      0.348128    1.264198   -0.000001
| 12> H      2.392732   -1.891508    0.000000
| 13> H      0.213330   -2.143050    0.000002
| 14> *
| 15>
| 16>                          ****END OF INPUT****

CARTESIAN COORDINATES (ANGSTROEM)
---------------------------------
  O      1.964875   -1.028829    0.000000
  N     -2.725203   -0.414146    0.000000
  N      0.766731    2.336947   -0.000002
  C     -0.171149   -0.063923    0.000000
  C      0.638308   -1.147035    0.000000
  C     -1.584579   -0.252310    0.000000
  C      0.348128    1.264198   -0.000001
  H      2.392732   -1.891508    0.000000
  H      0.213330   -2.143050    0.000002

 Total Charge           Charge          ....    0
 Multiplicity           Mult            ....    1
 Number of Electrons    NEL             ....   48
 Basis Dimension        Dim             ....  368

ORBITAL ENERGIES
----------------

  NO   OCC          E(Eh)            E(eV)
   0   2.0000     -20.672327      -562.5226
   1   2.0000     -15.592069      -424.2818
   2   2.0000     -15.590274      -424.2329
   3   2.0000     -11.400355      -310.2194
   4   2.0000     -11.329663      -308.2958
   5   2.0000     -11.299683      -307.4800
   6   2.0000     -11.295730      -307.3724
   7   2.0000      -1.494108       -40.6567
   8   2.0000      -1.251512       -34.0554
   9   2.0000      -1.235238       -33.6125
  10   2.0000      -1.141272       -31.0556
  11   2.0000      -0.941922       -25.6310
  12   2.0000      -0.856472       -23.3058
  13   2.0000      -0.765098       -20.8194
  14   2.0000      -0.756391       -20.5825
  15   2.0000      -0.663888       -18.0653
  16   2.0000      -0.619429       -16.8555
  17   2.0000      -0.581043       -15.8110
  18   2.0000      -0.573381       -15.6025
  19   2.0000      -0.560483       -15.2515
  20   2.0000      -0.499463       -13.5911
  21   2.0000      -0.496863       -13.5203
  22   2.0000      -0.483169       -13.1477
  23   2.0000      -0.390003       -10.6125
  24   0.0000       0.004049         0.1102
  25   0.0000       0.032858         0.8941
  26   0.0000       0.041842         1.1386
  27   0.0000       0.058402         1.5892
  28   0.0000       0.065393         1.7794

MULLIKEN ATOMIC CHARGES
-----------------------
   0 O :   -0.483688
   1 N :   -0.678039
   2 N :   -0.669034
   3 C :    1.465665
   4 C :   -0.739617
   5 C :    0.145891
   6 C :    0.242847
   7 H :    0.211696
   8 H :    0.504280
Sum of atomic charges:    0.0000000

LOEWDIN ATOMIC CHARGES
----------------------
   0 O :    0.864249
   1 N :    0.273211
   2 N :    0.279506
   3 C :   -0.260930
   4 C :   -0.015858
   5 C :   -0.283201
   6 C :   -0.267386
   7 H :   -0.437323
   8 H :   -0.152270

  Mayer bond orders larger than 0.100000
B(  0-O ,  4-C ) :   1.1099 B(  0-O ,  7-H ) :   0.9783 B(  1-N ,  4-C ) :   0.1013
B(  1-N ,  5-C ) :   2.1230 B(  2-N ,  6-C ) :   2.2302 B(  3-C ,  4-C ) :   0.7971
B(  3-C ,  5-C ) :   0.6253 B(  3-C ,  6-C ) :   0.4034 B(  4-C ,  6-C ) :   0.1705
B(  4-C ,  8-H ) :   0.7587 B(  5-C ,  6-C ) :   0.2054

MP2 TOTAL ENERGY:     -337.707148183 Eh
FINAL SINGLE POINT ENERGY      -337.707148182649

DIPOLE MOMENT
-------------
                                X             Y             Z
Electronic contribution:     -1.03747       1.46350      -0.00000
Nuclear contribution   :      2.51598      -3.87093       0.00000
                        -----------------------------------------
Total Dipole Moment    :      1.47851      -2.40743       0.00000
                        -----------------------------------------
Magnitude (a.u.)       :      2.82519
Magnitude (Debye)      :      7.18106

Rotational constants in cm-1:     0.120950     0.077697     0.047307
Rotational constants in MHz :  3625.988866  2329.299603  1418.237667

                             ****ORCA TERMINATED NORMALLY****
TOTAL RUN TIME: 0 days 0 hours 1 minutes 57 seconds 506 msec
