                         Program Version 5.0.3 -  RELEASE  -
|  1> !ri-mp2 aug-cc-pvtz aug-cc-pvtz/c tightscf
|  2> %pal nprocs 16 end
|  3>
|  4> * xyz 0 1
|  5> O      1.180945   -0.108391   -0.000024
|  6> C     -0.123542   -0.002551    0.000003
|  7> C     -1.320286    0.013531    0.000025
|  8> H      1.594854    0.763873   -0.000012
|  9> H     -2.379443    0.037377    0.000043
| 10> *
| 11>
| 12>                          ****END OF INPUT****

CARTESIAN COORDINATES (ANGSTROEM)
---------------------------------
  O      1.180945   -0.108391   -0.000024
  C     -0.123542   -0.002551    0.000003
  C     -1.320286    0.013531    0.000025
  H      1.594854    0.763873   -0.000012
  H     -2.379443    0.037377    0.000043

 Total Charge           Charge          ....    0
 Multiplicity           Mult            ....    1
 Number of Electrons    NEL             ....   22
 Basis Dimension        Dim             ....  184

ORBITAL ENERGIES
----------------

  NO   OCC          E(Eh)            E(eV)
   0   2.0000     -20.639690      -561.6345
   1   2.0000     -11.298300      -307.4424
   2   2.0000     -11.222134      -305.3698
   3   2.0000      -1.452461       -39.5235
   4   2.0000      -1.024545       -27.8793
   5   2.0000      -0.824898       -22.4466
   6   2.0000      -0.707805       -19.2604
   7   2.0000      -0.666162       -18.1272
   8   2.0000      -0.624435       -16.9917
   9   2.0000      -0.396797       -10.7974
  10   2.0000      -0.379365       -10.3231
  11   0.0000       0.023486         0.6391
  12   0.0000       0.036350         0.9891
  13   0.0000       0.079281         2.1573
  14   0.0000       0.094762         2.5786
  15   0.0000       0.095226         2.5912

MULLIKEN ATOMIC CHARGES
-----------------------
   0 O :   -0.413074
   1 C :    0.701293
   2 C :   -1.160981
   3 H :    0.268245
   4 H :    0.604517
Sum of atomic charges:    0.0000000

LOEWDIN ATOMIC CHARGES
----------------------
   0 O :    0.759099
   1 C :   -0.268653
   2 C :    0.304465
   3 H :   -0.465932
   4 H :   -0.328979

  Mayer bond orders larger than 0.100000
B(  0-O ,  1-C ) :   0.9806 B(  0-O ,  3-H ) :   0.9424 B(  1-C ,  2-C ) :   1.7304
B(  1-C ,  4-H ) :   0.1046 B(  2-C ,  4-H ) :   0.4812

MP2 TOTAL ENERGY:     -152.280484141 Eh
FINAL SINGLE POINT ENERGY      -152.280484140647

DIPOLE MOMENT
-------------
                                X             Y             Z
Electronic contribution:      0.97703      -0.17178      -0.00002
Nuclear contribution   :     -0.75286       0.78586       0.00003
                        -----------------------------------------
Total Dipole Moment    :      0.22416       0.61408       0.00001
                        -----------------------------------------
Magnitude (a.u.)       :      0.65371
Magnitude (Debye)      :      1.66161

Rotational constants in cm-1:    22.756188     0.325977     0.321373
Rotational constants in MHz : 682213.350276  9772.541732  9634.529421

                             ****ORCA TERMINATED NORMALLY****
TOTAL RUN TIME: 0 days 0 hours 0 minutes 32 seconds 243 msec
