                         Program Version 5.0.3 -  RELEASE  -
|  1> !ri-mp2 aug-cc-pvtz aug-cc-pvtz/c tightscf
|  2> %pal nprocs 16 end
|  3>
|  4> * xyz 0 1
|  5> C      3.128267   -0.342469   -0.000004
|  6> C      1.993557    0.059429   -0.000007
|  7> C      0.675269    0.570452   -0.000011
|  8> C     -0.435926   -0.189337    0.000004
|  9> C     -1.776186    0.350545    0.000000
| 10> C     -2.884737   -0.395944    0.000015
| 11> H      4.125512   -0.705141   -0.000001
| 12> H      0.578120    1.651724   -0.000027
| 13> H     -0.335274   -1.269130    0.000020
| 14> H     -1.864320    1.432522   -0.000016
| 15> H     -2.837239   -1.477747    0.000031
| 16> H     -3.868261    0.051719    0.000011
| 17> *
| 18>
| 19>                          ****END OF INPUT****

CARTESIAN COORDINATES (ANGSTROEM)
---------------------------------
  C      3.128267   -0.342469   -0.000004
  C      1.993557    0.059429   -0.000007
  C      0.675269    0.570452   -0.000011
  C     -0.435926   -0.189337    0.000004
  C     -1.776186    0.350545    0.000000
  C     -2.884737   -0.395944    0.000015
  H      4.125512   -0.705141   -0.000001
  H      0.578120    1.651724   -0.000027
  H     -0.335274   -1.269130    0.000020
  H     -1.864320    1.432522   -0.000016
  H     -2.837239   -1.477747    0.000031
  H     -3.868261    0.051719    0.000011

 Total Charge           Charge          ....    0
 Multiplicity           Mult            ....    1
 Number of Electrons    NEL             ....   42
 Basis Dimension        Dim             ....  414

ORBITAL ENERGIES
----------------

  NO   OCC          E(Eh)            E(eV)
   0   2.0000     -11.259110      -306.3760
   1   2.0000     -11.255823      -306.2865
   2   2.0000     -11.248049      -306.0750
   3   2.0000     -11.240311      -305.8644
   4   2.0000     -11.239295      -305.8368
   5   2.0000     -11.229098      -305.5593
   6   2.0000      -1.119731       -30.4694
   7   2.0000      -1.056303       -28.7435
   8   2.0000      -0.993859       -27.0443
   9   2.0000      -0.865083       -23.5401
  10   2.0000      -0.773800       -21.0562
  11   2.0000      -0.728233       -19.8162
  12   2.0000      -0.674996       -18.3676
  13   2.0000      -0.657095       -17.8805
  14   2.0000      -0.585024       -15.9193
  15   2.0000      -0.568660       -15.4740
  16   2.0000      -0.513904       -13.9840
  17   2.0000      -0.484746       -13.1906
  18   2.0000      -0.414621       -11.2824
  19   2.0000      -0.396099       -10.7784
  20   2.0000      -0.311836        -8.4855
  21   0.0000       0.028717         0.7814
  22   0.0000       0.031474         0.8565
  23   0.0000       0.034651         0.9429
  24   0.0000       0.045637         1.2418
  25   0.0000       0.056325         1.5327

MULLIKEN ATOMIC CHARGES
-----------------------
   0 C :   -1.452962
   1 C :    1.338554
   2 C :   -0.368238
   3 C :   -0.241220
   4 C :   -0.017124
   5 C :   -1.160191
   6 H :    0.463117
   7 H :    0.183702
   8 H :    0.132569
   9 H :    0.364239
  10 H :    0.350513
  11 H :    0.407041
Sum of atomic charges:    0.0000000

LOEWDIN ATOMIC CHARGES
----------------------
   0 C :    0.396952
   1 C :   -0.031007
   2 C :    0.116657
   3 C :    0.164616
   4 C :    0.144305
   5 C :    0.533591
   6 H :   -0.303096
   7 H :   -0.202752
   8 H :   -0.181416
   9 H :   -0.194446
  10 H :   -0.219485
  11 H :   -0.223919

  Mayer bond orders larger than 0.100000
B(  0-C ,  1-C ) :   0.9875 B(  0-C ,  2-C ) :  -0.1012 B(  0-C ,  6-H ) :   1.0415
B(  0-C , 10-H ) :   0.1049 B(  1-C ,  2-C ) :   0.2821 B(  1-C ,  4-C ) :   0.1829
B(  1-C ,  6-H ) :  -0.1973 B(  1-C ,  8-H ) :  -0.1048 B(  2-C ,  3-C ) :   1.2633
B(  2-C ,  7-H ) :   1.2059 B(  3-C ,  4-C ) :   0.4597 B(  3-C ,  5-C ) :  -0.1729
B(  3-C ,  8-H ) :   1.3744 B(  4-C ,  5-C ) :   1.3425 B(  4-C ,  9-H ) :   0.9894
B(  5-C ,  9-H ) :  -0.1025 B(  5-C , 10-H ) :   0.9940 B(  5-C , 11-H ) :   0.8500
B(  7-H ,  8-H ) :   0.1002

MP2 TOTAL ENERGY:     -231.633031743 Eh
FINAL SINGLE POINT ENERGY      -231.633031742513

DIPOLE MOMENT
-------------
                                X             Y             Z
Electronic contribution:      3.91276       0.30283      -0.00002
Nuclear contribution   :     -4.24261      -0.31915       0.00002
                        -----------------------------------------
Total Dipole Moment    :     -0.32985      -0.01632       0.00000
                        -----------------------------------------
Magnitude (a.u.)       :      0.33026
Magnitude (Debye)      :      0.83944

Rotational constants in cm-1:     0.921432     0.047491     0.045163
Rotational constants in MHz : 27623.828338  1423.750748  1353.966406

                             ****ORCA TERMINATED NORMALLY****
TOTAL RUN TIME: 0 days 0 hours 2 minutes 28 seconds 911 msec
