                         Program Version 5.0.3 -  RELEASE  -
|  1> !ri-mp2 aug-cc-pvtz aug-cc-pvtz/c tightscf
|  2> %pal nprocs 16 end
|  3>
|  4> * xyz 0 1
|  5> C     0.000000     1.388365       0.000000
|  6> C     1.202359     0.694182       0.000000
|  7> C    -1.202359     0.694182       0.000000
|  8> C     1.202359    -0.694182       0.000000
|  9> C    -1.202359    -0.694182       0.000000
| 10> C     0.000000    -1.388365       0.000000
| 11> F     0.000000     2.719949       0.000000
| 12> F     2.355545     1.359975       0.000000
| 13> F    -2.355545     1.359975       0.000000
| 14> F     2.355545    -1.359975       0.000000
| 15> F    -2.355545    -1.359975       0.000000
| 16> F     0.000000    -2.719949       0.000000
| 17> *
| 18>
| 19>                          ****END OF INPUT****

CARTESIAN COORDINATES (ANGSTROEM)
---------------------------------
  C      0.000000    1.388365    0.000000
  C      1.202359    0.694182    0.000000
  C     -1.202359    0.694182    0.000000
  C      1.202359   -0.694182    0.000000
  C     -1.202359   -0.694182    0.000000
  C      0.000000   -1.388365    0.000000
  F      0.000000    2.719949    0.000000
  F      2.355545    1.359975    0.000000
  F     -2.355545    1.359975    0.000000
  F      2.355545   -1.359975    0.000000
  F     -2.355545   -1.359975    0.000000
  F      0.000000   -2.719949    0.000000

 Total Charge           Charge          ....    0
 Multiplicity           Mult            ....    1
 Number of Electrons    NEL             ....   90
 Basis Dimension        Dim             ....  552

ORBITAL ENERGIES
----------------

  NO   OCC          E(Eh)            E(eV)
   0   2.0000     -26.362494      -717.3599
   1   2.0000     -26.362493      -717.3599
   2   2.0000     -26.362493      -717.3599
   3   2.0000     -26.362492      -717.3599
   4   2.0000     -26.362491      -717.3599
   5   2.0000     -26.362490      -717.3598
   6   2.0000     -11.390628      -309.9547
   7   2.0000     -11.390040      -309.9387
   8   2.0000     -11.390040      -309.9387
   9   2.0000     -11.388776      -309.9044
  10   2.0000     -11.388776      -309.9044
  11   2.0000     -11.388154      -309.8874
  12   2.0000      -1.695140       -46.1271
  13   2.0000      -1.687726       -45.9254
  14   2.0000      -1.687725       -45.9253
  15   2.0000      -1.674032       -45.5527
  16   2.0000      -1.674031       -45.5527
  17   2.0000      -1.667278       -45.3689
  18   2.0000      -1.233351       -33.5612
  19   2.0000      -1.089740       -29.6533
  20   2.0000      -1.089740       -29.6533
  21   2.0000      -0.940695       -25.5976
  22   2.0000      -0.940694       -25.5976
  23   2.0000      -0.861295       -23.4370
  24   2.0000      -0.837346       -22.7853
  25   2.0000      -0.828940       -22.5566
  26   2.0000      -0.780213       -21.2307
  27   2.0000      -0.776957       -21.1421
  28   2.0000      -0.776957       -21.1421
  29   2.0000      -0.776015       -21.1164
  30   2.0000      -0.776015       -21.1164
  31   2.0000      -0.753651       -20.5079
  32   2.0000      -0.753651       -20.5079
  33   2.0000      -0.729281       -19.8447
  34   2.0000      -0.729280       -19.8447
  35   2.0000      -0.721578       -19.6351
  36   2.0000      -0.708772       -19.2867
  37   2.0000      -0.708772       -19.2867
  38   2.0000      -0.698199       -18.9989
  39   2.0000      -0.640251       -17.4221
  40   2.0000      -0.640251       -17.4221
  41   2.0000      -0.605514       -16.4769
  42   2.0000      -0.546175       -14.8622
  43   2.0000      -0.390777       -10.6336
  44   2.0000      -0.390776       -10.6336
  45   0.0000       0.042240         1.1494
  46   0.0000       0.055448         1.5088
  47   0.0000       0.055448         1.5088
  48   0.0000       0.073738         2.0065
  49   0.0000       0.073738         2.0065

MULLIKEN ATOMIC CHARGES
-----------------------
   0 C :    0.414011
   1 C :    0.413995
   2 C :    0.413997
   3 C :    0.413997
   4 C :    0.413995
   5 C :    0.414011
   6 F :   -0.414001
   7 F :   -0.414001
   8 F :   -0.414002
   9 F :   -0.414002
  10 F :   -0.414001
  11 F :   -0.414001
Sum of atomic charges:   -0.0000000

LOEWDIN ATOMIC CHARGES
----------------------
   0 C :   -0.534292
   1 C :   -0.534292
   2 C :   -0.534292
   3 C :   -0.534292
   4 C :   -0.534292
   5 C :   -0.534292
   6 F :    0.534293
   7 F :    0.534292
   8 F :    0.534292
   9 F :    0.534292
  10 F :    0.534292
  11 F :    0.534293

  Mayer bond orders larger than 0.100000
B(  0-C ,  1-C ) :   1.2375 B(  0-C ,  2-C ) :   1.2375 B(  0-C ,  5-C ) :   0.1044
B(  0-C ,  6-F ) :   0.3950 B(  0-C ,  7-F ) :   0.1200 B(  0-C ,  8-F ) :   0.1200
B(  1-C ,  3-C ) :   1.2375 B(  1-C ,  4-C ) :   0.1043 B(  1-C ,  6-F ) :   0.1200
B(  1-C ,  7-F ) :   0.3950 B(  1-C ,  9-F ) :   0.1200 B(  2-C ,  3-C ) :   0.1043
B(  2-C ,  4-C ) :   1.2375 B(  2-C ,  6-F ) :   0.1200 B(  2-C ,  8-F ) :   0.3950
B(  2-C , 10-F ) :   0.1200 B(  3-C ,  5-C ) :   1.2375 B(  3-C ,  7-F ) :   0.1200
B(  3-C ,  9-F ) :   0.3950 B(  3-C , 11-F ) :   0.1200 B(  4-C ,  5-C ) :   1.2375
B(  4-C ,  8-F ) :   0.1200 B(  4-C , 10-F ) :   0.3950 B(  4-C , 11-F ) :   0.1200
B(  5-C ,  9-F ) :   0.1200 B(  5-C , 10-F ) :   0.1200 B(  5-C , 11-F ) :   0.3950
B(  6-F ,  7-F ) :   0.1153 B(  6-F ,  8-F ) :   0.1153 B(  7-F ,  9-F ) :   0.1153
B(  8-F , 10-F ) :   0.1153 B(  9-F , 11-F ) :   0.1153 B( 10-F , 11-F ) :   0.1153

MP2 TOTAL ENERGY:     -826.518468598 Eh
FINAL SINGLE POINT ENERGY      -826.518468598433

DIPOLE MOMENT
-------------
                                X             Y             Z
Electronic contribution:     -0.00000       0.00000      -0.00000
Nuclear contribution   :      0.00000       0.00000       0.00000
                        -----------------------------------------
Total Dipole Moment    :     -0.00000       0.00000      -0.00000
                        -----------------------------------------
Magnitude (a.u.)       :      0.00000
Magnitude (Debye)      :      0.00000

Rotational constants in cm-1:     0.034326     0.034326     0.017163
Rotational constants in MHz :  1029.067605  1029.067423   514.533757

                             ****ORCA TERMINATED NORMALLY****
TOTAL RUN TIME: 0 days 0 hours 5 minutes 6 seconds 642 msec
