                         Program Version 5.0.3 -  RELEASE  -
|  1> !ri-mp2 aug-cc-pvtz aug-cc-pvtz/c tightscf
|  2> %pal nprocs 16 end
|  3>
|  4> * xyz 0 1
|  5> C      0.000000    0.416584        0.000000
|  6> O     -1.110472   -0.343382        0.000000
|  7> N      1.156625   -0.083800        0.000000
|  8> H     -0.263473    1.473242        0.000000
|  9> H     -0.825628   -1.270023        0.000000
| 10> H      1.876503    0.630934        0.000000
| 11> *
| 12>
| 13>                          ****END OF INPUT****

CARTESIAN COORDINATES (ANGSTROEM)
---------------------------------
  C      0.000000    0.416584    0.000000
  O     -1.110472   -0.343382    0.000000
  N      1.156625   -0.083800    0.000000
  H     -0.263473    1.473242    0.000000
  H     -0.825628   -1.270023    0.000000
  H      1.876503    0.630934    0.000000

 Total Charge           Charge          ....    0
 Multiplicity           Mult            ....    1
 Number of Electrons    NEL             ....   24
 Basis Dimension        Dim             ....  207

ORBITAL ENERGIES
----------------

  NO   OCC          E(Eh)            E(eV)
   0   2.0000     -20.606031      -560.7186
   1   2.0000     -15.549833      -423.1325
   2   2.0000     -11.348573      -308.8104
   3   2.0000      -1.432402       -38.9776
   4   2.0000      -1.201725       -32.7006
   5   2.0000      -0.868405       -23.6305
   6   2.0000      -0.737366       -20.0647
   7   2.0000      -0.674357       -18.3502
   8   2.0000      -0.604473       -16.4485
   9   2.0000      -0.586629       -15.9630
  10   2.0000      -0.450433       -12.2569
  11   2.0000      -0.421330       -11.4650
  12   0.0000       0.028745         0.7822
  13   0.0000       0.041412         1.1269
  14   0.0000       0.046180         1.2566
  15   0.0000       0.079217         2.1556
  16   0.0000       0.099434         2.7057

MULLIKEN ATOMIC CHARGES
-----------------------
   0 C :   -0.122864
   1 O :   -0.377756
   2 N :   -0.549350
   3 H :    0.613553
   4 H :    0.250932
   5 H :    0.185485
Sum of atomic charges:   -0.0000000

LOEWDIN ATOMIC CHARGES
----------------------
   0 C :   -0.273248
   1 O :    0.795483
   2 N :    0.612709
   3 H :   -0.187431
   4 H :   -0.489076
   5 H :   -0.458436

  Mayer bond orders larger than 0.100000
B(  0-C ,  1-O ) :   1.0747 B(  0-C ,  2-N ) :   1.7011 B(  0-C ,  3-H ) :   0.5376
B(  1-O ,  4-H ) :   0.9188 B(  2-N ,  5-H ) :   0.9179

MP2 TOTAL ENERGY:     -169.602338509 Eh
FINAL SINGLE POINT ENERGY      -169.602338509467

DIPOLE MOMENT
-------------
                                X             Y             Z
Electronic contribution:     -0.79852      -0.36097      -0.00000
Nuclear contribution   :      0.77725       0.82885       0.00000
                        -----------------------------------------
Total Dipole Moment    :     -0.02127       0.46788      -0.00000
                        -----------------------------------------
Magnitude (a.u.)       :      0.46837
Magnitude (Debye)      :      1.19049

Rotational constants in cm-1:     2.389930     0.383335     0.330349
Rotational constants in MHz : 71648.285490 11492.101808  9903.603026

                             ****ORCA TERMINATED NORMALLY****
TOTAL RUN TIME: 0 days 0 hours 0 minutes 36 seconds 80 msec
