                         Program Version 5.0.3 -  RELEASE  -
|  1> !ri-mp2 aug-cc-pvtz aug-cc-pvtz/c tightscf
|  2> %pal nprocs 16 end
|  3>
|  4> * xyz 0 1
|  5> C     0.000000    0.000000     0.792268
|  6> C     0.000000    0.000000    -0.792268
|  7> Cl    0.000000    1.679244     1.403393
|  8> Cl   -1.454268   -0.839622     1.403393
|  9> Cl    1.454268   -0.839622     1.403393
| 10> Cl    0.000000   -1.679244    -1.403393
| 11> Cl   -1.454268    0.839622    -1.403393
| 12> Cl    1.454268    0.839622    -1.403393
| 13> *
| 14>
| 15>                          ****END OF INPUT****

CARTESIAN COORDINATES (ANGSTROEM)
---------------------------------
  C      0.000000    0.000000    0.792268
  C      0.000000    0.000000   -0.792268
  Cl     0.000000    1.679244    1.403393
  Cl    -1.454268   -0.839622    1.403393
  Cl     1.454268   -0.839622    1.403393
  Cl     0.000000   -1.679244   -1.403393
  Cl    -1.454268    0.839622   -1.403393
  Cl     1.454268    0.839622   -1.403393

 Total Charge           Charge          ....    0
 Multiplicity           Mult            ....    1
 Number of Electrons    NEL             ....  114
 Basis Dimension        Dim             ....  392

ORBITAL ENERGIES
----------------

  NO   OCC          E(Eh)            E(eV)
   0   2.0000    -104.877812     -2853.8704
   1   2.0000    -104.877812     -2853.8704
   2   2.0000    -104.877812     -2853.8704
   3   2.0000    -104.877812     -2853.8704
   4   2.0000    -104.877812     -2853.8704
   5   2.0000    -104.877812     -2853.8703
   6   2.0000     -11.475670      -312.2689
   7   2.0000     -11.475177      -312.2554
   8   2.0000     -10.601883      -288.4919
   9   2.0000     -10.601883      -288.4919
  10   2.0000     -10.601879      -288.4918
  11   2.0000     -10.601879      -288.4918
  12   2.0000     -10.601870      -288.4916
  13   2.0000     -10.601866      -288.4914
  14   2.0000      -8.068618      -219.5583
  15   2.0000      -8.068617      -219.5582
  16   2.0000      -8.068617      -219.5582
  17   2.0000      -8.068616      -219.5582
  18   2.0000      -8.068616      -219.5582
  19   2.0000      -8.068615      -219.5582
  20   2.0000      -8.066415      -219.4983
  21   2.0000      -8.066414      -219.4983
  22   2.0000      -8.066414      -219.4983
  23   2.0000      -8.066414      -219.4983
  24   2.0000      -8.066413      -219.4983
  25   2.0000      -8.066412      -219.4982
  26   2.0000      -8.066394      -219.4977
  27   2.0000      -8.066394      -219.4977
  28   2.0000      -8.066394      -219.4977
  29   2.0000      -8.066394      -219.4977
  30   2.0000      -8.066394      -219.4977
  31   2.0000      -8.066394      -219.4977
  32   2.0000      -1.291692       -35.1487
  33   2.0000      -1.216367       -33.0990
  34   2.0000      -1.135202       -30.8904
  35   2.0000      -1.135202       -30.8904
  36   2.0000      -1.113625       -30.3033
  37   2.0000      -1.113625       -30.3033
  38   2.0000      -0.943815       -25.6825
  39   2.0000      -0.789785       -21.4911
  40   2.0000      -0.688159       -18.7258
  41   2.0000      -0.668998       -18.2044
  42   2.0000      -0.668998       -18.2044
  43   2.0000      -0.611527       -16.6405
  44   2.0000      -0.611527       -16.6405
  45   2.0000      -0.521808       -14.1991
  46   2.0000      -0.521808       -14.1991
  47   2.0000      -0.510219       -13.8838
  48   2.0000      -0.505546       -13.7566
  49   2.0000      -0.505546       -13.7566
  50   2.0000      -0.490594       -13.3497
  51   2.0000      -0.490594       -13.3497
  52   2.0000      -0.479079       -13.0364
  53   2.0000      -0.471671       -12.8348
  54   2.0000      -0.454545       -12.3688
  55   2.0000      -0.454545       -12.3688
  56   2.0000      -0.450612       -12.2618
  57   0.0000       0.046059         1.2533
  58   0.0000       0.062791         1.7086
  59   0.0000       0.063516         1.7284
  60   0.0000       0.063516         1.7284
  61   0.0000       0.080719         2.1965

MULLIKEN ATOMIC CHARGES
-----------------------
   0 C :    0.799731
   1 C :    0.799731
   2 Cl:   -0.266577
   3 Cl:   -0.266577
   4 Cl:   -0.266577
   5 Cl:   -0.266577
   6 Cl:   -0.266577
   7 Cl:   -0.266577
Sum of atomic charges:    0.0000000

LOEWDIN ATOMIC CHARGES
----------------------
   0 C :   -2.409616
   1 C :   -2.409616
   2 Cl:    0.803205
   3 Cl:    0.803205
   4 Cl:    0.803205
   5 Cl:    0.803205
   6 Cl:    0.803205
   7 Cl:    0.803205

  Mayer bond orders larger than 0.100000
B(  0-C ,  1-C ) :   0.9568 B(  0-C ,  2-Cl) :   0.7875 B(  0-C ,  3-Cl) :   0.7875
B(  0-C ,  4-Cl) :   0.7875 B(  1-C ,  5-Cl) :   0.7875 B(  1-C ,  6-Cl) :   0.7875
B(  1-C ,  7-Cl) :   0.7875

MP2 TOTAL ENERGY:    -2834.330555158 Eh
FINAL SINGLE POINT ENERGY     -2834.330555157521

DIPOLE MOMENT
-------------
                                X             Y             Z
Electronic contribution:      0.00000      -0.00000       0.00000
Nuclear contribution   :      0.00000       0.00000      -0.00000
                        -----------------------------------------
Total Dipole Moment    :      0.00000      -0.00000       0.00000
                        -----------------------------------------
Magnitude (a.u.)       :      0.00000
Magnitude (Debye)      :      0.00000

Rotational constants in cm-1:     0.028104     0.022968     0.022968
Rotational constants in MHz :   842.530713   688.578087   688.578073

                             ****ORCA TERMINATED NORMALLY****
TOTAL RUN TIME: 0 days 0 hours 2 minutes 39 seconds 831 msec
