                         Program Version 5.0.3 -  RELEASE  -
|  1> !ri-mp2 aug-cc-pvtz aug-cc-pvtz/c tightscf
|  2> %pal nprocs 16 end
|  3>
|  4> * xyz 0 1
|  5> C     0.000000    1.397768    0.000000
|  6> C     1.210502    0.698884    0.000000
|  7> C    -1.210502    0.698884    0.000000
|  8> C     1.210502   -0.698884    0.000000
|  9> C    -1.210502   -0.698884    0.000000
| 10> C     0.000000   -1.397768    0.000000
| 11> Cl    0.000000    3.126245    0.000000
| 12> Cl    2.707407    1.563122    0.000000
| 13> Cl   -2.707407    1.563122    0.000000
| 14> Cl    2.707407   -1.563122    0.000000
| 15> Cl   -2.707407   -1.563122    0.000000
| 16> Cl    0.000000   -3.126245    0.000000
| 17> *
| 18>
| 19>                          ****END OF INPUT****

CARTESIAN COORDINATES (ANGSTROEM)
---------------------------------
  C      0.000000    1.397768    0.000000
  C      1.210502    0.698884    0.000000
  C     -1.210502    0.698884    0.000000
  C      1.210502   -0.698884    0.000000
  C     -1.210502   -0.698884    0.000000
  C      0.000000   -1.397768    0.000000
  Cl     0.000000    3.126245    0.000000
  Cl     2.707407    1.563122    0.000000
  Cl    -2.707407    1.563122    0.000000
  Cl     2.707407   -1.563122    0.000000
  Cl    -2.707407   -1.563122    0.000000
  Cl     0.000000   -3.126245    0.000000

 Total Charge           Charge          ....    0
 Multiplicity           Mult            ....    1
 Number of Electrons    NEL             ....  138
 Basis Dimension        Dim             ....  576

ORBITAL ENERGIES
----------------

  NO   OCC          E(Eh)            E(eV)
   0   2.0000    -104.873429     -2853.7511
   1   2.0000    -104.873429     -2853.7511
   2   2.0000    -104.873429     -2853.7511
   3   2.0000    -104.873428     -2853.7511
   4   2.0000    -104.873428     -2853.7511
   5   2.0000    -104.873428     -2853.7511
   6   2.0000     -11.358864      -309.0904
   7   2.0000     -11.358301      -309.0751
   8   2.0000     -11.358301      -309.0751
   9   2.0000     -11.357091      -309.0422
  10   2.0000     -11.357091      -309.0422
  11   2.0000     -11.356500      -309.0261
  12   2.0000     -10.597079      -288.3612
  13   2.0000     -10.597078      -288.3611
  14   2.0000     -10.597077      -288.3611
  15   2.0000     -10.597073      -288.3610
  16   2.0000     -10.597073      -288.3610
  17   2.0000     -10.597070      -288.3609
  18   2.0000      -8.063968      -219.4317
  19   2.0000      -8.063967      -219.4317
  20   2.0000      -8.063967      -219.4317
  21   2.0000      -8.063964      -219.4316
  22   2.0000      -8.063964      -219.4316
  23   2.0000      -8.063961      -219.4315
  24   2.0000      -8.061871      -219.3747
  25   2.0000      -8.061870      -219.3746
  26   2.0000      -8.061870      -219.3746
  27   2.0000      -8.061867      -219.3746
  28   2.0000      -8.061867      -219.3746
  29   2.0000      -8.061864      -219.3745
  30   2.0000      -8.061836      -219.3737
  31   2.0000      -8.061835      -219.3737
  32   2.0000      -8.061835      -219.3737
  33   2.0000      -8.061835      -219.3737
  34   2.0000      -8.061834      -219.3737
  35   2.0000      -8.061834      -219.3737
  36   2.0000      -1.285028       -34.9674
  37   2.0000      -1.218451       -33.1557
  38   2.0000      -1.218451       -33.1557
  39   2.0000      -1.157224       -31.4897
  40   2.0000      -1.157224       -31.4897
  41   2.0000      -1.132192       -30.8085
  42   2.0000      -1.102509       -30.0008
  43   2.0000      -1.000402       -27.2223
  44   2.0000      -1.000401       -27.2223
  45   2.0000      -0.849991       -23.1294
  46   2.0000      -0.849991       -23.1294
  47   2.0000      -0.757243       -20.6056
  48   2.0000      -0.693156       -18.8617
  49   2.0000      -0.649418       -17.6716
  50   2.0000      -0.643023       -17.4976
  51   2.0000      -0.619687       -16.8625
  52   2.0000      -0.619686       -16.8625
  53   2.0000      -0.583056       -15.8658
  54   2.0000      -0.583056       -15.8658
  55   2.0000      -0.562060       -15.2944
  56   2.0000      -0.562060       -15.2944
  57   2.0000      -0.507744       -13.8164
  58   2.0000      -0.507057       -13.7977
  59   2.0000      -0.507057       -13.7977
  60   2.0000      -0.505104       -13.7446
  61   2.0000      -0.505104       -13.7446
  62   2.0000      -0.492872       -13.4117
  63   2.0000      -0.475555       -12.9405
  64   2.0000      -0.475555       -12.9405
  65   2.0000      -0.456326       -12.4173
  66   2.0000      -0.443417       -12.0660
  67   2.0000      -0.361705        -9.8425
  68   2.0000      -0.361705        -9.8425
  69   0.0000       0.042436         1.1547
  70   0.0000       0.056403         1.5348
  71   0.0000       0.056403         1.5348
  72   0.0000       0.063105         1.7172
  73   0.0000       0.063105         1.7172

MULLIKEN ATOMIC CHARGES
-----------------------
   0 C :    0.403107
   1 C :    0.402966
   2 C :    0.402925
   3 C :    0.402633
   4 C :    0.403072
   5 C :    0.402928
   6 Cl:   -0.402945
   7 Cl:   -0.402936
   8 Cl:   -0.402936
   9 Cl:   -0.402930
  10 Cl:   -0.402941
  11 Cl:   -0.402942
Sum of atomic charges:   -0.0000000

LOEWDIN ATOMIC CHARGES
----------------------
   0 C :   -0.981540
   1 C :   -0.981540
   2 C :   -0.981540
   3 C :   -0.981540
   4 C :   -0.981540
   5 C :   -0.981540
   6 Cl:    0.981540
   7 Cl:    0.981540
   8 Cl:    0.981540
   9 Cl:    0.981540
  10 Cl:    0.981540
  11 Cl:    0.981540

  Mayer bond orders larger than 0.100000
B(  0-C ,  1-C ) :   1.5768 B(  0-C ,  2-C ) :   1.5768 B(  0-C ,  5-C ) :   0.1558
B(  0-C ,  6-Cl) :   0.7767 B(  0-C ,  7-Cl) :   0.1969 B(  0-C ,  8-Cl) :   0.1969
B(  0-C ,  9-Cl) :  -0.2572 B(  0-C , 10-Cl) :  -0.2569 B(  1-C ,  3-C ) :   1.5765
B(  1-C ,  4-C ) :   0.1558 B(  1-C ,  6-Cl) :   0.1974 B(  1-C ,  7-Cl) :   0.7767
B(  1-C ,  8-Cl) :  -0.2571 B(  1-C ,  9-Cl) :   0.1968 B(  1-C , 11-Cl) :  -0.2569
B(  2-C ,  3-C ) :   0.1558 B(  2-C ,  4-C ) :   1.5766 B(  2-C ,  6-Cl) :   0.1968
B(  2-C ,  7-Cl) :  -0.2572 B(  2-C ,  8-Cl) :   0.7766 B(  2-C , 10-Cl) :   0.1976
B(  2-C , 11-Cl) :  -0.2571 B(  3-C ,  5-C ) :   1.5769 B(  3-C ,  6-Cl) :  -0.2570
B(  3-C ,  7-Cl) :   0.1974 B(  3-C ,  9-Cl) :   0.7767 B(  3-C , 10-Cl) :  -0.2572
B(  3-C , 11-Cl) :   0.1974 B(  4-C ,  5-C ) :   1.5768 B(  4-C ,  6-Cl) :  -0.2572
B(  4-C ,  8-Cl) :   0.1974 B(  4-C ,  9-Cl) :  -0.2570 B(  4-C , 10-Cl) :   0.7764
B(  4-C , 11-Cl) :   0.1969 B(  5-C ,  7-Cl) :  -0.2570 B(  5-C ,  8-Cl) :  -0.2570
B(  5-C ,  9-Cl) :   0.1974 B(  5-C , 10-Cl) :   0.1967 B(  5-C , 11-Cl) :   0.7765

MP2 TOTAL ENERGY:    -2986.464699854 Eh
FINAL SINGLE POINT ENERGY     -2986.464699853771

DIPOLE MOMENT
-------------
                                X             Y             Z
Electronic contribution:     -0.00000       0.00000       0.00000
Nuclear contribution   :      0.00000       0.00000       0.00000
                        -----------------------------------------
Total Dipole Moment    :     -0.00000       0.00000       0.00000
                        -----------------------------------------
Magnitude (a.u.)       :      0.00000
Magnitude (Debye)      :      0.00000

Rotational constants in cm-1:     0.015189     0.015189     0.007594
Rotational constants in MHz :   455.342352   455.342229   227.671145

                             ****ORCA TERMINATED NORMALLY****
TOTAL RUN TIME: 0 days 0 hours 8 minutes 45 seconds 390 msec
