                         Program Version 5.0.3 -  RELEASE  -
|  1> !ri-mp2 aug-cc-pvtz aug-cc-pvtz/c tightscf
|  2> %pal nprocs 16 end
|  3> %maxcore 3800
|  4>
|  5> * xyz 0 1
|  6> C     0.000000     1.402717    0.011190
|  7> C     1.214788     0.701358   -0.011190
|  8> C    -1.214788     0.701358   -0.011190
|  9> C     1.214788    -0.701358    0.011190
| 10> C    -1.214788    -0.701358    0.011190
| 11> C     0.000000    -1.402717   -0.011190
| 12> C     0.000000     2.914685    0.082337
| 13> C     2.524191     1.457342   -0.082337
| 14> C    -2.524191     1.457342   -0.082337
| 15> C     2.524191    -1.457342    0.082337
| 16> C    -2.524191    -1.457342    0.082337
| 17> C     0.000000    -2.914685   -0.082337
| 18> H    -0.873575     3.289820    0.610244
| 19> H     0.873575     3.289820    0.610244
| 20> H     0.000000     3.376329   -0.910531
| 21> H     2.923987     1.688164    0.910531
| 22> H     3.285855     0.888372   -0.610244
| 23> H     2.412280     2.401448   -0.610244
| 24> H    -3.285855     0.888372   -0.610244
| 25> H    -2.923987     1.688164    0.910531
| 26> H    -2.412280     2.401448   -0.610244
| 27> H     2.412280    -2.401448    0.610244
| 28> H     2.923987    -1.688164   -0.910531
| 29> H     3.285855    -0.888372    0.610244
| 30> H    -2.923987    -1.688164   -0.910531
| 31> H    -2.412280    -2.401448    0.610244
| 32> H    -3.285855    -0.888372    0.610244
| 33> H    -0.873575    -3.289820   -0.610244
| 34> H     0.873575    -3.289820   -0.610244
| 35> H     0.000000    -3.376329    0.910531
| 36> *
| 37>
| 38>                          ****END OF INPUT****

CARTESIAN COORDINATES (ANGSTROEM)
---------------------------------
  C      0.000000    1.402717    0.011190
  C      1.214788    0.701358   -0.011190
  C     -1.214788    0.701358   -0.011190
  C      1.214788   -0.701358    0.011190
  C     -1.214788   -0.701358    0.011190
  C      0.000000   -1.402717   -0.011190
  C      0.000000    2.914685    0.082337
  C      2.524191    1.457342   -0.082337
  C     -2.524191    1.457342   -0.082337
  C      2.524191   -1.457342    0.082337
  C     -2.524191   -1.457342    0.082337
  C      0.000000   -2.914685   -0.082337
  H     -0.873575    3.289820    0.610244
  H      0.873575    3.289820    0.610244
  H      0.000000    3.376329   -0.910531
  H      2.923987    1.688164    0.910531
  H      3.285855    0.888372   -0.610244
  H      2.412280    2.401448   -0.610244
  H     -3.285855    0.888372   -0.610244
  H     -2.923987    1.688164    0.910531
  H     -2.412280    2.401448   -0.610244
  H      2.412280   -2.401448    0.610244
  H      2.923987   -1.688164   -0.910531
  H      3.285855   -0.888372    0.610244
  H     -2.923987   -1.688164   -0.910531
  H     -2.412280   -2.401448    0.610244
  H     -3.285855   -0.888372    0.610244
  H     -0.873575   -3.289820   -0.610244
  H      0.873575   -3.289820   -0.610244
  H      0.000000   -3.376329    0.910531

 Total Charge           Charge          ....    0
 Multiplicity           Mult            ....    1
 Number of Electrons    NEL             ....   90
 Basis Dimension        Dim             ....  966

ORBITAL ENERGIES
----------------

  NO   OCC          E(Eh)            E(eV)
   0   2.0000     -11.222922      -305.3912
   1   2.0000     -11.222369      -305.3762
   2   2.0000     -11.222369      -305.3762
   3   2.0000     -11.221175      -305.3437
   4   2.0000     -11.221174      -305.3437
   5   2.0000     -11.220591      -305.3278
   6   2.0000     -11.212789      -305.1155
   7   2.0000     -11.212788      -305.1155
   8   2.0000     -11.212788      -305.1155
   9   2.0000     -11.212783      -305.1153
  10   2.0000     -11.212783      -305.1153
  11   2.0000     -11.212779      -305.1152
  12   2.0000      -1.156070       -31.4583
  13   2.0000      -1.066700       -29.0264
  14   2.0000      -1.066700       -29.0264
  15   2.0000      -0.977095       -26.5881
  16   2.0000      -0.977094       -26.5881
  17   2.0000      -0.943938       -25.6859
  18   2.0000      -0.939516       -25.5655
  19   2.0000      -0.867447       -23.6044
  20   2.0000      -0.867447       -23.6044
  21   2.0000      -0.746853       -20.3229
  22   2.0000      -0.746853       -20.3229
  23   2.0000      -0.680143       -18.5076
  24   2.0000      -0.617982       -16.8161
  25   2.0000      -0.600909       -16.3516
  26   2.0000      -0.573199       -15.5975
  27   2.0000      -0.573199       -15.5975
  28   2.0000      -0.572419       -15.5763
  29   2.0000      -0.572419       -15.5763
  30   2.0000      -0.570159       -15.5148
  31   2.0000      -0.547199       -14.8901
  32   2.0000      -0.547199       -14.8900
  33   2.0000      -0.537640       -14.6299
  34   2.0000      -0.528926       -14.3928
  35   2.0000      -0.528926       -14.3928
  36   2.0000      -0.523398       -14.2424
  37   2.0000      -0.523398       -14.2424
  38   2.0000      -0.515361       -14.0237
  39   2.0000      -0.497319       -13.5327
  40   2.0000      -0.451319       -12.2810
  41   2.0000      -0.451318       -12.2810
  42   2.0000      -0.440373       -11.9832
  43   2.0000      -0.295761        -8.0481
  44   2.0000      -0.295761        -8.0481
  45   0.0000       0.030102         0.8191
  46   0.0000       0.030792         0.8379
  47   0.0000       0.030793         0.8379
  48   0.0000       0.038563         1.0493
  49   0.0000       0.042412         1.1541

MULLIKEN ATOMIC CHARGES
-----------------------
   0 C :    0.649402
   1 C :    0.649679
   2 C :    0.650074
   3 C :    0.649243
   4 C :    0.649628
   5 C :    0.648362
   6 C :   -1.319529
   7 C :   -1.319521
   8 C :   -1.319519
   9 C :   -1.319538
  10 C :   -1.319504
  11 C :   -1.319519
  12 H :    0.176317
  13 H :    0.176318
  14 H :    0.317482
  15 H :    0.317495
  16 H :    0.176334
  17 H :    0.176294
  18 H :    0.176328
  19 H :    0.317493
  20 H :    0.176313
  21 H :    0.176325
  22 H :    0.317494
  23 H :    0.176310
  24 H :    0.317492
  25 H :    0.176343
  26 H :    0.176291
  27 H :    0.176302
  28 H :    0.176317
  29 H :    0.317492
Sum of atomic charges:    0.0000000

LOEWDIN ATOMIC CHARGES
----------------------
   0 C :   -0.057993
   1 C :   -0.057993
   2 C :   -0.057993
   3 C :   -0.057993
   4 C :   -0.057993
   5 C :   -0.057993
   6 C :    0.577965
   7 C :    0.577965
   8 C :    0.577965
   9 C :    0.577965
  10 C :    0.577965
  11 C :    0.577965
  12 H :   -0.186998
  13 H :   -0.186998
  14 H :   -0.145975
  15 H :   -0.145975
  16 H :   -0.186999
  17 H :   -0.186998
  18 H :   -0.186999
  19 H :   -0.145975
  20 H :   -0.186998
  21 H :   -0.186998
  22 H :   -0.145975
  23 H :   -0.186999
  24 H :   -0.145975
  25 H :   -0.186998
  26 H :   -0.186999
  27 H :   -0.186998
  28 H :   -0.186998
  29 H :   -0.145975

  Mayer bond orders larger than 0.100000
B(  0-C ,  1-C ) :   0.4415 B(  0-C ,  2-C ) :   0.4416 B(  0-C ,  3-C ) :   0.7677
B(  0-C ,  4-C ) :   0.7678 B(  0-C ,  5-C ) :   0.2492 B(  0-C ,  6-C ) :   0.6665
B(  0-C , 11-C ) :  -0.1227 B(  0-C , 14-H ) :  -0.1245 B(  1-C ,  2-C ) :   0.7676
B(  1-C ,  3-C ) :   0.4421 B(  1-C ,  4-C ) :   0.2483 B(  1-C ,  5-C ) :   0.7678
B(  1-C ,  7-C ) :   0.6664 B(  1-C , 10-C ) :  -0.1225 B(  1-C , 15-H ) :  -0.1246
B(  2-C ,  3-C ) :   0.2484 B(  2-C ,  4-C ) :   0.4421 B(  2-C ,  5-C ) :   0.7678
B(  2-C ,  8-C ) :   0.6661 B(  2-C ,  9-C ) :  -0.1225 B(  2-C , 19-H ) :  -0.1246
B(  3-C ,  4-C ) :   0.7675 B(  3-C ,  5-C ) :   0.4415 B(  3-C ,  8-C ) :  -0.1225
B(  3-C ,  9-C ) :   0.6662 B(  3-C , 22-H ) :  -0.1246 B(  4-C ,  5-C ) :   0.4414
B(  4-C ,  7-C ) :  -0.1226 B(  4-C , 10-C ) :   0.6662 B(  4-C , 24-H ) :  -0.1246
B(  5-C ,  6-C ) :  -0.1226 B(  5-C , 11-C ) :   0.6666 B(  5-C , 29-H ) :  -0.1246
B(  6-C , 12-H ) :   1.1130 B(  6-C , 13-H ) :   1.1130 B(  6-C , 14-H ) :   0.9950
B(  7-C , 15-H ) :   0.9949 B(  7-C , 16-H ) :   1.1130 B(  7-C , 17-H ) :   1.1131
B(  8-C , 18-H ) :   1.1130 B(  8-C , 19-H ) :   0.9949 B(  8-C , 20-H ) :   1.1131
B(  9-C , 21-H ) :   1.1130 B(  9-C , 22-H ) :   0.9949 B(  9-C , 23-H ) :   1.1130
B( 10-C , 24-H ) :   0.9949 B( 10-C , 25-H ) :   1.1130 B( 10-C , 26-H ) :   1.1131
B( 11-C , 27-H ) :   1.1130 B( 11-C , 28-H ) :   1.1130 B( 11-C , 29-H ) :   0.9950

MP2 TOTAL ENERGY:     -467.112422166 Eh
FINAL SINGLE POINT ENERGY      -467.112422166225

DIPOLE MOMENT
-------------
                                X             Y             Z
Electronic contribution:      0.00000      -0.00000       0.00000
Nuclear contribution   :     -0.00000      -0.00000       0.00000
                        -----------------------------------------
Total Dipole Moment    :      0.00000      -0.00000       0.00000
                        -----------------------------------------
Magnitude (a.u.)       :      0.00000
Magnitude (Debye)      :      0.00000

Rotational constants in cm-1:     0.034293     0.034293     0.017503
Rotational constants in MHz :  1028.083411  1028.083378   524.733655

                             ****ORCA TERMINATED NORMALLY****
TOTAL RUN TIME: 0 days 0 hours 34 minutes 29 seconds 388 msec
