                         Program Version 5.0.3 -  RELEASE  -
|  1> !ri-mp2 aug-cc-pvtz aug-cc-pvtz/c tightscf
|  2> %pal nprocs 16 end
|  3>
|  4> * xyz 0 1
|  5> C      0.000000    0.000000    0.778102
|  6> C      0.000000    0.000000   -0.778102
|  7> F      0.000000    1.254581    1.232191
|  8> F     -1.086499   -0.627290    1.232191
|  9> F      1.086499   -0.627291    1.232191
| 10> F      0.000000   -1.254581   -1.232191
| 11> F     -1.086499    0.627291   -1.232191
| 12> F      1.086499    0.627290   -1.232191
| 13> *
| 14>
| 15>                          ****END OF INPUT****

CARTESIAN COORDINATES (ANGSTROEM)
---------------------------------
  C      0.000000    0.000000    0.778102
  C      0.000000    0.000000   -0.778102
  F      0.000000    1.254581    1.232191
  F     -1.086499   -0.627290    1.232191
  F      1.086499   -0.627291    1.232191
  F      0.000000   -1.254581   -1.232191
  F     -1.086499    0.627291   -1.232191
  F      1.086499    0.627290   -1.232191

 Total Charge           Charge          ....    0
 Multiplicity           Mult            ....    1
 Number of Electrons    NEL             ....   66
 Basis Dimension        Dim             ....  368

ORBITAL ENERGIES
----------------

  NO   OCC          E(Eh)            E(eV)
   0   2.0000     -26.379202      -717.8146
   1   2.0000     -26.379202      -717.8146
   2   2.0000     -26.379199      -717.8145
   3   2.0000     -26.379199      -717.8145
   4   2.0000     -26.379169      -717.8137
   5   2.0000     -26.379168      -717.8136
   6   2.0000     -11.558327      -314.5181
   7   2.0000     -11.557783      -314.5033
   8   2.0000      -1.782586       -48.5066
   9   2.0000      -1.758275       -47.8451
  10   2.0000      -1.680664       -45.7332
  11   2.0000      -1.680664       -45.7332
  12   2.0000      -1.670988       -45.4699
  13   2.0000      -1.670988       -45.4699
  14   2.0000      -1.092858       -29.7382
  15   2.0000      -0.972654       -26.4673
  16   2.0000      -0.905532       -24.6408
  17   2.0000      -0.878343       -23.9009
  18   2.0000      -0.878343       -23.9009
  19   2.0000      -0.847974       -23.0745
  20   2.0000      -0.847974       -23.0745
  21   2.0000      -0.765700       -20.8358
  22   2.0000      -0.745603       -20.2889
  23   2.0000      -0.745603       -20.2889
  24   2.0000      -0.743544       -20.2329
  25   2.0000      -0.743544       -20.2329
  26   2.0000      -0.710497       -19.3336
  27   2.0000      -0.710497       -19.3336
  28   2.0000      -0.692743       -18.8505
  29   2.0000      -0.692743       -18.8505
  30   2.0000      -0.690926       -18.8010
  31   2.0000      -0.682925       -18.5833
  32   2.0000      -0.597689       -16.2639
  33   0.0000       0.061156         1.6641
  34   0.0000       0.063568         1.7298
  35   0.0000       0.074358         2.0234
  36   0.0000       0.074358         2.0234
  37   0.0000       0.101741         2.7685

MULLIKEN ATOMIC CHARGES
-----------------------
   0 C :    1.088623
   1 C :    1.088623
   2 F :   -0.362874
   3 F :   -0.362874
   4 F :   -0.362874
   5 F :   -0.362874
   6 F :   -0.362874
   7 F :   -0.362874
Sum of atomic charges:    0.0000000

LOEWDIN ATOMIC CHARGES
----------------------
   0 C :   -1.536069
   1 C :   -1.536069
   2 F :    0.512023
   3 F :    0.512023
   4 F :    0.512023
   5 F :    0.512023
   6 F :    0.512023
   7 F :    0.512023

  Mayer bond orders larger than 0.100000
B(  0-C ,  1-C ) :   1.0335 B(  0-C ,  2-F ) :   0.8185 B(  0-C ,  3-F ) :   0.8185
B(  0-C ,  4-F ) :   0.8185 B(  1-C ,  5-F ) :   0.8185 B(  1-C ,  6-F ) :   0.8185
B(  1-C ,  7-F ) :   0.8185

MP2 TOTAL ENERGY:     -674.499347101 Eh
FINAL SINGLE POINT ENERGY      -674.499347101425

DIPOLE MOMENT
-------------
                                X             Y             Z
Electronic contribution:     -0.00000      -0.00000       0.00000
Nuclear contribution   :      0.00000       0.00000       0.00000
                        -----------------------------------------
Total Dipole Moment    :     -0.00000      -0.00000       0.00000
                        -----------------------------------------
Magnitude (a.u.)       :      0.00000
Magnitude (Debye)      :      0.00000

Rotational constants in cm-1:     0.093959     0.060788     0.060788
Rotational constants in MHz :  2816.832773  1822.380438  1822.379896

                             ****ORCA TERMINATED NORMALLY****
TOTAL RUN TIME: 0 days 0 hours 1 minutes 33 seconds 447 msec
