                         Program Version 5.0.3 -  RELEASE  -
|  1> !ri-mp2 aug-cc-pvtz aug-cc-pvtz/c tightscf
|  2> %pal nprocs 16 end
|  3> %maxcore 3800
|  4>
|  5> * xyz 0 1
|  6> N     -1.201957    1.645890    0.152460
|  7> C     -1.122137    0.221629   -0.199424
|  8> C     -2.533221   -0.393283   -0.152217
|  9> O     -2.748314   -1.574901   -0.095497
| 10> O     -3.514020    0.517294   -0.229519
| 11> H     -3.060866    1.389226   -0.232101
| 12> C     -0.112058   -0.609453    0.605562
| 13> C      1.310812   -0.315666    0.248158
| 14> N      1.798228    0.972889    0.135796
| 15> C      3.064823    0.857017   -0.182550
| 16> N      3.431444   -0.446678   -0.283277
| 17> C      2.315898   -1.207793   -0.013417
| 18> H     -0.839634    0.175548   -1.255509
| 19> H     -0.281816   -0.417857    1.670751
| 20> H     -0.320702   -1.665837    0.443593
| 21> H      3.752508    1.668827   -0.350821
| 22> H      4.345579   -0.792723   -0.516050
| 23> H      2.335670   -2.282388   -0.032339
| 24> H     -1.210332    1.750849    1.162273
| 25> H     -0.360429    2.115801   -0.161192
| 26> *
| 27>
| 28>                          ****END OF INPUT****

CARTESIAN COORDINATES (ANGSTROEM)
---------------------------------
  N     -1.201957    1.645890    0.152460
  C     -1.122137    0.221629   -0.199424
  C     -2.533221   -0.393283   -0.152217
  O     -2.748314   -1.574901   -0.095497
  O     -3.514020    0.517294   -0.229519
  H     -3.060866    1.389226   -0.232101
  C     -0.112058   -0.609453    0.605562
  C      1.310812   -0.315666    0.248158
  N      1.798228    0.972889    0.135796
  C      3.064823    0.857017   -0.182550
  N      3.431444   -0.446678   -0.283277
  C      2.315898   -1.207793   -0.013417
  H     -0.839634    0.175548   -1.255509
  H     -0.281816   -0.417857    1.670751
  H     -0.320702   -1.665837    0.443593
  H      3.752508    1.668827   -0.350821
  H      4.345579   -0.792723   -0.516050
  H      2.335670   -2.282388   -0.032339
  H     -1.210332    1.750849    1.162273
  H     -0.360429    2.115801   -0.161192

 Total Charge           Charge          ....    0
 Multiplicity           Mult            ....    1
 Number of Electrons    NEL             ....   82
 Basis Dimension        Dim             ....  713

ORBITAL ENERGIES
----------------

  NO   OCC          E(Eh)            E(eV)
   0   2.0000     -20.588823      -560.2504
   1   2.0000     -20.530324      -558.6585
   2   2.0000     -15.635703      -425.4691
   3   2.0000     -15.563305      -423.4991
   4   2.0000     -15.559956      -423.4079
   5   2.0000     -11.368468      -309.3517
   6   2.0000     -11.313772      -307.8634
   7   2.0000     -11.283621      -307.0429
   8   2.0000     -11.270232      -306.6786
   9   2.0000     -11.263773      -306.5029
  10   2.0000     -11.240100      -305.8587
  11   2.0000      -1.444374       -39.3034
  12   2.0000      -1.357834       -36.9485
  13   2.0000      -1.349408       -36.7193
  14   2.0000      -1.211243       -32.9596
  15   2.0000      -1.182379       -32.1742
  16   2.0000      -1.061588       -28.8873
  17   2.0000      -0.995462       -27.0879
  18   2.0000      -0.906281       -24.6611
  19   2.0000      -0.844143       -22.9703
  20   2.0000      -0.799075       -21.7439
  21   2.0000      -0.788553       -21.4576
  22   2.0000      -0.757403       -20.6100
  23   2.0000      -0.732407       -19.9298
  24   2.0000      -0.670515       -18.2457
  25   2.0000      -0.652355       -17.7515
  26   2.0000      -0.635051       -17.2806
  27   2.0000      -0.622362       -16.9353
  28   2.0000      -0.615378       -16.7453
  29   2.0000      -0.613928       -16.7058
  30   2.0000      -0.601950       -16.3799
  31   2.0000      -0.582450       -15.8493
  32   2.0000      -0.551203       -14.9990
  33   2.0000      -0.529898       -14.4193
  34   2.0000      -0.522691       -14.2231
  35   2.0000      -0.463772       -12.6199
  36   2.0000      -0.461176       -12.5492
  37   2.0000      -0.443413       -12.0659
  38   2.0000      -0.415721       -11.3124
  39   2.0000      -0.408083       -11.1045
  40   2.0000      -0.330286        -8.9875
  41   0.0000       0.014687         0.3997
  42   0.0000       0.028464         0.7746
  43   0.0000       0.034236         0.9316
  44   0.0000       0.040082         1.0907
  45   0.0000       0.045048         1.2258

MULLIKEN ATOMIC CHARGES
-----------------------
   0 N :   -0.613810
   1 C :    0.678014
   2 C :    0.370427
   3 O :   -0.802235
   4 O :   -0.564698
   5 H :    0.277653
   6 C :   -0.042035
   7 C :    1.163487
   8 N :   -0.668268
   9 C :   -0.932398
  10 N :   -0.045182
  11 C :   -1.086597
  12 H :    0.353275
  13 H :    0.206536
  14 H :    0.226377
  15 H :    0.661698
  16 H :    0.093893
  17 H :    0.518863
  18 H :    0.079950
  19 H :    0.125050
Sum of atomic charges:   -0.0000000

LOEWDIN ATOMIC CHARGES
----------------------
   0 N :    0.870200
   1 C :   -0.114263
   2 C :   -0.769098
   3 O :    0.438172
   4 O :    0.840496
   5 H :   -0.588429
   6 C :    0.286145
   7 C :   -0.302566
   8 N :    0.386151
   9 C :   -0.058615
  10 N :    0.508899
  11 C :    0.160591
  12 H :   -0.130736
  13 H :   -0.139448
  14 H :   -0.172155
  15 H :   -0.174002
  16 H :   -0.247565
  17 H :   -0.169148
  18 H :   -0.287982
  19 H :   -0.336648

  Mayer bond orders larger than 0.100000
B(  0-N ,  1-C ) :   0.4835 B(  0-N ,  2-C ) :   0.1785 B(  0-N , 18-H ) :   0.9998
B(  0-N , 19-H ) :   0.9725 B(  1-C ,  2-C ) :   0.4862 B(  1-C ,  6-C ) :   0.8979
B(  1-C , 12-H ) :   0.8949 B(  2-C ,  3-O ) :   1.3789 B(  2-C ,  4-O ) :   0.7405
B(  4-O ,  5-H ) :   0.8410 B(  6-C ,  7-C ) :   0.5163 B(  6-C , 13-H ) :   0.9871
B(  6-C , 14-H ) :   1.0278 B(  7-C ,  8-N ) :   0.5476 B(  7-C ,  9-C ) :  -0.4634
B(  7-C , 10-N ) :  -0.1281 B(  7-C , 11-C ) :   0.9457 B(  8-N ,  9-C ) :   1.7998
B(  9-C , 10-N ) :   1.1281 B(  9-C , 15-H ) :   0.4512 B( 10-N , 11-C ) :   1.0121
B( 10-N , 16-H ) :   1.1427 B( 11-C , 17-H ) :   0.8418

MP2 TOTAL ENERGY:     -547.830290043 Eh
FINAL SINGLE POINT ENERGY      -547.830290043212

DIPOLE MOMENT
-------------
                                X             Y             Z
Electronic contribution:     -1.28902      -1.37100      -0.78518
Nuclear contribution   :      4.25300       1.92310       0.71812
                        -----------------------------------------
Total Dipole Moment    :      2.96398       0.55210      -0.06705
                        -----------------------------------------
Magnitude (a.u.)       :      3.01571
Magnitude (Debye)      :      7.66533

Rotational constants in cm-1:     0.099788     0.018623     0.016158
Rotational constants in MHz :  2991.555146   558.311047   484.405716

                             ****ORCA TERMINATED NORMALLY****
TOTAL RUN TIME: 0 days 0 hours 13 minutes 39 seconds 133 msec
