                         Program Version 5.0.3 -  RELEASE  -
|  1> !ri-mp2 aug-cc-pvtz aug-cc-pvtz/c tightscf
|  2> %pal nprocs 16 end
|  3>
|  4> * xyz 0 1
|  5> C     -2.062686   -1.102443    0.000000
|  6> C      3.632108    1.858226    0.000000
|  7> C     -0.556479   -1.037078    0.000000
|  8> C      2.104874    1.829660    0.000000
|  9> C      0.000000    0.382472    0.000000
| 10> C      1.528055    0.413443    0.000000
| 11> O     -2.819045   -0.165656    0.000000
| 12> O     -2.503459   -2.387142    0.000000
| 13> H      4.011459    2.880818    0.000000
| 14> H      4.036027    1.354785    0.880787
| 15> H      4.036027    1.354785   -0.880787
| 16> H     -0.205394   -1.600622    0.869012
| 17> H     -0.205394   -1.600622   -0.869012
| 18> H      1.729349    2.370062    0.873830
| 19> H      1.729349    2.370062   -0.873830
| 20> H     -0.381981    0.918569    0.871350
| 21> H     -0.381981    0.918569   -0.871350
| 22> H      1.904359   -0.128002   -0.874719
| 23> H      1.904359   -0.128002    0.874719
| 24> H     -3.471375   -2.353691    0.000000
| 25> *
| 26>
| 27>                          ****END OF INPUT****

CARTESIAN COORDINATES (ANGSTROEM)
---------------------------------
  C     -2.062686   -1.102443    0.000000
  C      3.632108    1.858226    0.000000
  C     -0.556479   -1.037078    0.000000
  C      2.104874    1.829660    0.000000
  C      0.000000    0.382472    0.000000
  C      1.528055    0.413443    0.000000
  O     -2.819045   -0.165656    0.000000
  O     -2.503459   -2.387142    0.000000
  H      4.011459    2.880818    0.000000
  H      4.036027    1.354785    0.880787
  H      4.036027    1.354785   -0.880787
  H     -0.205394   -1.600622    0.869012
  H     -0.205394   -1.600622   -0.869012
  H      1.729349    2.370062    0.873830
  H      1.729349    2.370062   -0.873830
  H     -0.381981    0.918569    0.871350
  H     -0.381981    0.918569   -0.871350
  H      1.904359   -0.128002   -0.874719
  H      1.904359   -0.128002    0.874719
  H     -3.471375   -2.353691    0.000000

 Total Charge           Charge          ....    0
 Multiplicity           Mult            ....    1
 Number of Electrons    NEL             ....   64
 Basis Dimension        Dim             ....  644

ORBITAL ENERGIES
----------------

  NO   OCC          E(Eh)            E(eV)
   0   2.0000     -20.610677      -560.8450
   1   2.0000     -20.549615      -559.1835
   2   2.0000     -11.385004      -309.8017
   3   2.0000     -11.246505      -306.0329
   4   2.0000     -11.225891      -305.4720
   5   2.0000     -11.222868      -305.3898
   6   2.0000     -11.220562      -305.3270
   7   2.0000     -11.213383      -305.1317
   8   2.0000      -1.463079       -39.8124
   9   2.0000      -1.361000       -37.0347
  10   2.0000      -1.096886       -29.8478
  11   2.0000      -1.043372       -28.3916
  12   2.0000      -0.959680       -26.1142
  13   2.0000      -0.865907       -23.5625
  14   2.0000      -0.800654       -21.7869
  15   2.0000      -0.787074       -21.4174
  16   2.0000      -0.702880       -19.1263
  17   2.0000      -0.684174       -18.6173
  18   2.0000      -0.669920       -18.2294
  19   2.0000      -0.636405       -17.3175
  20   2.0000      -0.597640       -16.2626
  21   2.0000      -0.591960       -16.1080
  22   2.0000      -0.571434       -15.5495
  23   2.0000      -0.566524       -15.4159
  24   2.0000      -0.537460       -14.6250
  25   2.0000      -0.511916       -13.9299
  26   2.0000      -0.487739       -13.2720
  27   2.0000      -0.484178       -13.1752
  28   2.0000      -0.473893       -12.8953
  29   2.0000      -0.468790       -12.7564
  30   2.0000      -0.467399       -12.7186
  31   2.0000      -0.448128       -12.1942
  32   0.0000       0.028317         0.7706
  33   0.0000       0.031678         0.8620
  34   0.0000       0.037596         1.0230
  35   0.0000       0.037637         1.0242
  36   0.0000       0.045703         1.2436

MULLIKEN ATOMIC CHARGES
-----------------------
   0 C :    0.411652
   1 C :   -1.000106
   2 C :   -0.126344
   3 C :   -0.478398
   4 C :   -0.263163
   5 C :   -0.275754
   6 O :   -0.773586
   7 O :   -0.469429
   8 H :    0.279950
   9 H :    0.264745
  10 H :    0.264746
  11 H :    0.221996
  12 H :    0.221996
  13 H :    0.241026
  14 H :    0.241026
  15 H :    0.230065
  16 H :    0.230065
  17 H :    0.259870
  18 H :    0.259870
  19 H :    0.259773
Sum of atomic charges:   -0.0000000

LOEWDIN ATOMIC CHARGES
----------------------
   0 C :   -0.780588
   1 C :    0.579372
   2 C :    0.270267
   3 C :    0.259428
   4 C :    0.265196
   5 C :    0.269256
   6 O :    0.457901
   7 O :    0.827950
   8 H :   -0.173390
   9 H :   -0.171353
  10 H :   -0.171353
  11 H :   -0.147952
  12 H :   -0.147952
  13 H :   -0.146697
  14 H :   -0.146697
  15 H :   -0.141845
  16 H :   -0.141845
  17 H :   -0.141199
  18 H :   -0.141199
  19 H :   -0.477299

  Mayer bond orders larger than 0.100000
B(  0-C ,  2-C ) :   0.5483 B(  0-C ,  6-O ) :   1.4078 B(  0-C ,  7-O ) :   0.9532
B(  1-C ,  3-C ) :   0.9363 B(  1-C ,  8-H ) :   0.9850 B(  1-C ,  9-H ) :   0.9652
B(  1-C , 10-H ) :   0.9652 B(  2-C ,  4-C ) :   0.9973 B(  2-C , 11-H ) :   0.9579
B(  2-C , 12-H ) :   0.9579 B(  3-C ,  5-C ) :   0.8894 B(  3-C , 13-H ) :   0.9623
B(  3-C , 14-H ) :   0.9623 B(  4-C ,  5-C ) :   0.9324 B(  4-C , 15-H ) :   0.9570
B(  4-C , 16-H ) :   0.9570 B(  5-C , 17-H ) :   0.9402 B(  5-C , 18-H ) :   0.9402
B(  7-O , 19-H ) :   0.9564

MP2 TOTAL ENERGY:     -385.622360549 Eh
FINAL SINGLE POINT ENERGY      -385.622360549146

DIPOLE MOMENT
-------------
                                X             Y             Z
Electronic contribution:    -14.58368      -6.97415       0.00000
Nuclear contribution   :     15.12899       6.53597       0.00000
                        -----------------------------------------
Total Dipole Moment    :      0.54531      -0.43818       0.00000
                        -----------------------------------------
Magnitude (a.u.)       :      0.69954
Magnitude (Debye)      :      1.77810

Rotational constants in cm-1:     0.247796     0.021541     0.020184
Rotational constants in MHz :  7428.744570   645.789082   605.093413

                             ****ORCA TERMINATED NORMALLY****
TOTAL RUN TIME: 0 days 0 hours 8 minutes 29 seconds 995 msec
