                         Program Version 5.0.3 -  RELEASE  -
|  1> !ri-mp2 aug-cc-pvtz aug-cc-pvtz/c tightscf
|  2> %pal nprocs 16 end
|  3>
|  4> * xyz 0 1
|  5> C      1.752978    0.132983    0.595759
|  6> C      2.270241   -1.006545   -0.282683
|  7> C      0.797724    1.099291   -0.117681
|  8> C     -0.524607    0.497784   -0.611141
|  9> C     -1.447868   -0.017439    0.494787
| 10> C     -2.787022   -0.527764   -0.035684
| 11> H     -2.645338   -1.354700   -0.734820
| 12> H      2.766819   -0.619752   -1.175521
| 13> H     -3.427267   -0.884472    0.772434
| 14> H      2.992417   -1.620604    0.257299
| 15> H      1.465980   -1.665190   -0.613039
| 16> H     -3.327819    0.259908   -0.564432
| 17> H      1.267957   -0.282455    1.482703
| 18> H     -0.954091   -0.819080    1.049556
| 19> H      2.605211    0.708606    0.966413
| 20> H     -1.624471    0.786112    1.216882
| 21> H      0.573150    1.931568    0.556617
| 22> H      1.322016    1.537463   -0.972764
| 23> H     -0.325283   -0.311677   -1.319828
| 24> H     -1.057960    1.264417   -1.181643
| 25> *
| 26>
| 27>                          ****END OF INPUT****

CARTESIAN COORDINATES (ANGSTROEM)
---------------------------------
  C      1.752978    0.132983    0.595759
  C      2.270241   -1.006545   -0.282683
  C      0.797724    1.099291   -0.117681
  C     -0.524607    0.497784   -0.611141
  C     -1.447868   -0.017439    0.494787
  C     -2.787022   -0.527764   -0.035684
  H     -2.645338   -1.354700   -0.734820
  H      2.766819   -0.619752   -1.175521
  H     -3.427267   -0.884472    0.772434
  H      2.992417   -1.620604    0.257299
  H      1.465980   -1.665190   -0.613039
  H     -3.327819    0.259908   -0.564432
  H      1.267957   -0.282455    1.482703
  H     -0.954091   -0.819080    1.049556
  H      2.605211    0.708606    0.966413
  H     -1.624471    0.786112    1.216882
  H      0.573150    1.931568    0.556617
  H      1.322016    1.537463   -0.972764
  H     -0.325283   -0.311677   -1.319828
  H     -1.057960    1.264417   -1.181643

 Total Charge           Charge          ....    0
 Multiplicity           Mult            ....    1
 Number of Electrons    NEL             ....   50
 Basis Dimension        Dim             ....  598

ORBITAL ENERGIES
----------------

  NO   OCC          E(Eh)            E(eV)
   0   2.0000     -11.214028      -305.1492
   1   2.0000     -11.213867      -305.1448
   2   2.0000     -11.212740      -305.1142
   3   2.0000     -11.211514      -305.0808
   4   2.0000     -11.208503      -304.9989
   5   2.0000     -11.208148      -304.9892
   6   2.0000      -1.083652       -29.4877
   7   2.0000      -1.031422       -28.0664
   8   2.0000      -0.958701       -26.0876
   9   2.0000      -0.878214       -23.8974
  10   2.0000      -0.816825       -22.2269
  11   2.0000      -0.757934       -20.6244
  12   2.0000      -0.640429       -17.4270
  13   2.0000      -0.621040       -16.8994
  14   2.0000      -0.591374       -16.0921
  15   2.0000      -0.578362       -15.7380
  16   2.0000      -0.553949       -15.0737
  17   2.0000      -0.532113       -14.4795
  18   2.0000      -0.526004       -14.3133
  19   2.0000      -0.492379       -13.3983
  20   2.0000      -0.487071       -13.2539
  21   2.0000      -0.473634       -12.8882
  22   2.0000      -0.451456       -12.2847
  23   2.0000      -0.445653       -12.1268
  24   2.0000      -0.441589       -12.0162
  25   0.0000       0.030916         0.8413
  26   0.0000       0.034938         0.9507
  27   0.0000       0.036216         0.9855
  28   0.0000       0.037275         1.0143
  29   0.0000       0.052170         1.4196

MULLIKEN ATOMIC CHARGES
-----------------------
   0 C :   -0.430124
   1 C :   -0.961081
   2 C :   -0.474098
   3 C :   -0.372881
   4 C :   -0.421287
   5 C :   -0.985404
   6 H :    0.264586
   7 H :    0.242672
   8 H :    0.269250
   9 H :    0.272668
  10 H :    0.319382
  11 H :    0.252895
  12 H :    0.176554
  13 H :    0.281598
  14 H :    0.336623
  15 H :    0.226893
  16 H :    0.214454
  17 H :    0.216361
  18 H :    0.186159
  19 H :    0.384781
Sum of atomic charges:    0.0000000

LOEWDIN ATOMIC CHARGES
----------------------
   0 C :    0.263681
   1 C :    0.578923
   2 C :    0.285757
   3 C :    0.272772
   4 C :    0.255623
   5 C :    0.580006
   6 H :   -0.170039
   7 H :   -0.166795
   8 H :   -0.173581
   9 H :   -0.171756
  10 H :   -0.178052
  11 H :   -0.171785
  12 H :   -0.159993
  13 H :   -0.157497
  14 H :   -0.150624
  15 H :   -0.143831
  16 H :   -0.146814
  17 H :   -0.147220
  18 H :   -0.154028
  19 H :   -0.144747

  Mayer bond orders larger than 0.100000
B(  0-C ,  1-C ) :   0.8387 B(  0-C ,  2-C ) :   0.8757 B(  0-C , 12-H ) :   1.0221
B(  0-C , 14-H ) :   0.8981 B(  1-C ,  7-H ) :   0.9799 B(  1-C ,  9-H ) :   0.9741
B(  1-C , 10-H ) :   0.9232 B(  2-C ,  3-C ) :   0.8931 B(  2-C , 16-H ) :   0.9853
B(  2-C , 17-H ) :   0.9953 B(  3-C ,  4-C ) :   0.8615 B(  3-C , 18-H ) :   1.0158
B(  3-C , 19-H ) :   0.8394 B(  4-C ,  5-C ) :   0.8765 B(  4-C , 13-H ) :   0.9347
B(  4-C , 15-H ) :   0.9721 B(  5-C ,  6-H ) :   0.9632 B(  5-C ,  8-H ) :   0.9912
B(  5-C , 11-H ) :   0.9786

MP2 TOTAL ENERGY:     -236.533493606 Eh
FINAL SINGLE POINT ENERGY      -236.533493606396

DIPOLE MOMENT
-------------
                                X             Y             Z
Electronic contribution:      0.41851       1.18906       0.31335
Nuclear contribution   :     -0.40173      -1.16577      -0.28346
                        -----------------------------------------
Total Dipole Moment    :      0.01678       0.02329       0.02989
                        -----------------------------------------
Magnitude (a.u.)       :      0.04144
Magnitude (Debye)      :      0.10533

Rotational constants in cm-1:     0.216658     0.052864     0.048997
Rotational constants in MHz :  6495.243664  1584.811670  1468.885724

                             ****ORCA TERMINATED NORMALLY****
TOTAL RUN TIME: 0 days 0 hours 6 minutes 22 seconds 36 msec
