                         Program Version 5.0.3 -  RELEASE  -
|  1> !ri-mp2 aug-cc-pvtz aug-cc-pvtz/c tightscf
|  2> %pal nprocs 16 end
|  3>
|  4> * xyz 0 1
|  5> C     -0.164367    1.106122    0.000000
|  6> C      0.630174   -1.644396    0.000000
|  7> C     -0.028352   -1.065946    1.246291
|  8> C     -0.028352   -1.065946   -1.246291
|  9> N     -0.028352    0.386872    1.163911
| 10> N     -0.028352    0.386872   -1.163911
| 11> O     -0.348128    2.315601    0.000000
| 12> H      1.692401   -1.394346    0.000000
| 13> H      0.538186   -2.730567    0.000000
| 14> H     -1.047815   -1.460098    1.343027
| 15> H      0.519860   -1.364705    2.140522
| 16> H      0.519860   -1.364705   -2.140522
| 17> H     -1.047815   -1.460098   -1.343027
| 18> H     -0.223673    0.927248    1.988963
| 19> H     -0.223673    0.927248   -1.988963
| 20> *
| 21>
| 22>                          ****END OF INPUT****

CARTESIAN COORDINATES (ANGSTROEM)
---------------------------------
  C     -0.164367    1.106122    0.000000
  C      0.630174   -1.644396    0.000000
  C     -0.028352   -1.065946    1.246291
  C     -0.028352   -1.065946   -1.246291
  N     -0.028352    0.386872    1.163911
  N     -0.028352    0.386872   -1.163911
  O     -0.348128    2.315601    0.000000
  H      1.692401   -1.394346    0.000000
  H      0.538186   -2.730567    0.000000
  H     -1.047815   -1.460098    1.343027
  H      0.519860   -1.364705    2.140522
  H      0.519860   -1.364705   -2.140522
  H     -1.047815   -1.460098   -1.343027
  H     -0.223673    0.927248    1.988963
  H     -0.223673    0.927248   -1.988963

 Total Charge           Charge          ....    0
 Multiplicity           Mult            ....    1
 Number of Electrons    NEL             ....   54
 Basis Dimension        Dim             ....  506

ORBITAL ENERGIES
----------------

  NO   OCC          E(Eh)            E(eV)
   0   2.0000     -20.495336      -557.7065
   1   2.0000     -15.574633      -423.8073
   2   2.0000     -15.574608      -423.8066
   3   2.0000     -11.365569      -309.2728
   4   2.0000     -11.278296      -306.8980
   5   2.0000     -11.278291      -306.8979
   6   2.0000     -11.243677      -305.9560
   7   2.0000      -1.378917       -37.5223
   8   2.0000      -1.251109       -34.0444
   9   2.0000      -1.198145       -32.6032
  10   2.0000      -1.061484       -28.8845
  11   2.0000      -0.935635       -25.4599
  12   2.0000      -0.870166       -23.6784
  13   2.0000      -0.778454       -21.1828
  14   2.0000      -0.703664       -19.1477
  15   2.0000      -0.680682       -18.5223
  16   2.0000      -0.656693       -17.8695
  17   2.0000      -0.642353       -17.4793
  18   2.0000      -0.610258       -16.6060
  19   2.0000      -0.596117       -16.2212
  20   2.0000      -0.583886       -15.8883
  21   2.0000      -0.530897       -14.4464
  22   2.0000      -0.505764       -13.7625
  23   2.0000      -0.500763       -13.6264
  24   2.0000      -0.425439       -11.5768
  25   2.0000      -0.390171       -10.6171
  26   2.0000      -0.388474       -10.5709
  27   0.0000       0.022482         0.6118
  28   0.0000       0.030958         0.8424
  29   0.0000       0.034914         0.9501
  30   0.0000       0.038969         1.0604
  31   0.0000       0.053260         1.4493

MULLIKEN ATOMIC CHARGES
-----------------------
   0 C :    0.112389
   1 C :   -0.464728
   2 C :   -0.331462
   3 C :   -0.331462
   4 N :   -0.029021
   5 N :   -0.029021
   6 O :   -0.792200
   7 H :    0.243966
   8 H :    0.336190
   9 H :    0.214347
  10 H :    0.340400
  11 H :    0.340400
  12 H :    0.214347
  13 H :    0.087927
  14 H :    0.087927
Sum of atomic charges:    0.0000000

LOEWDIN ATOMIC CHARGES
----------------------
   0 C :   -0.812509
   1 C :    0.293670
   2 C :    0.198071
   3 C :    0.198071
   4 N :    0.564828
   5 N :    0.564828
   6 O :    0.409062
   7 H :   -0.138891
   8 H :   -0.139620
   9 H :   -0.138421
  10 H :   -0.141919
  11 H :   -0.141919
  12 H :   -0.138421
  13 H :   -0.288415
  14 H :   -0.288415

  Mayer bond orders larger than 0.100000
B(  0-C ,  4-N ) :   1.0253 B(  0-C ,  5-N ) :   1.0253 B(  0-C ,  6-O ) :   1.6086
B(  1-C ,  2-C ) :   0.9286 B(  1-C ,  3-C ) :   0.9286 B(  1-C ,  7-H ) :   0.9628
B(  1-C ,  8-H ) :   0.8920 B(  2-C ,  4-N ) :   0.7172 B(  2-C ,  9-H ) :   0.9855
B(  2-C , 10-H ) :   0.9047 B(  3-C ,  5-N ) :   0.7172 B(  3-C , 11-H ) :   0.9047
B(  3-C , 12-H ) :   0.9855 B(  4-N ,  6-O ) :  -0.1219 B(  4-N , 13-H ) :   1.0589
B(  5-N ,  6-O ) :  -0.1219 B(  5-N , 14-H ) :   1.0589

MP2 TOTAL ENERGY:     -341.376286165 Eh
FINAL SINGLE POINT ENERGY      -341.376286164564

DIPOLE MOMENT
-------------
                                X             Y             Z
Electronic contribution:     -0.68524       5.95432      -0.00000
Nuclear contribution   :      0.73084      -7.98088       0.00000
                        -----------------------------------------
Total Dipole Moment    :      0.04560      -2.02656      -0.00000
                        -----------------------------------------
Magnitude (a.u.)       :      2.02708
Magnitude (Debye)      :      5.15242

Rotational constants in cm-1:     0.161802     0.085918     0.059308
Rotational constants in MHz :  4850.701359  2575.771119  1778.004505

                             ****ORCA TERMINATED NORMALLY****
TOTAL RUN TIME: 0 days 0 hours 4 minutes 50 seconds 142 msec
