                         Program Version 5.0.3 -  RELEASE  -
|  1> !ri-mp2 aug-cc-pvtz aug-cc-pvtz/c tightscf
|  2> %pal nprocs 16 end
|  3>
|  4> * xyz 0 1
|  5> C      0.000000    0.607495        0.000000
|  6> C     -0.022300   -0.607096        0.000000
|  7> C      0.032288    1.961729        0.000000
|  8> C     -0.037787   -1.961626        0.000000
|  9> C      0.067261    3.167962        0.000000
| 10> C     -0.047216   -3.168328        0.000000
| 11> H      0.098665    4.228824        0.000000
| 12> H     -0.052142   -4.229643        0.000000
| 13> *
| 14>
| 15>                          ****END OF INPUT****

CARTESIAN COORDINATES (ANGSTROEM)
---------------------------------
  C      0.000000    0.607495    0.000000
  C     -0.022300   -0.607096    0.000000
  C      0.032288    1.961729    0.000000
  C     -0.037787   -1.961626    0.000000
  C      0.067261    3.167962    0.000000
  C     -0.047216   -3.168328    0.000000
  H      0.098665    4.228824    0.000000
  H     -0.052142   -4.229643    0.000000

 Total Charge           Charge          ....    0
 Multiplicity           Mult            ....    1
 Number of Electrons    NEL             ....   38
 Basis Dimension        Dim             ....  322

ORBITAL ENERGIES
----------------

  NO   OCC          E(Eh)            E(eV)
   0   2.0000     -11.282234      -307.0052
   1   2.0000     -11.278751      -306.9104
   2   2.0000     -11.271465      -306.7121
   3   2.0000     -11.271445      -306.7116
   4   2.0000     -11.265547      -306.5511
   5   2.0000     -11.265545      -306.5511
   6   2.0000      -1.117960       -30.4212
   7   2.0000      -1.073666       -29.2159
   8   2.0000      -1.018923       -27.7263
   9   2.0000      -0.890545       -24.2330
  10   2.0000      -0.809853       -22.0372
  11   2.0000      -0.728099       -19.8126
  12   2.0000      -0.718488       -19.5510
  13   2.0000      -0.525362       -14.2958
  14   2.0000      -0.525362       -14.2958
  15   2.0000      -0.451276       -12.2798
  16   2.0000      -0.451275       -12.2798
  17   2.0000      -0.348737        -9.4896
  18   2.0000      -0.348736        -9.4896
  19   0.0000       0.025740         0.7004
  20   0.0000       0.027761         0.7554
  21   0.0000       0.056415         1.5351
  22   0.0000       0.056416         1.5352
  23   0.0000       0.061439         1.6718

MULLIKEN ATOMIC CHARGES
-----------------------
   0 C :   -1.019864
   1 C :   -1.018666
   2 C :    1.328219
   3 C :    1.328940
   4 C :   -0.768438
   5 C :   -0.769111
   6 H :    0.459526
   7 H :    0.459394
Sum of atomic charges:    0.0000000

LOEWDIN ATOMIC CHARGES
----------------------
   0 C :   -0.033784
   1 C :   -0.033784
   2 C :   -0.092304
   3 C :   -0.092305
   4 C :    0.412583
   5 C :    0.412581
   6 H :   -0.286492
   7 H :   -0.286494

  Mayer bond orders larger than 0.100000
B(  0-C ,  1-C ) :   3.8309 B(  0-C ,  3-C ) : -11.3029 B(  0-C ,  4-C ) :  -7.1623
B(  0-C ,  5-C ) :  -1.5226 B(  0-C ,  6-H ) :  -0.5753 B(  0-C ,  7-H ) :  -0.2923
B(  1-C ,  2-C ) : -11.3014 B(  1-C ,  4-C ) :  -1.5256 B(  1-C ,  5-C ) :  -7.1627
B(  1-C ,  6-H ) :  -0.2924 B(  1-C ,  7-H ) :  -0.5755 B(  2-C ,  3-C ) :   5.9345
B(  2-C ,  4-C ) :   0.7961 B(  2-C ,  5-C ) :   5.5876 B(  2-C ,  7-H ) :   0.5603
B(  3-C ,  4-C ) :   5.5892 B(  3-C ,  5-C ) :   0.7945 B(  3-C ,  6-H ) :   0.5601
B(  4-C ,  5-C ) :   3.9396 B(  4-C ,  6-H ) :   0.8557 B(  4-C ,  7-H ) :   0.1982
B(  5-C ,  6-H ) :   0.1981 B(  5-C ,  7-H ) :   0.8560

MP2 TOTAL ENERGY:     -229.161733610 Eh
FINAL SINGLE POINT ENERGY      -229.161733610237

DIPOLE MOMENT
-------------
                                X             Y             Z
Electronic contribution:     -0.03101       0.00058      -0.00000
Nuclear contribution   :      0.04482      -0.00079       0.00000
                        -----------------------------------------
Total Dipole Moment    :      0.01380      -0.00021      -0.00000
                        -----------------------------------------
Magnitude (a.u.)       :      0.01381
Magnitude (Debye)      :      0.03509

Rotational constants in cm-1:  2534.866732     0.044527     0.044526
Rotational constants in MHz : 75993392.829783  1334.883870  1334.860422

                             ****ORCA TERMINATED NORMALLY****
TOTAL RUN TIME: 0 days 0 hours 1 minutes 17 seconds 882 msec
