                         Program Version 5.0.3 -  RELEASE  -
|  1> !ri-mp2 aug-cc-pvtz aug-cc-pvtz/c tightscf
|  2> %pal nprocs 16 end
|  3> %maxcore 3800
|  4>
|  5> * xyz 0 1
|  6> C      2.934907   -1.847531    0.000000
|  7> C     -3.741441    1.922109    0.000000
|  8> C      2.204069   -0.532137    0.000000
|  9> C     -2.216713    2.017532    0.000000
| 10> C      0.683613   -0.629266    0.000000
| 11> C     -1.526489    0.653370    0.000000
| 12> C      0.000000    0.738127    0.000000
| 13> O      2.412916   -2.933644    0.000000
| 14> H      4.042127   -1.761298    0.000000
| 15> H     -4.203476    2.910263    0.000000
| 16> H     -4.102888    1.387142    0.880650
| 17> H     -4.102888    1.387142   -0.880650
| 18> H      2.570407    0.032064    0.867377
| 19> H      2.570407    0.032064   -0.867377
| 20> H     -1.887390    2.587509    0.874110
| 21> H     -1.887390    2.587509   -0.874110
| 22> H      0.362464   -1.205426   -0.870679
| 23> H      0.362464   -1.205426    0.870679
| 24> H     -1.856331    0.082600    0.874379
| 25> H     -1.856331    0.082600   -0.874379
| 26> H      0.328909    1.309595   -0.874725
| 27> H      0.328909    1.309595    0.874725
| 28> *
| 29>
| 30>                          ****END OF INPUT****

CARTESIAN COORDINATES (ANGSTROEM)
---------------------------------
  C      2.934907   -1.847531    0.000000
  C     -3.741441    1.922109    0.000000
  C      2.204069   -0.532137    0.000000
  C     -2.216713    2.017532    0.000000
  C      0.683613   -0.629266    0.000000
  C     -1.526489    0.653370    0.000000
  C      0.000000    0.738127    0.000000
  O      2.412916   -2.933644    0.000000
  H      4.042127   -1.761298    0.000000
  H     -4.203476    2.910263    0.000000
  H     -4.102888    1.387142    0.880650
  H     -4.102888    1.387142   -0.880650
  H      2.570407    0.032064    0.867377
  H      2.570407    0.032064   -0.867377
  H     -1.887390    2.587509    0.874110
  H     -1.887390    2.587509   -0.874110
  H      0.362464   -1.205426   -0.870679
  H      0.362464   -1.205426    0.870679
  H     -1.856331    0.082600    0.874379
  H     -1.856331    0.082600   -0.874379
  H      0.328909    1.309595   -0.874725
  H      0.328909    1.309595    0.874725

 Total Charge           Charge          ....    0
 Multiplicity           Mult            ....    1
 Number of Electrons    NEL             ....   64
 Basis Dimension        Dim             ....  690

ORBITAL ENERGIES
----------------

  NO   OCC          E(Eh)            E(eV)
   0   2.0000     -20.556608      -559.3738
   1   2.0000     -11.330912      -308.3298
   2   2.0000     -11.242201      -305.9158
   3   2.0000     -11.224454      -305.4329
   4   2.0000     -11.222330      -305.3751
   5   2.0000     -11.218961      -305.2835
   6   2.0000     -11.217690      -305.2489
   7   2.0000     -11.211671      -305.0851
   8   2.0000      -1.394448       -37.9448
   9   2.0000      -1.097321       -29.8596
  10   2.0000      -1.056729       -28.7551
  11   2.0000      -0.991222       -26.9725
  12   2.0000      -0.909052       -24.7366
  13   2.0000      -0.829177       -22.5631
  14   2.0000      -0.792071       -21.5533
  15   2.0000      -0.768694       -20.9172
  16   2.0000      -0.673155       -18.3175
  17   2.0000      -0.662270       -18.0213
  18   2.0000      -0.630261       -17.1503
  19   2.0000      -0.627598       -17.0778
  20   2.0000      -0.587425       -15.9846
  21   2.0000      -0.576756       -15.6943
  22   2.0000      -0.553889       -15.0721
  23   2.0000      -0.535439       -14.5700
  24   2.0000      -0.524913       -14.2836
  25   2.0000      -0.496580       -13.5126
  26   2.0000      -0.493747       -13.4355
  27   2.0000      -0.475471       -12.9382
  28   2.0000      -0.467245       -12.7144
  29   2.0000      -0.464210       -12.6318
  30   2.0000      -0.460310       -12.5257
  31   2.0000      -0.415773       -11.3138
  32   0.0000       0.026470         0.7203
  33   0.0000       0.029801         0.8109
  34   0.0000       0.035701         0.9715
  35   0.0000       0.037543         1.0216
  36   0.0000       0.043505         1.1838

MULLIKEN ATOMIC CHARGES
-----------------------
   0 C :   -0.225564
   1 C :   -0.998202
   2 C :   -0.329296
   3 C :   -0.511134
   4 C :   -0.221773
   5 C :   -0.300490
   6 C :   -0.333069
   7 O :   -0.752862
   8 H :    0.496613
   9 H :    0.280487
  10 H :    0.261780
  11 H :    0.261780
  12 H :    0.245776
  13 H :    0.245777
  14 H :    0.226935
  15 H :    0.226935
  16 H :    0.218667
  17 H :    0.218667
  18 H :    0.250509
  19 H :    0.250509
  20 H :    0.243977
  21 H :    0.243977
Sum of atomic charges:    0.0000000

LOEWDIN ATOMIC CHARGES
----------------------
   0 C :   -0.208311
   1 C :    0.578822
   2 C :    0.257194
   3 C :    0.256730
   4 C :    0.264338
   5 C :    0.271349
   6 C :    0.274899
   7 O :    0.443547
   8 H :   -0.176996
   9 H :   -0.174014
  10 H :   -0.171248
  11 H :   -0.171248
  12 H :   -0.151601
  13 H :   -0.151601
  14 H :   -0.148102
  15 H :   -0.148102
  16 H :   -0.141924
  17 H :   -0.141924
  18 H :   -0.140252
  19 H :   -0.140252
  20 H :   -0.140652
  21 H :   -0.140652

  Mayer bond orders larger than 0.100000
B(  0-C ,  2-C ) :   0.7800 B(  0-C ,  4-C ) :  -0.1408 B(  0-C ,  7-O ) :   1.5697
B(  0-C ,  8-H ) :   0.7308 B(  1-C ,  3-C ) :   0.9326 B(  1-C ,  9-H ) :   0.9839
B(  1-C , 10-H ) :   0.9695 B(  1-C , 11-H ) :   0.9695 B(  2-C ,  4-C ) :   1.0018
B(  2-C , 12-H ) :   0.9649 B(  2-C , 13-H ) :   0.9649 B(  3-C ,  5-C ) :   0.9114
B(  3-C , 14-H ) :   0.9726 B(  3-C , 15-H ) :   0.9726 B(  4-C ,  6-C ) :   0.9452
B(  4-C , 16-H ) :   0.9633 B(  4-C , 17-H ) :   0.9633 B(  5-C ,  6-C ) :   0.9451
B(  5-C , 18-H ) :   0.9462 B(  5-C , 19-H ) :   0.9462 B(  6-C , 20-H ) :   0.9439
B(  6-C , 21-H ) :   0.9439

MP2 TOTAL ENERGY:     -349.679081116 Eh
FINAL SINGLE POINT ENERGY      -349.679081116256

DIPOLE MOMENT
-------------
                                X             Y             Z
Electronic contribution:     10.02678      -8.78840       0.00000
Nuclear contribution   :     -9.78197       9.98904       0.00000
                        -----------------------------------------
Total Dipole Moment    :      0.24480       1.20064       0.00000
                        -----------------------------------------
Magnitude (a.u.)       :      1.22535
Magnitude (Debye)      :      3.11459

Rotational constants in cm-1:     0.267910     0.018875     0.017980
Rotational constants in MHz :  8031.740404   565.869439   539.036960

                             ****ORCA TERMINATED NORMALLY****
TOTAL RUN TIME: 0 days 0 hours 10 minutes 36 seconds 880 msec
