                         Program Version 5.0.3 -  RELEASE  -
|  1> !ri-mp2 aug-cc-pvtz aug-cc-pvtz/c tightscf
|  2> %pal nprocs 16 end
|  3>
|  4> * xyz 0 1
|  5> S     -0.560952   -0.610114    0.012357
|  6> O     -1.476085    0.795532   -0.118724
|  7> C      1.020613   -0.035441    0.000928
|  8> C      2.177382    0.307670   -0.001983
|  9> H     -1.598128    1.151695    0.770681
| 10> H      3.194069    0.612498   -0.012273
| 11> *
| 12>
| 13>                          ****END OF INPUT****

CARTESIAN COORDINATES (ANGSTROEM)
---------------------------------
  S     -0.560952   -0.610114    0.012357
  O     -1.476085    0.795532   -0.118724
  C      1.020613   -0.035441    0.000928
  C      2.177382    0.307670   -0.001983
  H     -1.598128    1.151695    0.770681
  H      3.194069    0.612498   -0.012273

 Total Charge           Charge          ....    0
 Multiplicity           Mult            ....    1
 Number of Electrons    NEL             ....   38
 Basis Dimension        Dim             ....  234

ORBITAL ENERGIES
----------------

  NO   OCC          E(Eh)            E(eV)
   0   2.0000     -92.041144     -2504.5669
   1   2.0000     -20.613080      -560.9104
   2   2.0000     -11.267312      -306.5991
   3   2.0000     -11.254698      -306.2559
   4   2.0000      -9.034572      -245.8432
   5   2.0000      -6.715889      -182.7486
   6   2.0000      -6.714455      -182.7096
   7   2.0000      -6.713181      -182.6749
   8   2.0000      -1.391069       -37.8529
   9   2.0000      -1.076088       -29.2818
  10   2.0000      -0.966664       -26.3043
  11   2.0000      -0.753015       -20.4906
  12   2.0000      -0.711454       -19.3597
  13   2.0000      -0.642570       -17.4852
  14   2.0000      -0.588971       -16.0267
  15   2.0000      -0.499875       -13.6023
  16   2.0000      -0.477813       -13.0019
  17   2.0000      -0.421125       -11.4594
  18   2.0000      -0.349510        -9.5107
  19   0.0000       0.027838         0.7575
  20   0.0000       0.034926         0.9504
  21   0.0000       0.062829         1.7097
  22   0.0000       0.069799         1.8993
  23   0.0000       0.080584         2.1928

MULLIKEN ATOMIC CHARGES
-----------------------
   0 S :    0.164516
   1 O :   -0.535025
   2 C :    0.924122
   3 C :   -1.385850
   4 H :    0.233667
   5 H :    0.598569
Sum of atomic charges:    0.0000000

LOEWDIN ATOMIC CHARGES
----------------------
   0 S :    0.864097
   1 O :    0.361393
   2 C :   -0.548593
   3 C :    0.269304
   4 H :   -0.636657
   5 H :   -0.309544

  Mayer bond orders larger than 0.100000
B(  0-S ,  1-O ) :   0.8388 B(  0-S ,  2-C ) :   0.9778 B(  1-O ,  4-H ) :   0.9851
B(  2-C ,  3-C ) :   1.1389 B(  3-C ,  5-H ) :   0.5186

MP2 TOTAL ENERGY:     -549.994029372 Eh
FINAL SINGLE POINT ENERGY      -549.994029371631

DIPOLE MOMENT
-------------
                                X             Y             Z
Electronic contribution:     -1.20104      -1.52118      -0.15899
Nuclear contribution   :      1.53140       1.72940       0.72829
                        -----------------------------------------
Total Dipole Moment    :      0.33036       0.20821       0.56930
                        -----------------------------------------
Magnitude (a.u.)       :      0.69036
Magnitude (Debye)      :      1.75475

Rotational constants in cm-1:     0.656123     0.131684     0.110792
Rotational constants in MHz : 19670.065282  3947.782394  3321.462544

                             ****ORCA TERMINATED NORMALLY****
TOTAL RUN TIME: 0 days 0 hours 0 minutes 54 seconds 523 msec
