                         Program Version 5.0.3 -  RELEASE  -
|  1> !ri-mp2 aug-cc-pvtz aug-cc-pvtz/c tightscf
|  2> %pal nprocs 16 end
|  3>
|  4> * xyz 0 1
|  5> O    -0.055278     2.766941       0.000000
|  6> C     0.001661     1.395041       0.000000
|  7> C     1.201394     0.689669       0.000000
|  8> C     1.201394    -0.699360       0.000000
|  9> C    -0.001661    -1.395041       0.000000
| 10> O     0.055278    -2.766941       0.000000
| 11> C    -1.201394    -0.689669       0.000000
| 12> C    -1.201394     0.699360       0.000000
| 13> H     0.835947     3.128399       0.000000
| 14> H     2.144114     1.223949       0.000000
| 15> H     2.130783    -1.251030       0.000000
| 16> H    -0.835947    -3.128399       0.000000
| 17> H    -2.144114    -1.223949       0.000000
| 18> H    -2.130783     1.251030       0.000000
| 19> *
| 20>
| 21>                          ****END OF INPUT****

CARTESIAN COORDINATES (ANGSTROEM)
---------------------------------
  O     -0.055278    2.766941    0.000000
  C      0.001661    1.395041    0.000000
  C      1.201394    0.689669    0.000000
  C      1.201394   -0.699360    0.000000
  C     -0.001661   -1.395041    0.000000
  O      0.055278   -2.766941    0.000000
  C     -1.201394   -0.689669    0.000000
  C     -1.201394    0.699360    0.000000
  H      0.835947    3.128399    0.000000
  H      2.144114    1.223949    0.000000
  H      2.130783   -1.251030    0.000000
  H     -0.835947   -3.128399    0.000000
  H     -2.144114   -1.223949    0.000000
  H     -2.130783    1.251030    0.000000

 Total Charge           Charge          ....    0
 Multiplicity           Mult            ....    1
 Number of Electrons    NEL             ....   58
 Basis Dimension        Dim             ....  506

ORBITAL ENERGIES
----------------

  NO   OCC          E(Eh)            E(eV)
   0   2.0000     -20.587772      -560.2218
   1   2.0000     -20.587772      -560.2217
   2   2.0000     -11.296714      -307.3992
   3   2.0000     -11.296694      -307.3987
   4   2.0000     -11.241157      -305.8874
   5   2.0000     -11.241131      -305.8867
   6   2.0000     -11.236645      -305.7647
   7   2.0000     -11.236632      -305.7643
   8   2.0000      -1.401431       -38.1349
   9   2.0000      -1.400035       -38.0969
  10   2.0000      -1.149158       -31.2702
  11   2.0000      -1.028359       -27.9831
  12   2.0000      -0.999962       -27.2103
  13   2.0000      -0.864756       -23.5312
  14   2.0000      -0.824781       -22.4434
  15   2.0000      -0.746295       -20.3077
  16   2.0000      -0.733713       -19.9653
  17   2.0000      -0.667983       -18.1767
  18   2.0000      -0.625773       -17.0281
  19   2.0000      -0.619124       -16.8472
  20   2.0000      -0.597539       -16.2599
  21   2.0000      -0.596932       -16.2433
  22   2.0000      -0.578067       -15.7300
  23   2.0000      -0.551440       -15.0054
  24   2.0000      -0.550762       -14.9870
  25   2.0000      -0.497180       -13.5290
  26   2.0000      -0.467325       -12.7166
  27   2.0000      -0.350353        -9.5336
  28   2.0000      -0.300158        -8.1677
  29   0.0000       0.027104         0.7375
  30   0.0000       0.028196         0.7672
  31   0.0000       0.037374         1.0170
  32   0.0000       0.046769         1.2727
  33   0.0000       0.053182         1.4472

MULLIKEN ATOMIC CHARGES
-----------------------
   0 O :   -0.757190
   1 C :    0.899584
   2 C :   -0.590916
   3 C :   -0.818805
   4 C :    0.899584
   5 O :   -0.757190
   6 C :   -0.590916
   7 C :   -0.818805
   8 H :    0.160807
   9 H :    0.506174
  10 H :    0.600346
  11 H :    0.160807
  12 H :    0.506174
  13 H :    0.600346
Sum of atomic charges:   -0.0000000

LOEWDIN ATOMIC CHARGES
----------------------
   0 O :    0.828923
   1 C :   -0.382360
   2 C :    0.202321
   3 C :    0.202196
   4 C :   -0.382360
   5 O :    0.828923
   6 C :    0.202321
   7 C :    0.202196
   8 H :   -0.487147
   9 H :   -0.183152
  10 H :   -0.180782
  11 H :   -0.487147
  12 H :   -0.183152
  13 H :   -0.180782

  Mayer bond orders larger than 0.100000
B(  0-O ,  1-C ) :   0.5523 B(  0-O ,  2-C ) :  -0.1612 B(  0-O ,  8-H ) :   1.0506
B(  1-C ,  2-C ) :   1.1627 B(  1-C ,  4-C ) :   0.1721 B(  1-C ,  6-C ) :  -0.2297
B(  1-C ,  7-C ) :   1.0444 B(  2-C ,  3-C ) :   1.2699 B(  2-C ,  4-C ) :  -0.2297
B(  2-C ,  7-C ) :   0.3147 B(  2-C ,  9-H ) :   0.6129 B(  3-C ,  4-C ) :   1.0444
B(  3-C ,  6-C ) :   0.3147 B(  3-C , 10-H ) :   0.4537 B(  4-C ,  5-O ) :   0.5523
B(  4-C ,  6-C ) :   1.1627 B(  5-O ,  6-C ) :  -0.1612 B(  5-O , 11-H ) :   1.0506
B(  6-C ,  7-C ) :   1.2699 B(  6-C , 12-H ) :   0.6129 B(  7-C , 13-H ) :   0.4537

MP2 TOTAL ENERGY:     -382.005741248 Eh
FINAL SINGLE POINT ENERGY      -382.005741247511

DIPOLE MOMENT
-------------
                                X             Y             Z
Electronic contribution:     -0.00000      -0.00000      -0.00000
Nuclear contribution   :      0.00000       0.00000       0.00000
                        -----------------------------------------
Total Dipole Moment    :     -0.00000      -0.00000      -0.00000
                        -----------------------------------------
Magnitude (a.u.)       :      0.00000
Magnitude (Debye)      :      0.00000

Rotational constants in cm-1:     0.188835     0.049464     0.039197
Rotational constants in MHz :  5661.124294  1482.892927  1175.086918

                             ****ORCA TERMINATED NORMALLY****
TOTAL RUN TIME: 0 days 0 hours 4 minutes 19 seconds 657 msec
