                         Program Version 5.0.3 -  RELEASE  -
|  1> !ri-mp2 aug-cc-pvtz aug-cc-pvtz/c tightscf
|  2> %pal nprocs 16 end
|  3>
|  4> * xyz 0 1
|  5> C      0.467629    0.583634    0.000000
|  6> C     -0.031191    1.784928    0.753865
|  7> C     -0.031191    1.784928   -0.753865
|  8> C     -0.315789   -0.714728    0.000000
|  9> C     -0.031191   -1.532744    1.263884
| 10> C     -0.031191   -1.532744   -1.263884
| 11> H      1.544280    0.445861    0.000000
| 12> H     -0.986654    1.703209   -1.255077
| 13> H      0.685059    2.411395    1.266643
| 14> H      0.685059    2.411395   -1.266643
| 15> H     -0.986654    1.703209    1.255077
| 16> H     -0.623644   -2.449214    1.283788
| 17> H     -0.623644   -2.449214   -1.283788
| 18> H     -0.260425   -0.962286   -2.164879
| 19> H     -0.260425   -0.962286    2.164879
| 20> H      1.022414   -1.819061   -1.310538
| 21> H      1.022414   -1.819061    1.310538
| 22> H     -1.380233   -0.453598    0.000000
| 23> *
| 24>
| 25>                          ****END OF INPUT****

CARTESIAN COORDINATES (ANGSTROEM)
---------------------------------
  C      0.467629    0.583634    0.000000
  C     -0.031191    1.784928    0.753865
  C     -0.031191    1.784928   -0.753865
  C     -0.315789   -0.714728    0.000000
  C     -0.031191   -1.532744    1.263884
  C     -0.031191   -1.532744   -1.263884
  H      1.544280    0.445861    0.000000
  H     -0.986654    1.703209   -1.255077
  H      0.685059    2.411395    1.266643
  H      0.685059    2.411395   -1.266643
  H     -0.986654    1.703209    1.255077
  H     -0.623644   -2.449214    1.283788
  H     -0.623644   -2.449214   -1.283788
  H     -0.260425   -0.962286   -2.164879
  H     -0.260425   -0.962286    2.164879
  H      1.022414   -1.819061   -1.310538
  H      1.022414   -1.819061    1.310538
  H     -1.380233   -0.453598    0.000000

 Total Charge           Charge          ....    0
 Multiplicity           Mult            ....    1
 Number of Electrons    NEL             ....   48
 Basis Dimension        Dim             ....  552

ORBITAL ENERGIES
----------------

  NO   OCC          E(Eh)            E(eV)
   0   2.0000     -11.225545      -305.4626
   1   2.0000     -11.223186      -305.3984
   2   2.0000     -11.218663      -305.2753
   3   2.0000     -11.218047      -305.2586
   4   2.0000     -11.207257      -304.9650
   5   2.0000     -11.207236      -304.9644
   6   2.0000      -1.145171       -31.1617
   7   2.0000      -1.048757       -28.5381
   8   2.0000      -0.925898       -25.1950
   9   2.0000      -0.842940       -22.9376
  10   2.0000      -0.817389       -22.2423
  11   2.0000      -0.758238       -20.6327
  12   2.0000      -0.655767       -17.8443
  13   2.0000      -0.635236       -17.2856
  14   2.0000      -0.593585       -16.1523
  15   2.0000      -0.560407       -15.2495
  16   2.0000      -0.554072       -15.0771
  17   2.0000      -0.531039       -14.4503
  18   2.0000      -0.509002       -13.8507
  19   2.0000      -0.481977       -13.1153
  20   2.0000      -0.480438       -13.0734
  21   2.0000      -0.458976       -12.4894
  22   2.0000      -0.408060       -11.1039
  23   2.0000      -0.399436       -10.8692
  24   0.0000       0.031406         0.8546
  25   0.0000       0.035273         0.9598
  26   0.0000       0.035434         0.9642
  27   0.0000       0.037689         1.0256
  28   0.0000       0.053617         1.4590

MULLIKEN ATOMIC CHARGES
-----------------------
   0 C :   -0.021344
   1 C :   -1.029797
   2 C :   -1.029797
   3 C :    0.646413
   4 C :   -1.143854
   5 C :   -1.143854
   6 H :    0.541319
   7 H :    0.283294
   8 H :    0.353273
   9 H :    0.353273
  10 H :    0.283294
  11 H :    0.244811
  12 H :    0.244811
  13 H :    0.289340
  14 H :    0.289340
  15 H :    0.249303
  16 H :    0.249303
  17 H :    0.340875
Sum of atomic charges:    0.0000000

LOEWDIN ATOMIC CHARGES
----------------------
   0 C :    0.013074
   1 C :    0.371503
   2 C :    0.371503
   3 C :   -0.054856
   4 C :    0.588449
   5 C :    0.588449
   6 H :   -0.127421
   7 H :   -0.157476
   8 H :   -0.158369
   9 H :   -0.158369
  10 H :   -0.157476
  11 H :   -0.165921
  12 H :   -0.165921
  13 H :   -0.163818
  14 H :   -0.163818
  15 H :   -0.161642
  16 H :   -0.161642
  17 H :   -0.136250

  Mayer bond orders larger than 0.100000
B(  0-C ,  1-C ) :   0.5148 B(  0-C ,  2-C ) :   0.5148 B(  0-C ,  3-C ) :   0.6789
B(  0-C ,  4-C ) :   0.1147 B(  0-C ,  5-C ) :   0.1147 B(  0-C ,  6-H ) :   0.5733
B(  1-C ,  2-C ) :   1.3337 B(  1-C ,  8-H ) :   0.8527 B(  1-C , 10-H ) :   0.9350
B(  2-C ,  7-H ) :   0.9350 B(  2-C ,  9-H ) :   0.8527 B(  3-C ,  4-C ) :   0.6748
B(  3-C ,  5-C ) :   0.6748 B(  3-C , 17-H ) :   0.8689 B(  4-C ,  5-C ) :   0.1467
B(  4-C , 11-H ) :   1.0266 B(  4-C , 14-H ) :   0.9532 B(  4-C , 16-H ) :   1.0060
B(  5-C , 12-H ) :   1.0266 B(  5-C , 13-H ) :   0.9532 B(  5-C , 15-H ) :   1.0060

MP2 TOTAL ENERGY:     -235.307344907 Eh
FINAL SINGLE POINT ENERGY      -235.307344906891

DIPOLE MOMENT
-------------
                                X             Y             Z
Electronic contribution:      0.17053       2.38372       0.00000
Nuclear contribution   :     -0.17401      -2.39893       0.00000
                        -----------------------------------------
Total Dipole Moment    :     -0.00347      -0.01521       0.00000
                        -----------------------------------------
Magnitude (a.u.)       :      0.01561
Magnitude (Debye)      :      0.03967

Rotational constants in cm-1:     0.190446     0.086062     0.065671
Rotational constants in MHz :  5709.425889  2580.074541  1968.771272

                             ****ORCA TERMINATED NORMALLY****
TOTAL RUN TIME: 0 days 0 hours 5 minutes 22 seconds 799 msec
