                         Program Version 5.0.3 -  RELEASE  -
|  1> !ri-mp2 aug-cc-pvtz aug-cc-pvtz/c tightscf
|  2> %pal nprocs 16 end
|  3> %maxcore 3800
|  4>
|  5> * xyz 0 1
|  6> C      2.403276    0.235094    0.003580
|  7> C      3.664247   -0.587957   -0.004238
|  8> C     -2.836541    0.358121    1.268379
|  9> C     -2.835699    0.381755   -1.261372
| 10> C     -1.045343   -0.950015   -0.008083
| 11> C      0.028571    0.122851   -0.001652
| 12> C     -2.494529   -0.425752   -0.003810
| 13> O      2.357473    1.440315    0.011576
| 14> O      1.309148   -0.552959   -0.002627
| 15> H      3.706070   -1.193141   -0.909987
| 16> H      3.671524   -1.271694    0.844196
| 17> H      4.526585    0.069656    0.039536
| 18> H     -3.900505    0.597961    1.298851
| 19> H     -2.290462    1.301687    1.321379
| 20> H     -2.599340   -0.216217    2.165809
| 21> H     -2.290329    1.326588   -1.295750
| 22> H     -3.899825    0.621256   -1.288528
| 23> H     -2.596999   -0.175253   -2.169285
| 24> H     -0.897174   -1.580633   -0.888276
| 25> H     -0.896159   -1.591756    0.863846
| 26> H     -0.019806    0.767018   -0.878748
| 27> H     -0.022517    0.759280    0.880916
| 28> H     -3.127922   -1.318173   -0.012356
| 29> *
| 30>
| 31>                          ****END OF INPUT****

CARTESIAN COORDINATES (ANGSTROEM)
---------------------------------
  C      2.403276    0.235094    0.003580
  C      3.664247   -0.587957   -0.004238
  C     -2.836541    0.358121    1.268379
  C     -2.835699    0.381755   -1.261372
  C     -1.045343   -0.950015   -0.008083
  C      0.028571    0.122851   -0.001652
  C     -2.494529   -0.425752   -0.003810
  O      2.357473    1.440315    0.011576
  O      1.309148   -0.552959   -0.002627
  H      3.706070   -1.193141   -0.909987
  H      3.671524   -1.271694    0.844196
  H      4.526585    0.069656    0.039536
  H     -3.900505    0.597961    1.298851
  H     -2.290462    1.301687    1.321379
  H     -2.599340   -0.216217    2.165809
  H     -2.290329    1.326588   -1.295750
  H     -3.899825    0.621256   -1.288528
  H     -2.596999   -0.175253   -2.169285
  H     -0.897174   -1.580633   -0.888276
  H     -0.896159   -1.591756    0.863846
  H     -0.019806    0.767018   -0.878748
  H     -0.022517    0.759280    0.880916
  H     -3.127922   -1.318173   -0.012356

 Total Charge           Charge          ....    0
 Multiplicity           Mult            ....    1
 Number of Electrons    NEL             ....   72
 Basis Dimension        Dim             ....  736

ORBITAL ENERGIES
----------------

  NO   OCC          E(Eh)            E(eV)
   0   2.0000     -20.596959      -560.4718
   1   2.0000     -20.540184      -558.9268
   2   2.0000     -11.376390      -309.5673
   3   2.0000     -11.282967      -307.0251
   4   2.0000     -11.237882      -305.7983
   5   2.0000     -11.233954      -305.6914
   6   2.0000     -11.224687      -305.4393
   7   2.0000     -11.215181      -305.1806
   8   2.0000     -11.215149      -305.1797
   9   2.0000      -1.453710       -39.5575
  10   2.0000      -1.354268       -36.8515
  11   2.0000      -1.100491       -29.9459
  12   2.0000      -1.033563       -28.1247
  13   2.0000      -0.983756       -26.7694
  14   2.0000      -0.934542       -25.4302
  15   2.0000      -0.878002       -23.8917
  16   2.0000      -0.778322       -21.1792
  17   2.0000      -0.763761       -20.7830
  18   2.0000      -0.686586       -18.6829
  19   2.0000      -0.683214       -18.5912
  20   2.0000      -0.665095       -18.0982
  21   2.0000      -0.623716       -16.9722
  22   2.0000      -0.616555       -16.7773
  23   2.0000      -0.596888       -16.2421
  24   2.0000      -0.576573       -15.6894
  25   2.0000      -0.574229       -15.6256
  26   2.0000      -0.545569       -14.8457
  27   2.0000      -0.543213       -14.7816
  28   2.0000      -0.526314       -14.3217
  29   2.0000      -0.520128       -14.1534
  30   2.0000      -0.500253       -13.6126
  31   2.0000      -0.471707       -12.8358
  32   2.0000      -0.468442       -12.7469
  33   2.0000      -0.459867       -12.5136
  34   2.0000      -0.454600       -12.3703
  35   2.0000      -0.441932       -12.0256
  36   0.0000       0.026827         0.7300
  37   0.0000       0.030572         0.8319
  38   0.0000       0.035554         0.9675
  39   0.0000       0.037712         1.0262
  40   0.0000       0.047165         1.2834

MULLIKEN ATOMIC CHARGES
-----------------------
   0 C :    0.221246
   1 C :   -0.665221
   2 C :   -1.061130
   3 C :   -1.061052
   4 C :   -0.390805
   5 C :   -0.104771
   6 C :    0.216299
   7 O :   -0.728037
   8 O :   -0.307388
   9 H :    0.263351
  10 H :    0.262383
  11 H :    0.375799
  12 H :    0.246362
  13 H :    0.298636
  14 H :    0.258825
  15 H :    0.297615
  16 H :    0.246247
  17 H :    0.258812
  18 H :    0.233073
  19 H :    0.231698
  20 H :    0.271706
  21 H :    0.274125
  22 H :    0.362225
Sum of atomic charges:   -0.0000000

LOEWDIN ATOMIC CHARGES
----------------------
   0 C :   -0.827247
   1 C :    0.583142
   2 C :    0.586556
   3 C :    0.586502
   4 C :    0.290528
   5 C :    0.054162
   6 C :   -0.044355
   7 O :    0.451566
   8 O :    0.586795
   9 H :   -0.175988
  10 H :   -0.177229
  11 H :   -0.186532
  12 H :   -0.163546
  13 H :   -0.169511
  14 H :   -0.160941
  15 H :   -0.169458
  16 H :   -0.163545
  17 H :   -0.160870
  18 H :   -0.143757
  19 H :   -0.143900
  20 H :   -0.158125
  21 H :   -0.158302
  22 H :   -0.135945

  Mayer bond orders larger than 0.100000
B(  0-C ,  1-C ) :   0.7695 B(  0-C ,  7-O ) :   1.6221 B(  0-C ,  8-O ) :   1.0743
B(  1-C ,  8-O ) :  -0.1024 B(  1-C ,  9-H ) :   0.9737 B(  1-C , 10-H ) :   0.9800
B(  1-C , 11-H ) :   0.8794 B(  2-C ,  3-C ) :   0.1757 B(  2-C ,  6-C ) :   0.7228
B(  2-C , 12-H ) :   1.0219 B(  2-C , 13-H ) :   0.9550 B(  2-C , 14-H ) :   0.9849
B(  3-C ,  6-C ) :   0.7230 B(  3-C , 15-H ) :   0.9559 B(  3-C , 16-H ) :   1.0219
B(  3-C , 17-H ) :   0.9847 B(  4-C ,  5-C ) :   0.8562 B(  4-C ,  6-C ) :   0.9577
B(  4-C , 18-H ) :   0.9439 B(  4-C , 19-H ) :   0.9457 B(  5-C ,  8-O ) :   0.7212
B(  5-C , 20-H ) :   0.9841 B(  5-C , 21-H ) :   0.9832 B(  6-C , 22-H ) :   0.8663

MP2 TOTAL ENERGY:     -424.834386744 Eh
FINAL SINGLE POINT ENERGY      -424.834386743711

DIPOLE MOMENT
-------------
                                X             Y             Z
Electronic contribution:     10.64239       1.09503       0.01987
Nuclear contribution   :    -10.98814      -1.96250      -0.02935
                        -----------------------------------------
Total Dipole Moment    :     -0.34575      -0.86747      -0.00949
                        -----------------------------------------
Magnitude (a.u.)       :      0.93389
Magnitude (Debye)      :      2.37375

Rotational constants in cm-1:     0.125857     0.021039     0.020649
Rotational constants in MHz :  3773.084261   630.747679   619.044530

                             ****ORCA TERMINATED NORMALLY****
TOTAL RUN TIME: 0 days 0 hours 14 minutes 15 seconds 894 msec
