                         Program Version 5.0.3 -  RELEASE  -
|  1> !ri-mp2 aug-cc-pvtz aug-cc-pvtz/c tightscf
|  2> %pal nprocs 16 end
|  3> %maxcore 3800
|  4>
|  5> * xyz 0 1
|  6> N     -0.597265    1.880669   -0.121090
|  7> C     -0.495562    0.459188   -0.493741
|  8> C     -1.805491   -0.236189   -0.085662
|  9> O     -2.217442   -1.236297   -0.608791
| 10> O     -2.449652    0.365789    0.927683
| 11> H     -1.968150    1.206422    1.080701
| 12> C      0.740774   -0.181501    0.194975
| 13> C      2.036361    0.322896   -0.473170
| 14> C      0.692385   -1.712042    0.209785
| 15> C      3.305554    0.081041    0.344256
| 16> H     -0.402470    0.308887   -1.572904
| 17> H      0.731995    0.170577    1.233213
| 18> H      2.129419   -0.159520   -1.450886
| 19> H      1.964888    1.394467   -0.677881
| 20> H      1.596770   -2.114151    0.664101
| 21> H     -0.156498   -2.089792    0.775213
| 22> H      0.613261   -2.111699   -0.802100
| 23> H      4.176666    0.493046   -0.166281
| 24> H      3.239861    0.558480    1.324121
| 25> H      3.494746   -0.979801    0.504685
| 26> H      0.309205    2.294943    0.044674
| 27> H     -1.056201    2.427172   -0.838822
| 28> *
| 29>
| 30>                          ****END OF INPUT****

CARTESIAN COORDINATES (ANGSTROEM)
---------------------------------
  N     -0.597265    1.880669   -0.121090
  C     -0.495562    0.459188   -0.493741
  C     -1.805491   -0.236189   -0.085662
  O     -2.217442   -1.236297   -0.608791
  O     -2.449652    0.365789    0.927683
  H     -1.968150    1.206422    1.080701
  C      0.740774   -0.181501    0.194975
  C      2.036361    0.322896   -0.473170
  C      0.692385   -1.712042    0.209785
  C      3.305554    0.081041    0.344256
  H     -0.402470    0.308887   -1.572904
  H      0.731995    0.170577    1.233213
  H      2.129419   -0.159520   -1.450886
  H      1.964888    1.394467   -0.677881
  H      1.596770   -2.114151    0.664101
  H     -0.156498   -2.089792    0.775213
  H      0.613261   -2.111699   -0.802100
  H      4.176666    0.493046   -0.166281
  H      3.239861    0.558480    1.324121
  H      3.494746   -0.979801    0.504685
  H      0.309205    2.294943    0.044674
  H     -1.056201    2.427172   -0.838822

 Total Charge           Charge          ....    0
 Multiplicity           Mult            ....    1
 Number of Electrons    NEL             ....   72
 Basis Dimension        Dim             ....  713

ORBITAL ENERGIES
----------------

  NO   OCC          E(Eh)            E(eV)
   0   2.0000     -20.593701      -560.3831
   1   2.0000     -20.533229      -558.7376
   2   2.0000     -15.579465      -423.9388
   3   2.0000     -11.370995      -309.4205
   4   2.0000     -11.288550      -307.1771
   5   2.0000     -11.252334      -306.1916
   6   2.0000     -11.238725      -305.8212
   7   2.0000     -11.226213      -305.4808
   8   2.0000     -11.216582      -305.2187
   9   2.0000      -1.448234       -39.4084
  10   2.0000      -1.353089       -36.8194
  11   2.0000      -1.221422       -33.2366
  12   2.0000      -1.097900       -29.8754
  13   2.0000      -1.009413       -27.4675
  14   2.0000      -0.945588       -25.7307
  15   2.0000      -0.886957       -24.1353
  16   2.0000      -0.808296       -21.9949
  17   2.0000      -0.793568       -21.5941
  18   2.0000      -0.720404       -19.6032
  19   2.0000      -0.696009       -18.9394
  20   2.0000      -0.674123       -18.3438
  21   2.0000      -0.639023       -17.3887
  22   2.0000      -0.636095       -17.3090
  23   2.0000      -0.614836       -16.7305
  24   2.0000      -0.595495       -16.2042
  25   2.0000      -0.585192       -15.9239
  26   2.0000      -0.558767       -15.2048
  27   2.0000      -0.543456       -14.7882
  28   2.0000      -0.531225       -14.4554
  29   2.0000      -0.518161       -14.0999
  30   2.0000      -0.491373       -13.3709
  31   2.0000      -0.481673       -13.1070
  32   2.0000      -0.477955       -13.0058
  33   2.0000      -0.461174       -12.5492
  34   2.0000      -0.450289       -12.2530
  35   2.0000      -0.418388       -11.3849
  36   0.0000       0.019787         0.5384
  37   0.0000       0.029075         0.7912
  38   0.0000       0.032095         0.8734
  39   0.0000       0.039019         1.0618
  40   0.0000       0.049045         1.3346

MULLIKEN ATOMIC CHARGES
-----------------------
   0 N :   -0.649140
   1 C :    0.600205
   2 C :    0.704844
   3 O :   -0.921722
   4 O :   -0.601714
   5 H :    0.250779
   6 C :    0.337737
   7 C :   -0.620181
   8 C :   -1.041139
   9 C :   -1.040057
  10 H :    0.377233
  11 H :    0.279675
  12 H :    0.205913
  13 H :    0.318389
  14 H :    0.282684
  15 H :    0.279032
  16 H :    0.265129
  17 H :    0.268579
  18 H :    0.233190
  19 H :    0.314852
  20 H :    0.128953
  21 H :    0.026757
Sum of atomic charges:    0.0000000

LOEWDIN ATOMIC CHARGES
----------------------
   0 N :    0.878660
   1 C :   -0.088587
   2 C :   -0.784424
   3 O :    0.449069
   4 O :    0.844435
   5 H :   -0.577371
   6 C :   -0.008344
   7 C :    0.281757
   8 C :    0.594914
   9 C :    0.596595
  10 H :   -0.135513
  11 H :   -0.131735
  12 H :   -0.136079
  13 H :   -0.164475
  14 H :   -0.174743
  15 H :   -0.176754
  16 H :   -0.150025
  17 H :   -0.167163
  18 H :   -0.162617
  19 H :   -0.179816
  20 H :   -0.328349
  21 H :   -0.279434

  Mayer bond orders larger than 0.100000
B(  0-N ,  1-C ) :   0.4622 B(  0-N ,  2-C ) :   0.1248 B(  0-N ,  5-H ) :   0.1175
B(  0-N , 20-H ) :   0.9698 B(  0-N , 21-H ) :   1.0839 B(  1-C ,  2-C ) :   0.5557
B(  1-C ,  6-C ) :   0.8507 B(  1-C , 10-H ) :   0.9148 B(  2-C ,  3-O ) :   1.2249
B(  2-C ,  4-O ) :   0.7325 B(  2-C ,  6-C ) :   0.2653 B(  2-C , 10-H ) :  -0.1145
B(  3-O ,  6-C ) :   0.1524 B(  4-O ,  5-H ) :   0.8596 B(  6-C ,  7-C ) :   0.7679
B(  6-C ,  8-C ) :   0.6526 B(  6-C , 11-H ) :   0.8177 B(  7-C ,  8-C ) :   0.1430
B(  7-C ,  9-C ) :   0.9145 B(  7-C , 12-H ) :   1.0310 B(  7-C , 13-H ) :   0.8947
B(  8-C , 14-H ) :   0.9730 B(  8-C , 15-H ) :   0.9778 B(  8-C , 16-H ) :   0.9992
B(  9-C , 17-H ) :   1.0047 B(  9-C , 18-H ) :   1.0130 B(  9-C , 19-H ) :   0.9229

MP2 TOTAL ENERGY:     -440.885852672 Eh
FINAL SINGLE POINT ENERGY      -440.885852672090

DIPOLE MOMENT
-------------
                                X             Y             Z
Electronic contribution:    -13.36718       0.01724      -0.28637
Nuclear contribution   :     15.04666       1.43942       0.12592
                        -----------------------------------------
Total Dipole Moment    :      1.67948       1.45666      -0.16045
                        -----------------------------------------
Magnitude (a.u.)       :      2.22896
Magnitude (Debye)      :      5.66556

Rotational constants in cm-1:     0.090545     0.032951     0.027304
Rotational constants in MHz :  2714.468174   987.848087   818.564379

                             ****ORCA TERMINATED NORMALLY****
TOTAL RUN TIME: 0 days 0 hours 13 minutes 54 seconds 516 msec
