                         Program Version 5.0.3 -  RELEASE  -
|  1> !ri-mp2 aug-cc-pvtz aug-cc-pvtz/c tightscf
|  2> %pal nprocs 16 end
|  3>
|  4> * xyz 0 1
|  5> C     -2.290734    0.312473   -0.152529
|  6> C      1.730575    1.318317    0.376938
|  7> C      2.349480   -1.102336   -0.024284
|  8> C     -0.050404   -0.444296    0.035206
|  9> C      1.350871    0.017165   -0.333148
| 10> O     -2.730830   -0.652419    0.410787
| 11> O     -1.002022    0.556886   -0.408491
| 12> H     -2.898837    1.139165   -0.541138
| 13> H      2.726140    1.646204    0.075225
| 14> H      1.741116    1.179254    1.460987
| 15> H      1.028303    2.118260    0.146337
| 16> H      3.358716   -0.805723   -0.310746
| 17> H      2.105762   -2.020077   -0.561819
| 18> H      2.364512   -1.333019    1.043503
| 19> H     -0.300747   -1.390490   -0.444761
| 20> H     -0.160689   -0.574017    1.113477
| 21> H      1.359807    0.196764   -1.412535
| 22> *
| 23>
| 24>                          ****END OF INPUT****

CARTESIAN COORDINATES (ANGSTROEM)
---------------------------------
  C     -2.290734    0.312473   -0.152529
  C      1.730575    1.318317    0.376938
  C      2.349480   -1.102336   -0.024284
  C     -0.050404   -0.444296    0.035206
  C      1.350871    0.017165   -0.333148
  O     -2.730830   -0.652419    0.410787
  O     -1.002022    0.556886   -0.408491
  H     -2.898837    1.139165   -0.541138
  H      2.726140    1.646204    0.075225
  H      1.741116    1.179254    1.460987
  H      1.028303    2.118260    0.146337
  H      3.358716   -0.805723   -0.310746
  H      2.105762   -2.020077   -0.561819
  H      2.364512   -1.333019    1.043503
  H     -0.300747   -1.390490   -0.444761
  H     -0.160689   -0.574017    1.113477
  H      1.359807    0.196764   -1.412535

 Total Charge           Charge          ....    0
 Multiplicity           Mult            ....    1
 Number of Electrons    NEL             ....   56
 Basis Dimension        Dim             ....  552

ORBITAL ENERGIES
----------------

  NO   OCC          E(Eh)            E(eV)
   0   2.0000     -20.609259      -560.8064
   1   2.0000     -20.553992      -559.3026
   2   2.0000     -11.381403      -309.7037
   3   2.0000     -11.290385      -307.2270
   4   2.0000     -11.239397      -305.8395
   5   2.0000     -11.223098      -305.3960
   6   2.0000     -11.217219      -305.2360
   7   2.0000      -1.463678       -39.8287
   8   2.0000      -1.367573       -37.2136
   9   2.0000      -1.098601       -29.8945
  10   2.0000      -0.964854       -26.2550
  11   2.0000      -0.940054       -25.5802
  12   2.0000      -0.829293       -22.5662
  13   2.0000      -0.786399       -21.3990
  14   2.0000      -0.724128       -19.7045
  15   2.0000      -0.685890       -18.6640
  16   2.0000      -0.677423       -18.4336
  17   2.0000      -0.622996       -16.9526
  18   2.0000      -0.608480       -16.5576
  19   2.0000      -0.569523       -15.4975
  20   2.0000      -0.547636       -14.9019
  21   2.0000      -0.544811       -14.8251
  22   2.0000      -0.536159       -14.5896
  23   2.0000      -0.490791       -13.3551
  24   2.0000      -0.483944       -13.1688
  25   2.0000      -0.477961       -13.0060
  26   2.0000      -0.461782       -12.5657
  27   2.0000      -0.458902       -12.4874
  28   0.0000       0.027505         0.7484
  29   0.0000       0.033767         0.9189
  30   0.0000       0.036961         1.0058
  31   0.0000       0.038812         1.0561
  32   0.0000       0.051184         1.3928

MULLIKEN ATOMIC CHARGES
-----------------------
   0 C :   -0.215500
   1 C :   -1.058049
   2 C :   -1.072097
   3 C :   -0.142765
   4 C :    0.251235
   5 O :   -0.637271
   6 O :   -0.402434
   7 H :    0.606857
   8 H :    0.269800
   9 H :    0.265930
  10 H :    0.320234
  11 H :    0.271145
  12 H :    0.249197
  13 H :    0.267024
  14 H :    0.375287
  15 H :    0.285347
  16 H :    0.366061
Sum of atomic charges:    0.0000000

LOEWDIN ATOMIC CHARGES
----------------------
   0 C :   -0.515752
   1 C :    0.585721
   2 C :    0.585489
   3 C :    0.052159
   4 C :   -0.064659
   5 O :    0.415809
   6 O :    0.561971
   7 H :   -0.201406
   8 H :   -0.165393
   9 H :   -0.161393
  10 H :   -0.172488
  11 H :   -0.163738
  12 H :   -0.164114
  13 H :   -0.159389
  14 H :   -0.151391
  15 H :   -0.147407
  16 H :   -0.134019

  Mayer bond orders larger than 0.100000
B(  0-C ,  5-O ) :   1.8342 B(  0-C ,  6-O ) :   1.3117 B(  0-C ,  7-H ) :   0.5835
B(  1-C ,  2-C ) :   0.1479 B(  1-C ,  4-C ) :   0.7361 B(  1-C ,  8-H ) :   0.9826
B(  1-C ,  9-H ) :   0.9691 B(  1-C , 10-H ) :   0.9356 B(  2-C ,  4-C ) :   0.7825
B(  2-C , 11-H ) :   0.9936 B(  2-C , 12-H ) :   0.9978 B(  2-C , 13-H ) :   0.9681
B(  3-C ,  4-C ) :   0.7984 B(  3-C ,  6-O ) :   0.7245 B(  3-C , 14-H ) :   0.8888
B(  3-C , 15-H ) :   0.9546 B(  4-C , 16-H ) :   0.8319

MP2 TOTAL ENERGY:     -346.376610829 Eh
FINAL SINGLE POINT ENERGY      -346.376610828718

DIPOLE MOMENT
-------------
                                X             Y             Z
Electronic contribution:    -10.79437       0.25927      -0.91170
Nuclear contribution   :     11.60045       0.15942       0.58549
                        -----------------------------------------
Total Dipole Moment    :      0.80608       0.41870      -0.32622
                        -----------------------------------------
Magnitude (a.u.)       :      0.96514
Magnitude (Debye)      :      2.45319

Rotational constants in cm-1:     0.196673     0.044232     0.038787
Rotational constants in MHz :  5896.119566  1326.048063  1162.811786

                             ****ORCA TERMINATED NORMALLY****
TOTAL RUN TIME: 0 days 0 hours 5 minutes 16 seconds 757 msec
