                         Program Version 5.0.3 -  RELEASE  -
|  1> !ri-mp2 aug-cc-pvtz aug-cc-pvtz/c tightscf
|  2> %pal nprocs 16 end
|  3>
|  4> * xyz 0 1
|  5> O     -1.742007    1.965021   -0.000021
|  6> C     -1.177229    0.903277   -0.000010
|  7> C      0.255043    0.578698   -0.000007
|  8> C      0.379731   -0.819241    0.000009
|  9> C      1.623314   -1.425094    0.000016
| 10> C      2.745582   -0.595433    0.000007
| 11> C      2.634874    0.794760   -0.000010
| 12> C      1.378592    1.391778   -0.000017
| 13> N     -0.883171   -1.422253    0.000016
| 14> C     -1.904802   -0.492965    0.000006
| 15> O     -3.086643   -0.710872    0.000008
| 16> H      1.729179   -2.501176    0.000029
| 17> H      3.728266   -1.047628    0.000012
| 18> H      3.527112    1.404141   -0.000017
| 19> H      1.265488    2.467328   -0.000029
| 20> H     -1.049284   -2.414768    0.000030
| 21> *
| 22>
| 23>                          ****END OF INPUT****

CARTESIAN COORDINATES (ANGSTROEM)
---------------------------------
  O     -1.742007    1.965021   -0.000021
  C     -1.177229    0.903277   -0.000010
  C      0.255043    0.578698   -0.000007
  C      0.379731   -0.819241    0.000009
  C      1.623314   -1.425094    0.000016
  C      2.745582   -0.595433    0.000007
  C      2.634874    0.794760   -0.000010
  C      1.378592    1.391778   -0.000017
  N     -0.883171   -1.422253    0.000016
  C     -1.904802   -0.492965    0.000006
  O     -3.086643   -0.710872    0.000008
  H      1.729179   -2.501176    0.000029
  H      3.728266   -1.047628    0.000012
  H      3.527112    1.404141   -0.000017
  H      1.265488    2.467328   -0.000029
  H     -1.049284   -2.414768    0.000030

 Total Charge           Charge          ....    0
 Multiplicity           Mult            ....    1
 Number of Electrons    NEL             ....   76
 Basis Dimension        Dim             ....  621

ORBITAL ENERGIES
----------------

  NO   OCC          E(Eh)            E(eV)
   0   2.0000     -20.578694      -559.9747
   1   2.0000     -20.562887      -559.5446
   2   2.0000     -15.627319      -425.2410
   3   2.0000     -11.381049      -309.6941
   4   2.0000     -11.359295      -309.1021
   5   2.0000     -11.325004      -308.1690
   6   2.0000     -11.279227      -306.9234
   7   2.0000     -11.278708      -306.9093
   8   2.0000     -11.263654      -306.4996
   9   2.0000     -11.259285      -306.3807
  10   2.0000     -11.255094      -306.2667
  11   2.0000      -1.430773       -38.9333
  12   2.0000      -1.404519       -38.2189
  13   2.0000      -1.306757       -35.5587
  14   2.0000      -1.175429       -31.9850
  15   2.0000      -1.074543       -29.2398
  16   2.0000      -1.040949       -28.3257
  17   2.0000      -0.965837       -26.2818
  18   2.0000      -0.868453       -23.6318
  19   2.0000      -0.838361       -22.8130
  20   2.0000      -0.796788       -21.6817
  21   2.0000      -0.750495       -20.4220
  22   2.0000      -0.718815       -19.5599
  23   2.0000      -0.680618       -18.5206
  24   2.0000      -0.666937       -18.1483
  25   2.0000      -0.643636       -17.5142
  26   2.0000      -0.639614       -17.4048
  27   2.0000      -0.636861       -17.3299
  28   2.0000      -0.633792       -17.2464
  29   2.0000      -0.560761       -15.2591
  30   2.0000      -0.548887       -14.9360
  31   2.0000      -0.540077       -14.6962
  32   2.0000      -0.538875       -14.6635
  33   2.0000      -0.506050       -13.7703
  34   2.0000      -0.468321       -12.7437
  35   2.0000      -0.415585       -11.3086
  36   2.0000      -0.375573       -10.2198
  37   2.0000      -0.336915        -9.1679
  38   0.0000       0.017514         0.4766
  39   0.0000       0.025110         0.6833
  40   0.0000       0.025584         0.6962
  41   0.0000       0.034063         0.9269
  42   0.0000       0.047211         1.2847

MULLIKEN ATOMIC CHARGES
-----------------------
   0 O :   -0.892001
   1 C :    0.713510
   2 C :    1.604288
   3 C :   -0.091763
   4 C :   -1.227004
   5 C :   -0.192782
   6 C :   -0.398469
   7 C :   -0.960189
   8 N :    0.007020
   9 C :    0.462335
  10 O :   -0.801944
  11 H :    0.604492
  12 H :    0.312959
  13 H :    0.766142
  14 H :    0.025460
  15 H :    0.067947
Sum of atomic charges:    0.0000000

LOEWDIN ATOMIC CHARGES
----------------------
   0 O :    0.471714
   1 C :   -0.487524
   2 C :   -0.120669
   3 C :   -0.230045
   4 C :    0.253405
   5 C :    0.210677
   6 C :    0.214672
   7 C :    0.242482
   8 N :    0.562211
   9 C :   -0.610434
  10 O :    0.444767
  11 H :   -0.179583
  12 H :   -0.173754
  13 H :   -0.189379
  14 H :   -0.158807
  15 H :   -0.249733

  Mayer bond orders larger than 0.100000
B(  0-O ,  1-C ) :   0.8614 B(  0-O ,  2-C ) :   0.1405 B(  0-O ,  3-C ) :   0.1392
B(  0-O , 14-H ) :   0.1198 B(  1-C ,  2-C ) :   0.3526 B(  1-C ,  3-C ) :   0.6225
B(  1-C ,  5-C ) :   0.1072 B(  1-C ,  6-C ) :   0.1308 B(  1-C ,  9-C ) :   0.8545
B(  1-C , 11-H ) :  -0.1043 B(  1-C , 13-H ) :   0.1820 B(  1-C , 14-H ) :  -0.1335
B(  2-C ,  3-C ) :   0.2904 B(  2-C ,  5-C ) :   0.1210 B(  2-C ,  7-C ) :   0.6303
B(  2-C ,  8-N ) :  -0.4509 B(  2-C ,  9-C ) :  -0.2181 B(  2-C , 11-H ) :   0.1532
B(  2-C , 14-H ) :  -0.3383 B(  3-C ,  4-C ) :   1.1335 B(  3-C ,  5-C ) :  -0.6125
B(  3-C ,  6-C ) :   0.1808 B(  3-C ,  7-C ) :  -0.6904 B(  3-C ,  8-N ) :   0.7570
B(  3-C ,  9-C ) :  -0.1602 B(  3-C , 11-H ) :  -0.1848 B(  3-C , 12-H ) :   0.2392
B(  3-C , 13-H ) :  -0.1276 B(  3-C , 14-H ) :   0.3990 B(  4-C ,  5-C ) :   1.4340
B(  4-C ,  6-C ) :   0.2503 B(  4-C ,  7-C ) :   0.2335 B(  4-C ,  8-N ) :  -0.2166
B(  4-C ,  9-C ) :  -0.1360 B(  4-C , 11-H ) :   0.3894 B(  5-C ,  6-C ) :   1.0915
B(  5-C ,  7-C ) :  -0.3880 B(  5-C , 11-H ) :   0.1135 B(  5-C , 12-H ) :   0.9973
B(  5-C , 13-H ) :   0.1010 B(  6-C ,  7-C ) :   1.2552 B(  6-C , 12-H ) :  -0.2137
B(  6-C , 13-H ) :   0.2948 B(  6-C , 14-H ) :  -0.1094 B(  7-C , 12-H ) :   0.2205
B(  7-C , 13-H ) :  -0.2285 B(  7-C , 14-H ) :   1.6920 B(  8-N ,  9-C ) :   1.1721
B(  8-N , 10-O ) :  -0.1419 B(  8-N , 15-H ) :   1.1680 B(  9-C , 10-O ) :   1.3134
B(  9-C , 11-H ) :   0.1629 B( 12-H , 14-H ) :   0.1259 B( 13-H , 14-H ) :  -0.1338

MP2 TOTAL ENERGY:     -512.139003729 Eh
FINAL SINGLE POINT ENERGY      -512.139003728932

DIPOLE MOMENT
-------------
                                X             Y             Z
Electronic contribution:     -6.46032       0.81805      -0.00001
Nuclear contribution   :      8.84678      -2.01847       0.00002
                        -----------------------------------------
Total Dipole Moment    :      2.38646      -1.20042       0.00002
                        -----------------------------------------
Magnitude (a.u.)       :      2.67136
Magnitude (Debye)      :      6.79006

Rotational constants in cm-1:     0.082688     0.031522     0.022822
Rotational constants in MHz :  2478.911909   944.997495   684.178600

                             ****ORCA TERMINATED NORMALLY****
TOTAL RUN TIME: 0 days 0 hours 10 minutes 35 seconds 69 msec
