                         Program Version 5.0.3 -  RELEASE  -
|  1> !ri-mp2 aug-cc-pvtz aug-cc-pvtz/c tightscf
|  2> %pal nprocs 16 end
|  3> %maxcore 3800
|  4>
|  5> * xyz 0 1
|  6> C      1.333873    2.598690    0.000000
|  7> C      0.875686    2.067268    1.199941
|  8> C      0.875686    2.067268   -1.199941
|  9> C     -0.026619    1.009896    1.196493
| 10> C     -0.026619    1.009896   -1.196493
| 11> C     -0.488807    0.456180    0.000000
| 12> C     -0.026619   -2.412117   -1.261997
| 13> C     -0.026619   -2.412117    1.261997
| 14> C     -1.461521   -0.699761    0.000000
| 15> C     -0.842543   -2.122471    0.000000
| 16> H      2.032977    3.424064    0.000000
| 17> H      1.216030    2.479956    2.140563
| 18> H      1.216030    2.479956   -2.140563
| 19> H     -0.383900    0.613202    2.138360
| 20> H     -0.383900    0.613202   -2.138360
| 21> H      0.854188   -1.771177   -1.323883
| 22> H     -0.618707   -2.255130   -2.165763
| 23> H      0.317444   -3.447758   -1.266811
| 24> H      0.317444   -3.447758    1.266811
| 25> H      0.854188   -1.771177    1.323883
| 26> H     -0.618707   -2.255130    2.165763
| 27> H     -2.110211   -0.616300    0.875339
| 28> H     -2.110211   -0.616300   -0.875339
| 29> H     -1.698056   -2.806051    0.000000
| 30> *
| 31>
| 32>                          ****END OF INPUT****

CARTESIAN COORDINATES (ANGSTROEM)
---------------------------------
  C      1.333873    2.598690    0.000000
  C      0.875686    2.067268    1.199941
  C      0.875686    2.067268   -1.199941
  C     -0.026619    1.009896    1.196493
  C     -0.026619    1.009896   -1.196493
  C     -0.488807    0.456180    0.000000
  C     -0.026619   -2.412117   -1.261997
  C     -0.026619   -2.412117    1.261997
  C     -1.461521   -0.699761    0.000000
  C     -0.842543   -2.122471    0.000000
  H      2.032977    3.424064    0.000000
  H      1.216030    2.479956    2.140563
  H      1.216030    2.479956   -2.140563
  H     -0.383900    0.613202    2.138360
  H     -0.383900    0.613202   -2.138360
  H      0.854188   -1.771177   -1.323883
  H     -0.618707   -2.255130   -2.165763
  H      0.317444   -3.447758   -1.266811
  H      0.317444   -3.447758    1.266811
  H      0.854188   -1.771177    1.323883
  H     -0.618707   -2.255130    2.165763
  H     -2.110211   -0.616300    0.875339
  H     -2.110211   -0.616300   -0.875339
  H     -1.698056   -2.806051    0.000000

 Total Charge           Charge          ....    0
 Multiplicity           Mult            ....    1
 Number of Electrons    NEL             ....   74
 Basis Dimension        Dim             ....  782

ORBITAL ENERGIES
----------------

  NO   OCC          E(Eh)            E(eV)
   0   2.0000     -11.236112      -305.7502
   1   2.0000     -11.230896      -305.6082
   2   2.0000     -11.230661      -305.6018
   3   2.0000     -11.228450      -305.5416
   4   2.0000     -11.227690      -305.5210
   5   2.0000     -11.226781      -305.4962
   6   2.0000     -11.226682      -305.4936
   7   2.0000     -11.223818      -305.4156
   8   2.0000     -11.207772      -304.9790
   9   2.0000     -11.207753      -304.9785
  10   2.0000      -1.154100       -31.4046
  11   2.0000      -1.087947       -29.6046
  12   2.0000      -1.021566       -27.7982
  13   2.0000      -1.011166       -27.5152
  14   2.0000      -0.927624       -25.2419
  15   2.0000      -0.925633       -25.1877
  16   2.0000      -0.823579       -22.4107
  17   2.0000      -0.811371       -22.0785
  18   2.0000      -0.758236       -20.6326
  19   2.0000      -0.688251       -18.7283
  20   2.0000      -0.638741       -17.3810
  21   2.0000      -0.636478       -17.3195
  22   2.0000      -0.623389       -16.9633
  23   2.0000      -0.591135       -16.0856
  24   2.0000      -0.583877       -15.8881
  25   2.0000      -0.575761       -15.6672
  26   2.0000      -0.558567       -15.1994
  27   2.0000      -0.531682       -14.4678
  28   2.0000      -0.514977       -14.0132
  29   2.0000      -0.505008       -13.7420
  30   2.0000      -0.497844       -13.5470
  31   2.0000      -0.483029       -13.1439
  32   2.0000      -0.463082       -12.6011
  33   2.0000      -0.462078       -12.5738
  34   2.0000      -0.451121       -12.2756
  35   2.0000      -0.333657        -9.0793
  36   2.0000      -0.323333        -8.7984
  37   0.0000       0.028205         0.7675
  38   0.0000       0.031682         0.8621
  39   0.0000       0.033812         0.9201
  40   0.0000       0.038137         1.0378
  41   0.0000       0.044527         1.2116

MULLIKEN ATOMIC CHARGES
-----------------------
   0 C :   -0.097861
   1 C :   -0.676399
   2 C :   -0.676385
   3 C :   -0.908059
   4 C :   -0.908048
   5 C :    1.652771
   6 C :   -1.087605
   7 C :   -1.087609
   8 C :   -0.402795
   9 C :    0.206250
  10 H :    0.405622
  11 H :    0.557947
  12 H :    0.557949
  13 H :   -0.007822
  14 H :   -0.007818
  15 H :    0.346287
  16 H :    0.270790
  17 H :    0.203251
  18 H :    0.203254
  19 H :    0.346286
  20 H :    0.270790
  21 H :    0.213167
  22 H :    0.213168
  23 H :    0.412872
Sum of atomic charges:    0.0000000

LOEWDIN ATOMIC CHARGES
----------------------
   0 C :    0.192198
   1 C :    0.199755
   2 C :    0.199755
   3 C :    0.211488
   4 C :    0.211488
   5 C :   -0.107855
   6 C :    0.583634
   7 C :    0.583634
   8 C :    0.294463
   9 C :   -0.037853
  10 H :   -0.188158
  11 H :   -0.184759
  12 H :   -0.184759
  13 H :   -0.175636
  14 H :   -0.175636
  15 H :   -0.167616
  16 H :   -0.161769
  17 H :   -0.164431
  18 H :   -0.164431
  19 H :   -0.167616
  20 H :   -0.161769
  21 H :   -0.149217
  22 H :   -0.149217
  23 H :   -0.135694

  Mayer bond orders larger than 0.100000
B(  0-C ,  1-C ) :   1.1220 B(  0-C ,  2-C ) :   1.1220 B(  0-C ,  3-C ) :  -0.2278
B(  0-C ,  4-C ) :  -0.2278 B(  0-C , 10-H ) :   0.8886 B(  1-C ,  2-C ) :   0.2320
B(  1-C ,  3-C ) :   1.4082 B(  1-C ,  4-C ) :   0.1110 B(  1-C , 10-H ) :  -0.2013
B(  1-C , 11-H ) :   0.6389 B(  2-C ,  3-C ) :   0.1110 B(  2-C ,  4-C ) :   1.4082
B(  2-C , 10-H ) :  -0.2013 B(  2-C , 12-H ) :   0.6389 B(  3-C ,  4-C ) :  -0.5026
B(  3-C ,  5-C ) :   0.5266 B(  3-C ,  8-C ) :   0.1682 B(  3-C ,  9-C ) :   0.1068
B(  3-C , 10-H ) :   0.1246 B(  3-C , 13-H ) :   1.5905 B(  3-C , 14-H ) :   0.1652
B(  4-C ,  5-C ) :   0.5266 B(  4-C ,  8-C ) :   0.1682 B(  4-C ,  9-C ) :   0.1068
B(  4-C , 10-H ) :   0.1246 B(  4-C , 13-H ) :   0.1652 B(  4-C , 14-H ) :   1.5905
B(  5-C ,  8-C ) :   0.3349 B(  5-C ,  9-C ) :   0.1503 B(  5-C , 13-H ) :  -0.2412
B(  5-C , 14-H ) :  -0.2412 B(  6-C ,  7-C ) :   0.1649 B(  6-C ,  9-C ) :   0.6991
B(  6-C , 15-H ) :   0.9356 B(  6-C , 16-H ) :   0.9729 B(  6-C , 17-H ) :   1.0640
B(  7-C ,  9-C ) :   0.6991 B(  7-C , 18-H ) :   1.0640 B(  7-C , 19-H ) :   0.9356
B(  7-C , 20-H ) :   0.9729 B(  8-C ,  9-C ) :   0.8431 B(  8-C , 21-H ) :   1.0957
B(  8-C , 22-H ) :   1.0957 B(  9-C , 23-H ) :   0.8040 B( 13-H , 14-H ) :   0.1512

MP2 TOTAL ENERGY:     -388.653999474 Eh
FINAL SINGLE POINT ENERGY      -388.653999474221

DIPOLE MOMENT
-------------
                                X             Y             Z
Electronic contribution:      1.06795       9.55074      -0.00000
Nuclear contribution   :     -1.15491      -9.70860       0.00000
                        -----------------------------------------
Total Dipole Moment    :     -0.08696      -0.15786      -0.00000
                        -----------------------------------------
Magnitude (a.u.)       :      0.18022
Magnitude (Debye)      :      0.45810

Rotational constants in cm-1:     0.084399     0.028928     0.025163
Rotational constants in MHz :  2530.204229   867.243105   754.379935

                             ****ORCA TERMINATED NORMALLY****
TOTAL RUN TIME: 0 days 0 hours 20 minutes 5 seconds 846 msec
