                         Program Version 5.0.3 -  RELEASE  -
|  1> !ri-mp2 aug-cc-pvtz aug-cc-pvtz/c tightscf
|  2> %pal nprocs 16 end
|  3>
|  4> * xyz 0 1
|  5> C      1.121838    0.366816        0.000000
|  6> C      0.615592   -0.959856        0.000000
|  7> C      0.000000    1.124633        0.000000
|  8> N     -0.689000   -0.992693        0.000000
|  9> O     -1.091411    0.346235        0.000000
| 10> H      2.145312    0.693430        0.000000
| 11> H      1.160098   -1.890521        0.000000
| 12> H     -0.175703    2.186501        0.000000
| 13> *
| 14>
| 15>                          ****END OF INPUT****

CARTESIAN COORDINATES (ANGSTROEM)
---------------------------------
  C      1.121838    0.366816    0.000000
  C      0.615592   -0.959856    0.000000
  C      0.000000    1.124633    0.000000
  N     -0.689000   -0.992693    0.000000
  O     -1.091411    0.346235    0.000000
  H      2.145312    0.693430    0.000000
  H      1.160098   -1.890521    0.000000
  H     -0.175703    2.186501    0.000000

 Total Charge           Charge          ....    0
 Multiplicity           Mult            ....    1
 Number of Electrons    NEL             ....   36
 Basis Dimension        Dim             ....  299

ORBITAL ENERGIES
----------------

  NO   OCC          E(Eh)            E(eV)
   0   2.0000     -20.651183      -561.9472
   1   2.0000     -15.628106      -425.2624
   2   2.0000     -11.320950      -308.0587
   3   2.0000     -11.285428      -307.0921
   4   2.0000     -11.245175      -305.9968
   5   2.0000      -1.497789       -40.7569
   6   2.0000      -1.171638       -31.8819
   7   2.0000      -1.076967       -29.3058
   8   2.0000      -0.837562       -22.7912
   9   2.0000      -0.821898       -22.3650
  10   2.0000      -0.747474       -20.3398
  11   2.0000      -0.659461       -17.9449
  12   2.0000      -0.625844       -17.0301
  13   2.0000      -0.592206       -16.1147
  14   2.0000      -0.569198       -15.4887
  15   2.0000      -0.486234       -13.2311
  16   2.0000      -0.432962       -11.7815
  17   2.0000      -0.373325       -10.1587
  18   0.0000       0.024587         0.6691
  19   0.0000       0.032790         0.8922
  20   0.0000       0.042107         1.1458
  21   0.0000       0.082287         2.2391
  22   0.0000       0.085375         2.3232

MULLIKEN ATOMIC CHARGES
-----------------------
   0 C :   -0.223944
   1 C :   -0.264292
   2 C :   -0.534571
   3 N :   -0.422037
   4 O :   -0.340473
   5 H :    0.474977
   6 H :    0.644235
   7 H :    0.666105
Sum of atomic charges:   -0.0000000

LOEWDIN ATOMIC CHARGES
----------------------
   0 C :    0.173359
   1 C :   -0.063829
   2 C :   -0.072514
   3 N :    0.152971
   4 O :    0.393120
   5 H :   -0.204563
   6 H :   -0.195529
   7 H :   -0.183015

  Mayer bond orders larger than 0.100000
B(  0-C ,  1-C ) :   0.9129 B(  0-C ,  2-C ) :   1.2777 B(  0-C ,  4-O ) :  -0.1051
B(  0-C ,  5-H ) :   0.8224 B(  1-C ,  3-N ) :   1.3243 B(  1-C ,  6-H ) :   0.5598
B(  2-C ,  4-O ) :   1.1475 B(  2-C ,  7-H ) :   0.5313 B(  3-N ,  4-O ) :   0.7334

MP2 TOTAL ENERGY:     -245.601999080 Eh
FINAL SINGLE POINT ENERGY      -245.601999080297

DIPOLE MOMENT
-------------
                                X             Y             Z
Electronic contribution:     -1.88323      -0.35573      -0.00000
Nuclear contribution   :      3.04309       0.96824       0.00000
                        -----------------------------------------
Total Dipole Moment    :      1.15986       0.61252      -0.00000
                        -----------------------------------------
Magnitude (a.u.)       :      1.31166
Magnitude (Debye)      :      3.33397

Rotational constants in cm-1:     0.329129     0.320905     0.162483
Rotational constants in MHz :  9867.043675  9620.488875  4871.103289

                             ****ORCA TERMINATED NORMALLY****
TOTAL RUN TIME: 0 days 0 hours 1 minutes 12 seconds 348 msec
