                         Program Version 5.0.3 -  RELEASE  -
|  1> !ri-mp2 aug-cc-pvtz aug-cc-pvtz/c tightscf
|  2> %pal nprocs 16 end
|  3>
|  4> * xyz 0 1
|  5> N     -2.411694    0.770500        0.000000
|  6> C     -1.247199    1.371403        0.000000
|  7> C      0.000000    0.696957        0.000000
|  8> C     -0.018996   -0.725328        0.000000
|  9> C     -1.285073   -1.354625        0.000000
| 10> C     -2.419419   -0.587737        0.000000
| 11> C      1.211455   -1.424550        0.000000
| 12> C      2.397856   -0.737303        0.000000
| 13> C      2.414486    0.675356        0.000000
| 14> C      1.238322    1.379037        0.000000
| 15> H     -1.255568    2.457887        0.000000
| 16> H     -1.354484   -2.434581        0.000000
| 17> H     -3.398779   -1.049786        0.000000
| 18> H      1.202991   -2.506847        0.000000
| 19> H      3.334572   -1.278500        0.000000
| 20> H      3.361605    1.197408        0.000000
| 21> H      1.242936    2.461653        0.000000
| 22> *
| 23>
| 24>                          ****END OF INPUT****

CARTESIAN COORDINATES (ANGSTROEM)
---------------------------------
  N     -2.411694    0.770500    0.000000
  C     -1.247199    1.371403    0.000000
  C      0.000000    0.696957    0.000000
  C     -0.018996   -0.725328    0.000000
  C     -1.285073   -1.354625    0.000000
  C     -2.419419   -0.587737    0.000000
  C      1.211455   -1.424550    0.000000
  C      2.397856   -0.737303    0.000000
  C      2.414486    0.675356    0.000000
  C      1.238322    1.379037    0.000000
  H     -1.255568    2.457887    0.000000
  H     -1.354484   -2.434581    0.000000
  H     -3.398779   -1.049786    0.000000
  H      1.202991   -2.506847    0.000000
  H      3.334572   -1.278500    0.000000
  H      3.361605    1.197408    0.000000
  H      1.242936    2.461653    0.000000

 Total Charge           Charge          ....    0
 Multiplicity           Mult            ....    1
 Number of Electrons    NEL             ....   68
 Basis Dimension        Dim             ....  621

ORBITAL ENERGIES
----------------

  NO   OCC          E(Eh)            E(eV)
   0   2.0000     -15.564439      -423.5299
   1   2.0000     -11.281000      -306.9716
   2   2.0000     -11.268511      -306.6318
   3   2.0000     -11.261411      -306.4386
   4   2.0000     -11.252383      -306.1929
   5   2.0000     -11.252159      -306.1868
   6   2.0000     -11.250173      -306.1328
   7   2.0000     -11.245763      -306.0128
   8   2.0000     -11.245194      -305.9973
   9   2.0000     -11.238406      -305.8126
  10   2.0000      -1.260895       -34.3107
  11   2.0000      -1.166304       -31.7367
  12   2.0000      -1.074347       -29.2345
  13   2.0000      -1.048491       -28.5309
  14   2.0000      -1.004526       -27.3346
  15   2.0000      -0.884003       -24.0550
  16   2.0000      -0.862189       -23.4614
  17   2.0000      -0.830470       -22.5982
  18   2.0000      -0.725245       -19.7349
  19   2.0000      -0.718632       -19.5550
  20   2.0000      -0.688245       -18.7281
  21   2.0000      -0.639903       -17.4126
  22   2.0000      -0.628334       -17.0978
  23   2.0000      -0.601201       -16.3595
  24   2.0000      -0.597515       -16.2592
  25   2.0000      -0.560259       -15.2454
  26   2.0000      -0.559585       -15.2271
  27   2.0000      -0.528279       -14.3752
  28   2.0000      -0.495637       -13.4870
  29   2.0000      -0.483539       -13.1578
  30   2.0000      -0.417692       -11.3660
  31   2.0000      -0.402054       -10.9404
  32   2.0000      -0.347927        -9.4676
  33   2.0000      -0.304842        -8.2952
  34   0.0000       0.025313         0.6888
  35   0.0000       0.030014         0.8167
  36   0.0000       0.034173         0.9299
  37   0.0000       0.043301         1.1783
  38   0.0000       0.046291         1.2596

MULLIKEN ATOMIC CHARGES
-----------------------
   0 N :   -0.695889
   1 C :   -0.834335
   2 C :    1.689951
   3 C :    1.734717
   4 C :   -0.867129
   5 C :   -0.540084
   6 C :   -1.443253
   7 C :   -0.367898
   8 C :   -0.521040
   9 C :   -0.942300
  10 H :    0.670515
  11 H :    0.099018
  12 H :    0.712418
  13 H :    0.122099
  14 H :    0.571678
  15 H :    0.574804
  16 H :    0.036727
Sum of atomic charges:    0.0000000

LOEWDIN ATOMIC CHARGES
----------------------
   0 N :    0.373427
   1 C :    0.038548
   2 C :   -0.114623
   3 C :   -0.127994
   4 C :    0.219529
   5 C :    0.021138
   6 C :    0.229857
   7 C :    0.209768
   8 C :    0.209125
   9 C :    0.220884
  10 H :   -0.182351
  11 H :   -0.182330
  12 H :   -0.196371
  13 H :   -0.177460
  14 H :   -0.180661
  15 H :   -0.186118
  16 H :   -0.174367

  Mayer bond orders larger than 0.100000
B(  0-N ,  1-C ) :   0.9046 B(  0-N ,  2-C ) :  -0.1570 B(  0-N ,  3-C ) :   0.1220
B(  0-N ,  5-C ) :   1.1527 B(  0-N , 10-H ) :  -0.1765 B(  0-N , 11-H ) :   0.1078
B(  0-N , 12-H ) :  -0.1308 B(  1-C ,  3-C ) :   0.2762 B(  1-C , 10-H ) :   0.3232
B(  1-C , 11-H ) :   0.1051 B(  1-C , 16-H ) :  -0.1166 B(  2-C ,  3-C ) :   0.8223
B(  2-C ,  4-C ) :  -0.1768 B(  2-C ,  5-C ) :  -0.1835 B(  2-C ,  7-C ) :  -0.1745
B(  2-C ,  9-C ) :   0.2908 B(  2-C , 13-H ) :  -0.1132 B(  3-C ,  5-C ) :   0.1490
B(  3-C ,  9-C ) :  -0.3754 B(  3-C , 11-H ) :  -0.3110 B(  4-C ,  5-C ) :   1.2463
B(  4-C ,  6-C ) :   0.2883 B(  4-C , 11-H ) :   1.4727 B(  5-C , 11-H ) :  -0.1350
B(  5-C , 12-H ) :   0.3499 B(  6-C ,  7-C ) :   1.3022 B(  6-C ,  9-C ) :   0.1650
B(  6-C , 13-H ) :   1.5348 B(  6-C , 14-H ) :  -0.2393 B(  7-C ,  8-C ) :   0.9792
B(  7-C ,  9-C ) :  -0.1132 B(  7-C , 14-H ) :   0.5845 B(  8-C ,  9-C ) :   1.3021
B(  8-C , 15-H ) :   0.5609 B(  9-C , 15-H ) :  -0.2273 B(  9-C , 16-H ) :   1.8103

MP2 TOTAL ENERGY:     -401.102534894 Eh
FINAL SINGLE POINT ENERGY      -401.102534893632

DIPOLE MOMENT
-------------
                                X             Y             Z
Electronic contribution:     -2.11695       0.79579      -0.00000
Nuclear contribution   :      3.08403      -1.13533       0.00000
                        -----------------------------------------
Total Dipole Moment    :      0.96708      -0.33954      -0.00000
                        -----------------------------------------
Magnitude (a.u.)       :      1.02495
Magnitude (Debye)      :      2.60522

Rotational constants in cm-1:     0.107377     0.041498     0.029931
Rotational constants in MHz :  3219.077195  1244.085817   897.302713

                             ****ORCA TERMINATED NORMALLY****
TOTAL RUN TIME: 0 days 0 hours 10 minutes 59 seconds 213 msec
