                         Program Version 5.0.3 -  RELEASE  -
|  1> !ri-mp2 aug-cc-pvtz aug-cc-pvtz/c tightscf
|  2> %pal nprocs 16 end
|  3>
|  4> * xyz 0 1
|  5> S      2.278497   -0.427178   -0.000076
|  6> N     -0.046708    1.072004   -0.000069
|  7> N     -2.433025   -1.423286   -0.000046
|  8> C     -1.477822    1.012116    0.000203
|  9> C     -2.013110   -0.354003    0.000063
| 10> C      0.927544    0.377873   -0.000052
| 11> H     -1.858915    1.539109   -0.876755
| 12> H     -1.858578    1.538797    0.877498
| 13> *
| 14>
| 15>                          ****END OF INPUT****

CARTESIAN COORDINATES (ANGSTROEM)
---------------------------------
  S      2.278497   -0.427178   -0.000076
  N     -0.046708    1.072004   -0.000069
  N     -2.433025   -1.423286   -0.000046
  C     -1.477822    1.012116    0.000203
  C     -2.013110   -0.354003    0.000063
  C      0.927544    0.377873   -0.000052
  H     -1.858915    1.539109   -0.876755
  H     -1.858578    1.538797    0.877498

 Total Charge           Charge          ....    0
 Multiplicity           Mult            ....    1
 Number of Electrons    NEL             ....   50
 Basis Dimension        Dim             ....  326

ORBITAL ENERGIES
----------------

  NO   OCC          E(Eh)            E(eV)
   0   2.0000     -91.970722     -2502.6506
   1   2.0000     -15.629655      -425.3045
   2   2.0000     -15.598283      -424.4509
   3   2.0000     -11.398736      -310.1754
   4   2.0000     -11.368891      -309.3632
   5   2.0000     -11.298123      -307.4376
   6   2.0000      -8.973958      -244.1938
   7   2.0000      -6.655494      -181.1052
   8   2.0000      -6.653056      -181.0388
   9   2.0000      -6.652725      -181.0298
  10   2.0000      -1.323781       -36.0219
  11   2.0000      -1.246132       -33.9090
  12   2.0000      -1.099832       -29.9279
  13   2.0000      -1.031325       -28.0638
  14   2.0000      -0.815186       -22.1823
  15   2.0000      -0.725136       -19.7320
  16   2.0000      -0.701121       -19.0785
  17   2.0000      -0.618111       -16.8197
  18   2.0000      -0.593278       -16.1439
  19   2.0000      -0.562805       -15.3147
  20   2.0000      -0.561946       -15.2913
  21   2.0000      -0.497570       -13.5396
  22   2.0000      -0.489069       -13.3083
  23   2.0000      -0.391415       -10.6509
  24   2.0000      -0.376691       -10.2503
  25   0.0000       0.019169         0.5216
  26   0.0000       0.036544         0.9944
  27   0.0000       0.052887         1.4391
  28   0.0000       0.057511         1.5650
  29   0.0000       0.071092         1.9345

MULLIKEN ATOMIC CHARGES
-----------------------
   0 S :   -0.262471
   1 N :    0.045300
   2 N :   -0.486015
   3 C :    0.262592
   4 C :    0.044953
   5 C :   -0.338366
   6 H :    0.367002
   7 H :    0.367006
Sum of atomic charges:   -0.0000000

LOEWDIN ATOMIC CHARGES
----------------------
   0 S :    0.871100
   1 N :    0.217569
   2 N :    0.269151
   3 C :    0.066504
   4 C :   -0.209200
   5 C :   -0.883891
   6 H :   -0.165620
   7 H :   -0.165614

  Mayer bond orders larger than 0.100000
B(  0-S ,  5-C ) :   1.8771 B(  1-N ,  3-C ) :   0.6504 B(  1-N ,  5-C ) :   1.9082
B(  2-N ,  4-C ) :   2.3736 B(  3-C ,  4-C ) :   0.7477 B(  3-C ,  5-C ) :  -0.2603
B(  3-C ,  6-H ) :   0.8738 B(  3-C ,  7-H ) :   0.8738

MP2 TOTAL ENERGY:     -622.289462759 Eh
FINAL SINGLE POINT ENERGY      -622.289462759033

DIPOLE MOMENT
-------------
                                X             Y             Z
Electronic contribution:      3.25391      -1.53719      -0.00042
Nuclear contribution   :     -3.63885       2.95620       0.00071
                        -----------------------------------------
Total Dipole Moment    :     -0.38495       1.41901       0.00029
                        -----------------------------------------
Magnitude (a.u.)       :      1.47029
Magnitude (Debye)      :      3.73719

Rotational constants in cm-1:     0.234286     0.049130     0.040919
Rotational constants in MHz :  7023.729720  1472.888491  1226.731190

                             ****ORCA TERMINATED NORMALLY****
TOTAL RUN TIME: 0 days 0 hours 1 minutes 27 seconds 880 msec
