                         Program Version 5.0.3 -  RELEASE  -
|  1> !ri-mp2 aug-cc-pvtz aug-cc-pvtz/c tightscf
|  2> %pal nprocs 16 end
|  3>
|  4> * xyz 0 1
|  5> C     -2.607951   -0.070177   -0.002533
|  6> C     -1.956385    1.138080    0.223390
|  7> C     -1.855508   -1.217102   -0.220271
|  8> C     -0.570564    1.197284    0.222786
|  9> C     -0.467158   -1.156536   -0.216683
| 10> C      0.205539    0.053889   -0.010474
| 11> C      2.337269    1.223085   -0.419484
| 12> C      1.689055    0.121675   -0.030681
| 13> C      2.453037   -1.107640    0.391878
| 14> H     -3.688478   -0.117438    0.001289
| 15> H     -2.529999    2.035788    0.412585
| 16> H     -2.348629   -2.164590   -0.392684
| 17> H     -0.080152    2.138271    0.429309
| 18> H      0.095144   -2.062538   -0.391815
| 19> H      3.417985    1.266340   -0.413429
| 20> H      1.818583    2.103555   -0.771554
| 21> H      2.308302   -1.930951   -0.311139
| 22> H      2.122756   -1.463201    1.369923
| 23> H      3.520478   -0.900594    0.439945
| 24> *
| 25>
| 26>                          ****END OF INPUT****

CARTESIAN COORDINATES (ANGSTROEM)
---------------------------------
  C     -2.607951   -0.070177   -0.002533
  C     -1.956385    1.138080    0.223390
  C     -1.855508   -1.217102   -0.220271
  C     -0.570564    1.197284    0.222786
  C     -0.467158   -1.156536   -0.216683
  C      0.205539    0.053889   -0.010474
  C      2.337269    1.223085   -0.419484
  C      1.689055    0.121675   -0.030681
  C      2.453037   -1.107640    0.391878
  H     -3.688478   -0.117438    0.001289
  H     -2.529999    2.035788    0.412585
  H     -2.348629   -2.164590   -0.392684
  H     -0.080152    2.138271    0.429309
  H      0.095144   -2.062538   -0.391815
  H      3.417985    1.266340   -0.413429
  H      1.818583    2.103555   -0.771554
  H      2.308302   -1.930951   -0.311139
  H      2.122756   -1.463201    1.369923
  H      3.520478   -0.900594    0.439945

 Total Charge           Charge          ....    0
 Multiplicity           Mult            ....    1
 Number of Electrons    NEL             ....   64
 Basis Dimension        Dim             ....  644

ORBITAL ENERGIES
----------------

  NO   OCC          E(Eh)            E(eV)
   0   2.0000     -11.246006      -306.0194
   1   2.0000     -11.243751      -305.9580
   2   2.0000     -11.234697      -305.7116
   3   2.0000     -11.234164      -305.6972
   4   2.0000     -11.233118      -305.6687
   5   2.0000     -11.232567      -305.6537
   6   2.0000     -11.231971      -305.6375
   7   2.0000     -11.223042      -305.3945
   8   2.0000     -11.217525      -305.2444
   9   2.0000      -1.160923       -31.5903
  10   2.0000      -1.089904       -29.6578
  11   2.0000      -1.016720       -27.6664
  12   2.0000      -0.999513       -27.1981
  13   2.0000      -0.936920       -25.4949
  14   2.0000      -0.840558       -22.8728
  15   2.0000      -0.823614       -22.4117
  16   2.0000      -0.745895       -20.2968
  17   2.0000      -0.696403       -18.9501
  18   2.0000      -0.638047       -17.3621
  19   2.0000      -0.634651       -17.2697
  20   2.0000      -0.617417       -16.8008
  21   2.0000      -0.588774       -16.0213
  22   2.0000      -0.583372       -15.8744
  23   2.0000      -0.564886       -15.3713
  24   2.0000      -0.536965       -14.6116
  25   2.0000      -0.520690       -14.1687
  26   2.0000      -0.504459       -13.7270
  27   2.0000      -0.489925       -13.3315
  28   2.0000      -0.478780       -13.0283
  29   2.0000      -0.388445       -10.5701
  30   2.0000      -0.337929        -9.1955
  31   2.0000      -0.308504        -8.3948
  32   0.0000       0.028882         0.7859
  33   0.0000       0.032321         0.8795
  34   0.0000       0.033019         0.8985
  35   0.0000       0.042071         1.1448
  36   0.0000       0.045295         1.2325

MULLIKEN ATOMIC CHARGES
-----------------------
   0 C :   -0.243508
   1 C :   -0.845216
   2 C :   -0.820316
   3 C :   -1.118552
   4 C :   -0.831976
   5 C :    1.963843
   6 C :   -1.398156
   7 C :    1.063048
   8 C :   -0.795426
   9 H :    0.471068
  10 H :    0.483550
  11 H :    0.460126
  12 H :    0.080600
  13 H :    0.036256
  14 H :    0.298858
  15 H :    0.389938
  16 H :    0.279828
  17 H :    0.289357
  18 H :    0.236676
Sum of atomic charges:   -0.0000000

LOEWDIN ATOMIC CHARGES
----------------------
   0 C :    0.195887
   1 C :    0.202293
   2 C :    0.202238
   3 C :    0.211324
   4 C :    0.215742
   5 C :   -0.113503
   6 C :    0.548305
   7 C :   -0.130969
   8 C :    0.562269
   9 H :   -0.186382
  10 H :   -0.184046
  11 H :   -0.184123
  12 H :   -0.190942
  13 H :   -0.195051
  14 H :   -0.216190
  15 H :   -0.222295
  16 H :   -0.175246
  17 H :   -0.160268
  18 H :   -0.179044

  Mayer bond orders larger than 0.100000
B(  0-C ,  1-C ) :   1.1774 B(  0-C ,  2-C ) :   1.1468 B(  0-C ,  3-C ) :  -0.1913
B(  0-C ,  4-C ) :  -0.1534 B(  0-C ,  7-C ) :   0.1953 B(  0-C ,  9-H ) :   0.8049
B(  1-C ,  2-C ) :   0.2054 B(  1-C ,  3-C ) :   1.3114 B(  1-C ,  9-H ) :  -0.2052
B(  1-C , 10-H ) :   0.7000 B(  2-C ,  3-C ) :   0.1555 B(  2-C ,  4-C ) :   1.0566
B(  2-C ,  9-H ) :  -0.1909 B(  2-C , 11-H ) :   0.7342 B(  2-C , 13-H ) :  -0.1046
B(  3-C ,  4-C ) :  -0.2647 B(  3-C ,  5-C ) :   0.3885 B(  3-C ,  6-C ) :   0.1465
B(  3-C ,  7-C ) :   0.2047 B(  3-C ,  9-H ) :   0.1158 B(  3-C , 10-H ) :  -0.1485
B(  3-C , 12-H ) :   1.6568 B(  3-C , 13-H ) :   0.1906 B(  4-C ,  5-C ) :   0.2479
B(  4-C ,  7-C ) :   0.1999 B(  4-C ,  9-H ) :   0.1328 B(  4-C , 11-H ) :  -0.1439
B(  4-C , 12-H ) :   0.1482 B(  4-C , 13-H ) :   1.7209 B(  5-C ,  7-C ) :   0.2895
B(  5-C , 10-H ) :  -0.1077 B(  5-C , 12-H ) :  -0.1270 B(  5-C , 13-H ) :  -0.1712
B(  6-C ,  7-C ) :   0.9608 B(  6-C , 14-H ) :   1.0100 B(  6-C , 15-H ) :   0.9225
B(  7-C ,  8-C ) :   0.6753 B(  7-C , 10-H ) :   0.1575 B(  7-C , 11-H ) :   0.1023
B(  7-C , 12-H ) :  -0.2024 B(  7-C , 13-H ) :  -0.1441 B(  8-C , 16-H ) :   1.0077
B(  8-C , 17-H ) :   0.9751 B(  8-C , 18-H ) :   1.0218

MP2 TOTAL ENERGY:     -348.206798567 Eh
FINAL SINGLE POINT ENERGY      -348.206798567290

DIPOLE MOMENT
-------------
                                X             Y             Z
Electronic contribution:     -4.70911       0.99311      -0.33435
Nuclear contribution   :      4.71514      -1.11406       0.37879
                        -----------------------------------------
Total Dipole Moment    :      0.00603      -0.12094       0.04444
                        -----------------------------------------
Magnitude (a.u.)       :      0.12899
Magnitude (Debye)      :      0.32787

Rotational constants in cm-1:     0.120299     0.040019     0.031131
Rotational constants in MHz :  3606.486521  1199.726943   933.275867

                             ****ORCA TERMINATED NORMALLY****
TOTAL RUN TIME: 0 days 0 hours 10 minutes 2 seconds 933 msec
