                         Program Version 5.0.3 -  RELEASE  -
|  1> !ri-mp2 aug-cc-pvtz aug-cc-pvtz/c tightscf
|  2> %pal nprocs 16 end
|  3>
|  4> * xyz 0 1
|  5> H      1.230807   -0.798909    0.000000
|  6> C      0.140652   -0.856817    0.000000
|  7> H      0.007049   -2.562492    1.308766
|  8> H     -1.436380   -1.541527    1.309424
|  9> H      0.023820   -1.009617    2.153756
| 10> C     -0.346546   -1.531370    1.272020
| 11> H      0.007049   -2.562492   -1.308766
| 12> H      0.023820   -1.009617   -2.153756
| 13> H     -1.436380   -1.541527   -1.309424
| 14> C     -0.346546   -1.531370   -1.272020
| 15> O     -0.346546    0.512894    0.000000
| 16> O      0.328520    2.544021    0.000000
| 17> N      0.719868    1.441172    0.000000
| 18> *
| 19>
| 20>                          ****END OF INPUT****

CARTESIAN COORDINATES (ANGSTROEM)
---------------------------------
  H      1.230807   -0.798909    0.000000
  C      0.140652   -0.856817    0.000000
  H      0.007049   -2.562492    1.308766
  H     -1.436380   -1.541527    1.309424
  H      0.023820   -1.009617    2.153756
  C     -0.346546   -1.531370    1.272020
  H      0.007049   -2.562492   -1.308766
  H      0.023820   -1.009617   -2.153756
  H     -1.436380   -1.541527   -1.309424
  C     -0.346546   -1.531370   -1.272020
  O     -0.346546    0.512894    0.000000
  O      0.328520    2.544021    0.000000
  N      0.719868    1.441172    0.000000

 Total Charge           Charge          ....    0
 Multiplicity           Mult            ....    1
 Number of Electrons    NEL             ....   48
 Basis Dimension        Dim             ....  437

ORBITAL ENERGIES
----------------

  NO   OCC          E(Eh)            E(eV)
   0   2.0000     -20.647272      -561.8408
   1   2.0000     -20.618099      -561.0470
   2   2.0000     -15.780189      -429.4008
   3   2.0000     -11.302134      -307.5467
   4   2.0000     -11.228275      -305.5369
   5   2.0000     -11.228261      -305.5365
   6   2.0000      -1.592932       -43.3459
   7   2.0000      -1.393552       -37.9205
   8   2.0000      -1.075261       -29.2593
   9   2.0000      -0.954710       -25.9790
  10   2.0000      -0.928804       -25.2740
  11   2.0000      -0.826431       -22.4883
  12   2.0000      -0.748543       -20.3689
  13   2.0000      -0.706205       -19.2168
  14   2.0000      -0.681295       -18.5390
  15   2.0000      -0.624387       -16.9904
  16   2.0000      -0.603489       -16.4218
  17   2.0000      -0.594642       -16.1810
  18   2.0000      -0.555935       -15.1278
  19   2.0000      -0.537711       -14.6319
  20   2.0000      -0.523575       -14.2472
  21   2.0000      -0.500662       -13.6237
  22   2.0000      -0.461048       -12.5458
  23   2.0000      -0.440570       -11.9885
  24   0.0000       0.028111         0.7649
  25   0.0000       0.036778         1.0008
  26   0.0000       0.038101         1.0368
  27   0.0000       0.045951         1.2504
  28   0.0000       0.060635         1.6500

MULLIKEN ATOMIC CHARGES
-----------------------
   0 H :    0.474508
   1 C :    0.496055
   2 H :    0.307951
   3 H :    0.282984
   4 H :    0.262358
   5 C :   -1.004565
   6 H :    0.307951
   7 H :    0.262358
   8 H :    0.282984
   9 C :   -1.004565
  10 O :   -0.527354
  11 O :   -0.411557
  12 N :    0.270893
Sum of atomic charges:   -0.0000000

LOEWDIN ATOMIC CHARGES
----------------------
   0 H :   -0.183143
   1 C :   -0.337744
   2 H :   -0.168774
   3 H :   -0.167626
   4 H :   -0.171244
   5 C :    0.577546
   6 H :   -0.168774
   7 H :   -0.171244
   8 H :   -0.167626
   9 C :    0.577546
  10 O :    0.394266
  11 O :    0.252072
  12 N :   -0.265255

  Mayer bond orders larger than 0.100000
B(  0-H ,  1-C ) :   0.8566 B(  0-H , 12-N ) :  -0.1263 B(  1-C ,  5-C ) :   0.8136
B(  1-C ,  9-C ) :   0.8136 B(  1-C , 10-O ) :   0.5114 B(  2-H ,  5-C ) :   0.9240
B(  3-H ,  5-C ) :   0.9380 B(  4-H ,  5-C ) :   0.9633 B(  5-C ,  9-C ) :   0.1254
B(  6-H ,  9-C ) :   0.9240 B(  7-H ,  9-C ) :   0.9633 B(  8-H ,  9-C ) :   0.9380
B( 10-O , 12-N ) :   1.0505 B( 11-O , 12-N ) :   1.4772

MP2 TOTAL ENERGY:     -323.091330174 Eh
FINAL SINGLE POINT ENERGY      -323.091330174338

DIPOLE MOMENT
-------------
                                X             Y             Z
Electronic contribution:      1.81437       9.95848       0.00000
Nuclear contribution   :     -1.59491     -11.09924      -0.00000
                        -----------------------------------------
Total Dipole Moment    :      0.21945      -1.14077       0.00000
                        -----------------------------------------
Magnitude (a.u.)       :      1.16168
Magnitude (Debye)      :      2.95276

Rotational constants in cm-1:     0.250340     0.069925     0.059358
Rotational constants in MHz :  7505.007678  2096.308483  1779.497720

                             ****ORCA TERMINATED NORMALLY****
TOTAL RUN TIME: 0 days 0 hours 2 minutes 50 seconds 598 msec
