                         Program Version 5.0.3 -  RELEASE  -
|  1> !ri-mp2 aug-cc-pvtz aug-cc-pvtz/c tightscf
|  2> %pal nprocs 16 end
|  3>
|  4> * xyz 0 1
|  5> C     -0.218615    0.231720   -0.334249
|  6> C      2.099372    0.063633    0.050519
|  7> C     -1.485571   -0.576666   -0.009374
|  8> O      0.817838   -0.322832    0.399628
|  9> F      2.373326   -0.321108   -1.226533
| 10> F      2.924768   -0.591330    0.873399
| 11> F     -1.301155   -1.854169   -0.377515
| 12> F     -2.528100   -0.095040   -0.699597
| 13> F     -1.784593   -0.552251    1.290062
| 14> Cl    -0.487352    1.980503    0.064712
| 15> H     -0.042858    0.187772   -1.406517
| 16> H      2.255795    1.139294    0.129683
| 17> *
| 18>
| 19>                          ****END OF INPUT****

CARTESIAN COORDINATES (ANGSTROEM)
---------------------------------
  C     -0.218615    0.231720   -0.334249
  C      2.099372    0.063633    0.050519
  C     -1.485571   -0.576666   -0.009374
  O      0.817838   -0.322832    0.399628
  F      2.373326   -0.321108   -1.226533
  F      2.924768   -0.591330    0.873399
  F     -1.301155   -1.854169   -0.377515
  F     -2.528100   -0.095040   -0.699597
  F     -1.784593   -0.552251    1.290062
  Cl    -0.487352    1.980503    0.064712
  H     -0.042858    0.187772   -1.406517
  H      2.255795    1.139294    0.129683

 Total Charge           Charge          ....    0
 Multiplicity           Mult            ....    1
 Number of Electrons    NEL             ....   90
 Basis Dimension        Dim             ....  510

ORBITAL ENERGIES
----------------

  NO   OCC          E(Eh)            E(eV)
   0   2.0000    -104.872646     -2853.7298
   1   2.0000     -26.363225      -717.3798
   2   2.0000     -26.361368      -717.3293
   3   2.0000     -26.361063      -717.3210
   4   2.0000     -26.348500      -716.9791
   5   2.0000     -26.346904      -716.9357
   6   2.0000     -20.653894      -562.0210
   7   2.0000     -11.540148      -314.0234
   8   2.0000     -11.498127      -312.8799
   9   2.0000     -11.420507      -310.7678
  10   2.0000     -10.596691      -288.3506
  11   2.0000      -8.063436      -219.4172
  12   2.0000      -8.061560      -219.3662
  13   2.0000      -8.061465      -219.3636
  14   2.0000      -1.752968       -47.7007
  15   2.0000      -1.709380       -46.5146
  16   2.0000      -1.658966       -45.1428
  17   2.0000      -1.656723       -45.0817
  18   2.0000      -1.640156       -44.6309
  19   2.0000      -1.484959       -40.4078
  20   2.0000      -1.176277       -32.0081
  21   2.0000      -1.061766       -28.8921
  22   2.0000      -0.986091       -26.8329
  23   2.0000      -0.924958       -25.1694
  24   2.0000      -0.856648       -23.3106
  25   2.0000      -0.849729       -23.1223
  26   2.0000      -0.844316       -22.9750
  27   2.0000      -0.825097       -22.4520
  28   2.0000      -0.810810       -22.0633
  29   2.0000      -0.788832       -21.4652
  30   2.0000      -0.733753       -19.9664
  31   2.0000      -0.731329       -19.9005
  32   2.0000      -0.704694       -19.1757
  33   2.0000      -0.695616       -18.9287
  34   2.0000      -0.691547       -18.8179
  35   2.0000      -0.682795       -18.5798
  36   2.0000      -0.673852       -18.3365
  37   2.0000      -0.670604       -18.2481
  38   2.0000      -0.667593       -18.1661
  39   2.0000      -0.643921       -17.5220
  40   2.0000      -0.609364       -16.5816
  41   2.0000      -0.581361       -15.8196
  42   2.0000      -0.525681       -14.3045
  43   2.0000      -0.493453       -13.4275
  44   2.0000      -0.484171       -13.1750
  45   0.0000       0.030048         0.8176
  46   0.0000       0.040020         1.0890
  47   0.0000       0.060435         1.6445
  48   0.0000       0.064999         1.7687
  49   0.0000       0.079947         2.1755

MULLIKEN ATOMIC CHARGES
-----------------------
   0 C :    0.213500
   1 C :    0.523613
   2 C :    1.241209
   3 O :   -0.471351
   4 F :   -0.420092
   5 F :   -0.393296
   6 F :   -0.389008
   7 F :   -0.386928
   8 F :   -0.390659
   9 Cl:   -0.338193
  10 H :    0.355472
  11 H :    0.455733
Sum of atomic charges:   -0.0000000

LOEWDIN ATOMIC CHARGES
----------------------
   0 C :   -0.856518
   1 C :   -1.058231
   2 C :   -1.588804
   3 O :    0.505443
   4 F :    0.482129
   5 F :    0.508045
   6 F :    0.510041
   7 F :    0.499485
   8 F :    0.509082
   9 Cl:    0.945430
  10 H :   -0.247806
  11 H :   -0.208298

  Mayer bond orders larger than 0.100000
B(  0-C ,  2-C ) :   0.9570 B(  0-C ,  3-O ) :   0.8788 B(  0-C ,  9-Cl) :   0.8049
B(  0-C , 10-H ) :   0.8436 B(  1-C ,  3-O ) :   1.0097 B(  1-C ,  4-F ) :   0.7858
B(  1-C ,  5-F ) :   0.8689 B(  1-C , 11-H ) :   0.8152 B(  2-C ,  6-F ) :   0.8025
B(  2-C ,  7-F ) :   0.8059 B(  2-C ,  8-F ) :   0.8043

MP2 TOTAL ENERGY:    -1148.823868426 Eh
FINAL SINGLE POINT ENERGY     -1148.823868425891

DIPOLE MOMENT
-------------
                                X             Y             Z
Electronic contribution:     -2.69895      -1.02795       0.70262
Nuclear contribution   :      2.96374       1.70417      -1.12202
                        -----------------------------------------
Total Dipole Moment    :      0.26479       0.67623      -0.41940
                        -----------------------------------------
Magnitude (a.u.)       :      0.83862
Magnitude (Debye)      :      2.13161

Rotational constants in cm-1:     0.052783     0.024768     0.020698
Rotational constants in MHz :  1582.398590   742.521653   620.514307

                             ****ORCA TERMINATED NORMALLY****
TOTAL RUN TIME: 0 days 0 hours 3 minutes 56 seconds 992 msec
