                         Program Version 5.0.3 -  RELEASE  -
|  1> !ri-mp2 aug-cc-pvtz aug-cc-pvtz/c tightscf
|  2> %pal nprocs 16 end
|  3>
|  4> * xyz 0 1
|  5> C     -1.888132   -0.186303    0.038084
|  6> C     -2.956955    0.824440   -0.283481
|  7> C      1.958051    1.395183    0.513927
|  8> C      2.923162   -0.824646   -0.220717
|  9> C      0.456498   -0.579654    0.020652
| 10> C      1.743964    0.144881   -0.342302
| 11> O     -2.082486   -1.286641    0.491535
| 12> O     -0.661558    0.297410   -0.245338
| 13> H     -2.889982    1.121863   -1.329676
| 14> H     -2.812725    1.721105    0.319523
| 15> H     -3.933425    0.396820   -0.079568
| 16> H      2.870252    1.915116    0.218046
| 17> H      2.055108    1.129449    1.569732
| 18> H      1.126417    2.091889    0.417111
| 19> H      3.854481   -0.335170   -0.506854
| 20> H      2.793952   -1.698388   -0.861379
| 21> H      3.038067   -1.176866    0.807098
| 22> H      0.330891   -1.489124   -0.567547
| 23> H      0.440158   -0.859686    1.075856
| 24> H      1.659630    0.453440   -1.388885
| 25> *
| 26>
| 27>                          ****END OF INPUT****

CARTESIAN COORDINATES (ANGSTROEM)
---------------------------------
  C     -1.888132   -0.186303    0.038084
  C     -2.956955    0.824440   -0.283481
  C      1.958051    1.395183    0.513927
  C      2.923162   -0.824646   -0.220717
  C      0.456498   -0.579654    0.020652
  C      1.743964    0.144881   -0.342302
  O     -2.082486   -1.286641    0.491535
  O     -0.661558    0.297410   -0.245338
  H     -2.889982    1.121863   -1.329676
  H     -2.812725    1.721105    0.319523
  H     -3.933425    0.396820   -0.079568
  H      2.870252    1.915116    0.218046
  H      2.055108    1.129449    1.569732
  H      1.126417    2.091889    0.417111
  H      3.854481   -0.335170   -0.506854
  H      2.793952   -1.698388   -0.861379
  H      3.038067   -1.176866    0.807098
  H      0.330891   -1.489124   -0.567547
  H      0.440158   -0.859686    1.075856
  H      1.659630    0.453440   -1.388885

 Total Charge           Charge          ....    0
 Multiplicity           Mult            ....    1
 Number of Electrons    NEL             ....   64
 Basis Dimension        Dim             ....  644

ORBITAL ENERGIES
----------------

  NO   OCC          E(Eh)            E(eV)
   0   2.0000     -20.597817      -560.4951
   1   2.0000     -20.541047      -558.9503
   2   2.0000     -11.377471      -309.5967
   3   2.0000     -11.283255      -307.0330
   4   2.0000     -11.238856      -305.8248
   5   2.0000     -11.235087      -305.7222
   6   2.0000     -11.219733      -305.3045
   7   2.0000     -11.214245      -305.1551
   8   2.0000      -1.455042       -39.5937
   9   2.0000      -1.355551       -36.8864
  10   2.0000      -1.095339       -29.8057
  11   2.0000      -1.021912       -27.8076
  12   2.0000      -0.937039       -25.4981
  13   2.0000      -0.933745       -25.4085
  14   2.0000      -0.789792       -21.4913
  15   2.0000      -0.776399       -21.1269
  16   2.0000      -0.687732       -18.7141
  17   2.0000      -0.683696       -18.6043
  18   2.0000      -0.666419       -18.1342
  19   2.0000      -0.624433       -16.9917
  20   2.0000      -0.601877       -16.3779
  21   2.0000      -0.586277       -15.9534
  22   2.0000      -0.571791       -15.5592
  23   2.0000      -0.555183       -15.1073
  24   2.0000      -0.541473       -14.7342
  25   2.0000      -0.531713       -14.4687
  26   2.0000      -0.519171       -14.1274
  27   2.0000      -0.485087       -13.1999
  28   2.0000      -0.478293       -13.0150
  29   2.0000      -0.472964       -12.8700
  30   2.0000      -0.455153       -12.3853
  31   2.0000      -0.444916       -12.1068
  32   0.0000       0.027537         0.7493
  33   0.0000       0.031666         0.8617
  34   0.0000       0.036960         1.0057
  35   0.0000       0.039104         1.0641
  36   0.0000       0.048758         1.3268

MULLIKEN ATOMIC CHARGES
-----------------------
   0 C :    0.250761
   1 C :   -0.639287
   2 C :   -1.084150
   3 C :   -1.087105
   4 C :   -0.216739
   5 C :    0.213260
   6 O :   -0.737233
   7 O :   -0.271329
   8 H :    0.260710
   9 H :    0.266229
  10 H :    0.360028
  11 H :    0.243561
  12 H :    0.263849
  13 H :    0.348499
  14 H :    0.269229
  15 H :    0.247429
  16 H :    0.261788
  17 H :    0.382618
  18 H :    0.323728
  19 H :    0.344155
Sum of atomic charges:   -0.0000000

LOEWDIN ATOMIC CHARGES
----------------------
   0 C :   -0.826295
   1 C :    0.583967
   2 C :    0.585971
   3 C :    0.584876
   4 C :    0.052652
   5 C :   -0.062744
   6 O :    0.452331
   7 O :    0.587317
   8 H :   -0.176730
   9 H :   -0.175696
  10 H :   -0.186180
  11 H :   -0.165845
  12 H :   -0.161448
  13 H :   -0.172476
  14 H :   -0.164260
  15 H :   -0.164372
  16 H :   -0.159635
  17 H :   -0.150560
  18 H :   -0.147040
  19 H :   -0.133833

  Mayer bond orders larger than 0.100000
B(  0-C ,  1-C ) :   0.7322 B(  0-C ,  6-O ) :   1.5792 B(  0-C ,  7-O ) :   1.0795
B(  1-C ,  8-H ) :   0.9749 B(  1-C ,  9-H ) :   0.9630 B(  1-C , 10-H ) :   0.8945
B(  2-C ,  3-C ) :   0.1583 B(  2-C ,  4-C ) :   0.1009 B(  2-C ,  5-C ) :   0.7378
B(  2-C , 11-H ) :   1.0182 B(  2-C , 12-H ) :   0.9729 B(  2-C , 13-H ) :   0.9012
B(  3-C ,  5-C ) :   0.7725 B(  3-C , 14-H ) :   1.0046 B(  3-C , 15-H ) :   1.0055
B(  3-C , 16-H ) :   0.9757 B(  4-C ,  5-C ) :   0.8723 B(  4-C ,  7-O ) :   0.7728
B(  4-C , 17-H ) :   0.8933 B(  4-C , 18-H ) :   0.9303 B(  5-C , 19-H ) :   0.8562

MP2 TOTAL ENERGY:     -385.611987747 Eh
FINAL SINGLE POINT ENERGY      -385.611987746552

DIPOLE MOMENT
-------------
                                X             Y             Z
Electronic contribution:     -8.35836      -2.62682      -0.01611
Nuclear contribution   :      8.78459       3.36796      -0.33388
                        -----------------------------------------
Total Dipole Moment    :      0.42623       0.74114      -0.34999
                        -----------------------------------------
Magnitude (a.u.)       :      0.92383
Magnitude (Debye)      :      2.34818

Rotational constants in cm-1:     0.147756     0.032847     0.028762
Rotational constants in MHz :  4429.607249   984.741479   862.266429

                             ****ORCA TERMINATED NORMALLY****
TOTAL RUN TIME: 0 days 0 hours 9 minutes 6 seconds 696 msec
