                         Program Version 5.0.3 -  RELEASE  -
|  1> !ri-mp2 aug-cc-pvtz aug-cc-pvtz/c tightscf
|  2> %pal nprocs 16 end
|  3>
|  4> * xyz 0 1
|  5> C     -0.045568   -2.249090    0.696137
|  6> C     -0.045568   -2.249090   -0.696137
|  7> C      0.004095   -1.048325    1.400520
|  8> C      0.004095   -1.048325   -1.400520
|  9> C      0.049674    0.148504    0.698241
| 10> C      0.049674    0.148504   -0.698241
| 11> C      0.125739    1.561338    1.227438
| 12> C      0.125739    1.561338   -1.227438
| 13> C     -0.258685    2.418849    0.000000
| 14> H     -0.089794   -3.187131    1.233424
| 15> H     -0.089794   -3.187131   -1.233424
| 16> H      0.001095   -1.053757    2.483428
| 17> H      0.001095   -1.053757   -2.483428
| 18> H     -0.526446    1.733848    2.084324
| 19> H      1.145985    1.785770    1.556006
| 20> H      1.145985    1.785770   -1.556006
| 21> H     -0.526446    1.733848   -2.084324
| 22> H     -1.337645    2.583506    0.000000
| 23> H      0.220799    3.396809    0.000000
| 24> *
| 25>
| 26>                          ****END OF INPUT****

CARTESIAN COORDINATES (ANGSTROEM)
---------------------------------
  C     -0.045568   -2.249090    0.696137
  C     -0.045568   -2.249090   -0.696137
  C      0.004095   -1.048325    1.400520
  C      0.004095   -1.048325   -1.400520
  C      0.049674    0.148504    0.698241
  C      0.049674    0.148504   -0.698241
  C      0.125739    1.561338    1.227438
  C      0.125739    1.561338   -1.227438
  C     -0.258685    2.418849    0.000000
  H     -0.089794   -3.187131    1.233424
  H     -0.089794   -3.187131   -1.233424
  H      0.001095   -1.053757    2.483428
  H      0.001095   -1.053757   -2.483428
  H     -0.526446    1.733848    2.084324
  H      1.145985    1.785770    1.556006
  H      1.145985    1.785770   -1.556006
  H     -0.526446    1.733848   -2.084324
  H     -1.337645    2.583506    0.000000
  H      0.220799    3.396809    0.000000

 Total Charge           Charge          ....    0
 Multiplicity           Mult            ....    1
 Number of Electrons    NEL             ....   64
 Basis Dimension        Dim             ....  644

ORBITAL ENERGIES
----------------

  NO   OCC          E(Eh)            E(eV)
   0   2.0000     -11.228394      -305.5401
   1   2.0000     -11.227785      -305.5236
   2   2.0000     -11.227755      -305.5227
   3   2.0000     -11.226577      -305.4907
   4   2.0000     -11.226511      -305.4889
   5   2.0000     -11.225904      -305.4724
   6   2.0000     -11.225320      -305.4565
   7   2.0000     -11.225206      -305.4534
   8   2.0000     -11.223103      -305.3962
   9   2.0000      -1.167268       -31.7630
  10   2.0000      -1.089116       -29.6363
  11   2.0000      -1.022683       -27.8286
  12   2.0000      -0.972109       -26.4524
  13   2.0000      -0.939369       -25.5615
  14   2.0000      -0.830028       -22.5862
  15   2.0000      -0.790935       -21.5224
  16   2.0000      -0.781066       -21.2539
  17   2.0000      -0.682807       -18.5801
  18   2.0000      -0.647216       -17.6116
  19   2.0000      -0.629463       -17.1286
  20   2.0000      -0.618406       -16.8277
  21   2.0000      -0.572054       -15.5664
  22   2.0000      -0.566246       -15.4083
  23   2.0000      -0.557582       -15.1726
  24   2.0000      -0.511807       -13.9270
  25   2.0000      -0.497318       -13.5327
  26   2.0000      -0.490638       -13.3509
  27   2.0000      -0.473808       -12.8930
  28   2.0000      -0.467506       -12.7215
  29   2.0000      -0.462184       -12.5767
  30   2.0000      -0.328925        -8.9505
  31   2.0000      -0.314941        -8.5700
  32   0.0000       0.030859         0.8397
  33   0.0000       0.032629         0.8879
  34   0.0000       0.033290         0.9059
  35   0.0000       0.041441         1.1277
  36   0.0000       0.044993         1.2243

MULLIKEN ATOMIC CHARGES
-----------------------
   0 C :   -0.320400
   1 C :   -0.320389
   2 C :   -1.126599
   3 C :   -1.126603
   4 C :    0.824183
   5 C :    0.824203
   6 C :   -0.675270
   7 C :   -0.675288
   8 C :   -0.420634
   9 H :    0.544181
  10 H :    0.544186
  11 H :    0.195661
  12 H :    0.195652
  13 H :    0.276645
  14 H :    0.239307
  15 H :    0.239304
  16 H :    0.276636
  17 H :    0.221592
  18 H :    0.283634
Sum of atomic charges:    0.0000000

LOEWDIN ATOMIC CHARGES
----------------------
   0 C :    0.192677
   1 C :    0.192677
   2 C :    0.231404
   3 C :    0.231404
   4 C :   -0.091781
   5 C :   -0.091781
   6 C :    0.311698
   7 C :    0.311698
   8 C :    0.315488
   9 H :   -0.189428
  10 H :   -0.189428
  11 H :   -0.177638
  12 H :   -0.177638
  13 H :   -0.145868
  14 H :   -0.141582
  15 H :   -0.141582
  16 H :   -0.145868
  17 H :   -0.147214
  18 H :   -0.147236

  Mayer bond orders larger than 0.100000
B(  0-C ,  1-C ) :   0.9932 B(  0-C ,  2-C ) :   1.0960 B(  0-C ,  9-H ) :   0.6551
B(  1-C ,  3-C ) :   1.0960 B(  1-C , 10-H ) :   0.6551 B(  2-C ,  3-C ) :   0.2226
B(  2-C ,  4-C ) :   0.3877 B(  2-C ,  5-C ) :   0.1746 B(  2-C ,  9-H ) :  -0.1413
B(  2-C , 11-H ) :   1.3073 B(  3-C ,  4-C ) :   0.1746 B(  3-C ,  5-C ) :   0.3876
B(  3-C , 10-H ) :  -0.1413 B(  3-C , 12-H ) :   1.3073 B(  4-C ,  5-C ) :   1.0369
B(  4-C ,  6-C ) :   0.4675 B(  5-C ,  7-C ) :   0.4674 B(  6-C ,  7-C ) :   0.1706
B(  6-C ,  8-C ) :   1.0132 B(  6-C , 13-H ) :   0.9843 B(  6-C , 14-H ) :   0.9918
B(  7-C ,  8-C ) :   1.0132 B(  7-C , 15-H ) :   0.9918 B(  7-C , 16-H ) :   0.9843
B(  8-C , 17-H ) :   0.9843 B(  8-C , 18-H ) :   0.9579

MP2 TOTAL ENERGY:     -348.234100225 Eh
FINAL SINGLE POINT ENERGY      -348.234100225012

DIPOLE MOMENT
-------------
                                X             Y             Z
Electronic contribution:      0.07610      -4.34302       0.00000
Nuclear contribution   :     -0.05611       4.61525      -0.00000
                        -----------------------------------------
Total Dipole Moment    :      0.01999       0.27222       0.00000
                        -----------------------------------------
Magnitude (a.u.)       :      0.27296
Magnitude (Debye)      :      0.69380

Rotational constants in cm-1:     0.118573     0.050017     0.036139
Rotational constants in MHz :  3554.732434  1499.472183  1083.406875

                             ****ORCA TERMINATED NORMALLY****
TOTAL RUN TIME: 0 days 0 hours 10 minutes 56 seconds 258 msec
