                         Program Version 5.0.3 -  RELEASE  -
|  1> !ri-mp2 aug-cc-pvtz aug-cc-pvtz/c tightscf
|  2> %pal nprocs 16 end
|  3>
|  4> * xyz 0 1
|  5> C     -0.221060    2.864428    0.000000
|  6> C     -0.221060   -2.371524    1.265102
|  7> C     -0.221060   -2.371524   -1.265102
|  8> C      1.048508   -0.544433    0.000000
|  9> C     -0.053651    0.498440    0.000000
| 10> C      0.564195   -2.007414    0.000000
| 11> O     -1.421923    2.840809    0.000000
| 12> O      0.588857    1.801614    0.000000
| 13> H      0.384539    3.779558    0.000000
| 14> H     -0.428507   -3.442220    1.294360
| 15> H     -1.181810   -1.855200    1.308497
| 16> H      0.337007   -2.116386    2.167817
| 17> H     -1.181810   -1.855200   -1.308497
| 18> H     -0.428507   -3.442220   -1.294360
| 19> H      0.337007   -2.116386   -2.167817
| 20> H      1.679808   -0.377477   -0.876121
| 21> H      1.679808   -0.377477    0.876121
| 22> H     -0.691293    0.435316   -0.880677
| 23> H     -0.691293    0.435316    0.880677
| 24> H      1.474353   -2.614843    0.000000
| 25> *
| 26>
| 27>                          ****END OF INPUT****

CARTESIAN COORDINATES (ANGSTROEM)
---------------------------------
  C     -0.221060    2.864428    0.000000
  C     -0.221060   -2.371524    1.265102
  C     -0.221060   -2.371524   -1.265102
  C      1.048508   -0.544433    0.000000
  C     -0.053651    0.498440    0.000000
  C      0.564195   -2.007414    0.000000
  O     -1.421923    2.840809    0.000000
  O      0.588857    1.801614    0.000000
  H      0.384539    3.779558    0.000000
  H     -0.428507   -3.442220    1.294360
  H     -1.181810   -1.855200    1.308497
  H      0.337007   -2.116386    2.167817
  H     -1.181810   -1.855200   -1.308497
  H     -0.428507   -3.442220   -1.294360
  H      0.337007   -2.116386   -2.167817
  H      1.679808   -0.377477   -0.876121
  H      1.679808   -0.377477    0.876121
  H     -0.691293    0.435316   -0.880677
  H     -0.691293    0.435316    0.880677
  H      1.474353   -2.614843    0.000000

 Total Charge           Charge          ....    0
 Multiplicity           Mult            ....    1
 Number of Electrons    NEL             ....   64
 Basis Dimension        Dim             ....  644

ORBITAL ENERGIES
----------------

  NO   OCC          E(Eh)            E(eV)
   0   2.0000     -20.608391      -560.7828
   1   2.0000     -20.553107      -559.2785
   2   2.0000     -11.380308      -309.6739
   3   2.0000     -11.290125      -307.2199
   4   2.0000     -11.237134      -305.7780
   5   2.0000     -11.228982      -305.5561
   6   2.0000     -11.217927      -305.2553
   7   2.0000     -11.217908      -305.2548
   8   2.0000      -1.462344       -39.7924
   9   2.0000      -1.366290       -37.1787
  10   2.0000      -1.103800       -30.0359
  11   2.0000      -1.014640       -27.6098
  12   2.0000      -0.937361       -25.5069
  13   2.0000      -0.900654       -24.5080
  14   2.0000      -0.814592       -22.1662
  15   2.0000      -0.771691       -20.9988
  16   2.0000      -0.718629       -19.5549
  17   2.0000      -0.685385       -18.6503
  18   2.0000      -0.680345       -18.5131
  19   2.0000      -0.630549       -17.1581
  20   2.0000      -0.606183       -16.4951
  21   2.0000      -0.598337       -16.2816
  22   2.0000      -0.562792       -15.3144
  23   2.0000      -0.559846       -15.2342
  24   2.0000      -0.535465       -14.5707
  25   2.0000      -0.526994       -14.3402
  26   2.0000      -0.509003       -13.8507
  27   2.0000      -0.478191       -13.0122
  28   2.0000      -0.472670       -12.8620
  29   2.0000      -0.464429       -12.6378
  30   2.0000      -0.461012       -12.5448
  31   2.0000      -0.453995       -12.3538
  32   0.0000       0.026602         0.7239
  33   0.0000       0.032853         0.8940
  34   0.0000       0.036081         0.9818
  35   0.0000       0.037142         1.0107
  36   0.0000       0.048651         1.3239

MULLIKEN ATOMIC CHARGES
-----------------------
   0 C :   -0.219274
   1 C :   -1.054027
   2 C :   -1.054027
   3 C :   -0.352200
   4 C :   -0.033018
   5 C :    0.202017
   6 O :   -0.639048
   7 O :   -0.423241
   8 H :    0.611928
   9 H :    0.248463
  10 H :    0.296927
  11 H :    0.258511
  12 H :    0.296927
  13 H :    0.248463
  14 H :    0.258511
  15 H :    0.250580
  16 H :    0.250580
  17 H :    0.241759
  18 H :    0.241759
  19 H :    0.368409
Sum of atomic charges:    0.0000000

LOEWDIN ATOMIC CHARGES
----------------------
   0 C :   -0.517459
   1 C :    0.586887
   2 C :    0.586887
   3 C :    0.288829
   4 C :    0.053132
   5 C :   -0.044318
   6 O :    0.414870
   7 O :    0.560753
   8 H :   -0.202484
   9 H :   -0.163186
  10 H :   -0.169205
  11 H :   -0.160709
  12 H :   -0.169205
  13 H :   -0.163186
  14 H :   -0.160709
  15 H :   -0.143970
  16 H :   -0.143970
  17 H :   -0.158646
  18 H :   -0.158646
  19 H :   -0.135662

  Mayer bond orders larger than 0.100000
B(  0-C ,  6-O ) :   1.8334 B(  0-C ,  7-O ) :   1.3012 B(  0-C ,  8-H ) :   0.5952
B(  1-C ,  2-C ) :   0.1703 B(  1-C ,  5-C ) :   0.7313 B(  1-C ,  9-H ) :   1.0178
B(  1-C , 10-H ) :   0.9524 B(  1-C , 11-H ) :   0.9849 B(  2-C ,  5-C ) :   0.7313
B(  2-C , 12-H ) :   0.9524 B(  2-C , 13-H ) :   1.0178 B(  2-C , 14-H ) :   0.9849
B(  3-C ,  4-C ) :   0.8390 B(  3-C ,  5-C ) :   0.9354 B(  3-C , 15-H ) :   0.9371
B(  3-C , 16-H ) :   0.9371 B(  4-C ,  7-O ) :   0.6449 B(  4-C , 17-H ) :   0.9982
B(  4-C , 18-H ) :   0.9982 B(  5-C , 19-H ) :   0.8545

MP2 TOTAL ENERGY:     -385.599056430 Eh
FINAL SINGLE POINT ENERGY      -385.599056429812

DIPOLE MOMENT
-------------
                                X             Y             Z
Electronic contribution:     -0.54944      13.30219      -0.00000
Nuclear contribution   :      1.32052     -13.94227       0.00000
                        -----------------------------------------
Total Dipole Moment    :      0.77107      -0.64008      -0.00000
                        -----------------------------------------
Magnitude (a.u.)       :      1.00213
Magnitude (Debye)      :      2.54721

Rotational constants in cm-1:     0.141819     0.028290     0.028142
Rotational constants in MHz :  4251.616188   848.120406   843.667236

                             ****ORCA TERMINATED NORMALLY****
TOTAL RUN TIME: 0 days 0 hours 8 minutes 29 seconds 718 msec
