                         Program Version 5.0.3 -  RELEASE  -
|  1> !ri-mp2 aug-cc-pvtz aug-cc-pvtz/c tightscf
|  2> %pal nprocs 16 end
|  3>
|  4> * xyz 0 1
|  5> S     2.996748    0.021824   -0.268596
|  6> O     0.456110    0.082338   -0.793882
|  7> O     0.927761   -0.148682    1.382040
|  8> N    -0.867057    0.036647   -0.354945
|  9> N    -2.862943    0.732728    0.190086
| 10> C     1.424260   -0.020504    0.159117
| 11> C    -1.640834    1.120155   -0.072639
| 12> C    -1.634472   -1.100967   -0.292195
| 13> C    -2.871350   -0.637105    0.057407
| 14> H     1.677808   -0.212492    1.990373
| 15> H    -1.254127    2.124562   -0.078045
| 16> H    -1.230660   -2.075076   -0.495225
| 17> H    -3.767578   -1.210522    0.219041
| 18> *
| 19>
| 20>                          ****END OF INPUT****

CARTESIAN COORDINATES (ANGSTROEM)
---------------------------------
  S      2.996748    0.021824   -0.268596
  O      0.456110    0.082338   -0.793882
  O      0.927761   -0.148682    1.382040
  N     -0.867057    0.036647   -0.354945
  N     -2.862943    0.732728    0.190086
  C      1.424260   -0.020504    0.159117
  C     -1.640834    1.120155   -0.072639
  C     -1.634472   -1.100967   -0.292195
  C     -2.871350   -0.637105    0.057407
  H      1.677808   -0.212492    1.990373
  H     -1.254127    2.124562   -0.078045
  H     -1.230660   -2.075076   -0.495225
  H     -3.767578   -1.210522    0.219041

 Total Charge           Charge          ....    0
 Multiplicity           Mult            ....    1
 Number of Electrons    NEL             ....   74
 Basis Dimension        Dim             ....  510

ORBITAL ENERGIES
----------------

  NO   OCC          E(Eh)            E(eV)
   0   2.0000     -91.947004     -2502.0052
   1   2.0000     -20.703957      -563.3833
   2   2.0000     -20.670283      -562.4670
   3   2.0000     -15.701269      -427.2532
   4   2.0000     -15.565731      -423.5651
   5   2.0000     -11.470556      -312.1297
   6   2.0000     -11.319515      -308.0197
   7   2.0000     -11.283287      -307.0338
   8   2.0000     -11.263638      -306.4992
   9   2.0000      -8.950632      -243.5591
  10   2.0000      -6.632047      -180.4672
  11   2.0000      -6.630177      -180.4163
  12   2.0000      -6.629340      -180.3935
  13   2.0000      -1.559160       -42.4269
  14   2.0000      -1.474960       -40.1357
  15   2.0000      -1.344556       -36.5872
  16   2.0000      -1.173201       -31.9244
  17   2.0000      -1.054363       -28.6907
  18   2.0000      -1.029236       -28.0069
  19   2.0000      -0.908662       -24.7260
  20   2.0000      -0.848354       -23.0849
  21   2.0000      -0.842028       -22.9128
  22   2.0000      -0.788816       -21.4648
  23   2.0000      -0.733386       -19.9565
  24   2.0000      -0.702507       -19.1162
  25   2.0000      -0.691215       -18.8089
  26   2.0000      -0.649785       -17.6816
  27   2.0000      -0.640446       -17.4274
  28   2.0000      -0.600265       -16.3341
  29   2.0000      -0.597746       -16.2655
  30   2.0000      -0.579364       -15.7653
  31   2.0000      -0.561844       -15.2885
  32   2.0000      -0.453802       -12.3486
  33   2.0000      -0.417720       -11.3667
  34   2.0000      -0.391924       -10.6648
  35   2.0000      -0.376957       -10.2575
  36   2.0000      -0.343575        -9.3492
  37   0.0000       0.022851         0.6218
  38   0.0000       0.033390         0.9086
  39   0.0000       0.038003         1.0341
  40   0.0000       0.041840         1.1385
  41   0.0000       0.061552         1.6749

MULLIKEN ATOMIC CHARGES
-----------------------
   0 S :   -0.307070
   1 O :   -0.387716
   2 O :   -0.231300
   3 N :    0.784967
   4 N :   -0.681356
   5 C :    0.300924
   6 C :   -0.398163
   7 C :   -0.754167
   8 C :   -0.339732
   9 H :    0.216773
  10 H :    0.616181
  11 H :    0.601002
  12 H :    0.579658
Sum of atomic charges:   -0.0000000

LOEWDIN ATOMIC CHARGES
----------------------
   0 S :    0.879580
   1 O :    0.450480
   2 O :    0.790260
   3 N :   -0.075447
   4 N :    0.344721
   5 C :   -1.379106
   6 C :   -0.083142
   7 C :    0.116297
   8 C :   -0.004012
   9 H :   -0.492988
  10 H :   -0.168771
  11 H :   -0.174839
  12 H :   -0.203034

  Mayer bond orders larger than 0.100000
B(  0-S ,  5-C ) :   1.7952 B(  1-O ,  3-N ) :   0.3704 B(  1-O ,  5-C ) :   1.1064
B(  2-O ,  5-C ) :   1.1297 B(  2-O ,  9-H ) :   0.9408 B(  3-N ,  4-N ) :  -0.1581
B(  3-N ,  6-C ) :   1.2596 B(  3-N ,  7-C ) :   1.1366 B(  3-N ,  8-C ) :  -0.2883
B(  4-N ,  6-C ) :   1.3367 B(  4-N ,  8-C ) :   0.9136 B(  6-C , 10-H ) :   0.5740
B(  7-C ,  8-C ) :   1.5299 B(  7-C , 11-H ) :   0.6554 B(  8-C , 12-H ) :   0.6691

MP2 TOTAL ENERGY:     -811.726178576 Eh
FINAL SINGLE POINT ENERGY      -811.726178576228

DIPOLE MOMENT
-------------
                                X             Y             Z
Electronic contribution:      4.82214       0.83515      -0.97019
Nuclear contribution   :     -4.49970      -1.32156       1.59345
                        -----------------------------------------
Total Dipole Moment    :      0.32244      -0.48641       0.62327
                        -----------------------------------------
Magnitude (a.u.)       :      0.85383
Magnitude (Debye)      :      2.17026

Rotational constants in cm-1:     0.162382     0.024459     0.024388
Rotational constants in MHz :  4868.077096   733.258405   731.124523

                             ****ORCA TERMINATED NORMALLY****
TOTAL RUN TIME: 0 days 0 hours 4 minutes 45 seconds 353 msec
