                         Program Version 5.0.3 -  RELEASE  -
|  1> !ri-mp2 aug-cc-pvtz aug-cc-pvtz/c tightscf
|  2> %pal nprocs 16 end
|  3>
|  4> * xyz 0 1
|  5> S      2.147620    0.209811    0.031553
|  6> O     -2.177251    0.884502    0.079532
|  7> N     -0.449502   -0.736185   -0.147699
|  8> C      0.650412   -0.289749   -0.045393
|  9> C     -1.845506   -0.478904    0.091503
| 10> H     -2.115777    1.223264   -0.819967
| 11> H     -2.414295   -1.043253   -0.649351
| 12> H     -2.096761   -0.847779    1.085447
| 13> *
| 14>
| 15>                          ****END OF INPUT****

CARTESIAN COORDINATES (ANGSTROEM)
---------------------------------
  S      2.147620    0.209811    0.031553
  O     -2.177251    0.884502    0.079532
  N     -0.449502   -0.736185   -0.147699
  C      0.650412   -0.289749   -0.045393
  C     -1.845506   -0.478904    0.091503
  H     -2.115777    1.223264   -0.819967
  H     -2.414295   -1.043253   -0.649351
  H     -2.096761   -0.847779    1.085447

 Total Charge           Charge          ....    0
 Multiplicity           Mult            ....    1
 Number of Electrons    NEL             ....   46
 Basis Dimension        Dim             ....  303

ORBITAL ENERGIES
----------------

  NO   OCC          E(Eh)            E(eV)
   0   2.0000     -91.952790     -2502.1626
   1   2.0000     -20.596885      -560.4697
   2   2.0000     -15.608713      -424.7347
   3   2.0000     -11.380895      -309.6899
   4   2.0000     -11.363987      -309.2298
   5   2.0000      -8.956153      -243.7093
   6   2.0000      -6.637784      -180.6233
   7   2.0000      -6.635265      -180.5547
   8   2.0000      -6.635016      -180.5480
   9   2.0000      -1.410940       -38.3936
  10   2.0000      -1.288236       -35.0547
  11   2.0000      -1.053160       -28.6579
  12   2.0000      -0.979719       -26.6595
  13   2.0000      -0.781923       -21.2772
  14   2.0000      -0.718105       -19.5406
  15   2.0000      -0.672438       -18.2980
  16   2.0000      -0.610065       -16.6007
  17   2.0000      -0.591108       -16.0849
  18   2.0000      -0.553029       -15.0487
  19   2.0000      -0.530303       -14.4303
  20   2.0000      -0.507956       -13.8222
  21   2.0000      -0.372907       -10.1473
  22   2.0000      -0.360958        -9.8222
  23   0.0000       0.022717         0.6182
  24   0.0000       0.037521         1.0210
  25   0.0000       0.043873         1.1938
  26   0.0000       0.058797         1.6000
  27   0.0000       0.073384         1.9969

MULLIKEN ATOMIC CHARGES
-----------------------
   0 S :   -0.281923
   1 O :   -0.518108
   2 N :    0.072283
   3 C :   -0.317413
   4 C :    0.075290
   5 H :    0.189771
   6 H :    0.384839
   7 H :    0.395260
Sum of atomic charges:   -0.0000000

LOEWDIN ATOMIC CHARGES
----------------------
   0 S :    0.821610
   1 O :    0.811872
   2 N :    0.219813
   3 C :   -0.896586
   4 C :   -0.130981
   5 H :   -0.481076
   6 H :   -0.172014
   7 H :   -0.172638

  Mayer bond orders larger than 0.100000
B(  0-S ,  3-C ) :   1.8060 B(  1-O ,  4-C ) :   0.8406 B(  1-O ,  5-H ) :   0.9853
B(  2-N ,  3-C ) :   1.9983 B(  2-N ,  4-C ) :   0.5866 B(  3-C ,  4-C ) :  -0.1879
B(  4-C ,  6-H ) :   0.8710 B(  4-C ,  7-H ) :   0.8660

MP2 TOTAL ENERGY:     -605.341231816 Eh
FINAL SINGLE POINT ENERGY      -605.341231816049

DIPOLE MOMENT
-------------
                                X             Y             Z
Electronic contribution:      5.44818       0.35512      -0.05687
Nuclear contribution   :     -6.52459      -0.64433      -0.37272
                        -----------------------------------------
Total Dipole Moment    :     -1.07641      -0.28921      -0.42959
                        -----------------------------------------
Magnitude (a.u.)       :      1.19450
Magnitude (Debye)      :      3.03619

Rotational constants in cm-1:     0.536099     0.058199     0.053428
Rotational constants in MHz : 16071.832744  1744.770588  1601.746016

                             ****ORCA TERMINATED NORMALLY****
TOTAL RUN TIME: 0 days 0 hours 1 minutes 15 seconds 490 msec
