                         Program Version 5.0.3 -  RELEASE  -
|  1> !ri-mp2 aug-cc-pvtz aug-cc-pvtz/c tightscf
|  2> %pal nprocs 16 end
|  3>
|  4> * xyz 0 1
|  5> H      1.358380   -1.380419        0.000000
|  6> N      0.395111   -1.094787        0.000000
|  7> C      0.000000    0.049280        0.000000
|  8> O     -0.515520    1.093531        0.000000
|  9> *
| 10>
| 11>                          ****END OF INPUT****

CARTESIAN COORDINATES (ANGSTROEM)
---------------------------------
  H      1.358380   -1.380419    0.000000
  N      0.395111   -1.094787    0.000000
  C      0.000000    0.049280    0.000000
  O     -0.515520    1.093531    0.000000

 Total Charge           Charge          ....    0
 Multiplicity           Mult            ....    1
 Number of Electrons    NEL             ....   22
 Basis Dimension        Dim             ....  161

ORBITAL ENERGIES
----------------

  NO   OCC          E(Eh)            E(eV)
   0   2.0000     -20.624824      -561.2300
   1   2.0000     -15.594714      -424.3537
   2   2.0000     -11.415044      -310.6191
   3   2.0000      -1.478559       -40.2336
   4   2.0000      -1.266346       -34.4590
   5   2.0000      -0.817240       -22.2382
   6   2.0000      -0.733611       -19.9626
   7   2.0000      -0.659517       -17.9464
   8   2.0000      -0.648858       -17.6563
   9   2.0000      -0.487278       -13.2595
  10   2.0000      -0.455100       -12.3839
  11   0.0000       0.023258         0.6329
  12   0.0000       0.071381         1.9424
  13   0.0000       0.075414         2.0521
  14   0.0000       0.077513         2.1092
  15   0.0000       0.098769         2.6876

MULLIKEN ATOMIC CHARGES
-----------------------
   0 H :    0.234010
   1 N :   -0.222048
   2 C :    0.257546
   3 O :   -0.269509
Sum of atomic charges:   -0.0000000

LOEWDIN ATOMIC CHARGES
----------------------
   0 H :   -0.444767
   1 N :    0.571370
   2 C :   -0.501647
   3 O :    0.375043

  Mayer bond orders larger than 0.100000
B(  0-H ,  1-N ) :   0.9359 B(  1-N ,  2-C ) :   1.7796 B(  2-C ,  3-O ) :   1.9984

MP2 TOTAL ENERGY:     -168.419942052 Eh
FINAL SINGLE POINT ENERGY      -168.419942051839

DIPOLE MOMENT
-------------
                                X             Y             Z
Electronic contribution:     -0.47599       0.93902       0.00000
Nuclear contribution   :      1.29890      -1.31526       0.00000
                        -----------------------------------------
Total Dipole Moment    :      0.82291      -0.37623       0.00000
                        -----------------------------------------
Magnitude (a.u.)       :      0.90483
Magnitude (Debye)      :      2.29991

Rotational constants in cm-1:    29.695573     0.370370     0.365807
Rotational constants in MHz : 890250.896759 11103.400559 10966.622486

                             ****ORCA TERMINATED NORMALLY****
TOTAL RUN TIME: 0 days 0 hours 0 minutes 28 seconds 159 msec
