                         Program Version 5.0.3 -  RELEASE  -
|  1> !ri-mp2 aug-cc-pvtz aug-cc-pvtz/c tightscf
|  2> %pal nprocs 16 end
|  3>
|  4> * xyz 0 1
|  5> N      1.373307   -0.063009    0.041264
|  6> O      1.396548    0.879733    0.795043
|  7> O      2.285464   -0.632107   -0.489189
|  8> O      0.119309   -0.621395   -0.286499
|  9> C     -1.052332    0.063916    0.267361
| 10> C     -1.394970    1.283353   -0.571030
| 11> C     -2.136583   -0.999878    0.268157
| 12> H     -0.806612    0.356435    1.286240
| 13> H     -0.581577    2.006220   -0.570003
| 14> H     -1.610830    0.992297   -1.599382
| 15> H     -2.278986    1.772046   -0.159761
| 16> H     -1.843059   -1.856641    0.872465
| 17> H     -3.052372   -0.580247    0.684532
| 18> H     -2.346969   -1.343252   -0.744705
| 19> *
| 20>
| 21>                          ****END OF INPUT****

CARTESIAN COORDINATES (ANGSTROEM)
---------------------------------
  N      1.373307   -0.063009    0.041264
  O      1.396548    0.879733    0.795043
  O      2.285464   -0.632107   -0.489189
  O      0.119309   -0.621395   -0.286499
  C     -1.052332    0.063916    0.267361
  C     -1.394970    1.283353   -0.571030
  C     -2.136583   -0.999878    0.268157
  H     -0.806612    0.356435    1.286240
  H     -0.581577    2.006220   -0.570003
  H     -1.610830    0.992297   -1.599382
  H     -2.278986    1.772046   -0.159761
  H     -1.843059   -1.856641    0.872465
  H     -3.052372   -0.580247    0.684532
  H     -2.346969   -1.343252   -0.744705

 Total Charge           Charge          ....    0
 Multiplicity           Mult            ....    1
 Number of Electrons    NEL             ....   56
 Basis Dimension        Dim             ....  483

ORBITAL ENERGIES
----------------

  NO   OCC          E(Eh)            E(eV)
   0   2.0000     -20.660106      -562.1901
   1   2.0000     -20.625844      -561.2578
   2   2.0000     -20.625115      -561.2379
   3   2.0000     -15.918810      -433.1728
   4   2.0000     -11.318926      -308.0036
   5   2.0000     -11.240957      -305.8820
   6   2.0000     -11.236596      -305.7633
   7   2.0000      -1.666290       -45.3421
   8   2.0000      -1.445171       -39.3251
   9   2.0000      -1.420143       -38.6441
  10   2.0000      -1.093905       -29.7667
  11   2.0000      -0.967655       -26.3312
  12   2.0000      -0.927759       -25.2456
  13   2.0000      -0.831282       -22.6203
  14   2.0000      -0.799836       -21.7646
  15   2.0000      -0.774063       -21.0633
  16   2.0000      -0.756903       -20.5964
  17   2.0000      -0.653980       -17.7957
  18   2.0000      -0.643020       -17.4975
  19   2.0000      -0.604320       -16.4444
  20   2.0000      -0.571089       -15.5401
  21   2.0000      -0.567869       -15.4525
  22   2.0000      -0.543992       -14.8028
  23   2.0000      -0.529006       -14.3950
  24   2.0000      -0.514990       -14.0136
  25   2.0000      -0.504704       -13.7337
  26   2.0000      -0.492722       -13.4076
  27   2.0000      -0.477819       -13.0021
  28   0.0000       0.025281         0.6879
  29   0.0000       0.034632         0.9424
  30   0.0000       0.037088         1.0092
  31   0.0000       0.044772         1.2183
  32   0.0000       0.058866         1.6018

MULLIKEN ATOMIC CHARGES
-----------------------
   0 N :    1.042288
   1 O :   -0.534327
   2 O :   -0.647547
   3 O :   -0.483471
   4 C :    0.504210
   5 C :   -1.018031
   6 C :   -1.045964
   7 H :    0.400932
   8 H :    0.328107
   9 H :    0.287480
  10 H :    0.289173
  11 H :    0.278794
  12 H :    0.308572
  13 H :    0.289784
Sum of atomic charges:   -0.0000000

LOEWDIN ATOMIC CHARGES
----------------------
   0 N :   -0.968238
   1 O :    0.390046
   2 O :    0.369574
   3 O :    0.520586
   4 C :   -0.297805
   5 C :    0.586262
   6 C :    0.586228
   7 H :   -0.182833
   8 H :   -0.181987
   9 H :   -0.164526
  10 H :   -0.163015
  11 H :   -0.166599
  12 H :   -0.163455
  13 H :   -0.164238

  Mayer bond orders larger than 0.100000
B(  0-N ,  1-O ) :   1.2286 B(  0-N ,  2-O ) :   1.2186 B(  0-N ,  3-O ) :   1.0100
B(  1-O ,  2-O ) :   0.1042 B(  3-O ,  4-C ) :   0.4489 B(  3-O ,  5-C ) :   0.1204
B(  4-C ,  5-C ) :   0.8285 B(  4-C ,  6-C ) :   0.7423 B(  4-C ,  7-H ) :   0.8721
B(  5-C ,  6-C ) :   0.1165 B(  5-C ,  8-H ) :   0.9178 B(  5-C ,  9-H ) :   0.9279
B(  5-C , 10-H ) :   0.9508 B(  6-C , 11-H ) :   0.9588 B(  6-C , 12-H ) :   0.9577
B(  6-C , 13-H ) :   0.9542

MP2 TOTAL ENERGY:     -398.185389675 Eh
FINAL SINGLE POINT ENERGY      -398.185389675355

DIPOLE MOMENT
-------------
                                X             Y             Z
Electronic contribution:     10.90259      -1.17845       0.39776
Nuclear contribution   :    -12.46179       1.34161      -0.23024
                        -----------------------------------------
Total Dipole Moment    :     -1.55921       0.16316       0.16752
                        -----------------------------------------
Magnitude (a.u.)       :      1.57664
Magnitude (Debye)      :      4.00751

Rotational constants in cm-1:     0.171817     0.059002     0.051119
Rotational constants in MHz :  5150.930156  1768.827355  1532.520905

                             ****ORCA TERMINATED NORMALLY****
TOTAL RUN TIME: 0 days 0 hours 3 minutes 51 seconds 115 msec
