                         Program Version 5.0.3 -  RELEASE  -
|  1> !ri-mp2 aug-cc-pvtz aug-cc-pvtz/c tightscf
|  2> %pal nprocs 16 end
|  3>
|  4> * xyz 0 1
|  5> S      0.457966    0.685420   -0.130775
|  6> O     -3.222564   -0.127058    0.122495
|  7> N     -0.866252   -0.384315    0.004694
|  8> C     -2.057415   -0.194178    0.059640
|  9> C      1.757292   -0.498441   -0.193213
| 10> C      2.970929   -0.238236    0.278239
| 11> H      1.512657   -1.411103   -0.721146
| 12> H      3.781289   -0.934480    0.113673
| 13> H      3.198043    0.670651    0.819051
| 14> *
| 15>
| 16>                          ****END OF INPUT****

CARTESIAN COORDINATES (ANGSTROEM)
---------------------------------
  S      0.457966    0.685420   -0.130775
  O     -3.222564   -0.127058    0.122495
  N     -0.866252   -0.384315    0.004694
  C     -2.057415   -0.194178    0.059640
  C      1.757292   -0.498441   -0.193213
  C      2.970929   -0.238236    0.278239
  H      1.512657   -1.411103   -0.721146
  H      3.781289   -0.934480    0.113673
  H      3.198043    0.670651    0.819051

 Total Charge           Charge          ....    0
 Multiplicity           Mult            ....    1
 Number of Electrons    NEL             ....   52
 Basis Dimension        Dim             ....  349

ORBITAL ENERGIES
----------------

  NO   OCC          E(Eh)            E(eV)
   0   2.0000     -92.027903     -2504.2066
   1   2.0000     -20.621522      -561.1401
   2   2.0000     -15.613187      -424.8564
   3   2.0000     -11.413080      -310.5657
   4   2.0000     -11.286008      -307.1079
   5   2.0000     -11.254901      -306.2614
   6   2.0000      -9.023472      -245.5412
   7   2.0000      -6.704858      -182.4485
   8   2.0000      -6.703289      -182.4058
   9   2.0000      -6.702044      -182.3719
  10   2.0000      -1.472466       -40.0679
  11   2.0000      -1.286052       -34.9953
  12   2.0000      -1.104191       -30.0466
  13   2.0000      -0.984192       -26.7812
  14   2.0000      -0.801330       -21.8053
  15   2.0000      -0.746374       -20.3099
  16   2.0000      -0.706081       -19.2135
  17   2.0000      -0.664422       -18.0799
  18   2.0000      -0.660007       -17.9597
  19   2.0000      -0.629641       -17.1334
  20   2.0000      -0.604099       -16.4384
  21   2.0000      -0.528522       -14.3818
  22   2.0000      -0.514597       -14.0029
  23   2.0000      -0.446719       -12.1558
  24   2.0000      -0.432044       -11.7565
  25   2.0000      -0.336482        -9.1561
  26   0.0000       0.027056         0.7362
  27   0.0000       0.037419         1.0182
  28   0.0000       0.043158         1.1744
  29   0.0000       0.060948         1.6585
  30   0.0000       0.067039         1.8242

MULLIKEN ATOMIC CHARGES
-----------------------
   0 S :    0.089094
   1 O :   -0.380716
   2 N :    0.115429
   3 C :   -0.070963
   4 C :   -0.091663
   5 C :   -1.022970
   6 H :    0.504081
   7 H :    0.368258
   8 H :    0.489450
Sum of atomic charges:   -0.0000000

LOEWDIN ATOMIC CHARGES
----------------------
   0 S :    1.004083
   1 O :    0.361085
   2 N :   -0.167853
   3 C :   -0.622385
   4 C :   -0.244895
   5 C :    0.415226
   6 H :   -0.269568
   7 H :   -0.233930
   8 H :   -0.241764

  Mayer bond orders larger than 0.100000
B(  0-S ,  2-N ) :   0.8558 B(  0-S ,  4-C ) :   0.9793 B(  1-O ,  2-N ) :  -0.1965
B(  1-O ,  3-C ) :   2.0466 B(  2-N ,  3-C ) :   1.7468 B(  2-N ,  4-C ) :  -0.1262
B(  4-C ,  5-C ) :   1.5536 B(  4-C ,  6-H ) :   0.7019 B(  5-C ,  7-H ) :   0.9272
B(  5-C ,  8-H ) :   0.7388

MP2 TOTAL ENERGY:     -643.336809055 Eh
FINAL SINGLE POINT ENERGY      -643.336809054809

DIPOLE MOMENT
-------------
                                X             Y             Z
Electronic contribution:     -6.99175       1.58812      -0.26983
Nuclear contribution   :      8.13354      -1.64211       0.21012
                        -----------------------------------------
Total Dipole Moment    :      1.14179      -0.05399      -0.05971
                        -----------------------------------------
Magnitude (a.u.)       :      1.14463
Magnitude (Debye)      :      2.90941

Rotational constants in cm-1:     0.597833     0.041416     0.039333
Rotational constants in MHz : 17922.591375  1241.633908  1179.165358

                             ****ORCA TERMINATED NORMALLY****
TOTAL RUN TIME: 0 days 0 hours 1 minutes 32 seconds 78 msec
