                         Program Version 5.0.3 -  RELEASE  -
|  1> !ri-mp2 aug-cc-pvtz aug-cc-pvtz/c tightscf
|  2> %pal nprocs 16 end
|  3> %maxcore 3800
|  4>
|  5> * xyz 0 1
|  6> C     -0.601226   -2.584627    0.000000
|  7> C      0.748982   -2.260917    0.000000
|  8> C     -1.547135   -1.565096    0.000000
|  9> C      1.146365   -0.928060    0.000000
| 10> C     -1.144028   -0.236286    0.000000
| 11> C      0.210818    0.106161    0.000000
| 12> C      0.210818    2.299507    1.265971
| 13> C      0.210818    2.299507   -1.265971
| 14> C      0.662737    1.556271    0.000000
| 15> H     -0.915190   -3.619865    0.000000
| 16> H      1.495397   -3.044499    0.000000
| 17> H     -2.602280   -1.805893    0.000000
| 18> H      2.202394   -0.686488    0.000000
| 19> H     -1.896202    0.542418    0.000000
| 20> H     -0.877383    2.362280    1.320609
| 21> H      0.602440    3.318326    1.273546
| 22> H      0.560437    1.794019    2.166585
| 23> H      0.560437    1.794019   -2.166585
| 24> H      0.602440    3.318326   -1.273546
| 25> H     -0.877383    2.362280   -1.320609
| 26> H      1.755995    1.546317    0.000000
| 27> *
| 28>
| 29>                          ****END OF INPUT****

CARTESIAN COORDINATES (ANGSTROEM)
---------------------------------
  C     -0.601226   -2.584627    0.000000
  C      0.748982   -2.260917    0.000000
  C     -1.547135   -1.565096    0.000000
  C      1.146365   -0.928060    0.000000
  C     -1.144028   -0.236286    0.000000
  C      0.210818    0.106161    0.000000
  C      0.210818    2.299507    1.265971
  C      0.210818    2.299507   -1.265971
  C      0.662737    1.556271    0.000000
  H     -0.915190   -3.619865    0.000000
  H      1.495397   -3.044499    0.000000
  H     -2.602280   -1.805893    0.000000
  H      2.202394   -0.686488    0.000000
  H     -1.896202    0.542418    0.000000
  H     -0.877383    2.362280    1.320609
  H      0.602440    3.318326    1.273546
  H      0.560437    1.794019    2.166585
  H      0.560437    1.794019   -2.166585
  H      0.602440    3.318326   -1.273546
  H     -0.877383    2.362280   -1.320609
  H      1.755995    1.546317    0.000000

 Total Charge           Charge          ....    0
 Multiplicity           Mult            ....    1
 Number of Electrons    NEL             ....   66
 Basis Dimension        Dim             ....  690

ORBITAL ENERGIES
----------------

  NO   OCC          E(Eh)            E(eV)
   0   2.0000     -11.235439      -305.7318
   1   2.0000     -11.233990      -305.6924
   2   2.0000     -11.231243      -305.6177
   3   2.0000     -11.230786      -305.6052
   4   2.0000     -11.227203      -305.5077
   5   2.0000     -11.226752      -305.4955
   6   2.0000     -11.226549      -305.4899
   7   2.0000     -11.213576      -305.1369
   8   2.0000     -11.213557      -305.1364
   9   2.0000      -1.155460       -31.4417
  10   2.0000      -1.080475       -29.4012
  11   2.0000      -1.011458       -27.5232
  12   2.0000      -0.992416       -27.0050
  13   2.0000      -0.930860       -25.3300
  14   2.0000      -0.845857       -23.0169
  15   2.0000      -0.822943       -22.3934
  16   2.0000      -0.770299       -20.9609
  17   2.0000      -0.693252       -18.8644
  18   2.0000      -0.645060       -17.5530
  19   2.0000      -0.627403       -17.0725
  20   2.0000      -0.599541       -16.3143
  21   2.0000      -0.591135       -16.0856
  22   2.0000      -0.579119       -15.7586
  23   2.0000      -0.567464       -15.4415
  24   2.0000      -0.538384       -14.6502
  25   2.0000      -0.530616       -14.4388
  26   2.0000      -0.499601       -13.5948
  27   2.0000      -0.496449       -13.5091
  28   2.0000      -0.474474       -12.9111
  29   2.0000      -0.466185       -12.6855
  30   2.0000      -0.461708       -12.5637
  31   2.0000      -0.334044        -9.0898
  32   2.0000      -0.324140        -8.8203
  33   0.0000       0.028376         0.7722
  34   0.0000       0.032603         0.8872
  35   0.0000       0.034080         0.9274
  36   0.0000       0.040562         1.1037
  37   0.0000       0.045305         1.2328

MULLIKEN ATOMIC CHARGES
-----------------------
   0 C :   -0.210417
   1 C :   -0.404010
   2 C :   -0.826597
   3 C :   -1.100933
   4 C :   -0.827604
   5 C :    1.741818
   6 C :   -1.041451
   7 C :   -1.041451
   8 C :    0.262676
   9 H :    0.450769
  10 H :    0.578335
  11 H :    0.411823
  12 H :   -0.192692
  13 H :    0.189240
  14 H :    0.306281
  15 H :    0.213760
  16 H :    0.313515
  17 H :    0.313515
  18 H :    0.213760
  19 H :    0.306280
  20 H :    0.343383
Sum of atomic charges:   -0.0000000

LOEWDIN ATOMIC CHARGES
----------------------
   0 C :    0.191706
   1 C :    0.198096
   2 C :    0.200496
   3 C :    0.222109
   4 C :    0.214188
   5 C :   -0.101332
   6 C :    0.592453
   7 C :    0.592453
   8 C :   -0.053111
   9 H :   -0.188248
  10 H :   -0.184698
  11 H :   -0.184244
  12 H :   -0.179247
  13 H :   -0.180719
  14 H :   -0.168702
  15 H :   -0.164157
  16 H :   -0.159597
  17 H :   -0.159597
  18 H :   -0.164157
  19 H :   -0.168702
  20 H :   -0.154990

  Mayer bond orders larger than 0.100000
B(  0-C ,  1-C ) :   1.0886 B(  0-C ,  2-C ) :   1.1273 B(  0-C ,  3-C ) :  -0.1822
B(  0-C ,  9-H ) :   0.8227 B(  1-C ,  2-C ) :   0.1555 B(  1-C ,  3-C ) :   1.1077
B(  1-C ,  5-C ) :   0.3920 B(  1-C ,  9-H ) :  -0.1977 B(  1-C , 10-H ) :   0.6509
B(  1-C , 12-H ) :  -0.1908 B(  1-C , 13-H ) :  -0.1270 B(  2-C ,  4-C ) :   1.4015
B(  2-C ,  5-C ) :   0.1495 B(  2-C ,  9-H ) :  -0.1732 B(  2-C , 11-H ) :   0.8981
B(  2-C , 13-H ) :  -0.1828 B(  3-C ,  4-C ) :  -0.2524 B(  3-C ,  5-C ) :  -0.1799
B(  3-C ,  8-C ) :   0.1838 B(  3-C ,  9-H ) :   0.2119 B(  3-C , 10-H ) :  -0.2502
B(  3-C , 12-H ) :   2.1923 B(  3-C , 13-H ) :   0.2776 B(  4-C ,  5-C ) :   0.2753
B(  4-C ,  8-C ) :   0.3554 B(  4-C , 12-H ) :   0.1707 B(  4-C , 13-H ) :   1.2454
B(  5-C ,  6-C ) :   0.1209 B(  5-C ,  7-C ) :   0.1209 B(  5-C ,  8-C ) :   0.8673
B(  5-C , 12-H ) :  -0.4364 B(  5-C , 13-H ) :  -0.2031 B(  6-C ,  7-C ) :   0.1554
B(  6-C ,  8-C ) :   0.6694 B(  6-C , 14-H ) :   0.9456 B(  6-C , 15-H ) :   1.0472
B(  6-C , 16-H ) :   0.9579 B(  7-C ,  8-C ) :   0.6694 B(  7-C , 17-H ) :   0.9579
B(  7-C , 18-H ) :   1.0472 B(  7-C , 19-H ) :   0.9457 B(  8-C , 20-H ) :   0.9076

MP2 TOTAL ENERGY:     -349.427922822 Eh
FINAL SINGLE POINT ENERGY      -349.427922821650

DIPOLE MOMENT
-------------
                                X             Y             Z
Electronic contribution:     -0.57348      -7.97291       0.00000
Nuclear contribution   :      0.63021       8.12764       0.00000
                        -----------------------------------------
Total Dipole Moment    :      0.05673       0.15473       0.00000
                        -----------------------------------------
Magnitude (a.u.)       :      0.16481
Magnitude (Debye)      :      0.41890

Rotational constants in cm-1:     0.112296     0.035958     0.033091
Rotational constants in MHz :  3366.547948  1077.991082   992.035777

                             ****ORCA TERMINATED NORMALLY****
TOTAL RUN TIME: 0 days 0 hours 13 minutes 3 seconds 752 msec
