                         Program Version 5.0.3 -  RELEASE  -
|  1> !ri-mp2 aug-cc-pvtz aug-cc-pvtz/c tightscf
|  2> %pal nprocs 16 end
|  3>
|  4> * xyz 0 1
|  5> C      1.617743   -0.394675    0.283252
|  6> C     -1.893251   -0.863530   -0.252957
|  7> C     -0.944016    1.436162    0.264110
|  8> C     -0.675794    0.040279   -0.273129
|  9> O      2.051181    0.295615   -0.599753
| 10> O      0.330551   -0.615131    0.565758
| 11> H      2.240430   -0.955104    0.992486
| 12> H     -2.678480   -0.440562   -0.880088
| 13> H     -1.648581   -1.854994   -0.632319
| 14> H     -2.282128   -0.967445    0.760564
| 15> H     -1.698111    1.930159   -0.349869
| 16> H     -0.039874    2.042006    0.242524
| 17> H     -1.314363    1.388173    1.289063
| 18> H     -0.260844    0.104471   -1.278058
| 19> *
| 20>
| 21>                          ****END OF INPUT****

CARTESIAN COORDINATES (ANGSTROEM)
---------------------------------
  C      1.617743   -0.394675    0.283252
  C     -1.893251   -0.863530   -0.252957
  C     -0.944016    1.436162    0.264110
  C     -0.675794    0.040279   -0.273129
  O      2.051181    0.295615   -0.599753
  O      0.330551   -0.615131    0.565758
  H      2.240430   -0.955104    0.992486
  H     -2.678480   -0.440562   -0.880088
  H     -1.648581   -1.854994   -0.632319
  H     -2.282128   -0.967445    0.760564
  H     -1.698111    1.930159   -0.349869
  H     -0.039874    2.042006    0.242524
  H     -1.314363    1.388173    1.289063
  H     -0.260844    0.104471   -1.278058

 Total Charge           Charge          ....    0
 Multiplicity           Mult            ....    1
 Number of Electrons    NEL             ....   48
 Basis Dimension        Dim             ....  460

ORBITAL ENERGIES
----------------

  NO   OCC          E(Eh)            E(eV)
   0   2.0000     -20.605418      -560.7019
   1   2.0000     -20.551957      -559.2472
   2   2.0000     -11.380662      -309.6836
   3   2.0000     -11.299355      -307.4711
   4   2.0000     -11.226282      -305.4827
   5   2.0000     -11.223469      -305.4061
   6   2.0000      -1.459952       -39.7273
   7   2.0000      -1.365638       -37.1609
   8   2.0000      -1.076100       -29.2822
   9   2.0000      -0.951885       -25.9021
  10   2.0000      -0.883221       -24.0337
  11   2.0000      -0.780255       -21.2318
  12   2.0000      -0.732370       -19.9288
  13   2.0000      -0.679541       -18.4913
  14   2.0000      -0.653414       -17.7803
  15   2.0000      -0.615582       -16.7508
  16   2.0000      -0.583556       -15.8794
  17   2.0000      -0.561048       -15.2669
  18   2.0000      -0.550745       -14.9865
  19   2.0000      -0.531846       -14.4723
  20   2.0000      -0.512949       -13.9581
  21   2.0000      -0.490887       -13.3577
  22   2.0000      -0.460880       -12.5412
  23   2.0000      -0.453845       -12.3498
  24   0.0000       0.028724         0.7816
  25   0.0000       0.035756         0.9730
  26   0.0000       0.037721         1.0264
  27   0.0000       0.041926         1.1409
  28   0.0000       0.055011         1.4969

MULLIKEN ATOMIC CHARGES
-----------------------
   0 C :   -0.125997
   1 C :   -1.037728
   2 C :   -1.038920
   3 C :    0.576656
   4 O :   -0.672207
   5 O :   -0.469339
   6 H :    0.642868
   7 H :    0.301898
   8 H :    0.276599
   9 H :    0.278467
  10 H :    0.287008
  11 H :    0.310299
  12 H :    0.276446
  13 H :    0.393949
Sum of atomic charges:   -0.0000000

LOEWDIN ATOMIC CHARGES
----------------------
   0 C :   -0.516870
   1 C :    0.586323
   2 C :    0.589273
   3 C :   -0.274328
   4 O :    0.419415
   5 O :    0.565061
   6 H :   -0.200084
   7 H :   -0.166121
   8 H :   -0.167682
   9 H :   -0.165499
  10 H :   -0.164205
  11 H :   -0.172980
  12 H :   -0.164661
  13 H :   -0.167643

  Mayer bond orders larger than 0.100000
B(  0-C ,  4-O ) :   1.8236 B(  0-C ,  5-O ) :   1.3033 B(  0-C ,  6-H ) :   0.5469
B(  1-C ,  2-C ) :   0.1156 B(  1-C ,  3-C ) :   0.7354 B(  1-C ,  7-H ) :   0.9667
B(  1-C ,  8-H ) :   0.9580 B(  1-C ,  9-H ) :   0.9607 B(  2-C ,  3-C ) :   0.8314
B(  2-C ,  5-O ) :   0.1168 B(  2-C , 10-H ) :   0.9489 B(  2-C , 11-H ) :   0.9321
B(  2-C , 12-H ) :   0.9353 B(  3-C ,  5-O ) :   0.4345 B(  3-C , 13-H ) :   0.8881

MP2 TOTAL ENERGY:     -307.154748581 Eh
FINAL SINGLE POINT ENERGY      -307.154748580618

DIPOLE MOMENT
-------------
                                X             Y             Z
Electronic contribution:      7.03054      -1.52254       0.20466
Nuclear contribution   :     -7.82153       1.27044       0.14710
                        -----------------------------------------
Total Dipole Moment    :     -0.79099      -0.25211       0.35176
                        -----------------------------------------
Magnitude (a.u.)       :      0.90164
Magnitude (Debye)      :      2.29179

Rotational constants in cm-1:     0.213297     0.082374     0.069465
Rotational constants in MHz :  6394.469650  2469.498367  2082.513683

                             ****ORCA TERMINATED NORMALLY****
TOTAL RUN TIME: 0 days 0 hours 3 minutes 13 seconds 197 msec
