                         Program Version 5.0.3 -  RELEASE  -
|  1> !ri-mp2 aug-cc-pvtz aug-cc-pvtz/c tightscf
|  2> %pal nprocs 16 end
|  3>
|  4> * xyz 0 1
|  5> S     0.000005    0.180949   -0.000031
|  6> O     4.161913    1.053413    0.440220
|  7> O    -4.161949    1.053366   -0.440227
|  8> N     2.574769   -0.356348   -0.604807
|  9> N    -2.574743   -0.356296    0.604841
| 10> C     1.346924   -1.035946   -0.351650
| 11> C    -1.346915   -1.035919    0.351674
| 12> C     3.340117    0.359645   -0.014871
| 13> C    -3.340125    0.359642    0.014882
| 14> H     1.444429   -1.712184    0.498745
| 15> H     1.081666   -1.610562   -1.235849
| 16> H    -1.081634   -1.610502    1.235889
| 17> H    -1.444453   -1.712191   -0.498690
| 18> *
| 19>
| 20>                          ****END OF INPUT****

CARTESIAN COORDINATES (ANGSTROEM)
---------------------------------
  S      0.000005    0.180949   -0.000031
  O      4.161913    1.053413    0.440220
  O     -4.161949    1.053366   -0.440227
  N      2.574769   -0.356348   -0.604807
  N     -2.574743   -0.356296    0.604841
  C      1.346924   -1.035946   -0.351650
  C     -1.346915   -1.035919    0.351674
  C      3.340117    0.359645   -0.014871
  C     -3.340125    0.359642    0.014882
  H      1.444429   -1.712184    0.498745
  H      1.081666   -1.610562   -1.235849
  H     -1.081634   -1.610502    1.235889
  H     -1.444453   -1.712191   -0.498690

 Total Charge           Charge          ....    0
 Multiplicity           Mult            ....    1
 Number of Electrons    NEL             ....   74
 Basis Dimension        Dim             ....  510

ORBITAL ENERGIES
----------------

  NO   OCC          E(Eh)            E(eV)
   0   2.0000     -91.982603     -2502.9739
   1   2.0000     -20.620952      -561.1246
   2   2.0000     -20.620952      -561.1246
   3   2.0000     -15.606437      -424.6728
   4   2.0000     -15.606437      -424.6727
   5   2.0000     -11.415372      -310.6281
   6   2.0000     -11.415371      -310.6280
   7   2.0000     -11.345216      -308.7190
   8   2.0000     -11.345210      -308.7189
   9   2.0000      -8.982838      -244.4354
  10   2.0000      -6.663753      -181.3299
  11   2.0000      -6.662926      -181.3074
  12   2.0000      -6.661683      -181.2736
  13   2.0000      -1.473895       -40.1067
  14   2.0000      -1.473886       -40.1065
  15   2.0000      -1.298133       -35.3240
  16   2.0000      -1.295048       -35.2401
  17   2.0000      -1.089506       -29.6470
  18   2.0000      -1.013921       -27.5902
  19   2.0000      -0.895753       -24.3747
  20   2.0000      -0.760736       -20.7007
  21   2.0000      -0.750883       -20.4326
  22   2.0000      -0.724706       -19.7202
  23   2.0000      -0.711369       -19.3573
  24   2.0000      -0.693840       -18.8803
  25   2.0000      -0.682991       -18.5851
  26   2.0000      -0.676084       -18.3972
  27   2.0000      -0.657899       -17.9023
  28   2.0000      -0.628753       -17.1092
  29   2.0000      -0.612586       -16.6693
  30   2.0000      -0.595207       -16.1964
  31   2.0000      -0.506836       -13.7917
  32   2.0000      -0.462216       -12.5775
  33   2.0000      -0.459570       -12.5055
  34   2.0000      -0.438513       -11.9325
  35   2.0000      -0.421790       -11.4775
  36   2.0000      -0.375874       -10.2281
  37   0.0000       0.019058         0.5186
  38   0.0000       0.032899         0.8952
  39   0.0000       0.035024         0.9531
  40   0.0000       0.049890         1.3576
  41   0.0000       0.056606         1.5403

MULLIKEN ATOMIC CHARGES
-----------------------
   0 S :   -0.210468
   1 O :   -0.405086
   2 O :   -0.405089
   3 N :   -0.039402
   4 N :   -0.039402
   5 C :    0.183741
   6 C :    0.183738
   7 C :   -0.234843
   8 C :   -0.234836
   9 H :    0.300100
  10 H :    0.300724
  11 H :    0.300721
  12 H :    0.300104
Sum of atomic charges:    0.0000000

LOEWDIN ATOMIC CHARGES
----------------------
   0 S :    1.184070
   1 O :    0.380706
   2 O :    0.380706
   3 N :    0.224050
   4 N :    0.224049
   5 C :   -0.251819
   6 C :   -0.251822
   7 C :   -0.485732
   8 C :   -0.485729
   9 H :   -0.224288
  10 H :   -0.234952
  11 H :   -0.234951
  12 H :   -0.224287

  Mayer bond orders larger than 0.100000
B(  0-S ,  5-C ) :   0.9054 B(  0-S ,  6-C ) :   0.9054 B(  1-O ,  3-N ) :  -0.1780
B(  1-O ,  7-C ) :   2.0229 B(  2-O ,  4-N ) :  -0.1780 B(  2-O ,  8-C ) :   2.0229
B(  3-N ,  5-C ) :   0.4296 B(  3-N ,  7-C ) :   1.8974 B(  4-N ,  6-C ) :   0.4296
B(  4-N ,  8-C ) :   1.8974 B(  5-C ,  7-C ) :  -0.2632 B(  5-C ,  9-H ) :   0.9322
B(  5-C , 10-H ) :   0.9148 B(  6-C ,  8-C ) :  -0.2632 B(  6-C , 11-H ) :   0.9148
B(  6-C , 12-H ) :   0.9322

MP2 TOTAL ENERGY:     -811.792018689 Eh
FINAL SINGLE POINT ENERGY      -811.792018688793

DIPOLE MOMENT
-------------
                                X             Y             Z
Electronic contribution:     -0.00001       4.68943      -0.00007
Nuclear contribution   :      0.00001      -6.38446       0.00009
                        -----------------------------------------
Total Dipole Moment    :     -0.00001      -1.69504       0.00002
                        -----------------------------------------
Magnitude (a.u.)       :      1.69504
Magnitude (Debye)      :      4.30844

Rotational constants in cm-1:     0.163918     0.015593     0.014814
Rotational constants in MHz :  4914.141133   467.457407   444.111020

                             ****ORCA TERMINATED NORMALLY****
TOTAL RUN TIME: 0 days 0 hours 3 minutes 40 seconds 701 msec
