                         Program Version 5.0.3 -  RELEASE  -
|  1> !ri-mp2 aug-cc-pvtz aug-cc-pvtz/c tightscf
|  2> %pal nprocs 16 end
|  3>
|  4> * xyz 0 1
|  5> S     -1.706782   -0.543256   -0.058637
|  6> O      2.540354   -0.659034   -0.086094
|  7> N      0.706588    0.801429    0.239004
|  8> C     -0.664935    0.969752   -0.139339
|  9> C      1.599379    0.023801    0.031598
| 10> H     -1.726078   -0.641935    1.283273
| 11> H     -1.104325    1.734549    0.492248
| 12> H     -0.736693    1.300429   -1.175164
| 13> *
| 14>
| 15>                          ****END OF INPUT****

CARTESIAN COORDINATES (ANGSTROEM)
---------------------------------
  S     -1.706782   -0.543256   -0.058637
  O      2.540354   -0.659034   -0.086094
  N      0.706588    0.801429    0.239004
  C     -0.664935    0.969752   -0.139339
  C      1.599379    0.023801    0.031598
  H     -1.726078   -0.641935    1.283273
  H     -1.104325    1.734549    0.492248
  H     -0.736693    1.300429   -1.175164

 Total Charge           Charge          ....    0
 Multiplicity           Mult            ....    1
 Number of Electrons    NEL             ....   46
 Basis Dimension        Dim             ....  303

ORBITAL ENERGIES
----------------

  NO   OCC          E(Eh)            E(eV)
   0   2.0000     -91.976990     -2502.8211
   1   2.0000     -20.614315      -560.9440
   2   2.0000     -15.597022      -424.4166
   3   2.0000     -11.407388      -310.4108
   4   2.0000     -11.338266      -308.5299
   5   2.0000      -8.978003      -244.3039
   6   2.0000      -6.659198      -181.2060
   7   2.0000      -6.658241      -181.1799
   8   2.0000      -6.657206      -181.1518
   9   2.0000      -1.466785       -39.9132
  10   2.0000      -1.286754       -35.0143
  11   2.0000      -1.060680       -28.8626
  12   2.0000      -0.923780       -25.1373
  13   2.0000      -0.749242       -20.3879
  14   2.0000      -0.712899       -19.3990
  15   2.0000      -0.682728       -18.5780
  16   2.0000      -0.659000       -17.9323
  17   2.0000      -0.619707       -16.8631
  18   2.0000      -0.572144       -15.5688
  19   2.0000      -0.516723       -14.0607
  20   2.0000      -0.444220       -12.0878
  21   2.0000      -0.428614       -11.6632
  22   2.0000      -0.385109       -10.4794
  23   0.0000       0.025289         0.6881
  24   0.0000       0.036503         0.9933
  25   0.0000       0.043979         1.1967
  26   0.0000       0.062020         1.6877
  27   0.0000       0.078509         2.1363

MULLIKEN ATOMIC CHARGES
-----------------------
   0 S :   -0.278119
   1 O :   -0.408599
   2 N :    0.032956
   3 C :   -0.072401
   4 C :   -0.085572
   5 H :    0.157581
   6 H :    0.320192
   7 H :    0.333963
Sum of atomic charges:    0.0000000

LOEWDIN ATOMIC CHARGES
----------------------
   0 S :    1.263585
   1 O :    0.375096
   2 N :    0.226296
   3 C :   -0.292259
   4 C :   -0.500990
   5 H :   -0.578392
   6 H :   -0.245884
   7 H :   -0.247453

  Mayer bond orders larger than 0.100000
B(  0-S ,  3-C ) :   0.9951 B(  0-S ,  5-H ) :   1.0208 B(  1-O ,  2-N ) :  -0.1517
B(  1-O ,  4-C ) :   2.0199 B(  2-N ,  3-C ) :   0.6661 B(  2-N ,  4-C ) :   1.7694
B(  3-C ,  4-C ) :  -0.1124 B(  3-C ,  6-H ) :   0.8818 B(  3-C ,  7-H ) :   0.9048

MP2 TOTAL ENERGY:     -605.351908708 Eh
FINAL SINGLE POINT ENERGY      -605.351908708471

DIPOLE MOMENT
-------------
                                X             Y             Z
Electronic contribution:      2.59055      -1.70007      -0.48700
Nuclear contribution   :     -3.36429       2.33072       0.58383
                        -----------------------------------------
Total Dipole Moment    :     -0.77373       0.63065       0.09682
                        -----------------------------------------
Magnitude (a.u.)       :      1.00288
Magnitude (Debye)      :      2.54911

Rotational constants in cm-1:     0.363852     0.067744     0.058904
Rotational constants in MHz : 10907.995814  2030.911713  1765.911225

                             ****ORCA TERMINATED NORMALLY****
TOTAL RUN TIME: 0 days 0 hours 0 minutes 57 seconds 181 msec
