                         Program Version 5.0.3 -  RELEASE  -
|  1> !ri-mp2 aug-cc-pvtz aug-cc-pvtz/c tightscf
|  2> %pal nprocs 16 end
|  3>
|  4> * xyz 0 1
|  5> C      1.268727    0.080167   -0.135548
|  6> C      2.457391   -0.631709    0.455479
|  7> C     -2.121048   -1.091773   -0.335245
|  8> C     -1.578136    1.165030    0.695009
|  9> C     -1.134427    0.057348   -0.246875
| 10> O      1.327987    1.053724   -0.845937
| 11> O      0.117817   -0.516965    0.234551
| 12> H      2.448277   -1.682083    0.165657
| 13> H      2.406702   -0.594627    1.543829
| 14> H      3.371738   -0.157764    0.112852
| 15> H     -3.078523   -0.731193   -0.712382
| 16> H     -1.756978   -1.866034   -1.009806
| 17> H     -2.285710   -1.538625    0.646050
| 18> H     -2.518095    1.595146    0.346575
| 19> H     -0.836390    1.960880    0.734621
| 20> H     -1.733027    0.773621    1.701565
| 21> H     -0.939471    0.472232   -1.234796
| 22> *
| 23>
| 24>                          ****END OF INPUT****

CARTESIAN COORDINATES (ANGSTROEM)
---------------------------------
  C      1.268727    0.080167   -0.135548
  C      2.457391   -0.631709    0.455479
  C     -2.121048   -1.091773   -0.335245
  C     -1.578136    1.165030    0.695009
  C     -1.134427    0.057348   -0.246875
  O      1.327987    1.053724   -0.845937
  O      0.117817   -0.516965    0.234551
  H      2.448277   -1.682083    0.165657
  H      2.406702   -0.594627    1.543829
  H      3.371738   -0.157764    0.112852
  H     -3.078523   -0.731193   -0.712382
  H     -1.756978   -1.866034   -1.009806
  H     -2.285710   -1.538625    0.646050
  H     -2.518095    1.595146    0.346575
  H     -0.836390    1.960880    0.734621
  H     -1.733027    0.773621    1.701565
  H     -0.939471    0.472232   -1.234796

 Total Charge           Charge          ....    0
 Multiplicity           Mult            ....    1
 Number of Electrons    NEL             ....   56
 Basis Dimension        Dim             ....  552

ORBITAL ENERGIES
----------------

  NO   OCC          E(Eh)            E(eV)
   0   2.0000     -20.594210      -560.3970
   1   2.0000     -20.539434      -558.9064
   2   2.0000     -11.377062      -309.5856
   3   2.0000     -11.292168      -307.2755
   4   2.0000     -11.237377      -305.7846
   5   2.0000     -11.221826      -305.3614
   6   2.0000     -11.218506      -305.2711
   7   2.0000      -1.451630       -39.5009
   8   2.0000      -1.354030       -36.8450
   9   2.0000      -1.075415       -29.2635
  10   2.0000      -1.005495       -27.3609
  11   2.0000      -0.946787       -25.7634
  12   2.0000      -0.840306       -22.8659
  13   2.0000      -0.764580       -20.8053
  14   2.0000      -0.692875       -18.8541
  15   2.0000      -0.665035       -18.0965
  16   2.0000      -0.655703       -17.8426
  17   2.0000      -0.612219       -16.6593
  18   2.0000      -0.585717       -15.9382
  19   2.0000      -0.578592       -15.7443
  20   2.0000      -0.563612       -15.3367
  21   2.0000      -0.549548       -14.9540
  22   2.0000      -0.534927       -14.5561
  23   2.0000      -0.519170       -14.1273
  24   2.0000      -0.502973       -13.6866
  25   2.0000      -0.483472       -13.1560
  26   2.0000      -0.452020       -12.3001
  27   2.0000      -0.441898       -12.0247
  28   0.0000       0.028440         0.7739
  29   0.0000       0.033992         0.9250
  30   0.0000       0.037425         1.0184
  31   0.0000       0.041812         1.1378
  32   0.0000       0.052508         1.4288

MULLIKEN ATOMIC CHARGES
-----------------------
   0 C :    0.402494
   1 C :   -0.634201
   2 C :   -1.090361
   3 C :   -1.081893
   4 C :    0.522541
   5 O :   -0.767029
   6 O :   -0.394055
   7 H :    0.281508
   8 H :    0.262075
   9 H :    0.359542
  10 H :    0.310926
  11 H :    0.260314
  12 H :    0.263225
  13 H :    0.276867
  14 H :    0.314849
  15 H :    0.274694
  16 H :    0.438504
Sum of atomic charges:    0.0000000

LOEWDIN ATOMIC CHARGES
----------------------
   0 C :   -0.826826
   1 C :    0.583959
   2 C :    0.587483
   3 C :    0.591606
   4 C :   -0.273371
   5 O :    0.456155
   6 O :    0.590740
   7 H :   -0.176743
   8 H :   -0.175409
   9 H :   -0.186291
  10 H :   -0.166567
  11 H :   -0.167682
  12 H :   -0.165647
  13 H :   -0.164442
  14 H :   -0.172412
  15 H :   -0.164724
  16 H :   -0.169829

  Mayer bond orders larger than 0.100000
B(  0-C ,  1-C ) :   0.7051 B(  0-C ,  5-O ) :   1.5303 B(  0-C ,  6-O ) :   1.0922
B(  1-C ,  7-H ) :   0.9598 B(  1-C ,  8-H ) :   0.9781 B(  1-C ,  9-H ) :   0.9035
B(  2-C ,  3-C ) :   0.1268 B(  2-C ,  4-C ) :   0.7359 B(  2-C , 10-H ) :   0.9635
B(  2-C , 11-H ) :   0.9784 B(  2-C , 12-H ) :   0.9860 B(  3-C ,  4-C ) :   0.8326
B(  3-C , 13-H ) :   0.9662 B(  3-C , 14-H ) :   0.9316 B(  3-C , 15-H ) :   0.9369
B(  4-C ,  6-O ) :   0.4900 B(  4-C , 16-H ) :   0.8543

MP2 TOTAL ENERGY:     -346.390094679 Eh
FINAL SINGLE POINT ENERGY      -346.390094679044

DIPOLE MOMENT
-------------
                                X             Y             Z
Electronic contribution:      4.69394       1.19373      -1.89786
Nuclear contribution   :     -5.04445      -1.81236       2.35251
                        -----------------------------------------
Total Dipole Moment    :     -0.35051      -0.61863       0.45465
                        -----------------------------------------
Magnitude (a.u.)       :      0.84396
Magnitude (Debye)      :      2.14517

Rotational constants in cm-1:     0.157955     0.055439     0.048655
Rotational constants in MHz :  4735.372595  1662.027660  1458.631334

                             ****ORCA TERMINATED NORMALLY****
TOTAL RUN TIME: 0 days 0 hours 5 minutes 33 seconds 172 msec
