                         Program Version 5.0.3 -  RELEASE  -
|  1> !ri-mp2 aug-cc-pvtz aug-cc-pvtz/c tightscf
|  2> %pal nprocs 16 end
|  3> %maxcore 3800
|  4>
|  5> * xyz 0 1
|  6> C     -1.325775    0.584643    0.237990
|  7> C      0.155142   -1.441860    0.227032
|  8> C      1.169971    0.852886    0.241238
|  9> C     -0.155142    1.441860   -0.227032
| 10> C     -1.169971   -0.852886   -0.241238
| 11> C      1.325775   -0.584643   -0.237990
| 12> O     -2.565352    1.060854   -0.274243
| 13> O      0.365045   -2.749548   -0.293829
| 14> O      2.199913    1.693855   -0.266419
| 15> O     -0.365045    2.749548    0.293829
| 16> O     -2.199913   -1.693855    0.266419
| 17> O      2.565352   -1.060854    0.274243
| 18> H     -1.353744    0.594834    1.334200
| 19> H      0.153684   -1.479157    1.323029
| 20> H      1.196484    0.861338    1.337560
| 21> H     -0.153684    1.479157   -1.323029
| 22> H     -1.196484   -0.861338   -1.337560
| 23> H      1.353744   -0.594834   -1.334200
| 24> H     -2.646403    1.991559   -0.037548
| 25> H     -0.403701   -3.285449   -0.068670
| 26> H      3.047455    1.296990   -0.036282
| 27> H      0.403701    3.285449    0.068670
| 28> H     -3.047455   -1.296990    0.036282
| 29> H      2.646403   -1.991559    0.037548
| 30> *
| 31>
| 32>                          ****END OF INPUT****

CARTESIAN COORDINATES (ANGSTROEM)
---------------------------------
  C     -1.325775    0.584643    0.237990
  C      0.155142   -1.441860    0.227032
  C      1.169971    0.852886    0.241238
  C     -0.155142    1.441860   -0.227032
  C     -1.169971   -0.852886   -0.241238
  C      1.325775   -0.584643   -0.237990
  O     -2.565352    1.060854   -0.274243
  O      0.365045   -2.749548   -0.293829
  O      2.199913    1.693855   -0.266419
  O     -0.365045    2.749548    0.293829
  O     -2.199913   -1.693855    0.266419
  O      2.565352   -1.060854    0.274243
  H     -1.353744    0.594834    1.334200
  H      0.153684   -1.479157    1.323029
  H      1.196484    0.861338    1.337560
  H     -0.153684    1.479157   -1.323029
  H     -1.196484   -0.861338   -1.337560
  H      1.353744   -0.594834   -1.334200
  H     -2.646403    1.991559   -0.037548
  H     -0.403701   -3.285449   -0.068670
  H      3.047455    1.296990   -0.036282
  H      0.403701    3.285449    0.068670
  H     -3.047455   -1.296990    0.036282
  H      2.646403   -1.991559    0.037548

 Total Charge           Charge          ....    0
 Multiplicity           Mult            ....    1
 Number of Electrons    NEL             ....   96
 Basis Dimension        Dim             ....  828

ORBITAL ENERGIES
----------------

  NO   OCC          E(Eh)            E(eV)
   0   2.0000     -20.572974      -559.8191
   1   2.0000     -20.572974      -559.8191
   2   2.0000     -20.572927      -559.8178
   3   2.0000     -20.572927      -559.8178
   4   2.0000     -20.572894      -559.8169
   5   2.0000     -20.572894      -559.8169
   6   2.0000     -11.296488      -307.3931
   7   2.0000     -11.296189      -307.3849
   8   2.0000     -11.296169      -307.3844
   9   2.0000     -11.295539      -307.3673
  10   2.0000     -11.295520      -307.3667
  11   2.0000     -11.295197      -307.3579
  12   2.0000      -1.405219       -38.2379
  13   2.0000      -1.389319       -37.8053
  14   2.0000      -1.389262       -37.8037
  15   2.0000      -1.364656       -37.1342
  16   2.0000      -1.364625       -37.1333
  17   2.0000      -1.353088       -36.8194
  18   2.0000      -1.112798       -30.2808
  19   2.0000      -0.996222       -27.1086
  20   2.0000      -0.996018       -27.1030
  21   2.0000      -0.854822       -23.2609
  22   2.0000      -0.854794       -23.2601
  23   2.0000      -0.807567       -21.9750
  24   2.0000      -0.767485       -20.8843
  25   2.0000      -0.718757       -19.5584
  26   2.0000      -0.718582       -19.5536
  27   2.0000      -0.710193       -19.3253
  28   2.0000      -0.667949       -18.1758
  29   2.0000      -0.667863       -18.1735
  30   2.0000      -0.658279       -17.9127
  31   2.0000      -0.637466       -17.3463
  32   2.0000      -0.637269       -17.3410
  33   2.0000      -0.605044       -16.4641
  34   2.0000      -0.604910       -16.4604
  35   2.0000      -0.603298       -16.4166
  36   2.0000      -0.557277       -15.1643
  37   2.0000      -0.557249       -15.1635
  38   2.0000      -0.541381       -14.7317
  39   2.0000      -0.524829       -14.2813
  40   2.0000      -0.524702       -14.2779
  41   2.0000      -0.521508       -14.1909
  42   2.0000      -0.467863       -12.7312
  43   2.0000      -0.463224       -12.6050
  44   2.0000      -0.456326       -12.4173
  45   2.0000      -0.456261       -12.4155
  46   2.0000      -0.450688       -12.2639
  47   2.0000      -0.450520       -12.2593
  48   0.0000       0.029629         0.8062
  49   0.0000       0.035436         0.9643
  50   0.0000       0.035463         0.9650
  51   0.0000       0.036309         0.9880
  52   0.0000       0.049574         1.3490

MULLIKEN ATOMIC CHARGES
-----------------------
   0 C :    0.497488
   1 C :    0.497526
   2 C :    0.498571
   3 C :    0.497526
   4 C :    0.498571
   5 C :    0.497488
   6 O :   -0.839459
   7 O :   -0.839834
   8 O :   -0.839492
   9 O :   -0.839834
  10 O :   -0.839492
  11 O :   -0.839459
  12 H :    0.178327
  13 H :    0.177682
  14 H :    0.178477
  15 H :    0.177682
  16 H :    0.178477
  17 H :    0.178327
  18 H :    0.163512
  19 H :    0.163697
  20 H :    0.163504
  21 H :    0.163697
  22 H :    0.163504
  23 H :    0.163512
Sum of atomic charges:    0.0000000

LOEWDIN ATOMIC CHARGES
----------------------
   0 C :   -0.240941
   1 C :   -0.240827
   2 C :   -0.240910
   3 C :   -0.240827
   4 C :   -0.240910
   5 C :   -0.240941
   6 O :    0.850414
   7 O :    0.850415
   8 O :    0.850509
   9 O :    0.850415
  10 O :    0.850509
  11 O :    0.850414
  12 H :   -0.122086
  13 H :   -0.122173
  14 H :   -0.122087
  15 H :   -0.122173
  16 H :   -0.122087
  17 H :   -0.122086
  18 H :   -0.487337
  19 H :   -0.487663
  20 H :   -0.487312
  21 H :   -0.487663
  22 H :   -0.487312
  23 H :   -0.487337

  Mayer bond orders larger than 0.100000
B(  0-C ,  3-C ) :   0.8638 B(  0-C ,  4-C ) :   0.8644 B(  0-C ,  6-O ) :   0.1566
B(  0-C ,  9-O ) :   0.1476 B(  0-C , 10-O ) :   0.1343 B(  0-C , 12-H ) :   1.0757
B(  1-C ,  4-C ) :   0.8645 B(  1-C ,  5-C ) :   0.8638 B(  1-C ,  7-O ) :   0.1562
B(  1-C , 10-O ) :   0.1471 B(  1-C , 11-O ) :   0.1346 B(  1-C , 13-H ) :   1.0760
B(  2-C ,  3-C ) :   0.8645 B(  2-C ,  5-C ) :   0.8644 B(  2-C ,  8-O ) :   0.1562
B(  2-C ,  9-O ) :   0.1342 B(  2-C , 11-O ) :   0.1468 B(  2-C , 14-H ) :   1.0754
B(  3-C ,  6-O ) :   0.1346 B(  3-C ,  8-O ) :   0.1471 B(  3-C ,  9-O ) :   0.1562
B(  3-C , 15-H ) :   1.0760 B(  4-C ,  6-O ) :   0.1468 B(  4-C ,  7-O ) :   0.1342
B(  4-C , 10-O ) :   0.1562 B(  4-C , 16-H ) :   1.0754 B(  5-C ,  7-O ) :   0.1476
B(  5-C ,  8-O ) :   0.1343 B(  5-C , 11-O ) :   0.1566 B(  5-C , 17-H ) :   1.0757
B(  6-O , 18-H ) :   1.0283 B(  7-O , 19-H ) :   1.0279 B(  8-O , 20-H ) :   1.0284
B(  9-O , 21-H ) :   1.0279 B( 10-O , 22-H ) :   1.0284 B( 11-O , 23-H ) :   1.0283

MP2 TOTAL ENERGY:     -686.130492779 Eh
FINAL SINGLE POINT ENERGY      -686.130492778944

DIPOLE MOMENT
-------------
                                X             Y             Z
Electronic contribution:      0.00000      -0.00000       0.00000
Nuclear contribution   :      0.00000      -0.00000       0.00000
                        -----------------------------------------
Total Dipole Moment    :      0.00000      -0.00000       0.00000
                        -----------------------------------------
Magnitude (a.u.)       :      0.00000
Magnitude (Debye)      :      0.00000

Rotational constants in cm-1:     0.033231     0.033226     0.017373
Rotational constants in MHz :   996.254862   996.101392   520.839759

                             ****ORCA TERMINATED NORMALLY****
TOTAL RUN TIME: 0 days 0 hours 21 minutes 38 seconds 521 msec
