                         Program Version 5.0.3 -  RELEASE  -
|  1> !ri-mp2 aug-cc-pvtz aug-cc-pvtz/c tightscf
|  2> %pal nprocs 16 end
|  3>
|  4> * xyz 0 1
|  5> C     0.000000     0.000000    0.371001
|  6> C     0.000000     1.458065   -0.095429
|  7> C    -1.262722    -0.729033   -0.095429
|  8> C     1.262722    -0.729033   -0.095429
|  9> H    -1.282986    -1.759266    0.264412
| 10> H     1.282986    -1.759266    0.264412
| 11> H    -0.882076     1.990731    0.264412
| 12> H     0.882076     1.990731    0.264412
| 13> H    -2.165062    -0.231466    0.264412
| 14> H    -1.313214    -0.758184   -1.187000
| 15> H     2.165062    -0.231466    0.264412
| 16> H     0.000000     1.516369   -1.187000
| 17> H     1.313214    -0.758184   -1.187000
| 18> H     0.000000     0.000000    1.466243
| 19> *
| 20>
| 21>                          ****END OF INPUT****

CARTESIAN COORDINATES (ANGSTROEM)
---------------------------------
  C      0.000000    0.000000    0.371001
  C      0.000000    1.458065   -0.095429
  C     -1.262722   -0.729033   -0.095429
  C      1.262722   -0.729033   -0.095429
  H     -1.282986   -1.759266    0.264412
  H      1.282986   -1.759266    0.264412
  H     -0.882076    1.990731    0.264412
  H      0.882076    1.990731    0.264412
  H     -2.165062   -0.231466    0.264412
  H     -1.313214   -0.758184   -1.187000
  H      2.165062   -0.231466    0.264412
  H      0.000000    1.516369   -1.187000
  H      1.313214   -0.758184   -1.187000
  H      0.000000    0.000000    1.466243

 Total Charge           Charge          ....    0
 Multiplicity           Mult            ....    1
 Number of Electrons    NEL             ....   34
 Basis Dimension        Dim             ....  414

ORBITAL ENERGIES
----------------

  NO   OCC          E(Eh)            E(eV)
   0   2.0000     -11.223481      -305.4064
   1   2.0000     -11.207546      -304.9728
   2   2.0000     -11.207546      -304.9728
   3   2.0000     -11.207513      -304.9719
   4   2.0000      -1.078728       -29.3537
   5   2.0000      -0.926020       -25.1983
   6   2.0000      -0.926020       -25.1983
   7   2.0000      -0.765971       -20.8431
   8   2.0000      -0.629344       -17.1253
   9   2.0000      -0.588715       -16.0198
  10   2.0000      -0.588715       -16.0198
  11   2.0000      -0.532442       -14.4885
  12   2.0000      -0.532442       -14.4885
  13   2.0000      -0.509633       -13.8678
  14   2.0000      -0.461877       -12.5683
  15   2.0000      -0.461877       -12.5683
  16   2.0000      -0.457556       -12.4507
  17   0.0000       0.031148         0.8476
  18   0.0000       0.039454         1.0736
  19   0.0000       0.039454         1.0736
  20   0.0000       0.039696         1.0802
  21   0.0000       0.059864         1.6290

MULLIKEN ATOMIC CHARGES
-----------------------
   0 C :    0.241055
   1 C :   -1.024649
   2 C :   -1.024648
   3 C :   -1.024648
   4 H :    0.273502
   5 H :    0.273502
   6 H :    0.273501
   7 H :    0.273501
   8 H :    0.273501
   9 H :    0.276377
  10 H :    0.273501
  11 H :    0.276377
  12 H :    0.276377
  13 H :    0.362751
Sum of atomic charges:    0.0000000

LOEWDIN ATOMIC CHARGES
----------------------
   0 C :   -0.085372
   1 C :    0.574732
   2 C :    0.574733
   3 C :    0.574733
   4 H :   -0.167951
   5 H :   -0.167951
   6 H :   -0.167951
   7 H :   -0.167951
   8 H :   -0.167951
   9 H :   -0.164218
  10 H :   -0.167951
  11 H :   -0.164218
  12 H :   -0.164218
  13 H :   -0.138464

  Mayer bond orders larger than 0.100000
B(  0-C ,  1-C ) :   0.7708 B(  0-C ,  2-C ) :   0.7708 B(  0-C ,  3-C ) :   0.7708
B(  0-C , 13-H ) :   0.8266 B(  1-C ,  2-C ) :   0.1019 B(  1-C ,  3-C ) :   0.1019
B(  1-C ,  6-H ) :   0.9673 B(  1-C ,  7-H ) :   0.9673 B(  1-C , 11-H ) :   0.9484
B(  2-C ,  3-C ) :   0.1019 B(  2-C ,  4-H ) :   0.9673 B(  2-C ,  8-H ) :   0.9673
B(  2-C ,  9-H ) :   0.9484 B(  3-C ,  5-H ) :   0.9673 B(  3-C , 10-H ) :   0.9673
B(  3-C , 12-H ) :   0.9484

MP2 TOTAL ENERGY:     -158.087868645 Eh
FINAL SINGLE POINT ENERGY      -158.087868644591

DIPOLE MOMENT
-------------
                                X             Y             Z
Electronic contribution:     -0.00000      -0.00000       0.60868
Nuclear contribution   :     -0.00000       0.00000      -0.55840
                        -----------------------------------------
Total Dipole Moment    :     -0.00000       0.00000       0.05028
                        -----------------------------------------
Magnitude (a.u.)       :      0.05028
Magnitude (Debye)      :      0.12781

Rotational constants in cm-1:     0.259574     0.259574     0.150204
Rotational constants in MHz :  7781.833215  7781.829990  4502.995694

                             ****ORCA TERMINATED NORMALLY****
TOTAL RUN TIME: 0 days 0 hours 2 minutes 2 seconds 867 msec
