                         Program Version 5.0.3 -  RELEASE  -
|  1> !ri-mp2 aug-cc-pvtz aug-cc-pvtz/c tightscf
|  2> %pal nprocs 16 end
|  3>
|  4> * xyz 0 1
|  5> C      0.654473   -1.275757        0.000000
|  6> C     -0.759568   -1.159013        0.000000
|  7> C      1.232534   -0.038075        0.000000
|  8> N     -1.256067    0.058336        0.000000
|  9> S      0.000000    1.151175        0.000000
| 10> H      1.194557   -2.209548        0.000000
| 11> H     -1.446653   -1.995169        0.000000
| 12> H      2.279932    0.214642        0.000000
| 13> *
| 14>
| 15>                          ****END OF INPUT****

CARTESIAN COORDINATES (ANGSTROEM)
---------------------------------
  C      0.654473   -1.275757    0.000000
  C     -0.759568   -1.159013    0.000000
  C      1.232534   -0.038075    0.000000
  N     -1.256067    0.058336    0.000000
  S      0.000000    1.151175    0.000000
  H      1.194557   -2.209548    0.000000
  H     -1.446653   -1.995169    0.000000
  H      2.279932    0.214642    0.000000

 Total Charge           Charge          ....    0
 Multiplicity           Mult            ....    1
 Number of Electrons    NEL             ....   44
 Basis Dimension        Dim             ....  303

ORBITAL ENERGIES
----------------

  NO   OCC          E(Eh)            E(eV)
   0   2.0000     -92.012464     -2503.7864
   1   2.0000     -15.591476      -424.2656
   2   2.0000     -11.286885      -307.1317
   3   2.0000     -11.285264      -307.0877
   4   2.0000     -11.249186      -306.1059
   5   2.0000      -9.010078      -245.1767
   6   2.0000      -6.690973      -182.0706
   7   2.0000      -6.690082      -182.0464
   8   2.0000      -6.689498      -182.0305
   9   2.0000      -1.275805       -34.7164
  10   2.0000      -1.067202       -29.0400
  11   2.0000      -1.005920       -27.3725
  12   2.0000      -0.799743       -21.7621
  13   2.0000      -0.775510       -21.1027
  14   2.0000      -0.707316       -19.2470
  15   2.0000      -0.588321       -16.0090
  16   2.0000      -0.581152       -15.8139
  17   2.0000      -0.563621       -15.3369
  18   2.0000      -0.491286       -13.3686
  19   2.0000      -0.453141       -12.3306
  20   2.0000      -0.377887       -10.2828
  21   2.0000      -0.357747        -9.7348
  22   0.0000       0.025839         0.7031
  23   0.0000       0.033700         0.9170
  24   0.0000       0.043941         1.1957
  25   0.0000       0.069663         1.8956
  26   0.0000       0.073264         1.9936

MULLIKEN ATOMIC CHARGES
-----------------------
   0 C :   -0.197872
   1 C :   -0.465138
   2 C :   -0.469684
   3 N :   -0.496239
   4 S :    0.077976
   5 H :    0.434586
   6 H :    0.621258
   7 H :    0.495113
Sum of atomic charges:   -0.0000000

LOEWDIN ATOMIC CHARGES
----------------------
   0 C :    0.063300
   1 C :   -0.182449
   2 C :   -0.202808
   3 N :   -0.074478
   4 S :    1.060309
   5 H :   -0.204200
   6 H :   -0.204776
   7 H :   -0.254898

  Mayer bond orders larger than 0.100000
B(  0-C ,  1-C ) :   1.0130 B(  0-C ,  2-C ) :   1.3831 B(  0-C ,  5-H ) :   0.8719
B(  1-C ,  3-N ) :   1.3811 B(  1-C ,  4-S ) :   0.1550 B(  1-C ,  6-H ) :   0.5701
B(  2-C ,  4-S ) :   1.2286 B(  2-C ,  7-H ) :   0.7768 B(  3-N ,  4-S ) :   1.0592

MP2 TOTAL ENERGY:     -568.245187945 Eh
FINAL SINGLE POINT ENERGY      -568.245187945111

DIPOLE MOMENT
-------------
                                X             Y             Z
Electronic contribution:     -1.02256       3.33127       0.00000
Nuclear contribution   :      1.96139      -3.90757       0.00000
                        -----------------------------------------
Total Dipole Moment    :      0.93883      -0.57630       0.00000
                        -----------------------------------------
Magnitude (a.u.)       :      1.10160
Magnitude (Debye)      :      2.80005

Rotational constants in cm-1:     0.275640     0.193704     0.113760
Rotational constants in MHz :  8263.470995  5807.089486  3410.433835

                             ****ORCA TERMINATED NORMALLY****
TOTAL RUN TIME: 0 days 0 hours 1 minutes 22 seconds 121 msec
