                         Program Version 5.0.3 -  RELEASE  -
|  1> !ri-mp2 aug-cc-pvtz aug-cc-pvtz/c tightscf
|  2> %pal nprocs 16 end
|  3>
|  4> * xyz 0 1
|  5> N     -2.466280   -0.000132   -0.115548
|  6> N      1.326285   -2.243604    0.007368
|  7> N      1.326027    2.243752    0.007368
|  8> C      0.059128    0.000000   -0.004517
|  9> C     -1.277855   -0.000071    0.009938
| 10> C      0.760958   -1.239785    0.001005
| 11> C      0.760821    1.239864    0.001005
| 12> H     -3.120536   -0.000167    0.661103
| 13> *
| 14>
| 15>                          ****END OF INPUT****

CARTESIAN COORDINATES (ANGSTROEM)
---------------------------------
  N     -2.466280   -0.000132   -0.115548
  N      1.326285   -2.243604    0.007368
  N      1.326027    2.243752    0.007368
  C      0.059128    0.000000   -0.004517
  C     -1.277855   -0.000071    0.009938
  C      0.760958   -1.239785    0.001005
  C      0.760821    1.239864    0.001005
  H     -3.120536   -0.000167    0.661103

 Total Charge           Charge          ....    0
 Multiplicity           Mult            ....    1
 Number of Electrons    NEL             ....   46
 Basis Dimension        Dim             ....  345

ORBITAL ENERGIES
----------------

  NO   OCC          E(Eh)            E(eV)
   0   2.0000     -15.672580      -426.4726
   1   2.0000     -15.599953      -424.4963
   2   2.0000     -15.599953      -424.4963
   3   2.0000     -11.417849      -310.6955
   4   2.0000     -11.351731      -308.8963
   5   2.0000     -11.309855      -307.7568
   6   2.0000     -11.309839      -307.7564
   7   2.0000      -1.343048       -36.5462
   8   2.0000      -1.259475       -34.2721
   9   2.0000      -1.244289       -33.8588
  10   2.0000      -1.144106       -31.1327
  11   2.0000      -0.895067       -24.3560
  12   2.0000      -0.831430       -22.6244
  13   2.0000      -0.817832       -22.2543
  14   2.0000      -0.649274       -17.6677
  15   2.0000      -0.593297       -16.1444
  16   2.0000      -0.589279       -16.0351
  17   2.0000      -0.565819       -15.3967
  18   2.0000      -0.563121       -15.3233
  19   2.0000      -0.508535       -13.8379
  20   2.0000      -0.507384       -13.8066
  21   2.0000      -0.492286       -13.3958
  22   2.0000      -0.395033       -10.7494
  23   0.0000       0.009590         0.2610
  24   0.0000       0.051176         1.3926
  25   0.0000       0.056586         1.5398
  26   0.0000       0.058473         1.5911
  27   0.0000       0.062711         1.7064

MULLIKEN ATOMIC CHARGES
-----------------------
   0 N :   -0.540960
   1 N :   -0.573012
   2 N :   -0.573011
   3 C :    1.327432
   4 C :    0.123361
   5 C :   -0.013661
   6 C :   -0.013660
   7 H :    0.263511
Sum of atomic charges:    0.0000000

LOEWDIN ATOMIC CHARGES
----------------------
   0 N :    0.688823
   1 N :    0.273109
   2 N :    0.273109
   3 C :   -0.289636
   4 C :   -0.010987
   5 C :   -0.283304
   6 C :   -0.283303
   7 H :   -0.367812

  Mayer bond orders larger than 0.100000
B(  0-N ,  3-C ) :  -0.1077 B(  0-N ,  4-C ) :   1.5850 B(  0-N ,  7-H ) :   0.8795
B(  1-N ,  3-C ) :  -0.1121 B(  1-N ,  5-C ) :   2.2726 B(  2-N ,  3-C ) :  -0.1121
B(  2-N ,  6-C ) :   2.2726 B(  3-C ,  4-C ) :   0.6881 B(  3-C ,  5-C ) :   0.2977
B(  3-C ,  6-C ) :   0.2977 B(  4-C ,  5-C ) :   0.4107 B(  4-C ,  6-C ) :   0.4107
B(  5-C ,  6-C ) :   0.3692

MP2 TOTAL ENERGY:     -316.611547536 Eh
FINAL SINGLE POINT ENERGY      -316.611547536113

DIPOLE MOMENT
-------------
                                X             Y             Z
Electronic contribution:      0.73891       0.00003      -0.07735
Nuclear contribution   :     -2.95909      -0.00016       0.62656
                        -----------------------------------------
Total Dipole Moment    :     -2.22018      -0.00013       0.54921
                        -----------------------------------------
Magnitude (a.u.)       :      2.28710
Magnitude (Debye)      :      5.81334

Rotational constants in cm-1:     0.094512     0.094413     0.047391
Rotational constants in MHz :  2833.408863  2830.426687  1420.747982

                             ****ORCA TERMINATED NORMALLY****
TOTAL RUN TIME: 0 days 0 hours 1 minutes 35 seconds 173 msec
