                         Program Version 5.0.3 -  RELEASE  -
|  1> !ri-mp2 aug-cc-pvtz aug-cc-pvtz/c tightscf
|  2> %pal nprocs 16 end
|  3>
|  4> * xyz 0 1
|  5> C      0.000000    0.000000   -1.205838
|  6> C      0.000000    0.000000    0.102176
|  7> O      0.000000    0.000000    1.262386
|  8> H      0.000000    0.937241   -1.738559
|  9> H      0.000000   -0.937241   -1.738559
| 10> *
| 11>
| 12>                          ****END OF INPUT****

CARTESIAN COORDINATES (ANGSTROEM)
---------------------------------
  C      0.000000    0.000000   -1.205838
  C      0.000000    0.000000    0.102176
  O      0.000000    0.000000    1.262386
  H      0.000000    0.937241   -1.738559
  H      0.000000   -0.937241   -1.738559

 Total Charge           Charge          ....    0
 Multiplicity           Mult            ....    1
 Number of Electrons    NEL             ....   22
 Basis Dimension        Dim             ....  184

ORBITAL ENERGIES
----------------

  NO   OCC          E(Eh)            E(eV)
   0   2.0000     -20.630351      -561.3804
   1   2.0000     -11.383945      -309.7729
   2   2.0000     -11.240317      -305.8646
   3   2.0000      -1.476417       -40.1753
   4   2.0000      -1.056132       -28.7388
   5   2.0000      -0.760550       -20.6956
   6   2.0000      -0.683101       -18.5881
   7   2.0000      -0.658091       -17.9076
   8   2.0000      -0.645372       -17.5615
   9   2.0000      -0.562921       -15.3179
  10   2.0000      -0.368200       -10.0192
  11   0.0000       0.027572         0.7503
  12   0.0000       0.040972         1.1149
  13   0.0000       0.058437         1.5901
  14   0.0000       0.087841         2.3903
  15   0.0000       0.095765         2.6059

MULLIKEN ATOMIC CHARGES
-----------------------
   0 C :   -0.768625
   1 C :    0.342117
   2 O :   -0.375884
   3 H :    0.401196
   4 H :    0.401196
Sum of atomic charges:   -0.0000000

LOEWDIN ATOMIC CHARGES
----------------------
   0 C :    0.445926
   1 C :   -0.301621
   2 O :    0.401596
   3 H :   -0.272950
   4 H :   -0.272950

  Mayer bond orders larger than 0.100000
B(  0-C ,  1-C ) :   1.6413 B(  0-C ,  2-O ) :  -0.1571 B(  0-C ,  3-H ) :   0.8328
B(  0-C ,  4-H ) :   0.8328 B(  1-C ,  2-O ) :   2.0159

MP2 TOTAL ENERGY:     -152.334343780 Eh
FINAL SINGLE POINT ENERGY      -152.334343779937

DIPOLE MOMENT
-------------
                                X             Y             Z
Electronic contribution:     -0.00000      -0.00000       2.69279
Nuclear contribution   :      0.00000       0.00000      -3.39805
                        -----------------------------------------
Total Dipole Moment    :     -0.00000      -0.00000      -0.70526
                        -----------------------------------------
Magnitude (a.u.)       :      0.70526
Magnitude (Debye)      :      1.79263

Rotational constants in cm-1:     9.519274     0.344745     0.332696
Rotational constants in MHz : 285380.647312 10335.183505  9973.971805

                             ****ORCA TERMINATED NORMALLY****
TOTAL RUN TIME: 0 days 0 hours 0 minutes 37 seconds 545 msec
