                         Program Version 5.0.3 -  RELEASE  -
|  1> !ri-mp2 aug-cc-pvtz aug-cc-pvtz/c tightscf
|  2> %pal nprocs 16 end
|  3> %maxcore 3800
|  4>
|  5> * xyz 0 1
|  6> N      1.748606    1.711717   -0.110623
|  7> C      1.505536    0.334496    0.352601
|  8> C      2.743343   -0.539294    0.053037
|  9> O      2.755177   -1.732408    0.197432
| 10> O      3.816383    0.153863   -0.349539
| 11> H      3.520520    1.090385   -0.381692
| 12> C      0.229447   -0.318859   -0.188199
| 13> C     -1.059289    0.316065    0.333331
| 14> C     -2.318639   -0.348453   -0.223242
| 15> C     -3.608418    0.279792    0.294578
| 16> N     -4.779870   -0.416009   -0.243436
| 17> H      1.447816    0.361100    1.444428
| 18> H      0.251892   -0.273372   -1.283075
| 19> H      0.258775   -1.376399    0.073343
| 20> H     -1.070260    0.251414    1.426664
| 21> H     -1.077545    1.383378    0.090243
| 22> H     -2.306561   -0.289099   -1.317231
| 23> H     -2.322972   -1.411934    0.025905
| 24> H     -3.642216    0.188063    1.382961
| 25> H     -3.599403    1.356577    0.069884
| 26> H     -5.636961   -0.050753    0.151625
| 27> H     -4.841888   -0.299571   -1.247876
| 28> H      1.314168    1.882851   -1.009374
| 29> H      1.399106    2.403285    0.536824
| 30> *
| 31>
| 32>                          ****END OF INPUT****

CARTESIAN COORDINATES (ANGSTROEM)
---------------------------------
  N      1.748606    1.711717   -0.110623
  C      1.505536    0.334496    0.352601
  C      2.743343   -0.539294    0.053037
  O      2.755177   -1.732408    0.197432
  O      3.816383    0.153863   -0.349539
  H      3.520520    1.090385   -0.381692
  C      0.229447   -0.318859   -0.188199
  C     -1.059289    0.316065    0.333331
  C     -2.318639   -0.348453   -0.223242
  C     -3.608418    0.279792    0.294578
  N     -4.779870   -0.416009   -0.243436
  H      1.447816    0.361100    1.444428
  H      0.251892   -0.273372   -1.283075
  H      0.258775   -1.376399    0.073343
  H     -1.070260    0.251414    1.426664
  H     -1.077545    1.383378    0.090243
  H     -2.306561   -0.289099   -1.317231
  H     -2.322972   -1.411934    0.025905
  H     -3.642216    0.188063    1.382961
  H     -3.599403    1.356577    0.069884
  H     -5.636961   -0.050753    0.151625
  H     -4.841888   -0.299571   -1.247876
  H      1.314168    1.882851   -1.009374
  H      1.399106    2.403285    0.536824

 Total Charge           Charge          ....    0
 Multiplicity           Mult            ....    1
 Number of Electrons    NEL             ....   80
 Basis Dimension        Dim             ....  782

ORBITAL ENERGIES
----------------

  NO   OCC          E(Eh)            E(eV)
   0   2.0000     -20.593390      -560.3746
   1   2.0000     -20.532608      -558.7207
   2   2.0000     -15.583004      -424.0351
   3   2.0000     -15.545010      -423.0012
   4   2.0000     -11.371719      -309.4402
   5   2.0000     -11.292404      -307.2819
   6   2.0000     -11.255249      -306.2709
   7   2.0000     -11.238276      -305.8090
   8   2.0000     -11.235700      -305.7389
   9   2.0000     -11.226314      -305.4835
  10   2.0000      -1.448560       -39.4173
  11   2.0000      -1.353066       -36.8188
  12   2.0000      -1.222831       -33.2749
  13   2.0000      -1.183874       -32.2149
  14   2.0000      -1.084411       -29.5083
  15   2.0000      -1.011308       -27.5191
  16   2.0000      -0.932982       -25.3877
  17   2.0000      -0.848155       -23.0795
  18   2.0000      -0.808799       -22.0085
  19   2.0000      -0.799543       -21.7567
  20   2.0000      -0.736887       -20.0517
  21   2.0000      -0.696229       -18.9454
  22   2.0000      -0.672276       -18.2936
  23   2.0000      -0.665590       -18.1116
  24   2.0000      -0.648521       -17.6471
  25   2.0000      -0.626044       -17.0355
  26   2.0000      -0.620416       -16.8824
  27   2.0000      -0.608162       -16.5489
  28   2.0000      -0.589186       -16.0326
  29   2.0000      -0.566898       -15.4261
  30   2.0000      -0.547159       -14.8889
  31   2.0000      -0.533823       -14.5261
  32   2.0000      -0.508623       -13.8403
  33   2.0000      -0.491965       -13.3870
  34   2.0000      -0.483321       -13.1518
  35   2.0000      -0.480253       -13.0684
  36   2.0000      -0.464721       -12.6457
  37   2.0000      -0.461665       -12.5625
  38   2.0000      -0.414481       -11.2786
  39   2.0000      -0.395242       -10.7551
  40   0.0000       0.017368         0.4726
  41   0.0000       0.026699         0.7265
  42   0.0000       0.028805         0.7838
  43   0.0000       0.037923         1.0319
  44   0.0000       0.044888         1.2215

MULLIKEN ATOMIC CHARGES
-----------------------
   0 N :   -0.568349
   1 C :    0.521107
   2 C :    0.509145
   3 O :   -0.806623
   4 O :   -0.575936
   5 H :    0.253701
   6 C :   -0.409724
   7 C :   -0.249477
   8 C :   -0.450175
   9 C :   -0.193628
  10 N :   -0.625535
  11 H :    0.369917
  12 H :    0.226024
  13 H :    0.284968
  14 H :    0.204732
  15 H :    0.264599
  16 H :    0.212802
  17 H :    0.205595
  18 H :    0.263033
  19 H :    0.215310
  20 H :    0.083719
  21 H :    0.099404
  22 H :    0.105714
  23 H :    0.059679
Sum of atomic charges:   -0.0000000

LOEWDIN ATOMIC CHARGES
----------------------
   0 N :    0.871083
   1 C :   -0.095436
   2 C :   -0.769393
   3 O :    0.438634
   4 O :    0.839589
   5 H :   -0.594688
   6 C :    0.291896
   7 C :    0.277269
   8 C :    0.276509
   9 C :    0.146575
  10 N :    0.840066
  11 H :   -0.132592
  12 H :   -0.132939
  13 H :   -0.155364
  14 H :   -0.136865
  15 H :   -0.147593
  16 H :   -0.141526
  17 H :   -0.139878
  18 H :   -0.150488
  19 H :   -0.145334
  20 H :   -0.328589
  21 H :   -0.328098
  22 H :   -0.292096
  23 H :   -0.290742

  Mayer bond orders larger than 0.100000
B(  0-N ,  1-C ) :   0.5275 B(  0-N ,  2-C ) :   0.2132 B(  0-N ,  5-H ) :   0.1237
B(  0-N , 22-H ) :   0.9850 B(  0-N , 23-H ) :   1.0589 B(  1-C ,  2-C ) :   0.5247
B(  1-C ,  4-O ) :   0.1098 B(  1-C ,  6-C ) :   0.9493 B(  1-C , 11-H ) :   0.9093
B(  2-C ,  3-O ) :   1.3528 B(  2-C ,  4-O ) :   0.7160 B(  2-C ,  6-C ) :   0.1538
B(  4-O ,  5-H ) :   0.8483 B(  6-C ,  7-C ) :   0.8343 B(  6-C , 12-H ) :   1.0090
B(  6-C , 13-H ) :   0.9268 B(  7-C ,  8-C ) :   0.9245 B(  7-C , 14-H ) :   0.9847
B(  7-C , 15-H ) :   0.9366 B(  8-C ,  9-C ) :   0.9854 B(  8-C , 16-H ) :   0.9678
B(  8-C , 17-H ) :   0.9715 B(  9-C , 10-N ) :   0.7550 B(  9-C , 18-H ) :   0.9492
B(  9-C , 19-H ) :   0.9907 B( 10-N , 20-H ) :   1.0129 B( 10-N , 21-H ) :   0.9896

MP2 TOTAL ENERGY:     -496.144467326 Eh
FINAL SINGLE POINT ENERGY      -496.144467325814

DIPOLE MOMENT
-------------
                                X             Y             Z
Electronic contribution:     15.10268      -3.10850      -0.01335
Nuclear contribution   :    -16.66972       5.34287      -0.04301
                        -----------------------------------------
Total Dipole Moment    :     -1.56703       2.23437      -0.05635
                        -----------------------------------------
Magnitude (a.u.)       :      2.72969
Magnitude (Debye)      :      6.93831

Rotational constants in cm-1:     0.119442     0.014013     0.012947
Rotational constants in MHz :  3580.795737   420.094066   388.145451

                             ****ORCA TERMINATED NORMALLY****
TOTAL RUN TIME: 0 days 0 hours 15 minutes 22 seconds 657 msec
