                         Program Version 5.0.3 -  RELEASE  -
|  1> !ri-mp2 aug-cc-pvtz aug-cc-pvtz/c tightscf
|  2> %pal nprocs 16 end
|  3> %maxcore 3800
|  4>
|  5> * xyz 0 1
|  6> N      0.889792    1.733167   -0.084168
|  7> C      0.653062    0.324866    0.279326
|  8> C      1.942908   -0.495104    0.057054
|  9> O      1.987940   -1.690661    0.174653
| 10> O      3.015494    0.245946   -0.248211
| 11> H      2.687089    1.172239   -0.274368
| 12> C     -0.530559   -0.332551   -0.440004
| 13> C     -1.916908    0.221973   -0.078321
| 14> C     -2.973038   -0.350115   -1.029174
| 15> C     -2.296085   -0.059131    1.378824
| 16> H      0.489109    0.281675    1.357974
| 17> H     -0.369734   -0.225663   -1.518607
| 18> H     -0.496406   -1.403150   -0.233024
| 19> H     -1.902453    1.308771   -0.219438
| 20> H     -3.962107    0.053227   -0.807413
| 21> H     -2.741372   -0.116292   -2.069654
| 22> H     -3.029551   -1.437289   -0.938398
| 23> H     -3.288045    0.335699    1.602720
| 24> H     -2.313437   -1.133743    1.574081
| 25> H     -1.600962    0.393952    2.087128
| 26> H      0.485395    1.959508   -0.984328
| 27> H      0.510182    2.376995    0.594739
| 28> *
| 29>
| 30>                          ****END OF INPUT****

CARTESIAN COORDINATES (ANGSTROEM)
---------------------------------
  N      0.889792    1.733167   -0.084168
  C      0.653062    0.324866    0.279326
  C      1.942908   -0.495104    0.057054
  O      1.987940   -1.690661    0.174653
  O      3.015494    0.245946   -0.248211
  H      2.687089    1.172239   -0.274368
  C     -0.530559   -0.332551   -0.440004
  C     -1.916908    0.221973   -0.078321
  C     -2.973038   -0.350115   -1.029174
  C     -2.296085   -0.059131    1.378824
  H      0.489109    0.281675    1.357974
  H     -0.369734   -0.225663   -1.518607
  H     -0.496406   -1.403150   -0.233024
  H     -1.902453    1.308771   -0.219438
  H     -3.962107    0.053227   -0.807413
  H     -2.741372   -0.116292   -2.069654
  H     -3.029551   -1.437289   -0.938398
  H     -3.288045    0.335699    1.602720
  H     -2.313437   -1.133743    1.574081
  H     -1.600962    0.393952    2.087128
  H      0.485395    1.959508   -0.984328
  H      0.510182    2.376995    0.594739

 Total Charge           Charge          ....    0
 Multiplicity           Mult            ....    1
 Number of Electrons    NEL             ....   72
 Basis Dimension        Dim             ....  713

ORBITAL ENERGIES
----------------

  NO   OCC          E(Eh)            E(eV)
   0   2.0000     -20.592688      -560.3555
   1   2.0000     -20.531674      -558.6953
   2   2.0000     -15.582414      -424.0190
   3   2.0000     -11.370858      -309.4168
   4   2.0000     -11.291143      -307.2476
   5   2.0000     -11.242973      -305.9369
   6   2.0000     -11.236834      -305.7698
   7   2.0000     -11.224245      -305.4272
   8   2.0000     -11.222375      -305.3763
   9   2.0000      -1.447845       -39.3979
  10   2.0000      -1.352229       -36.7960
  11   2.0000      -1.222243       -33.2589
  12   2.0000      -1.101375       -29.9699
  13   2.0000      -1.006415       -27.3860
  14   2.0000      -0.942972       -25.6596
  15   2.0000      -0.900606       -24.5067
  16   2.0000      -0.803217       -21.8567
  17   2.0000      -0.782357       -21.2890
  18   2.0000      -0.736007       -20.0278
  19   2.0000      -0.698322       -19.0023
  20   2.0000      -0.666525       -18.1371
  21   2.0000      -0.641296       -17.4505
  22   2.0000      -0.622735       -16.9455
  23   2.0000      -0.620643       -16.8886
  24   2.0000      -0.605277       -16.4704
  25   2.0000      -0.575888       -15.6707
  26   2.0000      -0.553964       -15.0741
  27   2.0000      -0.548808       -14.9338
  28   2.0000      -0.545080       -14.8324
  29   2.0000      -0.521224       -14.1832
  30   2.0000      -0.484448       -13.1825
  31   2.0000      -0.479634       -13.0515
  32   2.0000      -0.475333       -12.9345
  33   2.0000      -0.463952       -12.6248
  34   2.0000      -0.459648       -12.5076
  35   2.0000      -0.412896       -11.2355
  36   0.0000       0.017975         0.4891
  37   0.0000       0.029240         0.7957
  38   0.0000       0.030839         0.8392
  39   0.0000       0.038314         1.0426
  40   0.0000       0.048865         1.3297

MULLIKEN ATOMIC CHARGES
-----------------------
   0 N :   -0.555433
   1 C :    0.456627
   2 C :    0.506512
   3 O :   -0.818432
   4 O :   -0.570207
   5 H :    0.248775
   6 C :   -0.372463
   7 C :    0.333242
   8 C :   -1.195430
   9 C :   -1.115941
  10 H :    0.391856
  11 H :    0.328776
  12 H :    0.311180
  13 H :    0.328199
  14 H :    0.256844
  15 H :    0.244464
  16 H :    0.264605
  17 H :    0.246141
  18 H :    0.261902
  19 H :    0.307762
  20 H :    0.105357
  21 H :    0.035662
Sum of atomic charges:    0.0000000

LOEWDIN ATOMIC CHARGES
----------------------
   0 N :    0.876148
   1 C :   -0.090708
   2 C :   -0.767355
   3 O :    0.439086
   4 O :    0.840082
   5 H :   -0.595193
   6 C :    0.295383
   7 C :   -0.048447
   8 C :    0.590024
   9 C :    0.593986
  10 H :   -0.150161
  11 H :   -0.135423
  12 H :   -0.152071
  13 H :   -0.139576
  14 H :   -0.164114
  15 H :   -0.164077
  16 H :   -0.156915
  17 H :   -0.162248
  18 H :   -0.153752
  19 H :   -0.174171
  20 H :   -0.292593
  21 H :   -0.287908

  Mayer bond orders larger than 0.100000
B(  0-N ,  1-C ) :   0.5416 B(  0-N ,  2-C ) :   0.1842 B(  0-N ,  5-H ) :   0.1278
B(  0-N , 20-H ) :   0.9730 B(  0-N , 21-H ) :   1.0913 B(  1-C ,  2-C ) :   0.6060
B(  1-C ,  4-O ) :   0.1315 B(  1-C ,  6-C ) :   0.9590 B(  1-C , 10-H ) :   0.9125
B(  2-C ,  3-O ) :   1.3576 B(  2-C ,  4-O ) :   0.6948 B(  4-O ,  5-H ) :   0.8537
B(  6-C ,  7-C ) :   0.8313 B(  6-C ,  9-C ) :   0.1067 B(  6-C , 11-H ) :   0.9596
B(  6-C , 12-H ) :   0.8917 B(  7-C ,  8-C ) :   0.6895 B(  7-C ,  9-C ) :   0.6754
B(  7-C , 13-H ) :   0.8706 B(  8-C ,  9-C ) :   0.1727 B(  8-C , 14-H ) :   1.0215
B(  8-C , 15-H ) :   1.0168 B(  8-C , 16-H ) :   0.9927 B(  9-C , 17-H ) :   1.0183
B(  9-C , 18-H ) :   0.9842 B(  9-C , 19-H ) :   0.9505

MP2 TOTAL ENERGY:     -440.887974446 Eh
FINAL SINGLE POINT ENERGY      -440.887974446354

DIPOLE MOMENT
-------------
                                X             Y             Z
Electronic contribution:     14.33887      -1.92231      -0.16883
Nuclear contribution   :    -15.92471       3.66293       0.17499
                        -----------------------------------------
Total Dipole Moment    :     -1.58584       1.74062       0.00617
                        -----------------------------------------
Magnitude (a.u.)       :      2.35472
Magnitude (Debye)      :      5.98521

Rotational constants in cm-1:     0.095699     0.027602     0.025394
Rotational constants in MHz :  2868.974913   827.490373   761.284825

                             ****ORCA TERMINATED NORMALLY****
TOTAL RUN TIME: 0 days 0 hours 12 minutes 39 seconds 451 msec
