                         Program Version 5.0.3 -  RELEASE  -
|  1> !ri-mp2 aug-cc-pvtz aug-cc-pvtz/c tightscf
|  2> %pal nprocs 16 end
|  3>
|  4> * xyz 0 1
|  5> C     -0.048962    0.706625        0.000000
|  6> N     -0.048962   -0.757428        0.000000
|  7> H      0.945026    1.171177        0.000000
|  8> H     -0.587216    1.065175        0.877567
|  9> H     -0.587216    1.065175       -0.877567
| 10> H      0.432957   -1.119643        0.812861
| 11> H      0.432957   -1.119643       -0.812861
| 12> *
| 13>
| 14>                          ****END OF INPUT****

CARTESIAN COORDINATES (ANGSTROEM)
---------------------------------
  C     -0.048962    0.706625    0.000000
  N     -0.048962   -0.757428    0.000000
  H      0.945026    1.171177    0.000000
  H     -0.587216    1.065175    0.877567
  H     -0.587216    1.065175   -0.877567
  H      0.432957   -1.119643    0.812861
  H      0.432957   -1.119643   -0.812861

 Total Charge           Charge          ....    0
 Multiplicity           Mult            ....    1
 Number of Electrons    NEL             ....   18
 Basis Dimension        Dim             ....  207

ORBITAL ENERGIES
----------------

  NO   OCC          E(Eh)            E(eV)
   0   2.0000     -15.539235      -422.8441
   1   2.0000     -11.241656      -305.9010
   2   2.0000      -1.168386       -31.7934
   3   2.0000      -0.895933       -24.3796
   4   2.0000      -0.662216       -18.0198
   5   2.0000      -0.602473       -16.3941
   6   2.0000      -0.557247       -15.1635
   7   2.0000      -0.517310       -14.0767
   8   2.0000      -0.389715       -10.6047
   9   0.0000       0.029611         0.8057
  10   0.0000       0.042823         1.1653
  11   0.0000       0.043899         1.1945
  12   0.0000       0.049254         1.3403
  13   0.0000       0.068877         1.8743

MULLIKEN ATOMIC CHARGES
-----------------------
   0 C :   -0.741799
   1 N :   -0.498543
   2 H :    0.309493
   3 H :    0.326009
   4 H :    0.326009
   5 H :    0.139415
   6 H :    0.139415
Sum of atomic charges:    0.0000000

LOEWDIN ATOMIC CHARGES
----------------------
   0 C :    0.436093
   1 N :    0.803908
   2 H :   -0.180621
   3 H :   -0.187451
   4 H :   -0.187451
   5 H :   -0.342239
   6 H :   -0.342239

  Mayer bond orders larger than 0.100000
B(  0-C ,  1-N ) :   0.8316 B(  0-C ,  2-H ) :   0.8987 B(  0-C ,  3-H ) :   0.9066
B(  0-C ,  4-H ) :   0.9066 B(  1-N ,  5-H ) :   0.9793 B(  1-N ,  6-H ) :   0.9793

MP2 TOTAL ENERGY:      -95.667092873 Eh
FINAL SINGLE POINT ENERGY       -95.667092873316

DIPOLE MOMENT
-------------
                                X             Y             Z
Electronic contribution:     -0.17755      -0.99671       0.00000
Nuclear contribution   :      0.69250       1.15137       0.00000
                        -----------------------------------------
Total Dipole Moment    :      0.51494       0.15465       0.00000
                        -----------------------------------------
Magnitude (a.u.)       :      0.53767
Magnitude (Debye)      :      1.36664

Rotational constants in cm-1:     3.477185     0.758754     0.728547
Rotational constants in MHz : 104243.391778 22746.878696 21841.295162

                             ****ORCA TERMINATED NORMALLY****
TOTAL RUN TIME: 0 days 0 hours 0 minutes 37 seconds 85 msec
