                         Program Version 5.0.3 -  RELEASE  -
|  1> !ri-mp2 aug-cc-pvtz aug-cc-pvtz/c tightscf
|  2> %pal nprocs 16 end
|  3>
|  4> * xyz 0 1
|  5> O     2.016475   -1.532303    0.023208
|  6> O    -1.977891   -0.721593   -0.043326
|  7> O    -1.306736    1.428753    0.077244
|  8> N     0.673411   -1.516062    0.017123
|  9> N     2.549934   -0.243148    0.003763
| 10> N     1.568662    1.902573   -0.089651
| 11> C     0.322741   -0.259915   -0.006268
| 12> C     1.509470    0.550011   -0.017954
| 13> C    -1.061961    0.241317    0.012304
| 14> C    -3.352842   -0.290458   -0.016320
| 15> H     0.715764    2.400412    0.105126
| 16> H     2.442779    2.350901    0.120191
| 17> H    -3.562178    0.355303   -0.866446
| 18> H    -3.561230    0.246902    0.906438
| 19> H    -3.938417   -1.201652   -0.071525
| 20> *
| 21>
| 22>                          ****END OF INPUT****

CARTESIAN COORDINATES (ANGSTROEM)
---------------------------------
  O      2.016475   -1.532303    0.023208
  O     -1.977891   -0.721593   -0.043326
  O     -1.306736    1.428753    0.077244
  N      0.673411   -1.516062    0.017123
  N      2.549934   -0.243148    0.003763
  N      1.568662    1.902573   -0.089651
  C      0.322741   -0.259915   -0.006268
  C      1.509470    0.550011   -0.017954
  C     -1.061961    0.241317    0.012304
  C     -3.352842   -0.290458   -0.016320
  H      0.715764    2.400412    0.105126
  H      2.442779    2.350901    0.120191
  H     -3.562178    0.355303   -0.866446
  H     -3.561230    0.246902    0.906438
  H     -3.938417   -1.201652   -0.071525

 Total Charge           Charge          ....    0
 Multiplicity           Mult            ....    1
 Number of Electrons    NEL             ....   74
 Basis Dimension        Dim             ....  575

ORBITAL ENERGIES
----------------

  NO   OCC          E(Eh)            E(eV)
   0   2.0000     -20.686719      -562.9142
   1   2.0000     -20.632181      -561.4302
   2   2.0000     -20.579216      -559.9889
   3   2.0000     -15.687033      -426.8659
   4   2.0000     -15.629846      -425.3097
   5   2.0000     -15.595695      -424.3804
   6   2.0000     -11.422201      -310.8139
   7   2.0000     -11.345040      -308.7142
   8   2.0000     -11.310685      -307.7794
   9   2.0000     -11.305404      -307.6357
  10   2.0000      -1.550597       -42.1939
  11   2.0000      -1.493183       -40.6316
  12   2.0000      -1.392703       -37.8974
  13   2.0000      -1.278182       -34.7811
  14   2.0000      -1.215631       -33.0790
  15   2.0000      -1.145834       -31.1797
  16   2.0000      -1.013349       -27.5746
  17   2.0000      -0.921520       -25.0758
  18   2.0000      -0.859819       -23.3969
  19   2.0000      -0.815005       -22.1774
  20   2.0000      -0.764373       -20.7997
  21   2.0000      -0.728401       -19.8208
  22   2.0000      -0.708937       -19.2912
  23   2.0000      -0.706776       -19.2323
  24   2.0000      -0.694271       -18.8921
  25   2.0000      -0.687925       -18.7194
  26   2.0000      -0.635426       -17.2908
  27   2.0000      -0.601819       -16.3763
  28   2.0000      -0.584124       -15.8948
  29   2.0000      -0.554560       -15.0904
  30   2.0000      -0.542245       -14.7552
  31   2.0000      -0.531254       -14.4562
  32   2.0000      -0.493609       -13.4318
  33   2.0000      -0.492250       -13.3948
  34   2.0000      -0.490491       -13.3469
  35   2.0000      -0.439269       -11.9531
  36   2.0000      -0.377479       -10.2717
  37   0.0000       0.024062         0.6547
  38   0.0000       0.030054         0.8178
  39   0.0000       0.043277         1.1776
  40   0.0000       0.044680         1.2158
  41   0.0000       0.059031         1.6063

MULLIKEN ATOMIC CHARGES
-----------------------
   0 O :   -0.234401
   1 O :   -0.370189
   2 O :   -0.909754
   3 N :   -0.431885
   4 N :   -0.450690
   5 N :   -0.421189
   6 C :    0.863780
   7 C :    0.569558
   8 C :    0.735131
   9 C :   -0.824480
  10 H :    0.190817
  11 H :    0.179708
  12 H :    0.374952
  13 H :    0.377814
  14 H :    0.350828
Sum of atomic charges:    0.0000000

LOEWDIN ATOMIC CHARGES
----------------------
   0 O :    0.244946
   1 O :    0.567594
   2 O :    0.486027
   3 N :    0.165996
   4 N :    0.175837
   5 N :    0.860693
   6 C :   -0.352877
   7 C :   -0.511235
   8 C :   -0.835222
   9 C :    0.383748
  10 H :   -0.361316
  11 H :   -0.286253
  12 H :   -0.178004
  13 H :   -0.177755
  14 H :   -0.182179

  Mayer bond orders larger than 0.100000
B(  0-O ,  3-N ) :   0.7446 B(  0-O ,  4-N ) :   0.6733 B(  1-O ,  8-C ) :   0.9117
B(  1-O ,  9-C ) :   0.8220 B(  2-O ,  6-C ) :  -0.2494 B(  2-O ,  7-C ) :   0.1132
B(  2-O ,  8-C ) :   1.6245 B(  3-N ,  6-C ) :   1.1573 B(  3-N ,  8-C ) :  -0.3294
B(  4-N ,  6-C ) :   0.1513 B(  4-N ,  7-C ) :   0.7951 B(  5-N ,  7-C ) :   0.8934
B(  5-N , 10-H ) :   1.0330 B(  5-N , 11-H ) :   0.9960 B(  6-C ,  7-C ) :   1.1236
B(  6-C ,  8-C ) :   0.7248 B(  7-C ,  8-C ) :   0.2614 B(  9-C , 12-H ) :   0.8744
B(  9-C , 13-H ) :   0.8740 B(  9-C , 14-H ) :   0.9030

MP2 TOTAL ENERGY:     -544.406105105 Eh
FINAL SINGLE POINT ENERGY      -544.406105105171

DIPOLE MOMENT
-------------
                                X             Y             Z
Electronic contribution:      6.48514      -3.10507      -0.00615
Nuclear contribution   :     -7.66759       4.02038       0.18868
                        -----------------------------------------
Total Dipole Moment    :     -1.18244       0.91531       0.18253
                        -----------------------------------------
Magnitude (a.u.)       :      1.50641
Magnitude (Debye)      :      3.82900

Rotational constants in cm-1:     0.092153     0.032828     0.024336
Rotational constants in MHz :  2762.663802   984.158851   729.580597

                             ****ORCA TERMINATED NORMALLY****
TOTAL RUN TIME: 0 days 0 hours 7 minutes 4 seconds 938 msec
