                         Program Version 5.0.3 -  RELEASE  -
|  1> !ri-mp2 aug-cc-pvtz aug-cc-pvtz/c tightscf
|  2> %pal nprocs 16 end
|  3>
|  4> * xyz 0 1
|  5> C      0.157346    2.550685    0.000000
|  6> C      0.000000    1.065125    0.000000
|  7> C      1.254968    0.250008    0.000000
|  8> C     -1.184685    0.435491    0.000000
|  9> O      2.350763    0.783788    0.000000
| 10> C      1.133424   -1.225777    0.000000
| 11> C     -1.308516   -1.034538    0.000000
| 12> C     -0.057139   -1.827836    0.000000
| 13> O     -2.399405   -1.581506    0.000000
| 14> H     -0.810637    3.047202    0.000000
| 15> H      0.726761    2.875723    0.872072
| 16> H      0.726761    2.875723   -0.872072
| 17> H     -2.120792    0.980088    0.000000
| 18> H      2.067297   -1.772322    0.000000
| 19> H     -0.172634   -2.903622    0.000000
| 20> *
| 21>
| 22>                          ****END OF INPUT****

CARTESIAN COORDINATES (ANGSTROEM)
---------------------------------
  C      0.157346    2.550685    0.000000
  C      0.000000    1.065125    0.000000
  C      1.254968    0.250008    0.000000
  C     -1.184685    0.435491    0.000000
  O      2.350763    0.783788    0.000000
  C      1.133424   -1.225777    0.000000
  C     -1.308516   -1.034538    0.000000
  C     -0.057139   -1.827836    0.000000
  O     -2.399405   -1.581506    0.000000
  H     -0.810637    3.047202    0.000000
  H      0.726761    2.875723    0.872072
  H      0.726761    2.875723   -0.872072
  H     -2.120792    0.980088    0.000000
  H      2.067297   -1.772322    0.000000
  H     -0.172634   -2.903622    0.000000

 Total Charge           Charge          ....    0
 Multiplicity           Mult            ....    1
 Number of Electrons    NEL             ....   64
 Basis Dimension        Dim             ....  552

ORBITAL ENERGIES
----------------

  NO   OCC          E(Eh)            E(eV)
   0   2.0000     -20.578688      -559.9746
   1   2.0000     -20.572671      -559.8108
   2   2.0000     -11.359821      -309.1164
   3   2.0000     -11.355526      -308.9996
   4   2.0000     -11.287616      -307.1516
   5   2.0000     -11.279519      -306.9313
   6   2.0000     -11.277783      -306.8841
   7   2.0000     -11.268701      -306.6370
   8   2.0000     -11.243625      -305.9546
   9   2.0000      -1.414698       -38.4959
  10   2.0000      -1.406845       -38.2822
  11   2.0000      -1.162358       -31.6294
  12   2.0000      -1.092726       -29.7346
  13   2.0000      -0.991561       -26.9817
  14   2.0000      -0.943010       -25.6606
  15   2.0000      -0.855356       -23.2754
  16   2.0000      -0.813677       -22.1413
  17   2.0000      -0.721977       -19.6460
  18   2.0000      -0.705657       -19.2019
  19   2.0000      -0.678133       -18.4529
  20   2.0000      -0.631007       -17.1706
  21   2.0000      -0.618634       -16.8339
  22   2.0000      -0.614078       -16.7099
  23   2.0000      -0.600505       -16.3406
  24   2.0000      -0.575923       -15.6717
  25   2.0000      -0.570078       -15.5126
  26   2.0000      -0.557371       -15.1668
  27   2.0000      -0.548706       -14.9311
  28   2.0000      -0.461388       -12.5550
  29   2.0000      -0.437393       -11.9021
  30   2.0000      -0.413792       -11.2598
  31   2.0000      -0.395562       -10.7638
  32   0.0000       0.006766         0.1841
  33   0.0000       0.026199         0.7129
  34   0.0000       0.029147         0.7931
  35   0.0000       0.038626         1.0511
  36   0.0000       0.045778         1.2457

MULLIKEN ATOMIC CHARGES
-----------------------
   0 C :   -0.921390
   1 C :    0.966965
   2 C :    0.736436
   3 C :   -0.857142
   4 O :   -1.063417
   5 C :   -0.598200
   6 C :    1.072104
   7 C :   -0.586856
   8 O :   -1.016613
   9 H :    0.247152
  10 H :    0.287702
  11 H :    0.287702
  12 H :    0.329041
  13 H :    0.589800
  14 H :    0.526718
Sum of atomic charges:    0.0000000

LOEWDIN ATOMIC CHARGES
----------------------
   0 C :    0.576177
   1 C :   -0.100375
   2 C :   -0.532803
   3 C :    0.238964
   4 O :    0.489096
   5 C :    0.230168
   6 C :   -0.560543
   7 C :    0.228746
   8 O :    0.466970
   9 H :   -0.173547
  10 H :   -0.162698
  11 H :   -0.162698
  12 H :   -0.177831
  13 H :   -0.180608
  14 H :   -0.179018

  Mayer bond orders larger than 0.100000
B(  0-C ,  1-C ) :   0.4990 B(  0-C ,  2-C ) :   0.1866 B(  0-C ,  9-H ) :   1.0298
B(  0-C , 10-H ) :   0.9722 B(  0-C , 11-H ) :   0.9722 B(  1-C ,  2-C ) :   0.8865
B(  1-C ,  3-C ) :   1.3039 B(  1-C ,  8-O ) :   0.1165 B(  2-C ,  3-C ) :   0.1102
B(  2-C ,  4-O ) :   0.8833 B(  2-C ,  5-C ) :   0.9852 B(  3-C ,  5-C ) :  -0.1619
B(  3-C ,  6-C ) :   0.8632 B(  3-C ,  7-C ) :   0.1444 B(  3-C , 12-H ) :   0.8730
B(  5-C ,  7-C ) :   1.8424 B(  5-C , 13-H ) :   0.4828 B(  6-C ,  7-C ) :   0.8458
B(  6-C ,  8-O ) :   0.9089 B(  7-C , 14-H ) :   0.6033

MP2 TOTAL ENERGY:     -419.999703499 Eh
FINAL SINGLE POINT ENERGY      -419.999703499286

DIPOLE MOMENT
-------------
                                X             Y             Z
Electronic contribution:     -0.24972      -4.73314       0.00000
Nuclear contribution   :      0.40943       5.00993       0.00000
                        -----------------------------------------
Total Dipole Moment    :      0.15971       0.27678       0.00000
                        -----------------------------------------
Magnitude (a.u.)       :      0.31955
Magnitude (Debye)      :      0.81224

Rotational constants in cm-1:     0.099009     0.048143     0.032584
Rotational constants in MHz :  2968.226898  1443.299808   976.857523

                             ****ORCA TERMINATED NORMALLY****
TOTAL RUN TIME: 0 days 0 hours 7 minutes 4 seconds 39 msec
