                         Program Version 5.0.3 -  RELEASE  -
|  1> !ri-mp2 aug-cc-pvtz aug-cc-pvtz/c tightscf
|  2> %pal nprocs 16 end
|  3>
|  4> * xyz 0 1
|  5> C     -1.716415   -1.342580    0.000000
|  6> C      1.817500    0.896420    0.000000
|  7> C     -0.231871   -1.002452    0.000000
|  8> S      0.000000    0.813744    0.000000
|  9> H     -2.213283   -0.938659    0.882278
| 10> H     -2.213283   -0.938659   -0.882278
| 11> H     -1.855592   -2.424603    0.000000
| 12> H      2.231538    0.426391    0.891139
| 13> H      2.087879    1.950284    0.000000
| 14> H      2.231538    0.426391   -0.891139
| 15> H      0.257960   -1.414687   -0.883038
| 16> H      0.257960   -1.414687    0.883038
| 17> *
| 18>
| 19>                          ****END OF INPUT****

CARTESIAN COORDINATES (ANGSTROEM)
---------------------------------
  C     -1.716415   -1.342580    0.000000
  C      1.817500    0.896420    0.000000
  C     -0.231871   -1.002452    0.000000
  S      0.000000    0.813744    0.000000
  H     -2.213283   -0.938659    0.882278
  H     -2.213283   -0.938659   -0.882278
  H     -1.855592   -2.424603    0.000000
  H      2.231538    0.426391    0.891139
  H      2.087879    1.950284    0.000000
  H      2.231538    0.426391   -0.891139
  H      0.257960   -1.414687   -0.883038
  H      0.257960   -1.414687    0.883038

 Total Charge           Charge          ....    0
 Multiplicity           Mult            ....    1
 Number of Electrons    NEL             ....   42
 Basis Dimension        Dim             ....  372

ORBITAL ENERGIES
----------------

  NO   OCC          E(Eh)            E(eV)
   0   2.0000     -91.940786     -2501.8360
   1   2.0000     -11.255298      -306.2722
   2   2.0000     -11.249448      -306.1131
   3   2.0000     -11.222569      -305.3816
   4   2.0000      -8.940920      -243.2948
   5   2.0000      -6.622195      -180.1991
   6   2.0000      -6.621276      -180.1741
   7   2.0000      -6.620304      -180.1476
   8   2.0000      -1.073907       -29.2225
   9   2.0000      -0.997131       -27.1333
  10   2.0000      -0.877383       -23.8748
  11   2.0000      -0.790636       -21.5143
  12   2.0000      -0.628855       -17.1120
  13   2.0000      -0.596234       -16.2244
  14   2.0000      -0.583536       -15.8788
  15   2.0000      -0.580225       -15.7887
  16   2.0000      -0.528212       -14.3734
  17   2.0000      -0.506658       -13.7869
  18   2.0000      -0.472129       -12.8473
  19   2.0000      -0.425331       -11.5739
  20   2.0000      -0.333917        -9.0864
  21   0.0000       0.030450         0.8286
  22   0.0000       0.035164         0.9569
  23   0.0000       0.042163         1.1473
  24   0.0000       0.043123         1.1734
  25   0.0000       0.055233         1.5030

MULLIKEN ATOMIC CHARGES
-----------------------
   0 C :   -0.918725
   1 C :   -0.815784
   2 C :   -0.325941
   3 S :   -0.181395
   4 H :    0.299412
   5 H :    0.299412
   6 H :    0.287575
   7 H :    0.269377
   8 H :    0.285663
   9 H :    0.269377
  10 H :    0.265515
  11 H :    0.265515
Sum of atomic charges:   -0.0000000

LOEWDIN ATOMIC CHARGES
----------------------
   0 C :    0.487428
   1 C :    0.213896
   2 C :   -0.099760
   3 S :    1.155878
   4 H :   -0.187840
   5 H :   -0.187840
   6 H :   -0.179145
   7 H :   -0.246928
   8 H :   -0.261954
   9 H :   -0.246928
  10 H :   -0.223403
  11 H :   -0.223403

  Mayer bond orders larger than 0.100000
B(  0-C ,  2-C ) :   0.9082 B(  0-C ,  4-H ) :   0.9310 B(  0-C ,  5-H ) :   0.9310
B(  0-C ,  6-H ) :   0.9542 B(  1-C ,  3-S ) :   0.9808 B(  1-C ,  7-H ) :   0.9220
B(  1-C ,  8-H ) :   0.9554 B(  1-C ,  9-H ) :   0.9220 B(  2-C ,  3-S ) :   0.9714
B(  2-C , 10-H ) :   0.9239 B(  2-C , 11-H ) :   0.9239

MP2 TOTAL ENERGY:     -516.578208189 Eh
FINAL SINGLE POINT ENERGY      -516.578208189224

DIPOLE MOMENT
-------------
                                X             Y             Z
Electronic contribution:     -0.38772       3.94687      -0.00000
Nuclear contribution   :      0.81276      -4.50894       0.00000
                        -----------------------------------------
Total Dipole Moment    :      0.42504      -0.56207      -0.00000
                        -----------------------------------------
Magnitude (a.u.)       :      0.70468
Magnitude (Debye)      :      1.79116

Rotational constants in cm-1:     0.534328     0.104162     0.091665
Rotational constants in MHz : 16018.754104  3122.693307  2748.036545

                             ****ORCA TERMINATED NORMALLY****
TOTAL RUN TIME: 0 days 0 hours 1 minutes 24 seconds 712 msec
