                         Program Version 5.0.3 -  RELEASE  -
|  1> !ri-mp2 aug-cc-pvtz aug-cc-pvtz/c tightscf
|  2> %pal nprocs 16 end
|  3>
|  4> * xyz 0 1
|  5> C      0.151273    1.784647    0.002216
|  6> C     -1.096568    1.176867   -0.008450
|  7> C      1.312680    1.021029    0.007796
|  8> C     -0.038671   -0.979205   -0.009708
|  9> C     -1.203017   -0.216446   -0.011775
| 10> C      1.211066   -0.366488    0.000942
| 11> C     -2.552960   -0.884863    0.009391
| 12> O      2.309364   -1.184166    0.000798
| 13> H      0.225667    2.863983    0.002825
| 14> H     -1.992065    1.784194   -0.016938
| 15> H      2.285648    1.497705    0.012651
| 16> H     -0.084931   -2.060188   -0.018605
| 17> H     -2.509721   -1.885386   -0.419767
| 18> H     -2.922457   -0.982907    1.033294
| 19> H     -3.290088   -0.306426   -0.547493
| 20> H      3.110211   -0.650896    0.005175
| 21> *
| 22>
| 23>                          ****END OF INPUT****

CARTESIAN COORDINATES (ANGSTROEM)
---------------------------------
  C      0.151273    1.784647    0.002216
  C     -1.096568    1.176867   -0.008450
  C      1.312680    1.021029    0.007796
  C     -0.038671   -0.979205   -0.009708
  C     -1.203017   -0.216446   -0.011775
  C      1.211066   -0.366488    0.000942
  C     -2.552960   -0.884863    0.009391
  O      2.309364   -1.184166    0.000798
  H      0.225667    2.863983    0.002825
  H     -1.992065    1.784194   -0.016938
  H      2.285648    1.497705    0.012651
  H     -0.084931   -2.060188   -0.018605
  H     -2.509721   -1.885386   -0.419767
  H     -2.922457   -0.982907    1.033294
  H     -3.290088   -0.306426   -0.547493
  H      3.110211   -0.650896    0.005175

 Total Charge           Charge          ....    0
 Multiplicity           Mult            ....    1
 Number of Electrons    NEL             ....   58
 Basis Dimension        Dim             ....  552

ORBITAL ENERGIES
----------------

  NO   OCC          E(Eh)            E(eV)
   0   2.0000     -20.589625      -560.2722
   1   2.0000     -11.301424      -307.5274
   2   2.0000     -11.246328      -306.0281
   3   2.0000     -11.239701      -305.8478
   4   2.0000     -11.227825      -305.5247
   5   2.0000     -11.223764      -305.4142
   6   2.0000     -11.221180      -305.3438
   7   2.0000     -11.220213      -305.3175
   8   2.0000      -1.403582       -38.1934
   9   2.0000      -1.151792       -31.3418
  10   2.0000      -1.046111       -28.4661
  11   2.0000      -1.007135       -27.4055
  12   2.0000      -0.937822       -25.5194
  13   2.0000      -0.825866       -22.4730
  14   2.0000      -0.822766       -22.3886
  15   2.0000      -0.713053       -19.4031
  16   2.0000      -0.682960       -18.5843
  17   2.0000      -0.655423       -17.8350
  18   2.0000      -0.610599       -16.6153
  19   2.0000      -0.592409       -16.1203
  20   2.0000      -0.573159       -15.5964
  21   2.0000      -0.571968       -15.5640
  22   2.0000      -0.570417       -15.5218
  23   2.0000      -0.534572       -14.5465
  24   2.0000      -0.507957       -13.8222
  25   2.0000      -0.487263       -13.2591
  26   2.0000      -0.472533       -12.8583
  27   2.0000      -0.333863        -9.0849
  28   2.0000      -0.312834        -8.5126
  29   0.0000       0.026978         0.7341
  30   0.0000       0.032003         0.8708
  31   0.0000       0.035611         0.9690
  32   0.0000       0.047042         1.2801
  33   0.0000       0.048034         1.3071

MULLIKEN ATOMIC CHARGES
-----------------------
   0 C :   -0.386492
   1 C :   -1.012786
   2 C :   -0.571266
   3 C :   -1.123478
   4 C :    1.205688
   5 C :    0.932275
   6 C :   -0.929754
   7 O :   -0.753240
   8 H :    0.512730
   9 H :    0.277248
  10 H :    0.470972
  11 H :    0.384122
  12 H :    0.262518
  13 H :    0.303428
  14 H :    0.266828
  15 H :    0.161206
Sum of atomic charges:    0.0000000

LOEWDIN ATOMIC CHARGES
----------------------
   0 C :    0.185701
   1 C :    0.204714
   2 C :    0.206800
   3 C :    0.226050
   4 C :   -0.133796
   5 C :   -0.375527
   6 C :    0.581740
   7 O :    0.837651
   8 H :   -0.181660
   9 H :   -0.186456
  10 H :   -0.189528
  11 H :   -0.179793
  12 H :   -0.176194
  13 H :   -0.162257
  14 H :   -0.174149
  15 H :   -0.483296

  Mayer bond orders larger than 0.100000
B(  0-C ,  1-C ) :   1.1499 B(  0-C ,  2-C ) :   1.0916 B(  0-C ,  3-C ) :  -0.1024
B(  0-C ,  8-H ) :   0.6858 B(  1-C ,  2-C ) :   0.1627 B(  1-C ,  3-C ) :   0.3086
B(  1-C ,  4-C ) :   0.6105 B(  1-C ,  5-C ) :  -0.1352 B(  1-C ,  6-C ) :   0.1183
B(  1-C ,  8-H ) :  -0.1081 B(  1-C ,  9-H ) :   1.0733 B(  2-C ,  3-C ) :   0.3759
B(  2-C ,  4-C ) :  -0.1317 B(  2-C ,  5-C ) :   0.8982 B(  2-C ,  7-O ) :  -0.1616
B(  2-C , 10-H ) :   0.7144 B(  3-C ,  4-C ) :   0.5778 B(  3-C ,  5-C ) :   0.8598
B(  3-C ,  7-O ) :   0.1017 B(  3-C , 11-H ) :   0.8237 B(  4-C ,  5-C ) :   0.1239
B(  4-C ,  6-C ) :   0.5515 B(  5-C ,  7-O ) :   0.5916 B(  6-C , 12-H ) :   1.0059
B(  6-C , 13-H ) :   0.9527 B(  6-C , 14-H ) :   1.0045 B(  7-O , 15-H ) :   1.0460

MP2 TOTAL ENERGY:     -346.106150905 Eh
FINAL SINGLE POINT ENERGY      -346.106150904693

DIPOLE MOMENT
-------------
                                X             Y             Z
Electronic contribution:      5.25046       0.17023      -0.03603
Nuclear contribution   :     -5.17881       0.24317       0.05153
                        -----------------------------------------
Total Dipole Moment    :      0.07166       0.41340       0.01549
                        -----------------------------------------
Magnitude (a.u.)       :      0.41985
Magnitude (Debye)      :      1.06717

Rotational constants in cm-1:     0.122834     0.060063     0.040642
Rotational constants in MHz :  3682.464132  1800.646458  1218.426440

                             ****ORCA TERMINATED NORMALLY****
TOTAL RUN TIME: 0 days 0 hours 6 minutes 13 seconds 269 msec
