                         Program Version 5.0.3 -  RELEASE  -
|  1> !ri-mp2 aug-cc-pvtz aug-cc-pvtz/c tightscf
|  2> %pal nprocs 16 end
|  3>
|  4> * xyz 0 1
|  5> C     -0.739782   -1.773761    0.000000
|  6> C     -0.089048   -1.206811    1.264899
|  7> C     -0.089048   -1.206811   -1.264899
|  8> C     -0.089048    0.324852    1.260545
|  9> C     -0.089048    0.324852   -1.260545
| 10> C      0.566508    0.906527    0.000000
| 11> C      0.533702    2.434333    0.000000
| 12> H     -0.680166   -2.864513    0.000000
| 13> H     -1.805477   -1.520961    0.000000
| 14> H     -0.602476   -1.579676    2.154131
| 15> H      0.943314   -1.566555    1.330389
| 16> H      0.943314   -1.566555   -1.330389
| 17> H     -0.602476   -1.579676   -2.154131
| 18> H     -1.122408    0.686328    1.318579
| 19> H      0.419978    0.704095    2.150588
| 20> H      0.419978    0.704095   -2.150588
| 21> H     -1.122408    0.686328   -1.318579
| 22> H      1.617471    0.591208    0.000000
| 23> H      1.030791    2.842574    0.882126
| 24> H      1.030791    2.842574   -0.882126
| 25> H     -0.495635    2.801645    0.000000
| 26> *
| 27>
| 28>                          ****END OF INPUT****

CARTESIAN COORDINATES (ANGSTROEM)
---------------------------------
  C     -0.739782   -1.773761    0.000000
  C     -0.089048   -1.206811    1.264899
  C     -0.089048   -1.206811   -1.264899
  C     -0.089048    0.324852    1.260545
  C     -0.089048    0.324852   -1.260545
  C      0.566508    0.906527    0.000000
  C      0.533702    2.434333    0.000000
  H     -0.680166   -2.864513    0.000000
  H     -1.805477   -1.520961    0.000000
  H     -0.602476   -1.579676    2.154131
  H      0.943314   -1.566555    1.330389
  H      0.943314   -1.566555   -1.330389
  H     -0.602476   -1.579676   -2.154131
  H     -1.122408    0.686328    1.318579
  H      0.419978    0.704095    2.150588
  H      0.419978    0.704095   -2.150588
  H     -1.122408    0.686328   -1.318579
  H      1.617471    0.591208    0.000000
  H      1.030791    2.842574    0.882126
  H      1.030791    2.842574   -0.882126
  H     -0.495635    2.801645    0.000000

 Total Charge           Charge          ....    0
 Multiplicity           Mult            ....    1
 Number of Electrons    NEL             ....   56
 Basis Dimension        Dim             ....  644

ORBITAL ENERGIES
----------------

  NO   OCC          E(Eh)            E(eV)
   0   2.0000     -11.217971      -305.2565
   1   2.0000     -11.211961      -305.0930
   2   2.0000     -11.211659      -305.0848
   3   2.0000     -11.211093      -305.0694
   4   2.0000     -11.210204      -305.0452
   5   2.0000     -11.210166      -305.0441
   6   2.0000     -11.206424      -304.9423
   7   2.0000      -1.116409       -30.3790
   8   2.0000      -1.028055       -27.9748
   9   2.0000      -0.998289       -27.1648
  10   2.0000      -0.914686       -24.8899
  11   2.0000      -0.828504       -22.5448
  12   2.0000      -0.797513       -21.7014
  13   2.0000      -0.747080       -20.3291
  14   2.0000      -0.638654       -17.3787
  15   2.0000      -0.606967       -16.5164
  16   2.0000      -0.597955       -16.2712
  17   2.0000      -0.597635       -16.2625
  18   2.0000      -0.563708       -15.3393
  19   2.0000      -0.530797       -14.4437
  20   2.0000      -0.520782       -14.1712
  21   2.0000      -0.507882       -13.8202
  22   2.0000      -0.486678       -13.2432
  23   2.0000      -0.477213       -12.9856
  24   2.0000      -0.466016       -12.6809
  25   2.0000      -0.445663       -12.1271
  26   2.0000      -0.423267       -11.5177
  27   2.0000      -0.419766       -11.4224
  28   0.0000       0.031147         0.8476
  29   0.0000       0.034369         0.9352
  30   0.0000       0.035481         0.9655
  31   0.0000       0.036688         0.9983
  32   0.0000       0.050165         1.3651

MULLIKEN ATOMIC CHARGES
-----------------------
   0 C :   -0.482374
   1 C :   -0.532256
   2 C :   -0.532256
   3 C :   -0.585867
   4 C :   -0.585867
   5 C :    0.369867
   6 C :   -1.163956
   7 H :    0.329184
   8 H :    0.134225
   9 H :    0.317686
  10 H :    0.125252
  11 H :    0.125252
  12 H :    0.317686
  13 H :    0.203359
  14 H :    0.340820
  15 H :    0.340820
  16 H :    0.203359
  17 H :    0.368644
  18 H :    0.232382
  19 H :    0.232381
  20 H :    0.241658
Sum of atomic charges:    0.0000000

LOEWDIN ATOMIC CHARGES
----------------------
   0 C :    0.290047
   1 C :    0.294556
   2 C :    0.294556
   3 C :    0.293567
   4 C :    0.293567
   5 C :   -0.036280
   6 C :    0.590259
   7 H :   -0.143712
   8 H :   -0.141513
   9 H :   -0.143140
  10 H :   -0.141083
  11 H :   -0.141083
  12 H :   -0.143140
  13 H :   -0.136254
  14 H :   -0.138590
  15 H :   -0.138590
  16 H :   -0.136254
  17 H :   -0.125891
  18 H :   -0.164687
  19 H :   -0.164687
  20 H :   -0.161651

  Mayer bond orders larger than 0.100000
B(  0-C ,  1-C ) :   0.8708 B(  0-C ,  2-C ) :   0.8708 B(  0-C ,  7-H ) :   0.8991
B(  0-C ,  8-H ) :   1.0528 B(  1-C ,  3-C ) :   0.9401 B(  1-C ,  9-H ) :   0.9110
B(  1-C , 10-H ) :   1.0717 B(  2-C ,  4-C ) :   0.9401 B(  2-C , 11-H ) :   1.0717
B(  2-C , 12-H ) :   0.9110 B(  3-C ,  4-C ) :   0.1760 B(  3-C ,  5-C ) :   0.7956
B(  3-C , 13-H ) :   1.0124 B(  3-C , 14-H ) :   0.8846 B(  4-C ,  5-C ) :   0.7956
B(  4-C , 15-H ) :   0.8846 B(  4-C , 16-H ) :   1.0124 B(  5-C ,  6-C ) :   0.6243
B(  5-C , 17-H ) :   0.8654 B(  6-C , 18-H ) :   1.0365 B(  6-C , 19-H ) :   1.0365
B(  6-C , 20-H ) :   1.0323

MP2 TOTAL ENERGY:     -274.574982066 Eh
FINAL SINGLE POINT ENERGY      -274.574982066015

DIPOLE MOMENT
-------------
                                X             Y             Z
Electronic contribution:      0.04933      -1.30426      -0.00000
Nuclear contribution   :     -0.02722       1.26490      -0.00000
                        -----------------------------------------
Total Dipole Moment    :      0.02212      -0.03937      -0.00000
                        -----------------------------------------
Magnitude (a.u.)       :      0.04515
Magnitude (Debye)      :      0.11477

Rotational constants in cm-1:     0.140196     0.072707     0.052768
Rotational constants in MHz :  4202.975826  2179.697574  1581.951856

                             ****ORCA TERMINATED NORMALLY****
TOTAL RUN TIME: 0 days 0 hours 9 minutes 7 seconds 139 msec
