                         Program Version 5.0.3 -  RELEASE  -
|  1> !ri-mp2 aug-cc-pvtz aug-cc-pvtz/c tightscf
|  2> %pal nprocs 16 end
|  3> %maxcore 3800
|  4>
|  5> * xyz 0 1
|  6> C      1.488939    1.017839    0.000000
|  7> C     -3.766271   -2.671937    0.000000
|  8> C      3.138511    2.711319    0.000000
|  9> C      0.000000    0.760101    0.000000
| 10> C     -2.256886   -2.436231    0.000000
| 11> C     -0.365395   -0.720041    0.000000
| 12> C     -1.876026   -0.955711    0.000000
| 13> O      2.352499    0.176679    0.000000
| 14> O      1.749338    2.343823    0.000000
| 15> H     -4.235468   -2.228565    0.880789
| 16> H     -4.235468   -2.228565   -0.880789
| 17> H     -4.003230   -3.736674    0.000000
| 18> H      3.153724    3.796785    0.000000
| 19> H      3.636516    2.322018   -0.886207
| 20> H      3.636516    2.322018    0.886207
| 21> H     -0.422849    1.270771   -0.869472
| 22> H     -0.422849    1.270771    0.869472
| 23> H     -1.811861   -2.921057   -0.873831
| 24> H     -1.811861   -2.921057    0.873831
| 25> H      0.084585   -1.201251    0.871034
| 26> H      0.084585   -1.201251   -0.871034
| 27> H     -2.322130   -0.469995   -0.874710
| 28> H     -2.322130   -0.469995    0.874710
| 29> *
| 30>
| 31>                          ****END OF INPUT****

CARTESIAN COORDINATES (ANGSTROEM)
---------------------------------
  C      1.488939    1.017839    0.000000
  C     -3.766271   -2.671937    0.000000
  C      3.138511    2.711319    0.000000
  C      0.000000    0.760101    0.000000
  C     -2.256886   -2.436231    0.000000
  C     -0.365395   -0.720041    0.000000
  C     -1.876026   -0.955711    0.000000
  O      2.352499    0.176679    0.000000
  O      1.749338    2.343823    0.000000
  H     -4.235468   -2.228565    0.880789
  H     -4.235468   -2.228565   -0.880789
  H     -4.003230   -3.736674    0.000000
  H      3.153724    3.796785    0.000000
  H      3.636516    2.322018   -0.886207
  H      3.636516    2.322018    0.886207
  H     -0.422849    1.270771   -0.869472
  H     -0.422849    1.270771    0.869472
  H     -1.811861   -2.921057   -0.873831
  H     -1.811861   -2.921057    0.873831
  H      0.084585   -1.201251    0.871034
  H      0.084585   -1.201251   -0.871034
  H     -2.322130   -0.469995   -0.874710
  H     -2.322130   -0.469995    0.874710

 Total Charge           Charge          ....    0
 Multiplicity           Mult            ....    1
 Number of Electrons    NEL             ....   72
 Basis Dimension        Dim             ....  736

ORBITAL ENERGIES
----------------

  NO   OCC          E(Eh)            E(eV)
   0   2.0000     -20.600330      -560.5635
   1   2.0000     -20.542150      -558.9803
   2   2.0000     -11.375246      -309.5362
   3   2.0000     -11.283490      -307.0394
   4   2.0000     -11.240661      -305.8739
   5   2.0000     -11.221798      -305.3606
   6   2.0000     -11.220025      -305.3124
   7   2.0000     -11.218389      -305.2679
   8   2.0000     -11.211755      -305.0874
   9   2.0000      -1.456257       -39.6268
  10   2.0000      -1.356257       -36.9056
  11   2.0000      -1.093464       -29.7547
  12   2.0000      -1.042967       -28.3806
  13   2.0000      -0.981938       -26.7199
  14   2.0000      -0.930675       -25.3250
  15   2.0000      -0.843696       -22.9581
  16   2.0000      -0.793824       -21.6010
  17   2.0000      -0.765345       -20.8261
  18   2.0000      -0.695673       -18.9302
  19   2.0000      -0.678985       -18.4761
  20   2.0000      -0.669472       -18.2173
  21   2.0000      -0.649852       -17.6834
  22   2.0000      -0.607765       -16.5381
  23   2.0000      -0.598494       -16.2858
  24   2.0000      -0.572311       -15.5734
  25   2.0000      -0.559230       -15.2174
  26   2.0000      -0.555361       -15.1121
  27   2.0000      -0.527309       -14.3488
  28   2.0000      -0.519733       -14.1427
  29   2.0000      -0.508191       -13.8286
  30   2.0000      -0.483729       -13.1629
  31   2.0000      -0.470735       -12.8093
  32   2.0000      -0.466487       -12.6938
  33   2.0000      -0.465189       -12.6584
  34   2.0000      -0.459528       -12.5044
  35   2.0000      -0.441622       -12.0172
  36   0.0000       0.028832         0.7846
  37   0.0000       0.030910         0.8411
  38   0.0000       0.037550         1.0218
  39   0.0000       0.037693         1.0257
  40   0.0000       0.044566         1.2127

MULLIKEN ATOMIC CHARGES
-----------------------
   0 C :    0.309713
   1 C :   -1.001881
   2 C :   -0.769066
   3 C :   -0.076691
   4 C :   -0.480808
   5 C :   -0.221079
   6 C :   -0.263039
   7 O :   -0.804499
   8 O :   -0.394904
   9 H :    0.262490
  10 H :    0.262490
  11 H :    0.277661
  12 H :    0.357737
  13 H :    0.365391
  14 H :    0.365391
  15 H :    0.187601
  16 H :    0.187601
  17 H :    0.238858
  18 H :    0.238858
  19 H :    0.221213
  20 H :    0.221212
  21 H :    0.257874
  22 H :    0.257874
Sum of atomic charges:   -0.0000000

LOEWDIN ATOMIC CHARGES
----------------------
   0 C :   -0.807064
   1 C :    0.578967
   2 C :    0.357150
   3 C :    0.274352
   4 C :    0.258714
   5 C :    0.265313
   6 C :    0.269299
   7 O :    0.469453
   8 O :    0.560600
   9 H :   -0.171532
  10 H :   -0.171532
  11 H :   -0.173712
  12 H :   -0.188917
  13 H :   -0.182503
  14 H :   -0.182503
  15 H :   -0.147682
  16 H :   -0.147682
  17 H :   -0.146857
  18 H :   -0.146857
  19 H :   -0.142145
  20 H :   -0.142145
  21 H :   -0.141360
  22 H :   -0.141360

  Mayer bond orders larger than 0.100000
B(  0-C ,  3-C ) :   0.5968 B(  0-C ,  7-O ) :   1.4501 B(  0-C ,  8-O ) :   1.0726
B(  1-C ,  4-C ) :   0.9454 B(  1-C ,  9-H ) :   0.9685 B(  1-C , 10-H ) :   0.9685
B(  1-C , 11-H ) :   0.9872 B(  2-C ,  8-O ) :   0.8183 B(  2-C , 12-H ) :   0.9030
B(  2-C , 13-H ) :   0.8809 B(  2-C , 14-H ) :   0.8809 B(  3-C ,  5-C ) :   1.0047
B(  3-C , 15-H ) :   0.9612 B(  3-C , 16-H ) :   0.9612 B(  4-C ,  6-C ) :   0.8902
B(  4-C , 17-H ) :   0.9638 B(  4-C , 18-H ) :   0.9638 B(  5-C ,  6-C ) :   0.9439
B(  5-C ,  7-O ) :  -0.1129 B(  5-C , 19-H ) :   0.9568 B(  5-C , 20-H ) :   0.9568
B(  6-C , 21-H ) :   0.9435 B(  6-C , 22-H ) :   0.9435

MP2 TOTAL ENERGY:     -424.829978669 Eh
FINAL SINGLE POINT ENERGY      -424.829978668755

DIPOLE MOMENT
-------------
                                X             Y             Z
Electronic contribution:     10.93050       7.16041       0.00000
Nuclear contribution   :    -11.34981      -6.60211       0.00000
                        -----------------------------------------
Total Dipole Moment    :     -0.41931       0.55830       0.00000
                        -----------------------------------------
Magnitude (a.u.)       :      0.69823
Magnitude (Debye)      :      1.77476

Rotational constants in cm-1:     0.234824     0.015995     0.015226
Rotational constants in MHz :  7039.839904   479.529826   456.477392

                             ****ORCA TERMINATED NORMALLY****
TOTAL RUN TIME: 0 days 0 hours 12 minutes 35 seconds 7 msec
