                         Program Version 5.0.3 -  RELEASE  -
|  1> !ri-mp2 aug-cc-pvtz aug-cc-pvtz/c tightscf
|  2> %pal nprocs 16 end
|  3>
|  4> * xyz 0 1
|  5> S     -2.265968   -0.918361   -0.000001
|  6> S      2.145504   -0.995460    0.000002
|  7> O     -0.634755   -0.362504    0.000000
|  8> O     -1.517867    1.704175   -0.000002
|  9> C     -0.541512    0.991131   -0.000001
| 10> C      0.843271    1.467699    0.000000
| 11> C      1.974268    0.747540    0.000000
| 12> H     -1.833773   -2.193713    0.000000
| 13> H      3.490805   -0.983923    0.000003
| 14> H      0.921463    2.545287   -0.000001
| 15> H      2.913753    1.281908    0.000000
| 16> *
| 17>
| 18>                          ****END OF INPUT****

CARTESIAN COORDINATES (ANGSTROEM)
---------------------------------
  S     -2.265968   -0.918361   -0.000001
  S      2.145504   -0.995460    0.000002
  O     -0.634755   -0.362504    0.000000
  O     -1.517867    1.704175   -0.000002
  C     -0.541512    0.991131   -0.000001
  C      0.843271    1.467699    0.000000
  C      1.974268    0.747540    0.000000
  H     -1.833773   -2.193713    0.000000
  H      3.490805   -0.983923    0.000003
  H      0.921463    2.545287   -0.000001
  H      2.913753    1.281908    0.000000

 Total Charge           Charge          ....    0
 Multiplicity           Mult            ....    1
 Number of Electrons    NEL             ....   70
 Basis Dimension        Dim             ....  422

ORBITAL ENERGIES
----------------

  NO   OCC          E(Eh)            E(eV)
   0   2.0000     -92.024713     -2504.1198
   1   2.0000     -91.993360     -2503.2666
   2   2.0000     -20.631759      -561.4187
   3   2.0000     -20.554428      -559.3144
   4   2.0000     -11.395287      -310.0815
   5   2.0000     -11.313387      -307.8529
   6   2.0000     -11.258315      -306.3543
   7   2.0000      -9.019491      -245.4328
   8   2.0000      -8.994092      -244.7417
   9   2.0000      -6.700372      -182.3264
  10   2.0000      -6.699014      -182.2894
  11   2.0000      -6.697370      -182.2447
  12   2.0000      -6.675175      -181.6407
  13   2.0000      -6.674273      -181.6162
  14   2.0000      -6.673259      -181.5886
  15   2.0000      -1.469528       -39.9879
  16   2.0000      -1.365506       -37.1573
  17   2.0000      -1.123793       -30.5800
  18   2.0000      -1.017213       -27.6798
  19   2.0000      -0.973634       -26.4939
  20   2.0000      -0.854100       -23.2413
  21   2.0000      -0.762779       -20.7563
  22   2.0000      -0.704639       -19.1742
  23   2.0000      -0.681941       -18.5566
  24   2.0000      -0.657171       -17.8825
  25   2.0000      -0.652244       -17.7485
  26   2.0000      -0.598805       -16.2943
  27   2.0000      -0.566397       -15.4125
  28   2.0000      -0.513170       -13.9641
  29   2.0000      -0.509913       -13.8754
  30   2.0000      -0.484488       -13.1836
  31   2.0000      -0.474480       -12.9112
  32   2.0000      -0.464897       -12.6505
  33   2.0000      -0.379004       -10.3132
  34   2.0000      -0.351206        -9.5568
  35   0.0000       0.021733         0.5914
  36   0.0000       0.033535         0.9125
  37   0.0000       0.038520         1.0482
  38   0.0000       0.052040         1.4161
  39   0.0000       0.065152         1.7729

MULLIKEN ATOMIC CHARGES
-----------------------
   0 S :    0.072666
   1 S :   -0.033769
   2 O :   -0.327779
   3 O :   -0.754742
   4 C :    0.544372
   5 C :   -0.234176
   6 C :    0.009211
   7 H :    0.140648
   8 H :   -0.083611
   9 H :    0.176705
  10 H :    0.490474
Sum of atomic charges:    0.0000000

LOEWDIN ATOMIC CHARGES
----------------------
   0 S :    1.055630
   1 S :    1.312025
   2 O :    0.103214
   3 O :    0.401686
   4 C :   -1.049320
   5 C :    0.076284
   6 C :   -0.241296
   7 H :   -0.606663
   8 H :   -0.567008
   9 H :   -0.225323
  10 H :   -0.259230

  Mayer bond orders larger than 0.100000
B(  0-S ,  2-O ) :   0.7600 B(  0-S ,  7-H ) :   1.0495 B(  1-S ,  5-C ) :   0.1136
B(  1-S ,  6-C ) :   0.9735 B(  1-S ,  8-H ) :   1.1348 B(  2-O ,  4-C ) :   1.1209
B(  3-O ,  4-C ) :   1.4150 B(  3-O ,  5-C ) :  -0.1199 B(  4-C ,  5-C ) :   0.7415
B(  5-C ,  6-C ) :   1.4212 B(  5-C ,  9-H ) :   1.1764 B(  5-C , 10-H ) :  -0.1149
B(  6-C , 10-H ) :   0.7512

MP2 TOTAL ENERGY:    -1062.124765162 Eh
FINAL SINGLE POINT ENERGY     -1062.124765162256

DIPOLE MOMENT
-------------
                                X             Y             Z
Electronic contribution:     -3.80070      -1.34380      -0.00000
Nuclear contribution   :      5.27281       0.70448       0.00000
                        -----------------------------------------
Total Dipole Moment    :      1.47210      -0.63931       0.00000
                        -----------------------------------------
Magnitude (a.u.)       :      1.60493
Magnitude (Debye)      :      4.07942

Rotational constants in cm-1:     0.101792     0.038364     0.027863
Rotational constants in MHz :  3051.641439  1150.132703   835.312061

                             ****ORCA TERMINATED NORMALLY****
TOTAL RUN TIME: 0 days 0 hours 3 minutes 0 seconds 110 msec
