                         Program Version 5.0.3 -  RELEASE  -
|  1> !ri-mp2 aug-cc-pvtz aug-cc-pvtz/c tightscf
|  2> %pal nprocs 16 end
|  3>
|  4> * xyz 0 1
|  5> O      0.113175    0.611906   -0.000481
|  6> O     -0.850519   -0.571912   -0.000730
|  7> C      1.313138    0.157342   -0.000011
|  8> C     -2.131835    0.020694    0.000616
|  9> C      2.457104   -0.211516    0.000417
| 10> H     -2.297771    0.619401   -0.896754
| 11> H     -2.296639    0.617800    0.899259
| 12> H     -2.808117   -0.835719    0.000264
| 13> H      3.470842   -0.520554    0.000796
| 14> *
| 15>
| 16>                          ****END OF INPUT****

CARTESIAN COORDINATES (ANGSTROEM)
---------------------------------
  O      0.113175    0.611906   -0.000481
  O     -0.850519   -0.571912   -0.000730
  C      1.313138    0.157342   -0.000011
  C     -2.131835    0.020694    0.000616
  C      2.457104   -0.211516    0.000417
  H     -2.297771    0.619401   -0.896754
  H     -2.296639    0.617800    0.899259
  H     -2.808117   -0.835719    0.000264
  H      3.470842   -0.520554    0.000796

 Total Charge           Charge          ....    0
 Multiplicity           Mult            ....    1
 Number of Electrons    NEL             ....   38
 Basis Dimension        Dim             ....  322

ORBITAL ENERGIES
----------------

  NO   OCC          E(Eh)            E(eV)
   0   2.0000     -20.677265      -562.6570
   1   2.0000     -20.667877      -562.4015
   2   2.0000     -11.300218      -307.4946
   3   2.0000     -11.294482      -307.3385
   4   2.0000     -11.228074      -305.5314
   5   2.0000      -1.507805       -41.0294
   6   2.0000      -1.317726       -35.8571
   7   2.0000      -1.016821       -27.6691
   8   2.0000      -0.942160       -25.6375
   9   2.0000      -0.786033       -21.3891
  10   2.0000      -0.704275       -19.1643
  11   2.0000      -0.703376       -19.1398
  12   2.0000      -0.686214       -18.6728
  13   2.0000      -0.613129       -16.6841
  14   2.0000      -0.611042       -16.6273
  15   2.0000      -0.553456       -15.0603
  16   2.0000      -0.493194       -13.4205
  17   2.0000      -0.392391       -10.6775
  18   2.0000      -0.373807       -10.1718
  19   0.0000       0.027518         0.7488
  20   0.0000       0.036110         0.9826
  21   0.0000       0.044650         1.2150
  22   0.0000       0.046180         1.2566
  23   0.0000       0.073071         1.9884

MULLIKEN ATOMIC CHARGES
-----------------------
   0 O :   -0.222841
   1 O :   -0.305472
   2 C :    0.703546
   3 C :   -0.622439
   4 C :   -1.107181
   5 H :    0.337166
   6 H :    0.337119
   7 H :    0.396190
   8 H :    0.483912
Sum of atomic charges:    0.0000000

LOEWDIN ATOMIC CHARGES
----------------------
   0 O :    0.300851
   1 O :    0.380630
   2 C :   -0.385436
   3 C :    0.281465
   4 C :    0.316535
   5 H :   -0.188324
   6 H :   -0.188320
   7 H :   -0.194300
   8 H :   -0.323101

  Mayer bond orders larger than 0.100000
B(  0-O ,  1-O ) :   0.8306 B(  0-O ,  2-C ) :   1.0424 B(  0-O ,  4-C ) :  -0.2145
B(  1-O ,  3-C ) :   0.8005 B(  2-C ,  4-C ) :   1.7935 B(  3-C ,  5-H ) :   0.8874
B(  3-C ,  6-H ) :   0.8874 B(  3-C ,  7-H ) :   0.8415 B(  4-C ,  8-H ) :   0.7388

MP2 TOTAL ENERGY:     -266.515926469 Eh
FINAL SINGLE POINT ENERGY      -266.515926468917

DIPOLE MOMENT
-------------
                                X             Y             Z
Electronic contribution:      3.15985       0.12533      -0.00271
Nuclear contribution   :     -3.90521      -0.11730       0.00351
                        -----------------------------------------
Total Dipole Moment    :     -0.74537       0.00803       0.00080
                        -----------------------------------------
Magnitude (a.u.)       :      0.74541
Magnitude (Debye)      :      1.89468

Rotational constants in cm-1:     1.094067     0.087909     0.082668
Rotational constants in MHz : 32799.312916  2635.437625  2478.325425

                             ****ORCA TERMINATED NORMALLY****
TOTAL RUN TIME: 0 days 0 hours 1 minutes 5 seconds 660 msec
