                         Program Version 5.0.3 -  RELEASE  -
|  1> !ri-mp2 aug-cc-pvtz aug-cc-pvtz/c tightscf
|  2> %pal nprocs 16 end
|  3>
|  4> * xyz 0 1
|  5> C     -1.629703    2.519691    0.000000
|  6> C     -0.245437    2.661629    0.000000
|  7> C     -2.199329    1.250750    0.000000
|  8> C      0.567055    1.537570    0.000000
|  9> C     -1.389364    0.123082    0.000000
| 10> C      0.000000    0.261893    0.000000
| 11> C      0.918942   -0.909822    0.000000
| 12> C      1.082579   -3.263273    0.000000
| 13> O      2.125324   -0.833326    0.000000
| 14> O      0.258943   -2.087035    0.000000
| 15> H     -2.263404    3.396510    0.000000
| 16> H      0.198432    3.647794    0.000000
| 17> H     -3.275165    1.139998    0.000000
| 18> H      1.643793    1.627324    0.000000
| 19> H     -1.827393   -0.863439    0.000000
| 20> H      1.713986   -3.286294    0.886283
| 21> H      1.713986   -3.286294   -0.886283
| 22> H      0.393171   -4.101840    0.000000
| 23> *
| 24>
| 25>                          ****END OF INPUT****

CARTESIAN COORDINATES (ANGSTROEM)
---------------------------------
  C     -1.629703    2.519691    0.000000
  C     -0.245437    2.661629    0.000000
  C     -2.199329    1.250750    0.000000
  C      0.567055    1.537570    0.000000
  C     -1.389364    0.123082    0.000000
  C      0.000000    0.261893    0.000000
  C      0.918942   -0.909822    0.000000
  C      1.082579   -3.263273    0.000000
  O      2.125324   -0.833326    0.000000
  O      0.258943   -2.087035    0.000000
  H     -2.263404    3.396510    0.000000
  H      0.198432    3.647794    0.000000
  H     -3.275165    1.139998    0.000000
  H      1.643793    1.627324    0.000000
  H     -1.827393   -0.863439    0.000000
  H      1.713986   -3.286294    0.886283
  H      1.713986   -3.286294   -0.886283
  H      0.393171   -4.101840    0.000000

 Total Charge           Charge          ....    0
 Multiplicity           Mult            ....    1
 Number of Electrons    NEL             ....   72
 Basis Dimension        Dim             ....  644

ORBITAL ENERGIES
----------------

  NO   OCC          E(Eh)            E(eV)
   0   2.0000     -20.604241      -560.6699
   1   2.0000     -20.542094      -558.9788
   2   2.0000     -11.382352      -309.7296
   3   2.0000     -11.285689      -307.0992
   4   2.0000     -11.252531      -306.1969
   5   2.0000     -11.251402      -306.1662
   6   2.0000     -11.250789      -306.1495
   7   2.0000     -11.248079      -306.0758
   8   2.0000     -11.243143      -305.9415
   9   2.0000     -11.242330      -305.9194
  10   2.0000      -1.460196       -39.7340
  11   2.0000      -1.357996       -36.9530
  12   2.0000      -1.169016       -31.8106
  13   2.0000      -1.051210       -28.6049
  14   2.0000      -1.028925       -27.9985
  15   2.0000      -0.972639       -26.4668
  16   2.0000      -0.865597       -23.5541
  17   2.0000      -0.838497       -22.8167
  18   2.0000      -0.778925       -21.1956
  19   2.0000      -0.739176       -20.1140
  20   2.0000      -0.686321       -18.6757
  21   2.0000      -0.672464       -18.2987
  22   2.0000      -0.671867       -18.2824
  23   2.0000      -0.633448       -17.2370
  24   2.0000      -0.628972       -17.1152
  25   2.0000      -0.601137       -16.3578
  26   2.0000      -0.584928       -15.9167
  27   2.0000      -0.560760       -15.2591
  28   2.0000      -0.532863       -14.4999
  29   2.0000      -0.523065       -14.2333
  30   2.0000      -0.507988       -13.8231
  31   2.0000      -0.503370       -13.6974
  32   2.0000      -0.464283       -12.6338
  33   2.0000      -0.452449       -12.3118
  34   2.0000      -0.351803        -9.5730
  35   2.0000      -0.347735        -9.4624
  36   0.0000       0.026347         0.7169
  37   0.0000       0.030922         0.8414
  38   0.0000       0.035545         0.9672
  39   0.0000       0.044398         1.2081
  40   0.0000       0.048144         1.3101

MULLIKEN ATOMIC CHARGES
-----------------------
   0 C :   -0.149632
   1 C :   -0.553943
   2 C :   -0.741909
   3 C :   -1.180387
   4 C :   -0.566911
   5 C :    1.923467
   6 C :    0.578908
   7 C :   -0.794773
   8 O :   -0.948478
   9 O :   -0.387458
  10 H :    0.379103
  11 H :    0.538238
  12 H :    0.520990
  13 H :    0.121417
  14 H :    0.184997
  15 H :    0.363095
  16 H :    0.363095
  17 H :    0.350181
Sum of atomic charges:   -0.0000000

LOEWDIN ATOMIC CHARGES
----------------------
   0 C :    0.204986
   1 C :    0.210478
   2 C :    0.207685
   3 C :    0.207882
   4 C :    0.209323
   5 C :   -0.131302
   6 C :   -0.825908
   7 C :    0.362900
   8 O :    0.466727
   9 O :    0.561509
  10 H :   -0.179593
  11 H :   -0.184286
  12 H :   -0.185110
  13 H :   -0.184499
  14 H :   -0.192526
  15 H :   -0.180780
  16 H :   -0.180780
  17 H :   -0.186706

  Mayer bond orders larger than 0.100000
B(  0-C ,  1-C ) :   1.0848 B(  0-C ,  2-C ) :   1.1210 B(  0-C ,  3-C ) :  -0.1305
B(  0-C ,  4-C ) :  -0.1029 B(  0-C , 10-H ) :   0.9488 B(  1-C ,  2-C ) :   0.1645
B(  1-C ,  3-C ) :   1.3144 B(  1-C , 10-H ) :  -0.1774 B(  1-C , 11-H ) :   0.6928
B(  2-C ,  3-C ) :   0.1105 B(  2-C ,  4-C ) :   1.1583 B(  2-C , 10-H ) :  -0.1882
B(  2-C , 12-H ) :   0.6965 B(  3-C ,  4-C ) :  -0.2837 B(  3-C ,  6-C ) :   0.3878
B(  3-C , 10-H ) :   0.2133 B(  3-C , 11-H ) :  -0.1833 B(  3-C , 13-H ) :   1.3834
B(  3-C , 14-H ) :   0.2497 B(  4-C ,  5-C ) :   0.4316 B(  4-C ,  6-C ) :   0.2448
B(  4-C , 10-H ) :   0.1359 B(  4-C , 12-H ) :  -0.1165 B(  4-C , 13-H ) :   0.1233
B(  4-C , 14-H ) :   1.3748 B(  5-C ,  6-C ) :   0.2405 B(  5-C ,  8-O ) :  -0.1505
B(  5-C , 13-H ) :  -0.2356 B(  5-C , 14-H ) :  -0.2509 B(  6-C ,  8-O ) :   1.2345
B(  6-C ,  9-O ) :   1.0536 B(  6-C , 11-H ) :   0.1273 B(  6-C , 12-H ) :   0.1167
B(  7-C ,  9-O ) :   0.8574 B(  7-C , 15-H ) :   0.8808 B(  7-C , 16-H ) :   0.8808
B(  7-C , 17-H ) :   0.8977 B(  8-O , 13-H ) :   0.1217 B( 13-H , 14-H ) :   0.1315

MP2 TOTAL ENERGY:     -459.270332304 Eh
FINAL SINGLE POINT ENERGY      -459.270332303635

DIPOLE MOMENT
-------------
                                X             Y             Z
Electronic contribution:      0.79895       1.69970       0.00000
Nuclear contribution   :     -1.65365      -1.76019       0.00000
                        -----------------------------------------
Total Dipole Moment    :     -0.85470      -0.06049       0.00000
                        -----------------------------------------
Magnitude (a.u.)       :      0.85684
Magnitude (Debye)      :      2.17791

Rotational constants in cm-1:     0.118104     0.028069     0.022776
Rotational constants in MHz :  3540.673166   841.476820   682.802563

                             ****ORCA TERMINATED NORMALLY****
TOTAL RUN TIME: 0 days 0 hours 10 minutes 36 seconds 79 msec
