                         Program Version 5.0.3 -  RELEASE  -
|  1> !ri-mp2 aug-cc-pvtz aug-cc-pvtz/c tightscf
|  2> %pal nprocs 16 end
|  3>
|  4> * xyz 0 1
|  5> C      2.017694   -0.664820        0.000000
|  6> C      1.387653    0.571113        0.000000
|  7> C      1.276764   -1.840590        0.000000
|  8> C     -0.768595   -0.561020        0.000000
|  9> C      0.000000    0.590564        0.000000
| 10> C     -0.116519   -1.789441        0.000000
| 11> N     -0.695089    1.896684        0.000000
| 12> O     -0.004530    2.904797        0.000000
| 13> O     -1.916677    1.890568        0.000000
| 14> O     -0.896581   -2.906357        0.000000
| 15> H      3.097332   -0.716014        0.000000
| 16> H      1.940706    1.495858        0.000000
| 17> H      1.780940   -2.799344        0.000000
| 18> H     -1.845347   -0.507182        0.000000
| 19> H     -0.347696   -3.696993        0.000000
| 20> *
| 21>
| 22>                          ****END OF INPUT****

CARTESIAN COORDINATES (ANGSTROEM)
---------------------------------
  C      2.017694   -0.664820    0.000000
  C      1.387653    0.571113    0.000000
  C      1.276764   -1.840590    0.000000
  C     -0.768595   -0.561020    0.000000
  C      0.000000    0.590564    0.000000
  C     -0.116519   -1.789441    0.000000
  N     -0.695089    1.896684    0.000000
  O     -0.004530    2.904797    0.000000
  O     -1.916677    1.890568    0.000000
  O     -0.896581   -2.906357    0.000000
  H      3.097332   -0.716014    0.000000
  H      1.940706    1.495858    0.000000
  H      1.780940   -2.799344    0.000000
  H     -1.845347   -0.507182    0.000000
  H     -0.347696   -3.696993    0.000000

 Total Charge           Charge          ....    0
 Multiplicity           Mult            ....    1
 Number of Electrons    NEL             ....   72
 Basis Dimension        Dim             ....  575

ORBITAL ENERGIES
----------------

  NO   OCC          E(Eh)            E(eV)
   0   2.0000     -20.615829      -560.9852
   1   2.0000     -20.604146      -560.6673
   2   2.0000     -20.603949      -560.6620
   3   2.0000     -15.855549      -431.4514
   4   2.0000     -11.334943      -308.4395
   5   2.0000     -11.317581      -307.9670
   6   2.0000     -11.272481      -306.7398
   7   2.0000     -11.270697      -306.6913
   8   2.0000     -11.268247      -306.6246
   9   2.0000     -11.266475      -306.5764
  10   2.0000      -1.609026       -43.7838
  11   2.0000      -1.432878       -38.9906
  12   2.0000      -1.402093       -38.1529
  13   2.0000      -1.199511       -32.6404
  14   2.0000      -1.093464       -29.7547
  15   2.0000      -1.048768       -28.5384
  16   2.0000      -0.967174       -26.3181
  17   2.0000      -0.865514       -23.5518
  18   2.0000      -0.851116       -23.1601
  19   2.0000      -0.793778       -21.5998
  20   2.0000      -0.733351       -19.9555
  21   2.0000      -0.721495       -19.6329
  22   2.0000      -0.718602       -19.5541
  23   2.0000      -0.711008       -19.3475
  24   2.0000      -0.679311       -18.4850
  25   2.0000      -0.637291       -17.3416
  26   2.0000      -0.618754       -16.8372
  27   2.0000      -0.602060       -16.3829
  28   2.0000      -0.568642       -15.4735
  29   2.0000      -0.541793       -14.7429
  30   2.0000      -0.519809       -14.1447
  31   2.0000      -0.496767       -13.5177
  32   2.0000      -0.495758       -13.4903
  33   2.0000      -0.456023       -12.4090
  34   2.0000      -0.383200       -10.4274
  35   2.0000      -0.348356        -9.4793
  36   0.0000       0.016479         0.4484
  37   0.0000       0.028569         0.7774
  38   0.0000       0.034185         0.9302
  39   0.0000       0.038567         1.0495
  40   0.0000       0.049102         1.3361

MULLIKEN ATOMIC CHARGES
-----------------------
   0 C :   -0.403060
   1 C :   -0.572001
   2 C :   -0.703391
   3 C :   -0.746402
   4 C :    0.547689
   5 C :    0.901869
   6 N :    0.760447
   7 O :   -0.678730
   8 O :   -0.681265
   9 O :   -0.732092
  10 H :    0.472876
  11 H :    0.582076
  12 H :    0.463908
  13 H :    0.623250
  14 H :    0.164826
Sum of atomic charges:    0.0000000

LOEWDIN ATOMIC CHARGES
----------------------
   0 C :    0.206930
   1 C :    0.207117
   2 C :    0.230237
   3 C :    0.226727
   4 C :   -0.221973
   5 C :   -0.360492
   6 N :   -0.704030
   7 O :    0.393211
   8 O :    0.395015
   9 O :    0.846403
  10 H :   -0.176318
  11 H :   -0.200649
  12 H :   -0.176821
  13 H :   -0.192712
  14 H :   -0.472647

  Mayer bond orders larger than 0.100000
B(  0-C ,  1-C ) :   1.1645 B(  0-C ,  2-C ) :   1.2161 B(  0-C ,  4-C ) :  -0.2838
B(  0-C , 10-H ) :   0.7432 B(  1-C ,  2-C ) :   0.3241 B(  1-C ,  3-C ) :   0.3756
B(  1-C ,  4-C ) :   0.7439 B(  1-C ,  6-N ) :  -0.1648 B(  1-C , 11-H ) :   0.5633
B(  2-C ,  3-C ) :   0.4666 B(  2-C ,  4-C ) :  -0.1083 B(  2-C ,  5-C ) :   0.9351
B(  2-C ,  9-O ) :  -0.1598 B(  2-C , 10-H ) :  -0.1303 B(  2-C , 12-H ) :   0.7094
B(  3-C ,  4-C ) :   0.7644 B(  3-C ,  5-C ) :   0.8738 B(  3-C ,  6-N ) :  -0.2527
B(  3-C ,  8-O ) :  -0.1175 B(  3-C , 13-H ) :   0.4044 B(  4-C ,  5-C ) :  -0.1281
B(  4-C ,  6-N ) :   1.2984 B(  4-C ,  7-O ) :   0.3236 B(  4-C ,  8-O ) :   0.2948
B(  5-C ,  9-O ) :   0.6363 B(  6-N ,  7-O ) :   1.0335 B(  6-N ,  8-O ) :   1.0557
B(  7-O ,  8-O ) :   0.1170 B(  9-O , 14-H ) :   1.0449

MP2 TOTAL ENERGY:     -511.113644769 Eh
FINAL SINGLE POINT ENERGY      -511.113644768779

DIPOLE MOMENT
-------------
                                X             Y             Z
Electronic contribution:     -3.04680       3.99593       0.00000
Nuclear contribution   :      4.44948      -6.00993       0.00000
                        -----------------------------------------
Total Dipole Moment    :      1.40267      -2.01400       0.00000
                        -----------------------------------------
Magnitude (a.u.)       :      2.45432
Magnitude (Debye)      :      6.23839

Rotational constants in cm-1:     0.091467     0.032955     0.024227
Rotational constants in MHz :  2742.098430   987.979507   726.295027

                             ****ORCA TERMINATED NORMALLY****
TOTAL RUN TIME: 0 days 0 hours 7 minutes 48 seconds 770 msec
