                         Program Version 5.0.3 -  RELEASE  -
|  1> !ri-mp2 aug-cc-pvtz aug-cc-pvtz/c tightscf
|  2> %pal nprocs 16 end
|  3>
|  4> * xyz 0 1
|  5> C      1.860208   -1.388426    0.000000
|  6> N      1.300486   -0.046394    0.000000
|  7> C      0.000000    0.288733    0.000000
|  8> S     -0.535187    1.859700    0.000000
|  9> S     -1.092712   -1.125087    0.000000
| 10> H      1.555773   -1.946049    0.887371
| 11> H      1.555773   -1.946049   -0.887371
| 12> H      2.943735   -1.305923    0.000000
| 13> H      1.930390    0.739868    0.000000
| 14> H     -2.203937   -0.372747    0.000000
| 15> *
| 16>
| 17>                          ****END OF INPUT****

CARTESIAN COORDINATES (ANGSTROEM)
---------------------------------
  C      1.860208   -1.388426    0.000000
  N      1.300486   -0.046394    0.000000
  C      0.000000    0.288733    0.000000
  S     -0.535187    1.859700    0.000000
  S     -1.092712   -1.125087    0.000000
  H      1.555773   -1.946049    0.887371
  H      1.555773   -1.946049   -0.887371
  H      2.943735   -1.305923    0.000000
  H      1.930390    0.739868    0.000000
  H     -2.203937   -0.372747    0.000000

 Total Charge           Charge          ....    0
 Multiplicity           Mult            ....    1
 Number of Electrons    NEL             ....   56
 Basis Dimension        Dim             ....  353

ORBITAL ENERGIES
----------------

  NO   OCC          E(Eh)            E(eV)
   0   2.0000     -91.993431     -2503.2685
   1   2.0000     -91.904491     -2500.8483
   2   2.0000     -15.623135      -425.1271
   3   2.0000     -11.382935      -309.7454
   4   2.0000     -11.291298      -307.2518
   5   2.0000      -8.994954      -244.7651
   6   2.0000      -8.907677      -242.3902
   7   2.0000      -6.676108      -181.6661
   8   2.0000      -6.675153      -181.6401
   9   2.0000      -6.674264      -181.6159
  10   2.0000      -6.589138      -179.2996
  11   2.0000      -6.587303      -179.2496
  12   2.0000      -6.586605      -179.2306
  13   2.0000      -1.297222       -35.2992
  14   2.0000      -1.071624       -29.1604
  15   2.0000      -0.992410       -27.0048
  16   2.0000      -0.927210       -25.2307
  17   2.0000      -0.809639       -22.0314
  18   2.0000      -0.681126       -18.5344
  19   2.0000      -0.647932       -17.6311
  20   2.0000      -0.628059       -17.0904
  21   2.0000      -0.579212       -15.7611
  22   2.0000      -0.556698       -15.1485
  23   2.0000      -0.519146       -14.1267
  24   2.0000      -0.487244       -13.2586
  25   2.0000      -0.403636       -10.9835
  26   2.0000      -0.330744        -9.0000
  27   2.0000      -0.328801        -8.9471
  28   0.0000       0.021756         0.5920
  29   0.0000       0.036936         1.0051
  30   0.0000       0.043693         1.1889
  31   0.0000       0.043912         1.1949
  32   0.0000       0.055588         1.5126

MULLIKEN ATOMIC CHARGES
-----------------------
   0 C :   -0.876798
   1 N :   -0.058191
   2 C :    0.173951
   3 S :   -0.492237
   4 S :   -0.089664
   5 H :    0.358529
   6 H :    0.358529
   7 H :    0.363171
   8 H :    0.161325
   9 H :    0.101385
Sum of atomic charges:    0.0000000

LOEWDIN ATOMIC CHARGES
----------------------
   0 C :    0.443944
   1 N :    0.354790
   2 C :   -1.383922
   3 S :    0.764152
   4 S :    1.272750
   5 H :   -0.182353
   6 H :   -0.182353
   7 H :   -0.166194
   8 H :   -0.327056
   9 H :   -0.593758

  Mayer bond orders larger than 0.100000
B(  0-C ,  1-N ) :   0.8414 B(  0-C ,  5-H ) :   0.8798 B(  0-C ,  6-H ) :   0.8798
B(  0-C ,  7-H ) :   0.8998 B(  1-N ,  2-C ) :   1.3532 B(  1-N ,  8-H ) :   0.9942
B(  2-C ,  3-S ) :   1.5466 B(  2-C ,  4-S ) :   0.9069 B(  4-S ,  9-H ) :   1.0802

MP2 TOTAL ENERGY:     -929.144245967 Eh
FINAL SINGLE POINT ENERGY      -929.144245967397

DIPOLE MOMENT
-------------
                                X             Y             Z
Electronic contribution:     -4.70703       3.37350      -0.00000
Nuclear contribution   :      5.72972      -4.76251       0.00000
                        -----------------------------------------
Total Dipole Moment    :      1.02269      -1.38901      -0.00000
                        -----------------------------------------
Magnitude (a.u.)       :      1.72489
Magnitude (Debye)      :      4.38431

Rotational constants in cm-1:     0.139378     0.083302     0.052657
Rotational constants in MHz :  4178.442708  2497.320255  1578.605208

                             ****ORCA TERMINATED NORMALLY****
TOTAL RUN TIME: 0 days 0 hours 1 minutes 52 seconds 817 msec
