                         Program Version 5.0.3 -  RELEASE  -
|  1> !ri-mp2 aug-cc-pvtz aug-cc-pvtz/c tightscf
|  2> %pal nprocs 16 end
|  3>
|  4> * xyz 0 1
|  5> O      0.000000    0.802908    0.000000
|  6> Cl    -0.811552   -0.704077    0.000000
|  7> C      1.415082    0.620626    0.000000
|  8> H      1.809715    1.636753    0.000000
|  9> H      1.748086    0.092767    0.894890
| 10> H      1.748086    0.092767   -0.894890
| 11> *
| 12>
| 13>                          ****END OF INPUT****

CARTESIAN COORDINATES (ANGSTROEM)
---------------------------------
  O      0.000000    0.802908    0.000000
  Cl    -0.811552   -0.704077    0.000000
  C      1.415082    0.620626    0.000000
  H      1.809715    1.636753    0.000000
  H      1.748086    0.092767    0.894890
  H      1.748086    0.092767   -0.894890

 Total Charge           Charge          ....    0
 Multiplicity           Mult            ....    1
 Number of Electrons    NEL             ....   34
 Basis Dimension        Dim             ....  211

ORBITAL ENERGIES
----------------

  NO   OCC          E(Eh)            E(eV)
   0   2.0000    -104.883157     -2854.0158
   1   2.0000     -20.635677      -561.5253
   2   2.0000     -11.295677      -307.3710
   3   2.0000     -10.602329      -288.5040
   4   2.0000      -8.069360      -219.5784
   5   2.0000      -8.066498      -219.5006
   6   2.0000      -8.066366      -219.4970
   7   2.0000      -1.405565       -38.2474
   8   2.0000      -1.073610       -29.2144
   9   2.0000      -0.924936       -25.1688
  10   2.0000      -0.669626       -18.2214
  11   2.0000      -0.659330       -17.9413
  12   2.0000      -0.647051       -17.6071
  13   2.0000      -0.531380       -14.4596
  14   2.0000      -0.523033       -14.2325
  15   2.0000      -0.459674       -12.5084
  16   2.0000      -0.432296       -11.7634
  17   0.0000       0.029337         0.7983
  18   0.0000       0.045794         1.2461
  19   0.0000       0.046984         1.2785
  20   0.0000       0.067144         1.8271
  21   0.0000       0.071677         1.9504

MULLIKEN ATOMIC CHARGES
-----------------------
   0 O :   -0.479301
   1 Cl:    0.063140
   2 C :   -0.589025
   3 H :    0.335813
   4 H :    0.334687
   5 H :    0.334687
Sum of atomic charges:    0.0000000

LOEWDIN ATOMIC CHARGES
----------------------
   0 O :   -0.062557
   1 Cl:    0.542825
   2 C :    0.153144
   3 H :   -0.204846
   4 H :   -0.214283
   5 H :   -0.214283

  Mayer bond orders larger than 0.100000
B(  0-O ,  1-Cl) :   0.8730 B(  0-O ,  2-C ) :   0.7644 B(  2-C ,  3-H ) :   0.8751
B(  2-C ,  4-H ) :   0.9000 B(  2-C ,  5-H ) :   0.9000

MP2 TOTAL ENERGY:     -574.582201673 Eh
FINAL SINGLE POINT ENERGY      -574.582201672879

DIPOLE MOMENT
-------------
                                X             Y             Z
Electronic contribution:     -5.44592      -2.77658      -0.00000
Nuclear contribution   :      6.21088       2.72970       0.00000
                        -----------------------------------------
Total Dipole Moment    :      0.76496      -0.04689      -0.00000
                        -----------------------------------------
Magnitude (a.u.)       :      0.76639
Magnitude (Debye)      :      1.94802

Rotational constants in cm-1:     1.424311     0.203722     0.184529
Rotational constants in MHz : 42699.764873  6107.440117  5532.046947

                             ****ORCA TERMINATED NORMALLY****
TOTAL RUN TIME: 0 days 0 hours 0 minutes 35 seconds 207 msec
