                         Program Version 5.0.3 -  RELEASE  -
|  1> !ri-mp2 aug-cc-pvtz aug-cc-pvtz/c tightscf
|  2> %pal nprocs 16 end
|  3>
|  4> * xyz 0 1
|  5> C     -1.176124   -0.240930   -0.001430
|  6> N      0.026647    0.569467   -0.122671
|  7> N      1.244597   -0.148622    0.053689
|  8> H      1.130779   -0.914669    0.717137
|  9> H      1.508519   -0.549814   -0.837623
| 10> H     -1.242751   -0.927801   -0.846695
| 11> H     -1.212149   -0.834846    0.925321
| 12> H     -2.049950    0.411665   -0.026287
| 13> H      0.023585    1.315124    0.559605
| 14> *
| 15>
| 16>                          ****END OF INPUT****

CARTESIAN COORDINATES (ANGSTROEM)
---------------------------------
  C     -1.176124   -0.240930   -0.001430
  N      0.026647    0.569467   -0.122671
  N      1.244597   -0.148622    0.053689
  H      1.130779   -0.914669    0.717137
  H      1.508519   -0.549814   -0.837623
  H     -1.242751   -0.927801   -0.846695
  H     -1.212149   -0.834846    0.925321
  H     -2.049950    0.411665   -0.026287
  H      0.023585    1.315124    0.559605

 Total Charge           Charge          ....    0
 Multiplicity           Mult            ....    1
 Number of Electrons    NEL             ....   26
 Basis Dimension        Dim             ....  276

ORBITAL ENERGIES
----------------

  NO   OCC          E(Eh)            E(eV)
   0   2.0000     -15.571196      -423.7138
   1   2.0000     -15.568049      -423.6281
   2   2.0000     -11.247184      -306.0514
   3   2.0000      -1.269790       -34.5527
   4   2.0000      -1.048379       -28.5278
   5   2.0000      -0.889384       -24.2014
   6   2.0000      -0.681994       -18.5580
   7   2.0000      -0.646059       -17.5802
   8   2.0000      -0.622898       -16.9499
   9   2.0000      -0.567589       -15.4449
  10   2.0000      -0.530156       -14.4263
  11   2.0000      -0.409211       -11.1352
  12   2.0000      -0.385390       -10.4870
  13   0.0000       0.029038         0.7902
  14   0.0000       0.039887         1.0854
  15   0.0000       0.043805         1.1920
  16   0.0000       0.047644         1.2964
  17   0.0000       0.064797         1.7632

MULLIKEN ATOMIC CHARGES
-----------------------
   0 C :   -0.804863
   1 N :   -0.163828
   2 N :   -0.418952
   3 H :    0.144386
   4 H :    0.161093
   5 H :    0.336051
   6 H :    0.312537
   7 H :    0.342734
   8 H :    0.090842
Sum of atomic charges:   -0.0000000

LOEWDIN ATOMIC CHARGES
----------------------
   0 C :    0.440349
   1 N :    0.403672
   2 N :    0.711867
   3 H :   -0.339929
   4 H :   -0.342151
   5 H :   -0.181394
   6 H :   -0.175148
   7 H :   -0.179356
   8 H :   -0.337910

  Mayer bond orders larger than 0.100000
B(  0-C ,  1-N ) :   0.8972 B(  0-C ,  5-H ) :   0.8911 B(  0-C ,  6-H ) :   0.8963
B(  0-C ,  7-H ) :   0.8953 B(  1-N ,  2-N ) :   0.6719 B(  1-N ,  8-H ) :   0.9884
B(  2-N ,  3-H ) :   0.9724 B(  2-N ,  4-H ) :   0.9735

MP2 TOTAL ENERGY:     -150.893353716 Eh
FINAL SINGLE POINT ENERGY      -150.893353716244

DIPOLE MOMENT
-------------
                                X             Y             Z
Electronic contribution:      1.50587       1.08452      -0.26072
Nuclear contribution   :     -1.94428      -1.58750       0.52044
                        -----------------------------------------
Total Dipole Moment    :     -0.43841      -0.50298       0.25971
                        -----------------------------------------
Magnitude (a.u.)       :      0.71599
Magnitude (Debye)      :      1.81990

Rotational constants in cm-1:     1.248982     0.321439     0.284346
Rotational constants in MHz : 37443.539027  9636.513005  8524.491498

                             ****ORCA TERMINATED NORMALLY****
TOTAL RUN TIME: 0 days 0 hours 0 minutes 56 seconds 519 msec
