                         Program Version 5.0.3 -  RELEASE  -
|  1> !ri-mp2 aug-cc-pvtz aug-cc-pvtz/c tightscf
|  2> %pal nprocs 16 end
|  3>
|  4> * xyz 0 1
|  5> C     -0.122869    0.390343   -0.000727
|  6> N      1.132778   -0.147911   -0.053004
|  7> N     -1.171312   -0.329822    0.010738
|  8> H     -0.118022    1.483848   -0.004688
|  9> H      1.919698    0.417616    0.206986
| 10> H      1.214009   -1.140910    0.095135
| 11> H     -2.008734    0.241521    0.002787
| 12> *
| 13>
| 14>                          ****END OF INPUT****

CARTESIAN COORDINATES (ANGSTROEM)
---------------------------------
  C     -0.122869    0.390343   -0.000727
  N      1.132778   -0.147911   -0.053004
  N     -1.171312   -0.329822    0.010738
  H     -0.118022    1.483848   -0.004688
  H      1.919698    0.417616    0.206986
  H      1.214009   -1.140910    0.095135
  H     -2.008734    0.241521    0.002787

 Total Charge           Charge          ....    0
 Multiplicity           Mult            ....    1
 Number of Electrons    NEL             ....   24
 Basis Dimension        Dim             ....  230

ORBITAL ENERGIES
----------------

  NO   OCC          E(Eh)            E(eV)
   0   2.0000     -15.575820      -423.8396
   1   2.0000     -15.524112      -422.4326
   2   2.0000     -11.314348      -307.8791
   3   2.0000      -1.257611       -34.2213
   4   2.0000      -1.142108       -31.0783
   5   2.0000      -0.826962       -22.5028
   6   2.0000      -0.742286       -20.1986
   7   2.0000      -0.634718       -17.2716
   8   2.0000      -0.623411       -16.9639
   9   2.0000      -0.527737       -14.3605
  10   2.0000      -0.421367       -11.4660
  11   2.0000      -0.367748       -10.0069
  12   0.0000       0.024720         0.6727
  13   0.0000       0.036894         1.0039
  14   0.0000       0.045277         1.2320
  15   0.0000       0.062971         1.7135
  16   0.0000       0.082181         2.2363

MULLIKEN ATOMIC CHARGES
-----------------------
   0 C :   -0.151311
   1 N :   -0.295819
   2 N :   -0.583988
   3 H :    0.553620
   4 H :    0.117132
   5 H :    0.191002
   6 H :    0.169364
Sum of atomic charges:    0.0000000

LOEWDIN ATOMIC CHARGES
----------------------
   0 C :   -0.156364
   1 N :    0.816087
   2 N :    0.606860
   3 H :   -0.170248
   4 H :   -0.319039
   5 H :   -0.307800
   6 H :   -0.469496

  Mayer bond orders larger than 0.100000
B(  0-C ,  1-N ) :   1.0068 B(  0-C ,  2-N ) :   1.6102 B(  0-C ,  3-H ) :   0.6298
B(  1-N ,  4-H ) :   1.0667 B(  1-N ,  5-H ) :   0.9705 B(  2-N ,  6-H ) :   0.9217

MP2 TOTAL ENERGY:     -149.736575684 Eh
FINAL SINGLE POINT ENERGY      -149.736575683938

DIPOLE MOMENT
-------------
                                X             Y             Z
Electronic contribution:     -0.23130      -0.21213      -0.06279
Nuclear contribution   :      1.02996       1.02233       0.30690
                        -----------------------------------------
Total Dipole Moment    :      0.79866       0.81020       0.24411
                        -----------------------------------------
Magnitude (a.u.)       :      1.16356
Magnitude (Debye)      :      2.95753

Rotational constants in cm-1:     2.262087     0.360517     0.311943
Rotational constants in MHz : 67815.660741 10808.039101  9351.812258

                             ****ORCA TERMINATED NORMALLY****
TOTAL RUN TIME: 0 days 0 hours 0 minutes 40 seconds 283 msec
