                         Program Version 5.0.3 -  RELEASE  -
|  1> !ri-mp2 aug-cc-pvtz aug-cc-pvtz/c tightscf
|  2> %pal nprocs 16 end
|  3>
|  4> * xyz 0 1
|  5> C      2.631509    0.344451    0.000050
|  6> C      1.698472    1.371404   -0.000121
|  7> C      2.188597   -0.975522    0.000179
|  8> C      0.334547    1.093914   -0.000188
|  9> C      0.832934   -1.262341    0.000136
| 10> C     -0.109855   -0.227934   -0.000068
| 11> C     -2.721440    0.856894    0.000405
| 12> S     -1.818130   -0.717138   -0.000261
| 13> H      3.689808    0.566132    0.000100
| 14> H      2.026789    2.402640   -0.000214
| 15> H      2.903178   -1.788083    0.000345
| 16> H     -0.367984    1.913568   -0.000322
| 17> H      0.498331   -2.291718    0.000281
| 18> H     -2.506706    1.440121    0.893802
| 19> H     -3.774965    0.585558    0.000442
| 20> H     -2.506952    1.440801   -0.892611
| 21> *
| 22>
| 23>                          ****END OF INPUT****

CARTESIAN COORDINATES (ANGSTROEM)
---------------------------------
  C      2.631509    0.344451    0.000050
  C      1.698472    1.371404   -0.000121
  C      2.188597   -0.975522    0.000179
  C      0.334547    1.093914   -0.000188
  C      0.832934   -1.262341    0.000136
  C     -0.109855   -0.227934   -0.000068
  C     -2.721440    0.856894    0.000405
  S     -1.818130   -0.717138   -0.000261
  H      3.689808    0.566132    0.000100
  H      2.026789    2.402640   -0.000214
  H      2.903178   -1.788083    0.000345
  H     -0.367984    1.913568   -0.000322
  H      0.498331   -2.291718    0.000281
  H     -2.506706    1.440121    0.893802
  H     -3.774965    0.585558    0.000442
  H     -2.506952    1.440801   -0.892611

 Total Charge           Charge          ....    0
 Multiplicity           Mult            ....    1
 Number of Electrons    NEL             ....   66
 Basis Dimension        Dim             ....  556

ORBITAL ENERGIES
----------------

  NO   OCC          E(Eh)            E(eV)
   0   2.0000     -91.959880     -2502.3556
   1   2.0000     -11.273070      -306.7558
   2   2.0000     -11.260511      -306.4141
   3   2.0000     -11.239995      -305.8558
   4   2.0000     -11.239315      -305.8373
   5   2.0000     -11.237758      -305.7949
   6   2.0000     -11.236352      -305.7567
   7   2.0000     -11.232382      -305.6486
   8   2.0000      -8.959931      -243.8121
   9   2.0000      -6.641315      -180.7194
  10   2.0000      -6.640224      -180.6897
  11   2.0000      -6.639347      -180.6658
  12   2.0000      -1.163669       -31.6650
  13   2.0000      -1.069259       -29.0960
  14   2.0000      -1.021579       -27.7986
  15   2.0000      -0.998456       -27.1694
  16   2.0000      -0.884046       -24.0561
  17   2.0000      -0.831458       -22.6251
  18   2.0000      -0.792021       -21.5520
  19   2.0000      -0.701235       -19.0816
  20   2.0000      -0.634751       -17.2725
  21   2.0000      -0.632571       -17.2131
  22   2.0000      -0.607710       -16.5366
  23   2.0000      -0.598184       -16.2774
  24   2.0000      -0.588624       -16.0173
  25   2.0000      -0.548750       -14.9322
  26   2.0000      -0.516629       -14.0582
  27   2.0000      -0.506301       -13.7772
  28   2.0000      -0.490214       -13.3394
  29   2.0000      -0.445040       -12.1102
  30   2.0000      -0.400734       -10.9045
  31   2.0000      -0.343368        -9.3435
  32   2.0000      -0.298699        -8.1280
  33   0.0000       0.028042         0.7631
  34   0.0000       0.031032         0.8444
  35   0.0000       0.035302         0.9606
  36   0.0000       0.045072         1.2265
  37   0.0000       0.046910         1.2765

MULLIKEN ATOMIC CHARGES
-----------------------
   0 C :   -0.473913
   1 C :   -0.573679
   2 C :   -0.334866
   3 C :   -0.675014
   4 C :   -1.069755
   5 C :    1.308172
   6 C :   -0.820885
   7 S :   -0.375843
   8 H :    0.460568
   9 H :    0.396050
  10 H :    0.404410
  11 H :    0.445804
  12 H :    0.498887
  13 H :    0.279220
  14 H :    0.251627
  15 H :    0.279217
Sum of atomic charges:   -0.0000000

LOEWDIN ATOMIC CHARGES
----------------------
   0 C :    0.189889
   1 C :    0.187315
   2 C :    0.183390
   3 C :    0.132699
   4 C :    0.105858
   5 C :   -0.512601
   6 C :    0.223869
   7 S :    1.208768
   8 H :   -0.189065
   9 H :   -0.183635
  10 H :   -0.183580
  11 H :   -0.225559
  12 H :   -0.202537
  13 H :   -0.239781
  14 H :   -0.255234
  15 H :   -0.239796

  Mayer bond orders larger than 0.100000
B(  0-C ,  1-C ) :   1.1377 B(  0-C ,  2-C ) :   1.0925 B(  0-C ,  3-C ) :   0.1444
B(  0-C ,  4-C ) :   0.2584 B(  0-C ,  5-C ) :  -0.1204 B(  0-C ,  8-H ) :   0.7871
B(  1-C ,  2-C ) :  -0.1026 B(  1-C ,  3-C ) :   1.0443 B(  1-C ,  5-C ) :  -0.1685
B(  1-C ,  9-H ) :   0.9367 B(  2-C ,  4-C ) :   1.1049 B(  2-C , 10-H ) :   0.9468
B(  3-C ,  4-C ) :   0.3684 B(  3-C ,  5-C ) :   0.6944 B(  3-C , 11-H ) :   0.7315
B(  4-C ,  5-C ) :   0.7240 B(  4-C ,  7-S ) :   0.1526 B(  4-C , 12-H ) :   0.6473
B(  5-C ,  7-S ) :   0.6342 B(  6-C ,  7-S ) :   0.9970 B(  6-C , 13-H ) :   0.9308
B(  6-C , 14-H ) :   0.9840 B(  6-C , 15-H ) :   0.9308

MP2 TOTAL ENERGY:     -668.693412616 Eh
FINAL SINGLE POINT ENERGY      -668.693412615913

DIPOLE MOMENT
-------------
                                X             Y             Z
Electronic contribution:     -0.01363      -3.70199      -0.00155
Nuclear contribution   :      0.01757       4.28257       0.00183
                        -----------------------------------------
Total Dipole Moment    :      0.00394       0.58059       0.00028
                        -----------------------------------------
Magnitude (a.u.)       :      0.58060
Magnitude (Debye)      :      1.47577

Rotational constants in cm-1:     0.141727     0.038683     0.030566
Rotational constants in MHz :  4248.864622  1159.698785   916.351142

                             ****ORCA TERMINATED NORMALLY****
TOTAL RUN TIME: 0 days 0 hours 7 minutes 0 seconds 530 msec
